                         Program Version 3.0.3 - RELEASE   -
|  1> ! RI PBE def2-SVP def2-SVP/J NBO PAL2
|  2> % maxcore 2000
|  3> % output
|  4>     # printlevel mini
|  5>     print[ P_Basis ] 0
|  6>     print[ P_SCFInfo ] 1
|  7>     print[ P_SCFIterInfo ] 1
|  8>     print[ P_OrbEn ] 0
|  9>     print[ P_Cartesian ] 0
| 10> end
| 11> *xyz 0 1
| 12>  N        1.1701500000    -0.3045810000     0.2879200000
| 13>  C        2.3745140000     0.0814360000     0.2545920000
| 14>  C        2.9821370000     1.3240390000    -0.2529700000
| 15>  C        4.3105270000     1.2362640000    -0.1610270000
| 16>  C        4.6758950000    -0.0654320000     0.4355400000
| 17>  C        4.2829920000    -1.2829820000    -0.3201610000
| 18>  N        3.4286200000    -0.7563710000     0.7407510000
| 19>  H        0.5636910000     0.4077850000    -0.1128430000
| 20>  H        2.4118580000     2.1334420000    -0.6895390000
| 21>  H        5.0311650000     1.9864650000    -0.4605010000
| 22>  H        5.4670030000    -0.1234220000     1.1760840000
| 23>  H        4.7557400000    -2.2330150000    -0.0958360000
| 24>  H        3.9534190000    -1.1475270000    -1.3459290000
| 25> *
| 26>
| 27>                          ****END OF INPUT****
 Total Charge           Charge          ....    0
 Multiplicity           Mult            ....    1
 Number of Electrons    NEL             ....   50
 Basis Dimension        Dim             ....  128

MULLIKEN ATOMIC CHARGES
-----------------------
   0 N :   -0.028699
   1 C :   -0.103252
   2 C :   -0.004341
   3 C :    0.052209
   4 C :   -0.041081
   5 C :    0.121144
   6 N :   -0.199015
   7 H :    0.087944
   8 H :   -0.021618
   9 H :    0.004343
  10 H :    0.041516
  11 H :    0.047235
  12 H :    0.043615
Sum of atomic charges:   -0.0000000

LOEWDIN ATOMIC CHARGES
----------------------
   0 N :   -0.108603
   1 C :   -0.004412
   2 C :   -0.056088
   3 C :   -0.004296
   4 C :   -0.000399
   5 C :    0.049771
   6 N :   -0.072472
   7 H :    0.051464
   8 H :    0.028729
   9 H :    0.031270
  10 H :    0.031813
  11 H :    0.029071
  12 H :    0.024153

  Mayer bond orders larger than 0.1
B(  0-N ,  1-C ) :   2.0069 B(  0-N ,  7-H ) :   0.9201 B(  1-C ,  2-C ) :   0.9976
B(  1-C ,  6-N ) :   1.0414 B(  2-C ,  3-C ) :   1.7020 B(  2-C ,  8-H ) :   0.9963
B(  3-C ,  4-C ) :   1.0152 B(  3-C ,  9-H ) :   0.9876 B(  4-C ,  5-C ) :   1.0208
B(  4-C ,  6-N ) :   0.9360 B(  4-C , 10-H ) :   0.9401 B(  5-C ,  6-N ) :   0.9516
B(  5-C , 11-H ) :   0.9443 B(  5-C , 12-H ) :   0.9208

FINAL SINGLE POINT ENERGY      -302.973613048771

DIPOLE MOMENT
-------------
                                X             Y             Z
Electronic contribution:     -1.33364      -0.06884       1.43455
Nuclear contribution   :      2.23012       0.85240      -2.16783
                        -----------------------------------------
Total Dipole Moment    :      0.89648       0.78356      -0.73328
                        -----------------------------------------
Magnitude (a.u.)       :      1.39833
Magnitude (Debye)      :      3.55428

                             ****ORCA TERMINATED NORMALLY****
TOTAL RUN TIME: 0 days 0 hours 0 minutes 6 seconds 693 msec
