                         Program Version 3.0.3 - RELEASE   -
|  1> ! RI PBE def2-SVP def2-SVP/J NBO PAL2
|  2> % maxcore 2000
|  3> % output
|  4>     # printlevel mini
|  5>     print[ P_Basis ] 0
|  6>     print[ P_SCFInfo ] 1
|  7>     print[ P_SCFIterInfo ] 1
|  8>     print[ P_OrbEn ] 0
|  9>     print[ P_Cartesian ] 0
| 10> end
| 11> *xyz 0 1
| 12>  N        1.4139400000     0.5747380000     0.7073450000
| 13>  C        2.4583950000    -0.0149800000    -0.1087830000
| 14>  C        2.3004890000    -1.4956270000    -0.5119900000
| 15>  C        3.1082650000    -1.6527030000    -1.8034190000
| 16>  C        3.0429850000    -0.2866340000    -2.4500140000
| 17>  N        1.7416620000     0.3639880000    -2.5289520000
| 18>  C        2.6413620000     0.7006870000    -1.4280560000
| 19>  H        1.2980040000     0.0613690000     1.5725020000
| 20>  H        0.5246190000     0.5471540000     0.2214960000
| 21>  H        3.3988260000     0.0996550000     0.4454710000
| 22>  H        1.2407260000    -1.7126750000    -0.6821910000
| 23>  H        2.6271710000    -2.1743210000     0.2782090000
| 24>  H        2.7319980000    -2.4513690000    -2.4498920000
| 25>  H        4.1540350000    -1.8876680000    -1.5798420000
| 26>  H        3.7274600000    -0.0451360000    -3.2561630000
| 27>  H        0.9999890000    -0.2633770000    -2.2341020000
| 28>  H        2.9948620000     1.7257060000    -1.4172090000
| 29> *
| 30>
| 31>                          ****END OF INPUT****
 Total Charge           Charge          ....    0
 Multiplicity           Mult            ....    1
 Number of Electrons    NEL             ....   54
 Basis Dimension        Dim             ....  148

MULLIKEN ATOMIC CHARGES
-----------------------
   0 N :   -0.141546
   1 C :    0.012779
   2 C :   -0.045252
   3 C :    0.125453
   4 C :   -0.106720
   5 N :   -0.138194
   6 C :   -0.044728
   7 H :    0.089182
   8 H :    0.076468
   9 H :    0.008167
  10 H :   -0.003992
  11 H :    0.010585
  12 H :    0.016449
  13 H :    0.016371
  14 H :    0.016335
  15 H :    0.093061
  16 H :    0.015583
Sum of atomic charges:   -0.0000000

LOEWDIN ATOMIC CHARGES
----------------------
   0 N :   -0.091527
   1 C :   -0.010158
   2 C :   -0.061675
   3 C :   -0.043729
   4 C :   -0.005054
   5 N :   -0.088278
   6 C :   -0.001783
   7 H :    0.052007
   8 H :    0.046784
   9 H :    0.027107
  10 H :    0.014374
  11 H :    0.026035
  12 H :    0.025568
  13 H :    0.030934
  14 H :    0.017930
  15 H :    0.041250
  16 H :    0.020215

  Mayer bond orders larger than 0.1
B(  0-N ,  1-C ) :   1.1319 B(  0-N ,  7-H ) :   0.9666 B(  0-N ,  8-H ) :   0.9608
B(  1-C ,  2-C ) :   1.0050 B(  1-C ,  6-C ) :   1.0102 B(  1-C ,  9-H ) :   0.8943
B(  2-C ,  3-C ) :   1.0648 B(  2-C , 10-H ) :   0.9148 B(  2-C , 11-H ) :   0.9211
B(  3-C ,  4-C ) :   1.0274 B(  3-C , 12-H ) :   0.9259 B(  3-C , 13-H ) :   0.9171
B(  4-C ,  5-N ) :   1.0043 B(  4-C ,  6-C ) :   0.9734 B(  4-C , 14-H ) :   0.9480
B(  5-N ,  6-C ) :   1.0080 B(  5-N , 15-H ) :   0.9456 B(  6-C , 16-H ) :   0.9517

FINAL SINGLE POINT ENERGY      -305.393572937701

DIPOLE MOMENT
-------------
                                X             Y             Z
Electronic contribution:     -0.15932       2.38330      -1.54364
Nuclear contribution   :      0.15738      -3.22804       2.01482
                        -----------------------------------------
Total Dipole Moment    :     -0.00194      -0.84474       0.47118
                        -----------------------------------------
Magnitude (a.u.)       :      0.96726
Magnitude (Debye)      :      2.45858

                             ****ORCA TERMINATED NORMALLY****
TOTAL RUN TIME: 0 days 0 hours 0 minutes 7 seconds 835 msec
