                         Program Version 3.0.3 - RELEASE   -
|  1> ! RI PBE def2-SVP def2-SVP/J NBO PAL2
|  2> % maxcore 2000
|  3> % output
|  4>     # printlevel mini
|  5>     print[ P_Basis ] 0
|  6>     print[ P_SCFInfo ] 1
|  7>     print[ P_SCFIterInfo ] 1
|  8>     print[ P_OrbEn ] 0
|  9>     print[ P_Cartesian ] 0
| 10> end
| 11> *xyz 0 1
| 12>  N        0.9984880000    -0.2842350000    -0.1284330000
| 13>  C        2.4114920000     0.0475540000    -0.0248840000
| 14>  C        2.7804970000     1.3199990000     0.7126610000
| 15>  C        3.7291350000     1.1137640000     1.6232600000
| 16>  C        4.0784170000    -0.3312940000     1.7039740000
| 17>  N        2.9865120000    -1.2100940000     2.1409070000
| 18>  C        3.2121990000    -1.0137010000     0.7151260000
| 19>  H        0.4981850000     0.4360670000    -0.6347090000
| 20>  H        0.5784290000    -0.3434160000     0.7920410000
| 21>  H        2.7961570000     0.1037020000    -1.0511800000
| 22>  H        2.2845480000     2.2653460000     0.5198430000
| 23>  H        4.1649210000     1.8670980000     2.2693650000
| 24>  H        5.0786690000    -0.6595870000     1.9602160000
| 25>  H        2.2162940000    -0.6383420000     2.4766550000
| 26>  H        3.5141570000    -1.9038600000     0.1770580000
| 27> *
| 28>
| 29>                          ****END OF INPUT****
 Total Charge           Charge          ....    0
 Multiplicity           Mult            ....    1
 Number of Electrons    NEL             ....   52
 Basis Dimension        Dim             ....  138

MULLIKEN ATOMIC CHARGES
-----------------------
   0 N :   -0.155792
   1 C :    0.089864
   2 C :   -0.073509
   3 C :    0.050046
   4 C :   -0.027782
   5 N :   -0.138312
   6 C :   -0.047388
   7 H :    0.091940
   8 H :    0.076626
   9 H :    0.022237
  10 H :   -0.015704
  11 H :   -0.008727
  12 H :    0.019732
  13 H :    0.094996
  14 H :    0.021772
Sum of atomic charges:   -0.0000000

LOEWDIN ATOMIC CHARGES
----------------------
   0 N :   -0.087628
   1 C :   -0.006693
   2 C :   -0.049864
   3 C :   -0.040111
   4 C :   -0.001581
   5 N :   -0.078757
   6 C :    0.005723
   7 H :    0.053369
   8 H :    0.045802
   9 H :    0.035149
  10 H :    0.016835
  11 H :    0.024058
  12 H :    0.020360
  13 H :    0.041315
  14 H :    0.022025

  Mayer bond orders larger than 0.1
B(  0-N ,  1-C ) :   1.1017 B(  0-N ,  7-H ) :   0.9649 B(  0-N ,  8-H ) :   0.9634
B(  1-C ,  2-C ) :   0.9634 B(  1-C ,  6-C ) :   1.0054 B(  1-C ,  9-H ) :   0.8869
B(  2-C ,  3-C ) :   1.7841 B(  2-C , 10-H ) :   0.9753 B(  3-C ,  4-C ) :   0.9884
B(  3-C , 11-H ) :   0.9952 B(  4-C ,  5-N ) :   0.9833 B(  4-C ,  6-C ) :   0.9724
B(  4-C , 12-H ) :   0.9512 B(  5-N ,  6-C ) :   1.0152 B(  5-N , 13-H ) :   0.9418
B(  6-C , 14-H ) :   0.9477

FINAL SINGLE POINT ENERGY      -304.169168507469

DIPOLE MOMENT
-------------
                                X             Y             Z
Electronic contribution:      1.21976      -0.64193       0.90170
Nuclear contribution   :     -1.40748       1.52970      -1.04122
                        -----------------------------------------
Total Dipole Moment    :     -0.18772       0.88777      -0.13952
                        -----------------------------------------
Magnitude (a.u.)       :      0.91807
Magnitude (Debye)      :      2.33354

                             ****ORCA TERMINATED NORMALLY****
TOTAL RUN TIME: 0 days 0 hours 0 minutes 6 seconds 768 msec
