                         Program Version 3.0.3 - RELEASE   -
|  1> ! RI PBE def2-SVP def2-SVP/J NBO PAL2
|  2> % maxcore 2000
|  3> % output
|  4>     # printlevel mini
|  5>     print[ P_Basis ] 0
|  6>     print[ P_SCFInfo ] 1
|  7>     print[ P_SCFIterInfo ] 1
|  8>     print[ P_OrbEn ] 0
|  9>     print[ P_Cartesian ] 0
| 10> end
| 11> *xyz 0 1
| 12>  N        1.0131140000     0.0454340000    -0.1306210000
| 13>  C        2.4642580000    -0.0407530000    -0.1100720000
| 14>  C        3.1091880000    -1.2619860000    -0.7211240000
| 15>  C        4.0991550000    -0.9508350000    -1.5498750000
| 16>  C        4.3043140000     0.5323910000    -1.6485080000
| 17>  C        3.1180670000     1.0857980000    -0.8950410000
| 18>  C        2.6473800000     2.3214850000    -0.9646470000
| 19>  H        0.6028000000    -0.6856150000     0.4374060000
| 20>  H        0.6740360000    -0.0752030000    -1.0783990000
| 21>  H        2.7618080000     0.0298340000     0.9469590000
| 22>  H        2.7951080000    -2.2687620000    -0.4674000000
| 23>  H        4.7181920000    -1.6649710000    -2.0808120000
| 24>  H        4.3474720000     0.8936310000    -2.6809000000
| 25>  H        5.2528800000     0.8269850000    -1.1795680000
| 26>  H        3.1287360000     3.0784750000    -1.5746380000
| 27>  H        1.7556940000     2.6029820000    -0.4165690000
| 28> *
| 29>
| 30>                          ****END OF INPUT****
 Total Charge           Charge          ....    0
 Multiplicity           Mult            ....    1
 Number of Electrons    NEL             ....   52
 Basis Dimension        Dim             ....  143

MULLIKEN ATOMIC CHARGES
-----------------------
   0 N :   -0.166558
   1 C :    0.123468
   2 C :   -0.036864
   3 C :   -0.079489
   4 C :    0.171545
   5 C :   -0.229339
   6 C :   -0.012935
   7 H :    0.087924
   8 H :    0.083471
   9 H :    0.025465
  10 H :   -0.023565
  11 H :   -0.013940
  12 H :    0.023515
  13 H :    0.034418
  14 H :   -0.000698
  15 H :    0.013581
Sum of atomic charges:   -0.0000000

LOEWDIN ATOMIC CHARGES
----------------------
   0 N :   -0.084490
   1 C :    0.000280
   2 C :   -0.057488
   3 C :   -0.030780
   4 C :   -0.034458
   5 C :   -0.029486
   6 C :   -0.063310
   7 H :    0.051889
   8 H :    0.050850
   9 H :    0.035741
  10 H :    0.016674
  11 H :    0.020655
  12 H :    0.035867
  13 H :    0.042547
  14 H :    0.020372
  15 H :    0.025136

  Mayer bond orders larger than 0.1
B(  0-N ,  1-C ) :   1.1192 B(  0-N ,  7-H ) :   0.9647 B(  0-N ,  8-H ) :   0.9660
B(  1-C ,  2-C ) :   0.9851 B(  1-C ,  5-C ) :   0.9854 B(  1-C ,  9-H ) :   0.8596
B(  2-C ,  3-C ) :   1.8414 B(  2-C , 10-H ) :   0.9852 B(  3-C ,  4-C ) :   1.0228
B(  3-C , 11-H ) :   0.9830 B(  4-C ,  5-C ) :   1.0287 B(  4-C , 12-H ) :   0.9118
B(  4-C , 13-H ) :   0.8902 B(  5-C ,  6-C ) :   2.0488 B(  6-C , 14-H ) :   0.9284
B(  6-C , 15-H ) :   0.9157

FINAL SINGLE POINT ENERGY      -288.165702525923

DIPOLE MOMENT
-------------
                                X             Y             Z
Electronic contribution:      0.29809      -0.96390       0.30158
Nuclear contribution   :     -0.21545       0.46843      -0.42574
                        -----------------------------------------
Total Dipole Moment    :      0.08264      -0.49547      -0.12416
                        -----------------------------------------
Magnitude (a.u.)       :      0.51743
Magnitude (Debye)      :      1.31520

                             ****ORCA TERMINATED NORMALLY****
TOTAL RUN TIME: 0 days 0 hours 0 minutes 7 seconds 271 msec
