                         Program Version 3.0.3 - RELEASE   -
|  1> ! RI PBE def2-SVP def2-SVP/J NBO PAL2
|  2> % maxcore 2000
|  3> % output
|  4>     # printlevel mini
|  5>     print[ P_Basis ] 0
|  6>     print[ P_SCFInfo ] 1
|  7>     print[ P_SCFIterInfo ] 1
|  8>     print[ P_OrbEn ] 0
|  9>     print[ P_Cartesian ] 0
| 10> end
| 11> *xyz 0 1
| 12>  N        0.9381840000    -0.1089300000    -0.1156850000
| 13>  C        2.3697150000    -0.0340110000     0.0681640000
| 14>  C        2.9499140000     1.0812200000     0.9496390000
| 15>  C        4.3720730000     0.6026440000     1.2175600000
| 16>  C        4.2126680000    -0.9085220000     1.4370130000
| 17>  C        2.9558170000    -1.2847600000     0.6866120000
| 18>  C        2.4020250000    -2.4871730000     0.6205670000
| 19>  H        0.5841610000     0.7368930000    -0.5441040000
| 20>  H        0.4753220000    -0.2199350000     0.7793590000
| 21>  H        2.8157690000     0.0786180000    -0.9317300000
| 22>  H        2.3796500000     1.1271810000     1.8856200000
| 23>  H        2.8984990000     2.0656940000     0.4781480000
| 24>  H        4.8482460000     1.1062710000     2.0604580000
| 25>  H        4.9938060000     0.7913530000     0.3366040000
| 26>  H        4.0833290000    -1.1282980000     2.5016600000
| 27>  H        5.0822180000    -1.4792890000     1.1026830000
| 28>  H        2.8529800000    -3.3477390000     1.1034900000
| 29>  H        1.4784250000    -2.6377070000     0.0732430000
| 30> *
| 31>
| 32>                          ****END OF INPUT****
 Total Charge           Charge          ....    0
 Multiplicity           Mult            ....    1
 Number of Electrons    NEL             ....   54
 Basis Dimension        Dim             ....  153

MULLIKEN ATOMIC CHARGES
-----------------------
   0 N :   -0.142148
   1 C :    0.015678
   2 C :    0.031530
   3 C :   -0.023435
   4 C :    0.111984
   5 C :   -0.218913
   6 C :   -0.034127
   7 H :    0.087639
   8 H :    0.086369
   9 H :    0.018125
  10 H :   -0.002111
  11 H :   -0.000429
  12 H :    0.010528
  13 H :    0.012721
  14 H :    0.022104
  15 H :    0.014666
  16 H :   -0.001899
  17 H :    0.011718
Sum of atomic charges:   -0.0000000

LOEWDIN ATOMIC CHARGES
----------------------
   0 N :   -0.083038
   1 C :   -0.003452
   2 C :   -0.054523
   3 C :   -0.041641
   4 C :   -0.035572
   5 C :   -0.039637
   6 C :   -0.074825
   7 H :    0.053167
   8 H :    0.051031
   9 H :    0.033140
  10 H :    0.018239
  11 H :    0.017699
  12 H :    0.023867
  13 H :    0.024519
  14 H :    0.036438
  15 H :    0.033487
  16 H :    0.018904
  17 H :    0.022197

  Mayer bond orders larger than 0.1
B(  0-N ,  1-C ) :   1.1498 B(  0-N ,  7-H ) :   0.9619 B(  0-N ,  8-H ) :   0.9610
B(  1-C ,  2-C ) :   1.0205 B(  1-C ,  5-C ) :   1.0034 B(  1-C ,  9-H ) :   0.8770
B(  2-C ,  3-C ) :   1.0866 B(  2-C , 10-H ) :   0.9235 B(  2-C , 11-H ) :   0.9282
B(  3-C ,  4-C ) :   1.1042 B(  3-C , 12-H ) :   0.9328 B(  3-C , 13-H ) :   0.9286
B(  4-C ,  5-C ) :   1.0450 B(  4-C , 14-H ) :   0.9113 B(  4-C , 15-H ) :   0.9102
B(  5-C ,  6-C ) :   2.0441 B(  6-C , 16-H ) :   0.9322 B(  6-C , 17-H ) :   0.9120

FINAL SINGLE POINT ENERGY      -289.385674505906

DIPOLE MOMENT
-------------
                                X             Y             Z
Electronic contribution:     -0.96276      -1.05216      -0.91355
Nuclear contribution   :      1.02479       1.61405       1.16656
                        -----------------------------------------
Total Dipole Moment    :      0.06203       0.56189       0.25301
                        -----------------------------------------
Magnitude (a.u.)       :      0.61934
Magnitude (Debye)      :      1.57424

                             ****ORCA TERMINATED NORMALLY****
TOTAL RUN TIME: 0 days 0 hours 0 minutes 8 seconds 151 msec
