                         Program Version 3.0.3 - RELEASE   -
|  1> ! RI PBE def2-SVP def2-SVP/J NBO PAL2
|  2> % maxcore 2000
|  3> % output
|  4>     # printlevel mini
|  5>     print[ P_Basis ] 0
|  6>     print[ P_SCFInfo ] 1
|  7>     print[ P_SCFIterInfo ] 1
|  8>     print[ P_OrbEn ] 0
|  9>     print[ P_Cartesian ] 0
| 10> end
| 11> *xyz 0 1
| 12>  N        1.1957030000    -0.0518020000    -0.2254420000
| 13>  C        2.6062130000     0.0636040000     0.0878590000
| 14>  C        3.0551810000     1.1756550000     1.0357070000
| 15>  C        4.4373190000     0.7261550000     1.5438290000
| 16>  C        4.5318850000    -0.7823070000     1.2298640000
| 17>  C        3.1360630000    -1.1957580000     0.7810230000
| 18>  N        3.1125710000    -2.4271880000     0.0251070000
| 19>  H        0.8830110000     0.7180480000    -0.8033210000
| 20>  H        0.6453740000    -0.0231280000     0.6264310000
| 21>  H        3.1437820000     0.1601210000    -0.8657960000
| 22>  H        2.3411140000     1.2307620000     1.8655830000
| 23>  H        3.0696340000     2.1612080000     0.5641540000
| 24>  H        4.5480480000     0.9239820000     2.6115530000
| 25>  H        5.2379870000     1.2756400000     1.0445560000
| 26>  H        4.8884540000    -1.3770580000     2.0717200000
| 27>  H        5.2301400000    -0.9580670000     0.4036470000
| 28>  H        2.5088430000    -1.3496730000     1.6729810000
| 29>  H        3.7549760000    -2.3599480000    -0.7576030000
| 30>  H        2.1861100000    -2.5492690000    -0.3712520000
| 31> *
| 32>
| 33>                          ****END OF INPUT****
 Total Charge           Charge          ....    0
 Multiplicity           Mult            ....    1
 Number of Electrons    NEL             ....   56
 Basis Dimension        Dim             ....  158

MULLIKEN ATOMIC CHARGES
-----------------------
   0 N :   -0.146332
   1 C :   -0.063873
   2 C :    0.066630
   3 C :    0.001855
   4 C :    0.058280
   5 C :   -0.075884
   6 N :   -0.133966
   7 H :    0.089841
   8 H :    0.083032
   9 H :   -0.019211
  10 H :   -0.013087
  11 H :   -0.004675
  12 H :    0.004290
  13 H :    0.003008
  14 H :    0.012857
  15 H :   -0.009944
  16 H :   -0.009893
  17 H :    0.076576
  18 H :    0.080498
Sum of atomic charges:    0.0000000

LOEWDIN ATOMIC CHARGES
----------------------
   0 N :   -0.090622
   1 C :   -0.025480
   2 C :   -0.057190
   3 C :   -0.040819
   4 C :   -0.040010
   5 C :   -0.012063
   6 N :   -0.093066
   7 H :    0.053455
   8 H :    0.049142
   9 H :    0.013189
  10 H :    0.017665
  11 H :    0.018179
  12 H :    0.024610
  13 H :    0.024535
  14 H :    0.027043
  15 H :    0.020579
  16 H :    0.016627
  17 H :    0.045997
  18 H :    0.048227

  Mayer bond orders larger than 0.1
B(  0-N ,  1-C ) :   1.1319 B(  0-N ,  7-H ) :   0.9657 B(  0-N ,  8-H ) :   0.9629
B(  1-C ,  2-C ) :   1.0408 B(  1-C ,  5-C ) :   0.9684 B(  1-C ,  9-H ) :   0.8934
B(  2-C ,  3-C ) :   1.1204 B(  2-C , 10-H ) :   0.9050 B(  2-C , 11-H ) :   0.9229
B(  3-C ,  4-C ) :   1.1222 B(  3-C , 12-H ) :   0.9252 B(  3-C , 13-H ) :   0.9226
B(  4-C ,  5-C ) :   1.0935 B(  4-C , 14-H ) :   0.9269 B(  4-C , 15-H ) :   0.9102
B(  5-C ,  6-N ) :   1.1447 B(  5-C , 16-H ) :   0.8918 B(  6-N , 17-H ) :   0.9622
B(  6-N , 18-H ) :   0.9548

FINAL SINGLE POINT ENERGY      -306.621872304132

DIPOLE MOMENT
-------------
                                X             Y             Z
Electronic contribution:     -1.11516      -1.38959      -0.79511
Nuclear contribution   :      0.92837       2.13890       0.64265
                        -----------------------------------------
Total Dipole Moment    :     -0.18678       0.74932      -0.15246
                        -----------------------------------------
Magnitude (a.u.)       :      0.78715
Magnitude (Debye)      :      2.00078

                             ****ORCA TERMINATED NORMALLY****
TOTAL RUN TIME: 0 days 0 hours 0 minutes 8 seconds 6 msec
