                         Program Version 3.0.3 - RELEASE   -
|  1> ! RI PBE def2-SVP def2-SVP/J NBO PAL2
|  2> % maxcore 2000
|  3> % output
|  4>     # printlevel mini
|  5>     print[ P_Basis ] 0
|  6>     print[ P_SCFInfo ] 1
|  7>     print[ P_SCFIterInfo ] 1
|  8>     print[ P_OrbEn ] 0
|  9>     print[ P_Cartesian ] 0
| 10> end
| 11> *xyz 0 1
| 12>  N        1.0456350000    -0.0123510000    -0.0200650000
| 13>  C        2.4960060000    -0.1264070000    -0.0957210000
| 14>  C        3.0004190000    -1.3427260000    -0.9047040000
| 15>  C        3.3147980000    -0.7573680000    -2.2492150000
| 16>  C        3.3243940000     0.5710510000    -2.2236190000
| 17>  C        3.0580380000     1.1106870000    -0.8467880000
| 18>  N        4.2688210000     1.7237620000    -0.3221420000
| 19>  H        0.6466940000    -0.8381500000     0.4110360000
| 20>  H        0.6578770000     0.0407790000    -0.9567100000
| 21>  H        2.8760020000    -0.1413240000     0.9295290000
| 22>  H        2.2381240000    -2.1277140000    -0.9475650000
| 23>  H        3.8922380000    -1.8060560000    -0.4637830000
| 24>  H        3.5263270000    -1.3624610000    -3.1241820000
| 25>  H        3.5604200000     1.2182960000    -3.0598020000
| 26>  H        2.2850560000     1.8874750000    -0.8519710000
| 27>  H        5.0237030000     1.0488580000    -0.2876010000
| 28>  H        4.1181480000     2.0707320000     0.6173840000
| 29> *
| 30>
| 31>                          ****END OF INPUT****
 Total Charge           Charge          ....    0
 Multiplicity           Mult            ....    1
 Number of Electrons    NEL             ....   54
 Basis Dimension        Dim             ....  148

MULLIKEN ATOMIC CHARGES
-----------------------
   0 N :   -0.155993
   1 C :   -0.035950
   2 C :    0.113940
   3 C :   -0.079007
   4 C :   -0.013071
   5 C :    0.003913
   6 N :   -0.153881
   7 H :    0.083580
   8 H :    0.086273
   9 H :   -0.025741
  10 H :    0.000890
  11 H :    0.014624
  12 H :   -0.008888
  13 H :   -0.007809
  14 H :    0.007240
  15 H :    0.080903
  16 H :    0.088977
Sum of atomic charges:   -0.0000000

LOEWDIN ATOMIC CHARGES
----------------------
   0 N :   -0.092216
   1 C :   -0.005020
   2 C :   -0.059757
   3 C :   -0.036688
   4 C :   -0.038077
   5 C :   -0.004568
   6 N :   -0.089209
   7 H :    0.048157
   8 H :    0.050037
   9 H :    0.010587
  10 H :    0.022163
  11 H :    0.029319
  12 H :    0.020254
  13 H :    0.023418
  14 H :    0.022816
  15 H :    0.047604
  16 H :    0.051180

  Mayer bond orders larger than 0.1
B(  0-N ,  1-C ) :   1.0970 B(  0-N ,  7-H ) :   0.9621 B(  0-N ,  8-H ) :   0.9653
B(  1-C ,  2-C ) :   1.0052 B(  1-C ,  5-C ) :   0.9740 B(  1-C ,  9-H ) :   0.9077
B(  2-C ,  3-C ) :   1.0119 B(  2-C , 10-H ) :   0.9206 B(  2-C , 11-H ) :   0.9006
B(  3-C ,  4-C ) :   1.8312 B(  3-C , 12-H ) :   0.9813 B(  4-C ,  5-C ) :   1.0063
B(  4-C , 13-H ) :   0.9897 B(  5-C ,  6-N ) :   1.1209 B(  5-C , 14-H ) :   0.9033
B(  6-N , 15-H ) :   0.9666 B(  6-N , 16-H ) :   0.9657

FINAL SINGLE POINT ENERGY      -305.399889433302

DIPOLE MOMENT
-------------
                                X             Y             Z
Electronic contribution:      0.29882       0.95662      -1.06776
Nuclear contribution   :     -0.29678      -1.66653       1.21185
                        -----------------------------------------
Total Dipole Moment    :      0.00204      -0.70991       0.14408
                        -----------------------------------------
Magnitude (a.u.)       :      0.72439
Magnitude (Debye)      :      1.84125

                             ****ORCA TERMINATED NORMALLY****
TOTAL RUN TIME: 0 days 0 hours 0 minutes 8 seconds 282 msec
