                         Program Version 3.0.3 - RELEASE   -
|  1> ! RI PBE def2-SVP def2-SVP/J NBO PAL2
|  2> % maxcore 2000
|  3> % output
|  4>     # printlevel mini
|  5>     print[ P_Basis ] 0
|  6>     print[ P_SCFInfo ] 1
|  7>     print[ P_SCFIterInfo ] 1
|  8>     print[ P_OrbEn ] 0
|  9>     print[ P_Cartesian ] 0
| 10> end
| 11> *xyz 0 1
| 12>  N        0.9403900000     0.0799540000     0.0615300000
| 13>  C        2.3059620000     0.0970050000    -0.0369310000
| 14>  C        3.0065920000     1.3068720000    -0.0838160000
| 15>  C        4.3865670000     1.3168160000    -0.1832820000
| 16>  C        5.1071930000     0.1319820000    -0.2387970000
| 17>  C        4.4157080000    -1.0704840000    -0.1925510000
| 18>  C        3.0359100000    -1.0949990000    -0.0931410000
| 19>  H        0.4178740000     0.9324620000     0.1013490000
| 20>  H        0.4388420000    -0.7853390000     0.0946750000
| 21>  H        2.4583030000     2.2428590000    -0.0414710000
| 22>  H        4.9056750000     2.2685820000    -0.2178550000
| 23>  H        6.1872700000     0.1454690000    -0.3166340000
| 24>  H        4.9578900000    -2.0089980000    -0.2344620000
| 25>  H        2.5106360000    -2.0443910000    -0.0581150000
| 26> *
| 27>
| 28>                          ****END OF INPUT****
 Total Charge           Charge          ....    0
 Multiplicity           Mult            ....    1
 Number of Electrons    NEL             ....   50
 Basis Dimension        Dim             ....  133

MULLIKEN ATOMIC CHARGES
-----------------------
   0 N :   -0.052685
   1 C :    0.052736
   2 C :   -0.022998
   3 C :    0.006605
   4 C :    0.002262
   5 C :    0.007614
   6 C :   -0.023910
   7 H :    0.101071
   8 H :    0.101014
   9 H :   -0.049250
  10 H :   -0.025388
  11 H :   -0.022770
  12 H :   -0.024990
  13 H :   -0.049310
Sum of atomic charges:   -0.0000000

LOEWDIN ATOMIC CHARGES
----------------------
   0 N :    0.000326
   1 C :    0.013472
   2 C :   -0.074541
   3 C :   -0.022035
   4 C :   -0.071219
   5 C :   -0.021992
   6 C :   -0.074662
   7 H :    0.068032
   8 H :    0.068008
   9 H :    0.019621
  10 H :    0.025792
  11 H :    0.023721
  12 H :    0.025890
  13 H :    0.019588

  Mayer bond orders larger than 0.1
B(  0-N ,  1-C ) :   1.2669 B(  0-N ,  7-H ) :   0.9488 B(  0-N ,  8-H ) :   0.9489
B(  1-C ,  2-C ) :   1.3030 B(  1-C ,  6-C ) :   1.3037 B(  2-C ,  3-C ) :   1.4059
B(  2-C ,  9-H ) :   0.9838 B(  3-C ,  4-C ) :   1.3623 B(  3-C , 10-H ) :   0.9769
B(  4-C ,  5-C ) :   1.3616 B(  4-C , 11-H ) :   0.9890 B(  5-C ,  6-C ) :   1.4055
B(  5-C , 12-H ) :   0.9769 B(  6-C , 13-H ) :   0.9839

FINAL SINGLE POINT ENERGY      -287.029177596539

DIPOLE MOMENT
-------------
                                X             Y             Z
Electronic contribution:     -0.07148      -0.00072       0.00379
Nuclear contribution   :     -0.82477      -0.01030       0.05875
                        -----------------------------------------
Total Dipole Moment    :     -0.89625      -0.01101       0.06254
                        -----------------------------------------
Magnitude (a.u.)       :      0.89849
Magnitude (Debye)      :      2.28379

                             ****ORCA TERMINATED NORMALLY****
TOTAL RUN TIME: 0 days 0 hours 0 minutes 6 seconds 516 msec
