                         Program Version 3.0.3 - RELEASE   -
|  1> ! RI PBE def2-SVP def2-SVP/J NBO PAL2
|  2> % maxcore 2000
|  3> % output
|  4>     # printlevel mini
|  5>     print[ P_Basis ] 0
|  6>     print[ P_SCFInfo ] 1
|  7>     print[ P_SCFIterInfo ] 1
|  8>     print[ P_OrbEn ] 0
|  9>     print[ P_Cartesian ] 0
| 10> end
| 11> *xyz 0 1
| 12>  N        1.0109370000     0.1903390000     0.1470190000
| 13>  C        2.4598830000     0.0905960000     0.0004750000
| 14>  C        2.9712220000    -1.3035630000    -0.3856320000
| 15>  C        2.5995650000    -1.6819540000    -1.8131450000
| 16>  C        3.0939900000    -0.6383920000    -2.8071690000
| 17>  C        2.5841360000     0.7516360000    -2.4468470000
| 18>  C        2.9484540000     1.1226500000    -1.0140750000
| 19>  H        0.6802480000    -0.4811070000     0.8300450000
| 20>  H        0.5441470000    -0.0320240000    -0.7238060000
| 21>  H        2.8826520000     0.3518370000     0.9769400000
| 22>  H        2.5829530000    -2.0444980000     0.3219320000
| 23>  H        4.0639160000    -1.3186020000    -0.2841810000
| 24>  H        1.5097090000    -1.7782550000    -1.8991260000
| 25>  H        3.0074850000    -2.6670960000    -2.0581880000
| 26>  H        2.7924460000    -0.9060270000    -3.8244430000
| 27>  H        4.1916520000    -0.6297720000    -2.7993260000
| 28>  H        1.4954710000     0.7880480000    -2.5789540000
| 29>  H        2.9911490000     1.4968440000    -3.1368280000
| 30>  H        2.5374170000     2.1009470000    -0.7519420000
| 31>  H        4.0393600000     1.1966850000    -0.9357410000
| 32> *
| 33>
| 34>                          ****END OF INPUT****
 Total Charge           Charge          ....    0
 Multiplicity           Mult            ....    1
 Number of Electrons    NEL             ....   56
 Basis Dimension        Dim             ....  163

MULLIKEN ATOMIC CHARGES
-----------------------
   0 N :   -0.162125
   1 C :   -0.059347
   2 C :    0.024688
   3 C :    0.004768
   4 C :    0.001668
   5 C :   -0.026306
   6 C :    0.047191
   7 H :    0.082671
   8 H :    0.076881
   9 H :   -0.008332
  10 H :   -0.003804
  11 H :   -0.001779
  12 H :   -0.011500
  13 H :    0.003665
  14 H :    0.002233
  15 H :    0.004517
  16 H :    0.005447
  17 H :    0.010491
  18 H :    0.006285
  19 H :    0.002690
Sum of atomic charges:   -0.0000000

LOEWDIN ATOMIC CHARGES
----------------------
   0 N :   -0.094566
   1 C :   -0.000919
   2 C :   -0.057458
   3 C :   -0.046054
   4 C :   -0.042814
   5 C :   -0.047299
   6 C :   -0.041188
   7 H :    0.049874
   8 H :    0.040652
   9 H :    0.020050
  10 H :    0.017976
  11 H :    0.022008
  12 H :    0.013858
  13 H :    0.024466
  14 H :    0.022781
  15 H :    0.022804
  16 H :    0.019915
  17 H :    0.026654
  18 H :    0.025298
  19 H :    0.023963

  Mayer bond orders larger than 0.1
B(  0-N ,  1-C ) :   1.1022 B(  0-N ,  7-H ) :   0.9655 B(  0-N ,  8-H ) :   0.9700
B(  1-C ,  2-C ) :   1.0469 B(  1-C ,  6-C ) :   1.0703 B(  1-C ,  9-H ) :   0.9066
B(  2-C ,  3-C ) :   1.0864 B(  2-C , 10-H ) :   0.9222 B(  2-C , 11-H ) :   0.9134
B(  3-C ,  4-C ) :   1.1048 B(  3-C , 12-H ) :   0.9210 B(  3-C , 13-H ) :   0.9265
B(  4-C ,  5-C ) :   1.1055 B(  4-C , 14-H ) :   0.9268 B(  4-C , 15-H ) :   0.9231
B(  5-C ,  6-C ) :   1.0965 B(  5-C , 16-H ) :   0.9283 B(  5-C , 17-H ) :   0.9255
B(  6-C , 18-H ) :   0.9186 B(  6-C , 19-H ) :   0.9247

FINAL SINGLE POINT ENERGY      -290.610577728713

DIPOLE MOMENT
-------------
                                X             Y             Z
Electronic contribution:     -0.72192       0.64964       1.34847
Nuclear contribution   :      0.77541      -1.06936      -1.47130
                        -----------------------------------------
Total Dipole Moment    :      0.05349      -0.41972      -0.12283
                        -----------------------------------------
Magnitude (a.u.)       :      0.44058
Magnitude (Debye)      :      1.11986

                             ****ORCA TERMINATED NORMALLY****
TOTAL RUN TIME: 0 days 0 hours 0 minutes 8 seconds 867 msec
