                         Program Version 3.0.3 - RELEASE   -
|  1> ! RI PBE def2-SVP def2-SVP/J NBO PAL2
|  2> % maxcore 2000
|  3> % output
|  4>     # printlevel mini
|  5>     print[ P_Basis ] 0
|  6>     print[ P_SCFInfo ] 1
|  7>     print[ P_SCFIterInfo ] 1
|  8>     print[ P_OrbEn ] 0
|  9>     print[ P_Cartesian ] 0
| 10> end
| 11> *xyz 0 1
| 12>  N        0.9000850000     0.0120950000    -0.3826800000
| 13>  C        2.3154020000     0.0801780000    -0.0056220000
| 14>  C        2.6723200000     1.3159770000     0.7682880000
| 15>  C        3.2285070000     1.3081240000     1.9740060000
| 16>  C        3.6098110000     0.0566500000     2.6896200000
| 17>  C        3.2451300000    -1.1789580000     1.9378520000
| 18>  C        2.6774870000    -1.1677590000     0.7382010000
| 19>  H        0.6579970000     0.7903130000    -0.9852850000
| 20>  H        0.3282300000     0.0940860000     0.4509390000
| 21>  H        2.8713230000     0.0845430000    -0.9547390000
| 22>  H        2.4232350000     2.2641470000     0.2968280000
| 23>  H        3.4302490000     2.2483780000     2.4799730000
| 24>  H        3.1423460000     0.0381940000     3.6842720000
| 25>  H        4.6895070000     0.0623540000     2.8979050000
| 26>  H        3.4665800000    -2.1294700000     2.4152350000
| 27>  H        2.4204800000    -2.0986620000     0.2422870000
| 28> *
| 29>
| 30>                          ****END OF INPUT****
 Total Charge           Charge          ....    0
 Multiplicity           Mult            ....    1
 Number of Electrons    NEL             ....   52
 Basis Dimension        Dim             ....  143

MULLIKEN ATOMIC CHARGES
-----------------------
   0 N :   -0.195260
   1 C :    0.150363
   2 C :   -0.059219
   3 C :   -0.110262
   4 C :    0.176328
   5 C :   -0.102288
   6 C :   -0.045020
   7 H :    0.084039
   8 H :    0.085847
   9 H :    0.012151
  10 H :   -0.022771
  11 H :   -0.011656
  12 H :    0.025211
  13 H :    0.033418
  14 H :   -0.010286
  15 H :   -0.010593
Sum of atomic charges:   -0.0000000

LOEWDIN ATOMIC CHARGES
----------------------
   0 N :   -0.088523
   1 C :   -0.004119
   2 C :   -0.058341
   3 C :   -0.040269
   4 C :   -0.045700
   5 C :   -0.039480
   6 C :   -0.037909
   7 H :    0.048826
   8 H :    0.049791
   9 H :    0.034058
  10 H :    0.018987
  11 H :    0.023401
  12 H :    0.043472
  13 H :    0.044703
  14 H :    0.024686
  15 H :    0.026418

  Mayer bond orders larger than 0.1
B(  0-N ,  1-C ) :   1.0442 B(  0-N ,  7-H ) :   0.9670 B(  0-N ,  8-H ) :   0.9705
B(  1-C ,  2-C ) :   0.9821 B(  1-C ,  6-C ) :   1.0086 B(  1-C ,  9-H ) :   0.8615
B(  2-C ,  3-C ) :   1.9037 B(  2-C , 10-H ) :   0.9641 B(  3-C ,  4-C ) :   1.0345
B(  3-C , 11-H ) :   0.9623 B(  4-C ,  5-C ) :   1.0322 B(  4-C , 12-H ) :   0.8839
B(  4-C , 13-H ) :   0.8851 B(  5-C ,  6-C ) :   1.8995 B(  5-C , 14-H ) :   0.9634
B(  6-C , 15-H ) :   0.9706

FINAL SINGLE POINT ENERGY      -288.174519825805

DIPOLE MOMENT
-------------
                                X             Y             Z
Electronic contribution:      0.20159      -0.28447      -0.50454
Nuclear contribution   :     -0.16127       0.69221       0.76613
                        -----------------------------------------
Total Dipole Moment    :      0.04033       0.40774       0.26159
                        -----------------------------------------
Magnitude (a.u.)       :      0.48612
Magnitude (Debye)      :      1.23561

                             ****ORCA TERMINATED NORMALLY****
TOTAL RUN TIME: 0 days 0 hours 0 minutes 7 seconds 271 msec
