                         Program Version 3.0.3 - RELEASE   -
|  1> ! RI PBE def2-SVP def2-SVP/J NBO PAL2
|  2> % maxcore 2000
|  3> % output
|  4>     # printlevel mini
|  5>     print[ P_Basis ] 0
|  6>     print[ P_SCFInfo ] 1
|  7>     print[ P_SCFIterInfo ] 1
|  8>     print[ P_OrbEn ] 0
|  9>     print[ P_Cartesian ] 0
| 10> end
| 11> *xyz 0 1
| 12>  N        1.1175940000     0.0417860000     0.5552570000
| 13>  C        2.4659040000     0.0552100000     0.0064110000
| 14>  C        2.6771230000     1.3094000000    -0.8278500000
| 15>  C        3.9515390000     1.2390170000    -1.6144630000
| 16>  C        4.4033230000     0.0627320000    -2.0564380000
| 17>  C        3.6620420000    -1.1596090000    -1.7695890000
| 18>  C        2.7167010000    -1.1686010000    -0.8282140000
| 19>  H        0.9807800000     0.8378980000     1.1668150000
| 20>  H        0.9749810000    -0.7873600000     1.1200910000
| 21>  H        3.2427020000     0.0545420000     0.7979380000
| 22>  H        2.6664840000     2.1917320000    -0.1810330000
| 23>  H        1.8266040000     1.4167110000    -1.5183900000
| 24>  H        4.4616360000     2.1608180000    -1.8730670000
| 25>  H        5.2985190000     0.0061100000    -2.6661840000
| 26>  H        3.8905340000    -2.0575030000    -2.3336730000
| 27>  H        2.1537260000    -2.0694720000    -0.6034080000
| 28> *
| 29>
| 30>                          ****END OF INPUT****
 Total Charge           Charge          ....    0
 Multiplicity           Mult            ....    1
 Number of Electrons    NEL             ....   52
 Basis Dimension        Dim             ....  143

MULLIKEN ATOMIC CHARGES
-----------------------
   0 N :   -0.175503
   1 C :   -0.000154
   2 C :    0.113407
   3 C :   -0.077874
   4 C :    0.003427
   5 C :    0.015257
   6 C :   -0.031685
   7 H :    0.083890
   8 H :    0.084682
   9 H :    0.007889
  10 H :    0.003277
  11 H :    0.024379
  12 H :   -0.009737
  13 H :   -0.012094
  14 H :   -0.016175
  15 H :   -0.012987
Sum of atomic charges:   -0.0000000

LOEWDIN ATOMIC CHARGES
----------------------
   0 N :   -0.103114
   1 C :    0.001348
   2 C :   -0.041678
   3 C :   -0.022730
   4 C :   -0.047795
   5 C :   -0.043813
   6 C :   -0.021990
   7 H :    0.051292
   8 H :    0.050514
   9 H :    0.012454
  10 H :    0.027336
  11 H :    0.038566
  12 H :    0.023590
  13 H :    0.026566
  14 H :    0.026691
  15 H :    0.022762

  Mayer bond orders larger than 0.1
B(  0-N ,  1-C ) :   1.0543 B(  0-N ,  7-H ) :   0.9590 B(  0-N ,  8-H ) :   0.9568
B(  1-C ,  2-C ) :   1.0785 B(  1-C ,  6-C ) :   0.9947 B(  1-C ,  9-H ) :   0.8777
B(  2-C ,  3-C ) :   1.0421 B(  2-C , 10-H ) :   0.9204 B(  2-C , 11-H ) :   0.8786
B(  3-C ,  4-C ) :   1.8011 B(  3-C , 12-H ) :   0.9659 B(  4-C ,  5-C ) :   1.0914
B(  4-C , 13-H ) :   0.9715 B(  5-C ,  6-C ) :   1.8151 B(  5-C , 14-H ) :   0.9680
B(  6-C , 15-H ) :   0.9605

FINAL SINGLE POINT ENERGY      -288.173100284775

DIPOLE MOMENT
-------------
                                X             Y             Z
Electronic contribution:      1.07343      -1.01610      -1.21145
Nuclear contribution   :     -0.94697       1.07569       1.70564
                        -----------------------------------------
Total Dipole Moment    :      0.12646       0.05960       0.49419
                        -----------------------------------------
Magnitude (a.u.)       :      0.51359
Magnitude (Debye)      :      1.30544

                             ****ORCA TERMINATED NORMALLY****
TOTAL RUN TIME: 0 days 0 hours 0 minutes 7 seconds 290 msec
