                         Program Version 3.0.3 - RELEASE   -
|  1> ! RI PBE def2-SVP def2-SVP/J NBO PAL2
|  2> % maxcore 2000
|  3> % output
|  4>     # printlevel mini
|  5>     print[ P_Basis ] 0
|  6>     print[ P_SCFInfo ] 1
|  7>     print[ P_SCFIterInfo ] 1
|  8>     print[ P_OrbEn ] 0
|  9>     print[ P_Cartesian ] 0
| 10> end
| 11> *xyz 0 1
| 12>  N        1.0312580000     0.1965770000    -0.5122180000
| 13>  C        2.3657140000     0.0702740000     0.0651210000
| 14>  C        2.5198700000    -1.2279090000     0.8755120000
| 15>  C        3.1997580000    -0.8221670000     2.1624440000
| 16>  C        3.7625550000    -1.6261240000     3.0636960000
| 17>  C        3.1259340000     0.6313260000     2.2231600000
| 18>  C        2.6456840000     1.1365170000     1.0858840000
| 19>  H        0.8859760000    -0.5251390000    -1.2092460000
| 20>  H        0.9409220000     1.0831700000    -0.9953030000
| 21>  H        3.1555290000     0.1177600000    -0.7054960000
| 22>  H        3.0637490000    -2.0101670000     0.3428060000
| 23>  H        1.5159800000    -1.6041560000     1.0974310000
| 24>  H        3.7840800000    -2.7018990000     2.9327290000
| 25>  H        4.2198620000    -1.2274990000     3.9621310000
| 26>  H        3.4443010000     1.2056440000     3.0851030000
| 27>  H        2.5046170000     2.1911930000     0.8766450000
| 28> *
| 29>
| 30>                          ****END OF INPUT****
 Total Charge           Charge          ....    0
 Multiplicity           Mult            ....    1
 Number of Electrons    NEL             ....   52
 Basis Dimension        Dim             ....  143

MULLIKEN ATOMIC CHARGES
-----------------------
   0 N :   -0.185561
   1 C :   -0.025417
   2 C :    0.182585
   3 C :   -0.142628
   4 C :   -0.051235
   5 C :    0.042339
   6 C :   -0.020824
   7 H :    0.089726
   8 H :    0.084080
   9 H :    0.010272
  10 H :    0.011995
  11 H :    0.022385
  12 H :    0.008390
  13 H :    0.003379
  14 H :   -0.019653
  15 H :   -0.009835
Sum of atomic charges:   -0.0000000

LOEWDIN ATOMIC CHARGES
----------------------
   0 N :   -0.105358
   1 C :    0.003389
   2 C :   -0.028413
   3 C :   -0.027690
   4 C :   -0.081255
   5 C :   -0.019342
   6 C :   -0.017669
   7 H :    0.051799
   8 H :    0.050264
   9 H :    0.011250
  10 H :    0.029808
  11 H :    0.041550
  12 H :    0.022038
  13 H :    0.022196
  14 H :    0.026422
  15 H :    0.021009

  Mayer bond orders larger than 0.1
B(  0-N ,  1-C ) :   1.0522 B(  0-N ,  7-H ) :   0.9605 B(  0-N ,  8-H ) :   0.9630
B(  1-C ,  2-C ) :   1.0663 B(  1-C ,  6-C ) :   1.0287 B(  1-C ,  9-H ) :   0.8667
B(  2-C ,  3-C ) :   1.0402 B(  2-C , 10-H ) :   0.9113 B(  2-C , 11-H ) :   0.8786
B(  3-C ,  4-C ) :   1.9233 B(  3-C ,  5-C ) :   1.0883 B(  4-C ,  6-C ) :   0.1305
B(  4-C , 12-H ) :   0.9356 B(  4-C , 13-H ) :   0.9243 B(  5-C ,  6-C ) :   1.7411
B(  5-C , 14-H ) :   0.9931 B(  6-C , 15-H ) :   0.9792

FINAL SINGLE POINT ENERGY      -288.171032075413

DIPOLE MOMENT
-------------
                                X             Y             Z
Electronic contribution:      0.22920       1.38404       0.87614
Nuclear contribution   :     -0.11377      -1.22871      -1.50641
                        -----------------------------------------
Total Dipole Moment    :      0.11544       0.15533      -0.63027
                        -----------------------------------------
Magnitude (a.u.)       :      0.65931
Magnitude (Debye)      :      1.67584

                             ****ORCA TERMINATED NORMALLY****
TOTAL RUN TIME: 0 days 0 hours 0 minutes 7 seconds 234 msec
