                         Program Version 3.0.3 - RELEASE   -
|  1> ! RI PBE def2-SVP def2-SVP/J NBO PAL2
|  2> % maxcore 2000
|  3> % output
|  4>     # printlevel mini
|  5>     print[ P_Basis ] 0
|  6>     print[ P_SCFInfo ] 1
|  7>     print[ P_SCFIterInfo ] 1
|  8>     print[ P_OrbEn ] 0
|  9>     print[ P_Cartesian ] 0
| 10> end
| 11> *xyz 0 1
| 12>  N        1.0438330000     0.0610020000     0.6827840000
| 13>  C        2.3216610000     0.0648780000    -0.0137090000
| 14>  C        2.3988670000     1.2583630000    -0.9519250000
| 15>  C        3.7496370000     1.3212210000    -1.6520880000
| 16>  C        4.1764520000    -0.0194030000    -2.1617360000
| 17>  C        3.5958100000    -1.1564800000    -1.7936940000
| 18>  C        2.4723560000    -1.2247890000    -0.8072840000
| 19>  H        0.9531100000     0.8876970000     1.2615580000
| 20>  H        0.9777940000    -0.7397570000     1.3005040000
| 21>  H        3.1810310000     0.1300680000     0.6769660000
| 22>  H        2.2144100000     2.1846400000    -0.3973900000
| 23>  H        1.5943800000     1.1644960000    -1.6892840000
| 24>  H        4.5164750000     1.7111370000    -0.9689790000
| 25>  H        3.7101780000     2.0353690000    -2.4815180000
| 26>  H        5.0007220000    -0.0460580000    -2.8693140000
| 27>  H        3.9427580000    -2.0942190000    -2.2188070000
| 28>  H        2.6320580000    -2.0678220000    -0.1238640000
| 29>  H        1.5244890000    -1.4314330000    -1.3216320000
| 30> *
| 31>
| 32>                          ****END OF INPUT****
 Total Charge           Charge          ....    0
 Multiplicity           Mult            ....    1
 Number of Electrons    NEL             ....   54
 Basis Dimension        Dim             ....  153

MULLIKEN ATOMIC CHARGES
-----------------------
   0 N :   -0.161794
   1 C :   -0.089555
   2 C :    0.029242
   3 C :    0.071717
   4 C :   -0.106884
   5 C :   -0.059900
   6 C :    0.113826
   7 H :    0.082376
   8 H :    0.084636
   9 H :   -0.007160
  10 H :   -0.007237
  11 H :    0.012917
  12 H :    0.019538
  13 H :    0.018001
  14 H :   -0.006647
  15 H :   -0.017578
  16 H :    0.005551
  17 H :    0.018952
Sum of atomic charges:   -0.0000000

LOEWDIN ATOMIC CHARGES
----------------------
   0 N :   -0.102283
   1 C :    0.002303
   2 C :   -0.038898
   3 C :   -0.045879
   4 C :   -0.049289
   5 C :   -0.043394
   6 C :   -0.045355
   7 H :    0.049860
   8 H :    0.050466
   9 H :    0.002001
  10 H :    0.019934
  11 H :    0.026859
  12 H :    0.032626
  13 H :    0.033998
  14 H :    0.023301
  15 H :    0.022389
  16 H :    0.027833
  17 H :    0.033528

  Mayer bond orders larger than 0.1
B(  0-N ,  1-C ) :   1.0798 B(  0-N ,  7-H ) :   0.9582 B(  0-N ,  8-H ) :   0.9585
B(  1-C ,  2-C ) :   1.0527 B(  1-C ,  6-C ) :   1.0502 B(  1-C ,  9-H ) :   0.9167
B(  2-C ,  3-C ) :   1.0946 B(  2-C , 10-H ) :   0.9240 B(  2-C , 11-H ) :   0.9233
B(  3-C ,  4-C ) :   1.0395 B(  3-C , 12-H ) :   0.9048 B(  3-C , 13-H ) :   0.9173
B(  4-C ,  5-C ) :   1.9251 B(  4-C , 14-H ) :   0.9597 B(  5-C ,  6-C ) :   1.0339
B(  5-C , 15-H ) :   0.9580 B(  6-C , 16-H ) :   0.9142 B(  6-C , 17-H ) :   0.8935

FINAL SINGLE POINT ENERGY      -289.392891142649

DIPOLE MOMENT
-------------
                                X             Y             Z
Electronic contribution:      0.48932      -0.96907      -0.61424
Nuclear contribution   :     -0.29885       1.03950       1.06832
                        -----------------------------------------
Total Dipole Moment    :      0.19046       0.07043       0.45408
                        -----------------------------------------
Magnitude (a.u.)       :      0.49742
Magnitude (Debye)      :      1.26434

                             ****ORCA TERMINATED NORMALLY****
TOTAL RUN TIME: 0 days 0 hours 0 minutes 7 seconds 832 msec
