                         Program Version 3.0.3 - RELEASE   -
|  1> ! RI PBE def2-SVP def2-SVP/J NBO PAL2
|  2> % maxcore 2000
|  3> % output
|  4>     # printlevel mini
|  5>     print[ P_Basis ] 0
|  6>     print[ P_SCFInfo ] 1
|  7>     print[ P_SCFIterInfo ] 1
|  8>     print[ P_OrbEn ] 0
|  9>     print[ P_Cartesian ] 0
| 10> end
| 11> *xyz 0 1
| 12>  N        0.9740210000     0.0244370000    -0.1405620000
| 13>  C        2.3954110000     0.0690780000     0.1314700000
| 14>  C        2.9300620000     1.2124670000     1.0039510000
| 15>  C        4.3260980000     0.7398700000     1.3990150000
| 16>  C        4.2020890000    -0.7677890000     1.4876330000
| 17>  C        5.1031650000    -1.5877480000     2.0110060000
| 18>  C        2.8840080000    -1.1719000000     0.8776530000
| 19>  H        0.6795820000     0.8457400000    -0.6546510000
| 20>  H        0.4513550000     0.0157920000     0.7286880000
| 21>  H        2.9082450000     0.1122940000    -0.8378820000
| 22>  H        2.2923840000     1.3021520000     1.8919150000
| 23>  H        2.9224860000     2.1784490000     0.4932920000
| 24>  H        4.6974310000     1.1848070000     2.3244850000
| 25>  H        5.0453920000     0.9969160000     0.6127570000
| 26>  H        6.0227670000    -1.2137370000     2.4487860000
| 27>  H        4.9555300000    -2.6623120000     2.0209750000
| 28>  H        2.1641690000    -1.4029040000     1.6749310000
| 29>  H        2.9501050000    -2.0573220000     0.2435390000
| 30> *
| 31>
| 32>                          ****END OF INPUT****
 Total Charge           Charge          ....    0
 Multiplicity           Mult            ....    1
 Number of Electrons    NEL             ....   54
 Basis Dimension        Dim             ....  153

MULLIKEN ATOMIC CHARGES
-----------------------
   0 N :   -0.145754
   1 C :   -0.127273
   2 C :    0.029983
   3 C :    0.093960
   4 C :   -0.209925
   5 C :   -0.055314
   6 C :    0.160034
   7 H :    0.086884
   8 H :    0.082207
   9 H :    0.009350
  10 H :   -0.003700
  11 H :    0.000004
  12 H :    0.013014
  13 H :    0.026558
  14 H :    0.001499
  15 H :    0.008131
  16 H :    0.010335
  17 H :    0.020007
Sum of atomic charges:    0.0000000

LOEWDIN ATOMIC CHARGES
----------------------
   0 N :   -0.092716
   1 C :   -0.005216
   2 C :   -0.057267
   3 C :   -0.035437
   4 C :   -0.028216
   5 C :   -0.085882
   6 C :   -0.033804
   7 H :    0.052037
   8 H :    0.047549
   9 H :    0.022869
  10 H :    0.018043
  11 H :    0.018434
  12 H :    0.031520
  13 H :    0.037689
  14 H :    0.020087
  15 H :    0.021397
  16 H :    0.034534
  17 H :    0.034380

  Mayer bond orders larger than 0.1
B(  0-N ,  1-C ) :   1.1278 B(  0-N ,  7-H ) :   0.9653 B(  0-N ,  8-H ) :   0.9628
B(  1-C ,  2-C ) :   1.0323 B(  1-C ,  6-C ) :   1.0396 B(  1-C ,  9-H ) :   0.9088
B(  2-C ,  3-C ) :   1.0831 B(  2-C , 10-H ) :   0.9217 B(  2-C , 11-H ) :   0.9268
B(  3-C ,  4-C ) :   1.0367 B(  3-C , 12-H ) :   0.9205 B(  3-C , 13-H ) :   0.9068
B(  4-C ,  5-C ) :   2.0276 B(  4-C ,  6-C ) :   1.0447 B(  5-C , 14-H ) :   0.9275
B(  5-C , 15-H ) :   0.9354 B(  6-C , 16-H ) :   0.8954 B(  6-C , 17-H ) :   0.9182

FINAL SINGLE POINT ENERGY      -289.384917864022

DIPOLE MOMENT
-------------
                                X             Y             Z
Electronic contribution:      0.00124      -0.76943      -0.38146
Nuclear contribution   :     -0.16149       1.30424       0.48484
                        -----------------------------------------
Total Dipole Moment    :     -0.16026       0.53482       0.10338
                        -----------------------------------------
Magnitude (a.u.)       :      0.56780
Magnitude (Debye)      :      1.44324

                             ****ORCA TERMINATED NORMALLY****
TOTAL RUN TIME: 0 days 0 hours 0 minutes 8 seconds 79 msec
