                         Program Version 3.0.3 - RELEASE   -
|  1> ! RI PBE def2-SVP def2-SVP/J NBO PAL2
|  2> % maxcore 2000
|  3> % output
|  4>     # printlevel mini
|  5>     print[ P_Basis ] 0
|  6>     print[ P_SCFInfo ] 1
|  7>     print[ P_SCFIterInfo ] 1
|  8>     print[ P_OrbEn ] 0
|  9>     print[ P_Cartesian ] 0
| 10> end
| 11> *xyz 0 1
| 12>  N        1.0044320000     0.1065020000    -0.1910030000
| 13>  C        2.4299590000    -0.0479250000     0.1128270000
| 14>  C        3.1951210000     1.1908300000    -0.3471370000
| 15>  C        3.3824520000     1.1858710000    -1.8552840000
| 16>  C        4.2140360000    -0.0141790000    -2.2830270000
| 17>  C        3.7681990000    -1.2694860000    -1.6039010000
| 18>  C        2.9588410000    -1.2859000000    -0.5504820000
| 19>  H        0.5592340000     0.7028030000     0.4968400000
| 20>  H        0.5325270000    -0.7889380000    -0.1611560000
| 21>  H        2.5976700000    -0.1696420000     1.1957530000
| 22>  H        4.1718400000     1.2089000000     0.1504350000
| 23>  H        2.6553510000     2.0866550000    -0.0249110000
| 24>  H        3.8520990000     2.1140670000    -2.1917290000
| 25>  H        2.3953980000     1.1304300000    -2.3239900000
| 26>  H        5.2768720000     0.1562650000    -2.0606120000
| 27>  H        4.1619190000    -0.1501990000    -3.3686770000
| 28>  H        4.1350490000    -2.2108140000    -2.0054380000
| 29>  H        2.6542100000    -2.2381320000    -0.1214980000
| 30> *
| 31>
| 32>                          ****END OF INPUT****
 Total Charge           Charge          ....    0
 Multiplicity           Mult            ....    1
 Number of Electrons    NEL             ....   54
 Basis Dimension        Dim             ....  153

MULLIKEN ATOMIC CHARGES
-----------------------
   0 N :   -0.171449
   1 C :    0.009540
   2 C :    0.052670
   3 C :    0.016157
   4 C :    0.034208
   5 C :   -0.065830
   6 C :   -0.054120
   7 H :    0.083934
   8 H :    0.080890
   9 H :   -0.002744
  10 H :   -0.004310
  11 H :   -0.009592
  12 H :   -0.003011
  13 H :    0.015227
  14 H :    0.022794
  15 H :    0.022645
  16 H :   -0.011797
  17 H :   -0.015215
Sum of atomic charges:   -0.0000000

LOEWDIN ATOMIC CHARGES
----------------------
   0 N :   -0.101285
   1 C :   -0.000916
   2 C :   -0.039763
   3 C :   -0.037802
   4 C :   -0.047581
   5 C :   -0.030092
   6 C :   -0.054156
   7 H :    0.049788
   8 H :    0.049532
   9 H :    0.010707
  10 H :    0.020855
  11 H :    0.021333
  12 H :    0.021606
  13 H :    0.026043
  14 H :    0.034424
  15 H :    0.034852
  16 H :    0.022854
  17 H :    0.019602

  Mayer bond orders larger than 0.1
B(  0-N ,  1-C ) :   1.0623 B(  0-N ,  7-H ) :   0.9602 B(  0-N ,  8-H ) :   0.9578
B(  1-C ,  2-C ) :   1.0647 B(  1-C ,  6-C ) :   1.0002 B(  1-C ,  9-H ) :   0.8979
B(  2-C ,  3-C ) :   1.0863 B(  2-C , 10-H ) :   0.9240 B(  2-C , 11-H ) :   0.9201
B(  3-C ,  4-C ) :   1.1079 B(  3-C , 12-H ) :   0.9285 B(  3-C , 13-H ) :   0.9246
B(  4-C ,  5-C ) :   1.0452 B(  4-C , 14-H ) :   0.9074 B(  4-C , 15-H ) :   0.9181
B(  5-C ,  6-C ) :   1.9348 B(  5-C , 16-H ) :   0.9559 B(  6-C , 17-H ) :   0.9529

FINAL SINGLE POINT ENERGY      -289.389931941992

DIPOLE MOMENT
-------------
                                X             Y             Z
Electronic contribution:     -0.52672      -1.79402       0.40448
Nuclear contribution   :      0.46574       1.67970      -0.04091
                        -----------------------------------------
Total Dipole Moment    :     -0.06098      -0.11431       0.36357
                        -----------------------------------------
Magnitude (a.u.)       :      0.38596
Magnitude (Debye)      :      0.98104

                             ****ORCA TERMINATED NORMALLY****
TOTAL RUN TIME: 0 days 0 hours 0 minutes 8 seconds 464 msec
