                         Program Version 3.0.3 - RELEASE   -
|  1> ! RI PBE def2-SVP def2-SVP/J NBO PAL2
|  2> % maxcore 2000
|  3> % output
|  4>     # printlevel mini
|  5>     print[ P_Basis ] 0
|  6>     print[ P_SCFInfo ] 1
|  7>     print[ P_SCFIterInfo ] 1
|  8>     print[ P_OrbEn ] 0
|  9>     print[ P_Cartesian ] 0
| 10> end
| 11> *xyz 0 1
| 12>  N        1.1566540000    -0.0806080000     0.1307380000
| 13>  C        2.5103590000    -0.0086680000     0.0255600000
| 14>  C        3.1753190000     1.2273980000    -0.0328130000
| 15>  C        4.5476440000     1.2268550000    -0.1388300000
| 16>  C        5.2344680000     0.0178540000    -0.1849980000
| 17>  C        4.4840830000    -1.1418830000    -0.1204130000
| 18>  N        3.1600160000    -1.1712950000    -0.0179890000
| 19>  H        0.5868800000     0.7406440000     0.1692290000
| 20>  H        0.7301160000    -0.9871820000     0.1681570000
| 21>  H        2.6158130000     2.1552660000     0.0051780000
| 22>  H        5.0849990000     2.1678970000    -0.1856940000
| 23>  H        6.3126110000    -0.0223310000    -0.2680610000
| 24>  H        4.9728280000    -2.1125470000    -0.1526450000
| 25> *
| 26>
| 27>                          ****END OF INPUT****
 Total Charge           Charge          ....    0
 Multiplicity           Mult            ....    1
 Number of Electrons    NEL             ....   50
 Basis Dimension        Dim             ....  128

MULLIKEN ATOMIC CHARGES
-----------------------
   0 N :   -0.016716
   1 C :   -0.060401
   2 C :   -0.012410
   3 C :    0.063848
   4 C :   -0.042101
   5 C :    0.037145
   6 N :   -0.105015
   7 H :    0.101505
   8 H :    0.110438
   9 H :   -0.039647
  10 H :   -0.015316
  11 H :   -0.013237
  12 H :   -0.008093
Sum of atomic charges:   -0.0000000

LOEWDIN ATOMIC CHARGES
----------------------
   0 N :    0.013789
   1 C :    0.024764
   2 C :   -0.086131
   3 C :   -0.001251
   4 C :   -0.090739
   5 C :    0.014768
   6 N :   -0.112816
   7 H :    0.070292
   8 H :    0.070668
   9 H :    0.022230
  10 H :    0.029681
  11 H :    0.027234
  12 H :    0.017511

  Mayer bond orders larger than 0.1
B(  0-N ,  1-C ) :   1.2874 B(  0-N ,  7-H ) :   0.9428 B(  0-N ,  8-H ) :   0.9340
B(  1-C ,  2-C ) :   1.2598 B(  1-C ,  6-N ) :   1.4882 B(  2-C ,  3-C ) :   1.4712
B(  2-C ,  9-H ) :   0.9598 B(  3-C ,  4-C ) :   1.3644 B(  3-C , 10-H ) :   0.9694
B(  4-C ,  5-C ) :   1.3946 B(  4-C , 11-H ) :   0.9707 B(  5-C ,  6-N ) :   1.5256
B(  5-C , 12-H ) :   0.9656

FINAL SINGLE POINT ENERGY      -303.057993208230

DIPOLE MOMENT
-------------
                                X             Y             Z
Electronic contribution:     -0.43494      -1.18498       0.03852
Nuclear contribution   :     -0.13881       1.79712      -0.00063
                        -----------------------------------------
Total Dipole Moment    :     -0.57375       0.61215       0.03788
                        -----------------------------------------
Magnitude (a.u.)       :      0.83985
Magnitude (Debye)      :      2.13472

                             ****ORCA TERMINATED NORMALLY****
TOTAL RUN TIME: 0 days 0 hours 0 minutes 6 seconds 204 msec
