                         Program Version 3.0.3 - RELEASE   -
|  1> ! RI PBE def2-SVP def2-SVP/J NBO PAL2
|  2> % maxcore 2000
|  3> % output
|  4>     # printlevel mini
|  5>     print[ P_Basis ] 0
|  6>     print[ P_SCFInfo ] 1
|  7>     print[ P_SCFIterInfo ] 1
|  8>     print[ P_OrbEn ] 0
|  9>     print[ P_Cartesian ] 0
| 10> end
| 11> *xyz 0 1
| 12>  N        1.1422560000     0.0559460000     0.4663160000
| 13>  C        2.3422280000    -0.0793830000     0.0538410000
| 14>  C        3.0693880000    -1.3924680000    -0.1089820000
| 15>  C        4.0848900000    -1.3874240000    -1.2441020000
| 16>  C        4.9886690000    -0.1724960000    -1.1238560000
| 17>  C        4.1574750000     1.0934740000    -1.1626510000
| 18>  N        3.0912630000     1.0449170000    -0.1823630000
| 19>  H        0.7359440000    -0.8508190000     0.6759480000
| 20>  H        2.3303910000    -2.1852330000    -0.2398130000
| 21>  H        3.5889760000    -1.5906750000     0.8362440000
| 22>  H        3.5625820000    -1.3583580000    -2.2075190000
| 23>  H        4.6676940000    -2.3121550000    -1.2293230000
| 24>  H        5.7227030000    -0.1465830000    -1.9332880000
| 25>  H        5.5436580000    -0.2170090000    -0.1803230000
| 26>  H        3.7565820000     1.2272780000    -2.1800230000
| 27>  H        4.7807940000     1.9652210000    -0.9472550000
| 28>  H        2.5369070000     1.8841580000    -0.0924530000
| 29> *
| 30>
| 31>                          ****END OF INPUT****
 Total Charge           Charge          ....    0
 Multiplicity           Mult            ....    1
 Number of Electrons    NEL             ....   54
 Basis Dimension        Dim             ....  148

MULLIKEN ATOMIC CHARGES
-----------------------
   0 N :   -0.112875
   1 C :   -0.209129
   2 C :    0.088936
   3 C :   -0.008409
   4 C :   -0.045093
   5 C :    0.132087
   6 N :   -0.132989
   7 H :    0.073388
   8 H :    0.003852
   9 H :    0.032971
  10 H :    0.006756
  11 H :    0.008925
  12 H :    0.023760
  13 H :    0.017287
  14 H :    0.003050
  15 H :    0.012602
  16 H :    0.104881
Sum of atomic charges:   -0.0000000

LOEWDIN ATOMIC CHARGES
----------------------
   0 N :   -0.182619
   1 C :   -0.003066
   2 C :   -0.056370
   3 C :   -0.040994
   4 C :   -0.046906
   5 C :    0.024948
   6 N :   -0.018420
   7 H :    0.040343
   8 H :    0.030989
   9 H :    0.041253
  10 H :    0.024347
  11 H :    0.026547
  12 H :    0.031464
  13 H :    0.026231
  14 H :    0.009609
  15 H :    0.023646
  16 H :    0.068997

  Mayer bond orders larger than 0.1
B(  0-N ,  1-C ) :   1.9598 B(  0-N ,  7-H ) :   0.9249 B(  1-C ,  2-C ) :   0.9990
B(  1-C ,  6-N ) :   1.1770 B(  2-C ,  3-C ) :   1.0768 B(  2-C ,  8-H ) :   0.9127
B(  2-C ,  9-H ) :   0.9112 B(  3-C ,  4-C ) :   1.0925 B(  3-C , 10-H ) :   0.9333
B(  3-C , 11-H ) :   0.9242 B(  4-C ,  5-C ) :   1.0985 B(  4-C , 12-H ) :   0.9322
B(  4-C , 13-H ) :   0.9306 B(  5-C ,  6-N ) :   1.0171 B(  5-C , 14-H ) :   0.9267
B(  5-C , 15-H ) :   0.9367 B(  6-N , 16-H ) :   0.9125

FINAL SINGLE POINT ENERGY      -305.439317665492

DIPOLE MOMENT
-------------
                                X             Y             Z
Electronic contribution:     -3.38095       1.94548       2.09606
Nuclear contribution   :      4.25355      -2.25848      -2.56844
                        -----------------------------------------
Total Dipole Moment    :      0.87260      -0.31300      -0.47238
                        -----------------------------------------
Magnitude (a.u.)       :      1.04046
Magnitude (Debye)      :      2.64464

                             ****ORCA TERMINATED NORMALLY****
TOTAL RUN TIME: 0 days 0 hours 0 minutes 7 seconds 777 msec
