                         Program Version 3.0.3 - RELEASE   -
|  1> ! RI PBE def2-SVP def2-SVP/J NBO PAL2
|  2> % maxcore 2000
|  3> % output
|  4>     # printlevel mini
|  5>     print[ P_Basis ] 0
|  6>     print[ P_SCFInfo ] 1
|  7>     print[ P_SCFIterInfo ] 1
|  8>     print[ P_OrbEn ] 0
|  9>     print[ P_Cartesian ] 0
| 10> end
| 11> *xyz 0 1
| 12>  N        0.7773380000     0.1361000000    -0.0019200000
| 13>  C        2.0502960000     0.0215890000    -0.0008360000
| 14>  C        2.7800620000    -1.3006560000     0.0024300000
| 15>  C        4.2676060000    -1.2123400000     0.0030250000
| 16>  C        4.9209810000    -0.0606960000     0.0010370000
| 17>  C        4.2391200000     1.2587910000    -0.0019990000
| 18>  N        2.8071800000     1.1496020000    -0.0026730000
| 19>  H        0.3386680000    -0.7792340000    -0.0002920000
| 20>  H        2.4377600000    -1.8717600000    -0.8685220000
| 21>  H        2.4368520000    -1.8679500000     0.8755150000
| 22>  H        4.8198400000    -2.1473040000     0.0052180000
| 23>  H        6.0055450000    -0.0382850000     0.0015770000
| 24>  H        4.5755970000     1.8300400000    -0.8800140000
| 25>  H        4.5745250000     1.8335170000     0.8741590000
| 26>  H        2.2658400000     1.9990760000    -0.0048060000
| 27> *
| 28>
| 29>                          ****END OF INPUT****
 Total Charge           Charge          ....    0
 Multiplicity           Mult            ....    1
 Number of Electrons    NEL             ....   52
 Basis Dimension        Dim             ....  138

MULLIKEN ATOMIC CHARGES
-----------------------
   0 N :   -0.119568
   1 C :   -0.189066
   2 C :    0.107274
   3 C :   -0.048260
   4 C :   -0.155259
   5 C :    0.220762
   6 N :   -0.130641
   7 H :    0.068631
   8 H :    0.043453
   9 H :    0.043396
  10 H :   -0.007616
  11 H :    0.008222
  12 H :    0.025896
  13 H :    0.025959
  14 H :    0.106819
Sum of atomic charges:   -0.0000000

LOEWDIN ATOMIC CHARGES
----------------------
   0 N :   -0.199096
   1 C :    0.002838
   2 C :   -0.063060
   3 C :   -0.042155
   4 C :   -0.056880
   5 C :    0.025641
   6 N :    0.001501
   7 H :    0.039648
   8 H :    0.049108
   9 H :    0.049097
  10 H :    0.027056
  11 H :    0.031875
  12 H :    0.030579
  13 H :    0.030594
  14 H :    0.073253

  Mayer bond orders larger than 0.1
B(  0-N ,  1-C ) :   1.9651 B(  0-N ,  7-H ) :   0.9321 B(  1-C ,  2-C ) :   0.9726
B(  1-C ,  6-N ) :   1.2176 B(  2-C ,  3-C ) :   1.0376 B(  2-C ,  8-H ) :   0.8954
B(  2-C ,  9-H ) :   0.8954 B(  3-C ,  4-C ) :   1.9090 B(  3-C , 10-H ) :   0.9547
B(  4-C ,  5-C ) :   1.0385 B(  4-C , 11-H ) :   0.9605 B(  5-C ,  6-N ) :   1.0292
B(  5-C , 12-H ) :   0.9099 B(  5-C , 13-H ) :   0.9099 B(  6-N , 14-H ) :   0.9124

FINAL SINGLE POINT ENERGY      -304.219376516830

DIPOLE MOMENT
-------------
                                X             Y             Z
Electronic contribution:     -1.56408       0.88848      -0.00290
Nuclear contribution   :      2.54116      -1.08179       0.00401
                        -----------------------------------------
Total Dipole Moment    :      0.97709      -0.19331       0.00111
                        -----------------------------------------
Magnitude (a.u.)       :      0.99603
Magnitude (Debye)      :      2.53170

                             ****ORCA TERMINATED NORMALLY****
TOTAL RUN TIME: 0 days 0 hours 0 minutes 6 seconds 642 msec
