                         Program Version 3.0.3 - RELEASE   -
|  1> ! RI PBE def2-SVP def2-SVP/J NBO PAL2
|  2> % maxcore 2000
|  3> % output
|  4>     # printlevel mini
|  5>     print[ P_Basis ] 0
|  6>     print[ P_SCFInfo ] 1
|  7>     print[ P_SCFIterInfo ] 1
|  8>     print[ P_OrbEn ] 0
|  9>     print[ P_Cartesian ] 0
| 10> end
| 11> *xyz 0 1
| 12>  N        0.9558340000    -0.1889500000     0.3378360000
| 13>  C        2.1856360000    -0.0953390000     0.0227930000
| 14>  C        2.9357920000     1.1526950000    -0.3708020000
| 15>  C        4.3783830000     1.1732230000     0.1309560000
| 16>  C        5.0457550000    -0.1355770000    -0.1538250000
| 17>  C        4.3130010000    -1.2466900000    -0.2136160000
| 18>  N        2.9385780000    -1.2414040000    -0.0491620000
| 19>  H        0.5167440000     0.7263660000     0.3254940000
| 20>  H        2.3768930000     2.0248690000    -0.0279330000
| 21>  H        2.9443740000     1.1799760000    -1.4672250000
| 22>  H        4.3961740000     1.3777000000     1.2101340000
| 23>  H        4.9160920000     1.9987110000    -0.3424890000
| 24>  H        6.1176340000    -0.1917530000    -0.2876580000
| 25>  H        4.7473210000    -2.2231830000    -0.3894430000
| 26>  H        2.4423680000    -2.1018440000     0.1116500000
| 27> *
| 28>
| 29>                          ****END OF INPUT****
 Total Charge           Charge          ....    0
 Multiplicity           Mult            ....    1
 Number of Electrons    NEL             ....   52
 Basis Dimension        Dim             ....  138

MULLIKEN ATOMIC CHARGES
-----------------------
   0 N :   -0.096341
   1 C :   -0.179179
   2 C :    0.039162
   3 C :    0.080320
   4 C :   -0.151459
   5 C :    0.074764
   6 N :   -0.043987
   7 H :    0.081390
   8 H :   -0.001042
   9 H :    0.049665
  10 H :    0.031789
  11 H :    0.007273
  12 H :   -0.000635
  13 H :   -0.002982
  14 H :    0.111260
Sum of atomic charges:   -0.0000000

LOEWDIN ATOMIC CHARGES
----------------------
   0 N :   -0.165646
   1 C :    0.007497
   2 C :   -0.053999
   3 C :   -0.037900
   4 C :   -0.108480
   5 C :   -0.002946
   6 N :    0.039280
   7 H :    0.045182
   8 H :    0.031262
   9 H :    0.045799
  10 H :    0.034329
  11 H :    0.032794
  12 H :    0.026966
  13 H :    0.025515
  14 H :    0.080345

  Mayer bond orders larger than 0.1
B(  0-N ,  1-C ) :   1.9786 B(  0-N ,  7-H ) :   0.9234 B(  1-C ,  2-C ) :   1.0047
B(  1-C ,  6-N ) :   1.1447 B(  2-C ,  3-C ) :   1.0741 B(  2-C ,  8-H ) :   0.9093
B(  2-C ,  9-H ) :   0.9141 B(  3-C ,  4-C ) :   1.0505 B(  3-C , 10-H ) :   0.9255
B(  3-C , 11-H ) :   0.9108 B(  4-C ,  5-C ) :   1.8060 B(  4-C , 12-H ) :   0.9634
B(  5-C ,  6-N ) :   1.1266 B(  5-C , 13-H ) :   0.9583 B(  6-N , 14-H ) :   0.9135

FINAL SINGLE POINT ENERGY      -304.231155056148

DIPOLE MOMENT
-------------
                                X             Y             Z
Electronic contribution:     -1.95327      -2.95506       0.30294
Nuclear contribution   :      2.50146       3.16030      -0.51112
                        -----------------------------------------
Total Dipole Moment    :      0.54819       0.20524      -0.20819
                        -----------------------------------------
Magnitude (a.u.)       :      0.62127
Magnitude (Debye)      :      1.57914

                             ****ORCA TERMINATED NORMALLY****
TOTAL RUN TIME: 0 days 0 hours 0 minutes 7 seconds 186 msec
