                         Program Version 3.0.3 - RELEASE   -
|  1> ! RI PBE def2-SVP def2-SVP/J NBO PAL2
|  2> % maxcore 2000
|  3> % output
|  4>     # printlevel mini
|  5>     print[ P_Basis ] 0
|  6>     print[ P_SCFInfo ] 1
|  7>     print[ P_SCFIterInfo ] 1
|  8>     print[ P_OrbEn ] 0
|  9>     print[ P_Cartesian ] 0
| 10> end
| 11> *xyz 0 1
| 12>  N        1.0814610000    -0.0648030000     0.0022050000
| 13>  C        2.4454070000    -0.0472420000    -0.0776940000
| 14>  C        3.1700250000     1.1429470000    -0.1544300000
| 15>  C        4.5485500000     1.0859730000    -0.2329320000
| 16>  C        5.1786390000    -0.1495800000    -0.2336550000
| 17>  N        4.5028290000    -1.2912730000    -0.1611630000
| 18>  C        3.1846090000    -1.2380900000    -0.0860570000
| 19>  H        0.5536800000     0.7856830000     0.0074320000
| 20>  H        0.5830960000    -0.9314870000     0.0556770000
| 21>  H        2.6531680000     2.0975390000    -0.1521230000
| 22>  H        5.1327010000     1.9969570000    -0.2933850000
| 23>  H        6.2599700000    -0.2250120000    -0.2943500000
| 24>  H        2.6618540000    -2.1920020000    -0.0279340000
| 25> *
| 26>
| 27>                          ****END OF INPUT****
 Total Charge           Charge          ....    0
 Multiplicity           Mult            ....    1
 Number of Electrons    NEL             ....   50
 Basis Dimension        Dim             ....  128

MULLIKEN ATOMIC CHARGES
-----------------------
   0 N :   -0.050990
   1 C :   -0.004650
   2 C :    0.028881
   3 C :   -0.010722
   4 C :   -0.003032
   5 N :   -0.068903
   6 C :   -0.021184
   7 H :    0.104616
   8 H :    0.107374
   9 H :   -0.033264
  10 H :   -0.016034
  11 H :   -0.004304
  12 H :   -0.027788
Sum of atomic charges:   -0.0000000

LOEWDIN ATOMIC CHARGES
----------------------
   0 N :    0.005187
   1 C :   -0.007624
   2 C :   -0.052557
   3 C :   -0.039293
   4 C :   -0.032695
   5 N :   -0.057339
   6 C :   -0.037464
   7 H :    0.069649
   8 H :    0.071557
   9 H :    0.024006
  10 H :    0.029610
  11 H :    0.015776
  12 H :    0.011187

  Mayer bond orders larger than 0.1
B(  0-N ,  1-C ) :   1.2706 B(  0-N ,  7-H ) :   0.9486 B(  0-N ,  8-H ) :   0.9470
B(  1-C ,  2-C ) :   1.3280 B(  1-C ,  6-C ) :   1.2750 B(  2-C ,  3-C ) :   1.4291
B(  2-C ,  9-H ) :   0.9782 B(  3-C ,  4-C ) :   1.3761 B(  3-C , 10-H ) :   0.9606
B(  4-C ,  5-N ) :   1.5262 B(  4-C , 11-H ) :   0.9698 B(  5-N ,  6-C ) :   1.6006
B(  6-C , 12-H ) :   0.9705

FINAL SINGLE POINT ENERGY      -303.047435349842

DIPOLE MOMENT
-------------
                                X             Y             Z
Electronic contribution:      1.02900      -1.21195      -0.02568
Nuclear contribution   :     -2.32867       1.90376       0.07886
                        -----------------------------------------
Total Dipole Moment    :     -1.29967       0.69181       0.05317
                        -----------------------------------------
Magnitude (a.u.)       :      1.47329
Magnitude (Debye)      :      3.74480

                             ****ORCA TERMINATED NORMALLY****
TOTAL RUN TIME: 0 days 0 hours 0 minutes 6 seconds 228 msec
