                         Program Version 3.0.3 - RELEASE   -
|  1> ! RI PBE def2-SVP def2-SVP/J NBO PAL2
|  2> % maxcore 2000
|  3> % output
|  4>     # printlevel mini
|  5>     print[ P_Basis ] 0
|  6>     print[ P_SCFInfo ] 1
|  7>     print[ P_SCFIterInfo ] 1
|  8>     print[ P_OrbEn ] 0
|  9>     print[ P_Cartesian ] 0
| 10> end
| 11> *xyz 0 1
| 12>  N        0.9971420000     0.0253170000     0.0605170000
| 13>  C        2.4461910000    -0.0792170000    -0.0751050000
| 14>  C        2.9579640000    -1.4773500000    -0.4450850000
| 15>  C        2.5919910000    -1.8457960000    -1.8774650000
| 16>  C        3.0617640000    -0.7611870000    -2.8424300000
| 17>  N        2.6179760000     0.5759260000    -2.4903870000
| 18>  C        2.9372150000     0.9253010000    -1.1185230000
| 19>  H        0.6625440000    -0.6147070000     0.7711540000
| 20>  H        0.5390260000    -0.2458470000    -0.8018170000
| 21>  H        2.8721750000     0.2094910000     0.8923130000
| 22>  H        2.5647610000    -2.2174330000     0.2600230000
| 23>  H        4.0501890000    -1.4936380000    -0.3393310000
| 24>  H        1.5053940000    -1.9677120000    -1.9693310000
| 25>  H        3.0313140000    -2.8112660000    -2.1482620000
| 26>  H        2.7391970000    -0.9803360000    -3.8639540000
| 27>  H        4.1599160000    -0.7492320000    -2.8568040000
| 28>  H        1.6271720000     0.6853120000    -2.6673170000
| 29>  H        2.5206190000     1.9107340000    -0.8980910000
| 30>  H        4.0286500000     1.0041510000    -1.0419050000
| 31> *
| 32>
| 33>                          ****END OF INPUT****
 Total Charge           Charge          ....    0
 Multiplicity           Mult            ....    1
 Number of Electrons    NEL             ....   56
 Basis Dimension        Dim             ....  158

MULLIKEN ATOMIC CHARGES
-----------------------
   0 N :   -0.161399
   1 C :   -0.070515
   2 C :    0.024314
   3 C :   -0.003965
   4 C :    0.081128
   5 N :   -0.238406
   6 C :    0.132209
   7 H :    0.084368
   8 H :    0.063968
   9 H :   -0.007965
  10 H :   -0.000690
  11 H :   -0.000981
  12 H :   -0.009200
  13 H :    0.002107
  14 H :    0.004561
  15 H :    0.001811
  16 H :    0.092785
  17 H :    0.006352
  18 H :   -0.000482
Sum of atomic charges:   -0.0000000

LOEWDIN ATOMIC CHARGES
----------------------
   0 N :   -0.096076
   1 C :   -0.018802
   2 C :   -0.058019
   3 C :   -0.063265
   4 C :    0.006795
   5 N :   -0.092692
   6 C :    0.007671
   7 H :    0.050794
   8 H :    0.034597
   9 H :    0.020112
  10 H :    0.017803
  11 H :    0.022531
  12 H :    0.011508
  13 H :    0.024582
  14 H :    0.020550
  15 H :    0.020392
  16 H :    0.049246
  17 H :    0.022383
  18 H :    0.019889

  Mayer bond orders larger than 0.1
B(  0-N ,  1-C ) :   1.0937 B(  0-N ,  7-H ) :   0.9666 B(  0-N ,  8-H ) :   0.9660
B(  1-C ,  2-C ) :   1.0365 B(  1-C ,  6-C ) :   1.0320 B(  1-C ,  9-H ) :   0.9026
B(  2-C ,  3-C ) :   1.0756 B(  2-C , 10-H ) :   0.9285 B(  2-C , 11-H ) :   0.9176
B(  3-C ,  4-C ) :   1.0737 B(  3-C , 12-H ) :   0.9201 B(  3-C , 13-H ) :   0.9195
B(  4-C ,  5-N ) :   1.0978 B(  4-C , 14-H ) :   0.9414 B(  4-C , 15-H ) :   0.9247
B(  5-N ,  6-C ) :   1.0995 B(  5-N , 16-H ) :   0.9481 B(  6-C , 17-H ) :   0.9332
B(  6-C , 18-H ) :   0.9263

FINAL SINGLE POINT ENERGY      -306.619057259099

DIPOLE MOMENT
-------------
                                X             Y             Z
Electronic contribution:     -0.60058       1.91875      -0.23423
Nuclear contribution   :      0.40261      -2.56479       0.31432
                        -----------------------------------------
Total Dipole Moment    :     -0.19797      -0.64604       0.08009
                        -----------------------------------------
Magnitude (a.u.)       :      0.68042
Magnitude (Debye)      :      1.72948

                             ****ORCA TERMINATED NORMALLY****
TOTAL RUN TIME: 0 days 0 hours 0 minutes 8 seconds 724 msec
