                         Program Version 3.0.3 - RELEASE   -
|  1> ! RI PBE def2-SVP def2-SVP/J NBO PAL2
|  2> % maxcore 2000
|  3> % output
|  4>     # printlevel mini
|  5>     print[ P_Basis ] 0
|  6>     print[ P_SCFInfo ] 1
|  7>     print[ P_SCFIterInfo ] 1
|  8>     print[ P_OrbEn ] 0
|  9>     print[ P_Cartesian ] 0
| 10> end
| 11> *xyz 0 1
| 12>  N        0.9362090000    -0.0564370000    -0.1966460000
| 13>  C        2.3661410000    -0.0231440000     0.0357870000
| 14>  C        2.9364650000     1.0804340000     0.9321300000
| 15>  C        4.3508100000     0.5947060000     1.2077930000
| 16>  C        4.2307340000    -0.9319750000     1.3708110000
| 17>  N        5.4182640000    -1.5925370000     0.8545500000
| 18>  C        2.8732760000    -1.2942000000     0.7154800000
| 19>  H        0.6250220000     0.7952490000    -0.6482500000
| 20>  H        0.4415770000    -0.1210610000     0.6864800000
| 21>  H        2.8457010000     0.0663430000    -0.9480410000
| 22>  H        2.3515130000     1.1234550000     1.8598180000
| 23>  H        2.8956970000     2.0711450000     0.4715410000
| 24>  H        4.8298470000     1.0681430000     2.0661190000
| 25>  H        4.9873630000     0.8009980000     0.3397610000
| 26>  H        4.1862980000    -1.1761400000     2.4363480000
| 27>  H        5.4967960000    -1.4423320000    -0.1453780000
| 28>  H        5.3628290000    -2.5937320000     0.9977490000
| 29>  H        2.1466170000    -1.5909500000     1.4809790000
| 30>  H        2.9615310000    -2.1337650000     0.0225690000
| 31> *
| 32>
| 33>                          ****END OF INPUT****
 Total Charge           Charge          ....    0
 Multiplicity           Mult            ....    1
 Number of Electrons    NEL             ....   56
 Basis Dimension        Dim             ....  158

MULLIKEN ATOMIC CHARGES
-----------------------
   0 N :   -0.144463
   1 C :   -0.123491
   2 C :    0.052674
   3 C :    0.073240
   4 C :   -0.109405
   5 N :   -0.161538
   6 C :    0.125918
   7 H :    0.084500
   8 H :    0.081120
   9 H :   -0.003176
  10 H :   -0.012165
  11 H :    0.000989
  12 H :    0.009351
  13 H :   -0.005407
  14 H :   -0.005011
  15 H :    0.079016
  16 H :    0.085928
  17 H :   -0.015972
  18 H :   -0.012107
Sum of atomic charges:   -0.0000000

LOEWDIN ATOMIC CHARGES
----------------------
   0 N :   -0.094139
   1 C :   -0.008021
   2 C :   -0.058726
   3 C :   -0.039129
   4 C :    0.000157
   5 N :   -0.093808
   6 C :   -0.057342
   7 H :    0.050482
   8 H :    0.046242
   9 H :    0.018409
  10 H :    0.015561
  11 H :    0.017683
  12 H :    0.025560
  13 H :    0.023894
  14 H :    0.020093
  15 H :    0.044582
  16 H :    0.049014
  17 H :    0.020327
  18 H :    0.019161

  Mayer bond orders larger than 0.1
B(  0-N ,  1-C ) :   1.1250 B(  0-N ,  7-H ) :   0.9640 B(  0-N ,  8-H ) :   0.9624
B(  1-C ,  2-C ) :   1.0246 B(  1-C ,  6-C ) :   1.0761 B(  1-C ,  9-H ) :   0.9027
B(  2-C ,  3-C ) :   1.0848 B(  2-C , 10-H ) :   0.9118 B(  2-C , 11-H ) :   0.9295
B(  3-C ,  4-C ) :   1.0772 B(  3-C , 12-H ) :   0.9269 B(  3-C , 13-H ) :   0.9109
B(  4-C ,  5-N ) :   1.1142 B(  4-C ,  6-C ) :   1.0472 B(  4-C , 14-H ) :   0.9012
B(  5-N , 15-H ) :   0.9675 B(  5-N , 16-H ) :   0.9688 B(  6-C , 17-H ) :   0.9024
B(  6-C , 18-H ) :   0.9149

FINAL SINGLE POINT ENERGY      -306.618080530694

DIPOLE MOMENT
-------------
                                X             Y             Z
Electronic contribution:      0.07105      -0.62363      -0.31374
Nuclear contribution   :     -0.34929       0.78166       0.31686
                        -----------------------------------------
Total Dipole Moment    :     -0.27824       0.15803       0.00312
                        -----------------------------------------
Magnitude (a.u.)       :      0.32000
Magnitude (Debye)      :      0.81337

                             ****ORCA TERMINATED NORMALLY****
TOTAL RUN TIME: 0 days 0 hours 0 minutes 7 seconds 951 msec
