                         Program Version 3.0.3 - RELEASE   -
|  1> ! RI PBE def2-SVP def2-SVP/J NBO PAL2
|  2> % maxcore 2000
|  3> % output
|  4>     # printlevel mini
|  5>     print[ P_Basis ] 0
|  6>     print[ P_SCFInfo ] 1
|  7>     print[ P_SCFIterInfo ] 1
|  8>     print[ P_OrbEn ] 0
|  9>     print[ P_Cartesian ] 0
| 10> end
| 11> *xyz 0 1
| 12>  N        1.0822460000     0.2520620000     0.2604190000
| 13>  C        2.4938290000    -0.0266540000     0.0440100000
| 14>  C        2.8829910000    -1.4836100000    -0.2838480000
| 15>  C        2.9540900000    -1.5333390000    -1.8077480000
| 16>  N        3.4247050000    -0.2020600000    -2.2303180000
| 17>  C        2.3385020000     0.7478430000    -2.4231110000
| 18>  C        3.0716760000     0.7268380000    -1.1462500000
| 19>  H        0.7469100000    -0.2533310000     1.0716940000
| 20>  H        0.5229480000    -0.0514490000    -0.5271590000
| 21>  H        3.0107990000     0.3006860000     0.9496780000
| 22>  H        2.1899230000    -2.2098700000     0.1481870000
| 23>  H        3.8765570000    -1.6891580000     0.1258270000
| 24>  H        1.9766480000    -1.7591670000    -2.2505140000
| 25>  H        3.6527920000    -2.2911690000    -2.1673250000
| 26>  H        1.3238420000     0.3584280000    -2.4548820000
| 27>  H        2.5295800000     1.5396590000    -3.1404770000
| 28>  H        3.7928720000     1.5120930000    -0.9446930000
| 29> *
| 30>
| 31>                          ****END OF INPUT****
 Total Charge           Charge          ....    0
 Multiplicity           Mult            ....    1
 Number of Electrons    NEL             ....   54
 Basis Dimension        Dim             ....  148

MULLIKEN ATOMIC CHARGES
-----------------------
   0 N :   -0.141851
   1 C :   -0.041705
   2 C :    0.074675
   3 C :    0.104428
   4 N :   -0.279307
   5 C :    0.095788
   6 C :   -0.057240
   7 H :    0.087518
   8 H :    0.071768
   9 H :    0.001362
  10 H :   -0.011680
  11 H :    0.010727
  12 H :   -0.004444
  13 H :    0.021303
  14 H :    0.018279
  15 H :    0.030221
  16 H :    0.020158
Sum of atomic charges:   -0.0000000

LOEWDIN ATOMIC CHARGES
----------------------
   0 N :   -0.092141
   1 C :   -0.004225
   2 C :   -0.056739
   3 C :    0.012967
   4 N :   -0.119430
   5 C :    0.010874
   6 C :    0.002163
   7 H :    0.050637
   8 H :    0.040625
   9 H :    0.026071
  10 H :    0.018303
  11 H :    0.028171
  12 H :    0.008932
  13 H :    0.023440
  14 H :    0.007987
  15 H :    0.022698
  16 H :    0.019667

  Mayer bond orders larger than 0.1
B(  0-N ,  1-C ) :   1.1255 B(  0-N ,  7-H ) :   0.9638 B(  0-N ,  8-H ) :   0.9591
B(  1-C ,  2-C ) :   1.0281 B(  1-C ,  6-C ) :   1.0196 B(  1-C ,  9-H ) :   0.9187
B(  2-C ,  3-C ) :   1.0816 B(  2-C , 10-H ) :   0.9210 B(  2-C , 11-H ) :   0.9164
B(  3-C ,  4-N ) :   0.9994 B(  3-C , 12-H ) :   0.9282 B(  3-C , 13-H ) :   0.9409
B(  4-N ,  5-C ) :   0.9809 B(  4-N ,  6-C ) :   0.9684 B(  5-C ,  6-C ) :   1.0487
B(  5-C , 14-H ) :   0.9216 B(  5-C , 15-H ) :   0.9397 B(  6-C , 16-H ) :   0.9464

FINAL SINGLE POINT ENERGY      -305.376954648421

DIPOLE MOMENT
-------------
                                X             Y             Z
Electronic contribution:      1.47739       1.60391      -0.98730
Nuclear contribution   :     -1.92751      -2.08749       1.35103
                        -----------------------------------------
Total Dipole Moment    :     -0.45012      -0.48359       0.36373
                        -----------------------------------------
Magnitude (a.u.)       :      0.75416
Magnitude (Debye)      :      1.91693

                             ****ORCA TERMINATED NORMALLY****
TOTAL RUN TIME: 0 days 0 hours 0 minutes 7 seconds 612 msec
