                         Program Version 3.0.3 - RELEASE   -
|  1> ! RI PBE def2-SVP def2-SVP/J NBO PAL2
|  2> % maxcore 2000
|  3> % output
|  4>     # printlevel mini
|  5>     print[ P_Basis ] 0
|  6>     print[ P_SCFInfo ] 1
|  7>     print[ P_SCFIterInfo ] 1
|  8>     print[ P_OrbEn ] 0
|  9>     print[ P_Cartesian ] 0
| 10> end
| 11> *xyz 0 1
| 12>  N        1.0301720000    -0.0603350000    -0.0046060000
| 13>  C        2.3883290000    -0.0459740000    -0.0721000000
| 14>  C        3.1093400000     1.1523770000    -0.1001460000
| 15>  C        4.4880710000     1.1034320000    -0.1690100000
| 16>  N        5.2054560000    -0.0161870000    -0.2119690000
| 17>  C        4.5111190000    -1.1507320000    -0.1848420000
| 18>  C        3.1336880000    -1.2288200000    -0.1168690000
| 19>  H        0.5083400000     0.7939430000     0.0263890000
| 20>  H        0.5259190000    -0.9254540000     0.0142980000
| 21>  H        2.5971010000     2.1079160000    -0.0684550000
| 22>  H        5.0521620000     2.0329590000    -0.1910070000
| 23>  H        5.0940950000    -2.0681310000    -0.2198120000
| 24>  H        2.6410980000    -2.1949830000    -0.0986700000
| 25> *
| 26>
| 27>                          ****END OF INPUT****
 Total Charge           Charge          ....    0
 Multiplicity           Mult            ....    1
 Number of Electrons    NEL             ....   50
 Basis Dimension        Dim             ....  128

MULLIKEN ATOMIC CHARGES
-----------------------
   0 N :   -0.032404
   1 C :    0.062914
   2 C :   -0.048702
   3 C :    0.030237
   4 N :   -0.112151
   5 C :    0.030322
   6 C :   -0.049292
   7 H :    0.107333
   8 H :    0.107287
   9 H :   -0.038126
  10 H :   -0.009755
  11 H :   -0.009500
  12 H :   -0.038165
Sum of atomic charges:   -0.0000000

LOEWDIN ATOMIC CHARGES
----------------------
   0 N :    0.016345
   1 C :    0.025199
   2 C :   -0.092619
   3 C :    0.011074
   4 N :   -0.105675
   5 C :    0.011050
   6 C :   -0.092695
   7 H :    0.072619
   8 H :    0.072596
   9 H :    0.023020
  10 H :    0.018018
  11 H :    0.018078
  12 H :    0.022989

  Mayer bond orders larger than 0.1
B(  0-N ,  1-C ) :   1.3053 B(  0-N ,  7-H ) :   0.9456 B(  0-N ,  8-H ) :   0.9457
B(  1-C ,  2-C ) :   1.3085 B(  1-C ,  6-C ) :   1.3090 B(  2-C ,  3-C ) :   1.4241
B(  2-C ,  9-H ) :   0.9634 B(  3-C ,  4-N ) :   1.5234 B(  3-C , 10-H ) :   0.9608
B(  4-N ,  5-C ) :   1.5238 B(  5-C ,  6-C ) :   1.4236 B(  5-C , 11-H ) :   0.9607
B(  6-C , 12-H ) :   0.9637

FINAL SINGLE POINT ENERGY      -303.051978668157

DIPOLE MOMENT
-------------
                                X             Y             Z
Electronic contribution:      1.71273       0.01822      -0.08422
Nuclear contribution   :     -3.47789      -0.03677       0.17180
                        -----------------------------------------
Total Dipole Moment    :     -1.76516      -0.01854       0.08757
                        -----------------------------------------
Magnitude (a.u.)       :      1.76743
Magnitude (Debye)      :      4.49244

                             ****ORCA TERMINATED NORMALLY****
TOTAL RUN TIME: 0 days 0 hours 0 minutes 5 seconds 951 msec
