                         Program Version 3.0.3 - RELEASE   -
|  1> ! RI PBE def2-SVP def2-SVP/J NBO PAL2
|  2> % maxcore 2000
|  3> % output
|  4>     # printlevel mini
|  5>     print[ P_Basis ] 0
|  6>     print[ P_SCFInfo ] 1
|  7>     print[ P_SCFIterInfo ] 1
|  8>     print[ P_OrbEn ] 0
|  9>     print[ P_Cartesian ] 0
| 10> end
| 11> *xyz 0 1
| 12>  N        0.9311320000     0.0526710000     0.2385560000
| 13>  C        2.3748490000    -0.0547120000     0.0534600000
| 14>  C        2.8699860000    -1.4477550000    -0.3579630000
| 15>  C        2.4969480000    -1.7735050000    -1.7936360000
| 16>  N        3.0341220000    -0.7564410000    -2.6777280000
| 17>  C        2.4809070000     0.5551430000    -2.3949250000
| 18>  C        2.8430170000     0.9701130000    -0.9775470000
| 19>  H        0.6145500000    -0.6220920000     0.9250730000
| 20>  H        0.4401990000    -0.1604090000    -0.6213860000
| 21>  H        2.8271490000     0.2014190000     1.0174760000
| 22>  H        2.4574500000    -2.2034050000     0.3188270000
| 23>  H        3.9608830000    -1.4841850000    -0.2664880000
| 24>  H        1.3963530000    -1.8624620000    -1.8757870000
| 25>  H        2.9121600000    -2.7440690000    -2.0774520000
| 26>  H        2.8717650000    -1.0071410000    -3.6437890000
| 27>  H        1.3817850000     0.5837330000    -2.5224350000
| 28>  H        2.8952510000     1.2733920000    -3.1073110000
| 29>  H        2.4043390000     1.9432360000    -0.7436500000
| 30>  H        3.9315560000     1.0623900000    -0.9167130000
| 31> *
| 32>
| 33>                          ****END OF INPUT****
 Total Charge           Charge          ....    0
 Multiplicity           Mult            ....    1
 Number of Electrons    NEL             ....   56
 Basis Dimension        Dim             ....  158

MULLIKEN ATOMIC CHARGES
-----------------------
   0 N :   -0.158367
   1 C :   -0.085509
   2 C :    0.035209
   3 C :    0.101485
   4 N :   -0.241710
   5 C :    0.076018
   6 C :    0.050621
   7 H :    0.081888
   8 H :    0.075044
   9 H :   -0.003029
  10 H :   -0.004440
  11 H :    0.004981
  12 H :   -0.035989
  13 H :    0.002192
  14 H :    0.096011
  15 H :   -0.019116
  16 H :    0.008026
  17 H :    0.007669
  18 H :    0.009017
Sum of atomic charges:   -0.0000000

LOEWDIN ATOMIC CHARGES
----------------------
   0 N :   -0.094938
   1 C :   -0.003334
   2 C :   -0.059985
   3 C :    0.007693
   4 N :   -0.099470
   5 C :    0.007204
   6 C :   -0.044357
   7 H :    0.049398
   8 H :    0.037674
   9 H :    0.020248
  10 H :    0.018453
  11 H :    0.025511
  12 H :   -0.010799
  13 H :    0.020959
  14 H :    0.054379
  15 H :   -0.004838
  16 H :    0.022848
  17 H :    0.026104
  18 H :    0.027251

  Mayer bond orders larger than 0.1
B(  0-N ,  1-C ) :   1.1020 B(  0-N ,  7-H ) :   0.9650 B(  0-N ,  8-H ) :   0.9682
B(  1-C ,  2-C ) :   1.0473 B(  1-C ,  6-C ) :   1.0733 B(  1-C ,  9-H ) :   0.9140
B(  2-C ,  3-C ) :   1.0935 B(  2-C , 10-H ) :   0.9243 B(  2-C , 11-H ) :   0.9055
B(  3-C ,  4-N ) :   1.0678 B(  3-C , 12-H ) :   0.9004 B(  3-C , 13-H ) :   0.9326
B(  4-N ,  5-C ) :   1.0668 B(  4-N , 14-H ) :   0.9383 B(  5-C ,  6-C ) :   1.1004
B(  5-C , 15-H ) :   0.9098 B(  5-C , 16-H ) :   0.9315 B(  6-C , 17-H ) :   0.9201
B(  6-C , 18-H ) :   0.9171

FINAL SINGLE POINT ENERGY      -306.619335736332

DIPOLE MOMENT
-------------
                                X             Y             Z
Electronic contribution:      0.51218       0.20451      -0.36814
Nuclear contribution   :     -0.71199      -0.66909       0.07720
                        -----------------------------------------
Total Dipole Moment    :     -0.19981      -0.46458      -0.29095
                        -----------------------------------------
Magnitude (a.u.)       :      0.58345
Magnitude (Debye)      :      1.48301

                             ****ORCA TERMINATED NORMALLY****
TOTAL RUN TIME: 0 days 0 hours 0 minutes 8 seconds 597 msec
