                         Program Version 3.0.3 - RELEASE   -
|  1> ! RI PBE def2-SVP def2-SVP/J NBO PAL2
|  2> % maxcore 2000
|  3> % output
|  4>     # printlevel mini
|  5>     print[ P_Basis ] 0
|  6>     print[ P_SCFInfo ] 1
|  7>     print[ P_SCFIterInfo ] 1
|  8>     print[ P_OrbEn ] 0
|  9>     print[ P_Cartesian ] 0
| 10> end
| 11> *xyz 0 1
| 12>  N        0.9152560000    -0.0888590000     0.0081260000
| 13>  C        2.3807190000    -0.0819290000    -0.0337550000
| 14>  C        2.9459330000    -1.3516160000     0.6161100000
| 15>  C        3.2422780000    -0.9882240000     2.0859510000
| 16>  N        4.4005030000    -1.6091210000     2.7067340000
| 17>  C        3.3601560000     0.5082790000     2.0197190000
| 18>  C        2.9113210000     0.9984410000     0.8721440000
| 19>  H        0.5501250000    -0.7149040000    -0.7007130000
| 20>  H        0.5520630000     0.8332970000    -0.2028110000
| 21>  H        2.7619300000     0.0407140000    -1.0592500000
| 22>  H        3.8934700000    -1.6154320000     0.1352760000
| 23>  H        2.2670740000    -2.2014000000     0.5120070000
| 24>  H        2.3804190000    -1.2377070000     2.7177420000
| 25>  H        5.2224740000    -1.4728940000     2.1286750000
| 26>  H        4.2626850000    -2.6079850000     2.7988990000
| 27>  H        3.7447380000     1.0853160000     2.8529150000
| 28>  H        2.8597560000     2.0514240000     0.6160180000
| 29> *
| 30>
| 31>                          ****END OF INPUT****
 Total Charge           Charge          ....    0
 Multiplicity           Mult            ....    1
 Number of Electrons    NEL             ....   54
 Basis Dimension        Dim             ....  148

MULLIKEN ATOMIC CHARGES
-----------------------
   0 N :   -0.180244
   1 C :   -0.019713
   2 C :    0.124803
   3 C :    0.000091
   4 N :   -0.170330
   5 C :   -0.028003
   6 C :   -0.020645
   7 H :    0.084995
   8 H :    0.081944
   9 H :   -0.012057
  10 H :   -0.019831
  11 H :   -0.010949
  12 H :    0.022287
  13 H :    0.080056
  14 H :    0.087727
  15 H :   -0.008192
  16 H :   -0.011940
Sum of atomic charges:   -0.0000000

LOEWDIN ATOMIC CHARGES
----------------------
   0 N :   -0.107900
   1 C :    0.002165
   2 C :   -0.048545
   3 C :    0.000335
   4 N :   -0.094935
   5 C :   -0.019370
   6 C :   -0.039315
   7 H :    0.049474
   8 H :    0.048673
   9 H :   -0.000802
  10 H :    0.017838
  11 H :    0.019615
  12 H :    0.033297
  13 H :    0.046072
  14 H :    0.051263
  15 H :    0.023592
  16 H :    0.018542

  Mayer bond orders larger than 0.1
B(  0-N ,  1-C ) :   1.0323 B(  0-N ,  7-H ) :   0.9626 B(  0-N ,  8-H ) :   0.9615
B(  1-C ,  2-C ) :   1.0566 B(  1-C ,  6-C ) :   1.0027 B(  1-C ,  9-H ) :   0.9052
B(  2-C ,  3-C ) :   1.0351 B(  2-C , 10-H ) :   0.9106 B(  2-C , 11-H ) :   0.9109
B(  3-C ,  4-N ) :   1.1018 B(  3-C ,  5-C ) :   1.0156 B(  3-C , 12-H ) :   0.8817
B(  4-N , 13-H ) :   0.9683 B(  4-N , 14-H ) :   0.9674 B(  5-C ,  6-C ) :   1.8464
B(  5-C , 15-H ) :   0.9883 B(  6-C , 16-H ) :   0.9830

FINAL SINGLE POINT ENERGY      -305.397655629080

DIPOLE MOMENT
-------------
                                X             Y             Z
Electronic contribution:      0.15149       1.44505       1.00888
Nuclear contribution   :     -0.17013      -1.59672      -1.76757
                        -----------------------------------------
Total Dipole Moment    :     -0.01864      -0.15167      -0.75870
                        -----------------------------------------
Magnitude (a.u.)       :      0.77393
Magnitude (Debye)      :      1.96718

                             ****ORCA TERMINATED NORMALLY****
TOTAL RUN TIME: 0 days 0 hours 0 minutes 7 seconds 702 msec
