                         Program Version 3.0.3 - RELEASE   -
|  1> ! RI PBE def2-SVP def2-SVP/J NBO PAL2
|  2> % maxcore 2000
|  3> % output
|  4>     # printlevel mini
|  5>     print[ P_Basis ] 0
|  6>     print[ P_SCFInfo ] 1
|  7>     print[ P_SCFIterInfo ] 1
|  8>     print[ P_OrbEn ] 0
|  9>     print[ P_Cartesian ] 0
| 10> end
| 11> *xyz 0 1
| 12>  N        1.0355440000     0.1200870000     0.0886750000
| 13>  C        2.4877010000     0.1383340000     0.0546460000
| 14>  C        3.1085170000    -0.9551070000     0.9724860000
| 15>  N        3.8804390000    -0.1749080000     1.9625600000
| 16>  C        4.5121380000     0.8319180000     1.0397990000
| 17>  C        3.0847280000     1.3393320000     0.7899750000
| 18>  C        2.8853250000     0.9158610000     2.2522410000
| 19>  H        0.6841780000    -0.7793590000    -0.2166860000
| 20>  H        0.6526930000     0.8131680000    -0.5431680000
| 21>  H        2.8960910000     0.0761100000    -0.9650310000
| 22>  H        3.7726670000    -1.6376050000     0.4391990000
| 23>  H        2.3340630000    -1.5355660000     1.4787580000
| 24>  H        5.0801040000     0.4051030000     0.2077360000
| 25>  H        5.1340760000     1.5249820000     1.6080670000
| 26>  H        2.8532040000     2.3345250000     0.4054150000
| 27>  H        1.8963270000     0.5755630000     2.5616010000
| 28>  H        3.3050140000     1.6184720000     2.9735160000
| 29> *
| 30>
| 31>                          ****END OF INPUT****
 Total Charge           Charge          ....    0
 Multiplicity           Mult            ....    1
 Number of Electrons    NEL             ....   54
 Basis Dimension        Dim             ....  148

MULLIKEN ATOMIC CHARGES
-----------------------
   0 N :   -0.149004
   1 C :   -0.046528
   2 C :    0.174080
   3 N :   -0.323211
   4 C :    0.162924
   5 C :   -0.225623
   6 C :    0.170109
   7 H :    0.091027
   8 H :    0.088965
   9 H :   -0.006304
  10 H :    0.003941
  11 H :   -0.000290
  12 H :    0.007456
  13 H :    0.022490
  14 H :   -0.010628
  15 H :    0.018020
  16 H :    0.022578
Sum of atomic charges:   -0.0000000

LOEWDIN ATOMIC CHARGES
----------------------
   0 N :   -0.098488
   1 C :   -0.013368
   2 C :    0.011810
   3 N :   -0.126986
   4 C :    0.033144
   5 C :   -0.046814
   6 C :    0.036081
   7 H :    0.052300
   8 H :    0.052528
   9 H :   -0.001981
  10 H :    0.016648
  11 H :    0.018511
  12 H :    0.008741
  13 H :    0.020263
  14 H :    0.007647
  15 H :    0.011149
  16 H :    0.018816

  Mayer bond orders larger than 0.1
B(  0-N ,  1-C ) :   1.1196 B(  0-N ,  7-H ) :   0.9620 B(  0-N ,  8-H ) :   0.9658
B(  1-C ,  2-C ) :   0.9986 B(  1-C ,  5-C ) :   1.0220 B(  1-C ,  9-H ) :   0.9049
B(  2-C ,  3-N ) :   1.0441 B(  2-C , 10-H ) :   0.9203 B(  2-C , 11-H ) :   0.9145
B(  3-N ,  4-C ) :   0.9656 B(  3-N ,  6-C ) :   0.9614 B(  4-C ,  5-C ) :   0.9979
B(  4-C , 12-H ) :   0.9306 B(  4-C , 13-H ) :   0.9447 B(  5-C ,  6-C ) :   0.9943
B(  5-C , 14-H ) :   0.9530 B(  6-C , 15-H ) :   0.9262 B(  6-C , 16-H ) :   0.9489

FINAL SINGLE POINT ENERGY      -305.365722525521

DIPOLE MOMENT
-------------
                                X             Y             Z
Electronic contribution:      0.63397      -0.09396       1.05261
Nuclear contribution   :     -0.96377       0.32150      -1.91986
                        -----------------------------------------
Total Dipole Moment    :     -0.32980       0.22754      -0.86725
                        -----------------------------------------
Magnitude (a.u.)       :      0.95534
Magnitude (Debye)      :      2.42827

                             ****ORCA TERMINATED NORMALLY****
TOTAL RUN TIME: 0 days 0 hours 0 minutes 7 seconds 657 msec
