                         Program Version 3.0.3 - RELEASE   -
|  1> ! RI PBE def2-SVP def2-SVP/J NBO PAL2
|  2> % maxcore 2000
|  3> % output
|  4>     # printlevel mini
|  5>     print[ P_Basis ] 0
|  6>     print[ P_SCFInfo ] 1
|  7>     print[ P_SCFIterInfo ] 1
|  8>     print[ P_OrbEn ] 0
|  9>     print[ P_Cartesian ] 0
| 10> end
| 11> *xyz 0 1
| 12>  N        1.0997410000     0.4851330000     0.0535630000
| 13>  C        2.5060400000     0.2015310000     0.0325640000
| 14>  C        3.3551460000     0.9831190000     1.0679820000
| 15>  N        4.1568870000    -0.2272850000     1.2844100000
| 16>  C        3.0758680000    -1.0624430000     0.7525130000
| 17>  C        3.0814250000     0.3268520000    -1.3407590000
| 18>  C        2.4412310000     0.7686510000    -2.4141650000
| 19>  H        0.7151740000     0.3377590000     0.9776120000
| 20>  H        0.5999330000    -0.1148570000    -0.5918550000
| 21>  H        2.7300760000     1.2743640000     1.9244680000
| 22>  H        3.9069400000     1.8566100000     0.7126710000
| 23>  H        4.4356130000    -0.4117680000     2.2384660000
| 24>  H        2.3597350000    -1.4159530000     1.5084000000
| 25>  H        3.3982310000    -1.9078180000     0.1372280000
| 26>  H        4.1226240000     0.0226490000    -1.4142380000
| 27>  H        1.4130210000     1.1086530000    -2.3658580000
| 28>  H        2.9388060000     0.8241920000    -3.3752220000
| 29> *
| 30>
| 31>                          ****END OF INPUT****
 Total Charge           Charge          ....    0
 Multiplicity           Mult            ....    1
 Number of Electrons    NEL             ....   54
 Basis Dimension        Dim             ....  148

MULLIKEN ATOMIC CHARGES
-----------------------
   0 N :   -0.099582
   1 C :   -0.362768
   2 C :    0.230480
   3 N :   -0.268795
   4 C :    0.224970
   5 C :    0.032870
   6 C :   -0.030669
   7 H :    0.079359
   8 H :    0.097547
   9 H :   -0.016026
  10 H :    0.013543
  11 H :    0.092923
  12 H :   -0.028656
  13 H :    0.004380
  14 H :   -0.004887
  15 H :    0.015753
  16 H :    0.019559
Sum of atomic charges:    0.0000000

LOEWDIN ATOMIC CHARGES
----------------------
   0 N :   -0.073331
   1 C :   -0.030622
   2 C :    0.040111
   3 N :   -0.109661
   4 C :    0.019022
   5 C :   -0.020419
   6 C :   -0.070179
   7 H :    0.047596
   8 H :    0.055319
   9 H :    0.002736
  10 H :    0.012861
  11 H :    0.047515
  12 H :   -0.003321
  13 H :    0.006910
  14 H :    0.031238
  15 H :    0.019951
  16 H :    0.024273

  Mayer bond orders larger than 0.1
B(  0-N ,  1-C ) :   1.1531 B(  0-N ,  7-H ) :   0.9460 B(  0-N ,  8-H ) :   0.9492
B(  1-C ,  2-C ) :   0.9885 B(  1-C ,  4-C ) :   0.9718 B(  1-C ,  5-C ) :   0.9781
B(  2-C ,  3-N ) :   1.0404 B(  2-C ,  9-H ) :   0.9131 B(  2-C , 10-H ) :   0.9321
B(  3-N ,  4-C ) :   1.0435 B(  3-N , 11-H ) :   0.9410 B(  4-C , 12-H ) :   0.9035
B(  4-C , 13-H ) :   0.9339 B(  5-C ,  6-C ) :   1.9934 B(  5-C , 14-H ) :   0.9473
B(  6-C , 15-H ) :   0.9281 B(  6-C , 16-H ) :   0.9368

FINAL SINGLE POINT ENERGY      -305.363605065272

DIPOLE MOMENT
-------------
                                X             Y             Z
Electronic contribution:      0.86702       0.00507       0.38066
Nuclear contribution   :     -1.23146      -0.41919       0.19094
                        -----------------------------------------
Total Dipole Moment    :     -0.36444      -0.41412       0.57159
                        -----------------------------------------
Magnitude (a.u.)       :      0.79437
Magnitude (Debye)      :      2.01914

                             ****ORCA TERMINATED NORMALLY****
TOTAL RUN TIME: 0 days 0 hours 0 minutes 7 seconds 426 msec
