                         Program Version 3.0.3 - RELEASE   -
|  1> ! RI PBE def2-SVP def2-SVP/J NBO PAL2
|  2> % maxcore 2000
|  3> % output
|  4>     # printlevel mini
|  5>     print[ P_Basis ] 0
|  6>     print[ P_SCFInfo ] 1
|  7>     print[ P_SCFIterInfo ] 1
|  8>     print[ P_OrbEn ] 0
|  9>     print[ P_Cartesian ] 0
| 10> end
| 11> *xyz 0 1
| 12>  N        0.8269570000     0.0467770000     0.0995420000
| 13>  C        2.2623070000    -0.0126110000    -0.0342850000
| 14>  C        3.0441820000     1.0423830000     0.7905450000
| 15>  N        4.0390300000     0.0175090000     1.1256730000
| 16>  C        3.1015310000    -1.0532620000     0.7765270000
| 17>  C        2.6211890000    -0.0111110000    -1.4436690000
| 18>  C        2.9116760000    -0.0328070000    -2.6078930000
| 19>  H        0.5475700000    -0.1545820000     1.0514710000
| 20>  H        0.3754550000    -0.6189220000    -0.5145080000
| 21>  H        2.4245420000     1.3772610000     1.6337280000
| 22>  H        3.4280820000     1.9118200000     0.2539030000
| 23>  H        4.3709070000     0.0207680000     2.0802600000
| 24>  H        2.5034140000    -1.4332490000     1.6175720000
| 25>  H        3.5358260000    -1.8925650000     0.2285810000
| 26>  H        3.1754120000    -0.0427790000    -3.6388580000
| 27> *
| 28>
| 29>                          ****END OF INPUT****
 Total Charge           Charge          ....    0
 Multiplicity           Mult            ....    1
 Number of Electrons    NEL             ....   52
 Basis Dimension        Dim             ....  138

MULLIKEN ATOMIC CHARGES
-----------------------
   0 N :   -0.101651
   1 C :   -0.398725
   2 C :    0.253376
   3 N :   -0.266793
   4 C :    0.255666
   5 C :    0.528792
   6 C :   -0.531792
   7 H :    0.082058
   8 H :    0.097965
   9 H :   -0.015576
  10 H :    0.017676
  11 H :    0.095915
  12 H :   -0.028014
  13 H :    0.013897
  14 H :   -0.002793
Sum of atomic charges:   -0.0000000

LOEWDIN ATOMIC CHARGES
----------------------
   0 N :   -0.070058
   1 C :   -0.036024
   2 C :    0.044039
   3 N :   -0.106596
   4 C :    0.028255
   5 C :   -0.004498
   6 C :   -0.078368
   7 H :    0.048267
   8 H :    0.058589
   9 H :    0.004339
  10 H :    0.017332
  11 H :    0.048354
  12 H :   -0.002199
  13 H :    0.013618
  14 H :    0.034950

  Mayer bond orders larger than 0.1
B(  0-N ,  1-C ) :   1.1077 B(  0-N ,  7-H ) :   0.9462 B(  0-N ,  8-H ) :   0.9568
B(  1-C ,  2-C ) :   0.9954 B(  1-C ,  4-C ) :   0.9818 B(  1-C ,  5-C ) :   0.9058
B(  2-C ,  3-N ) :   1.0512 B(  2-C ,  9-H ) :   0.9094 B(  2-C , 10-H ) :   0.9269
B(  3-N ,  4-C ) :   1.0600 B(  3-N , 11-H ) :   0.9422 B(  4-C , 12-H ) :   0.8993
B(  4-C , 13-H ) :   0.9277 B(  5-C ,  6-C ) :   2.2636 B(  5-C , 14-H ) :  -0.1199
B(  6-C , 14-H ) :   1.1093

FINAL SINGLE POINT ENERGY      -304.114873838800

DIPOLE MOMENT
-------------
                                X             Y             Z
Electronic contribution:      0.58032       0.29185      -2.75213
Nuclear contribution   :     -0.89672      -0.72195       3.36106
                        -----------------------------------------
Total Dipole Moment    :     -0.31639      -0.43010       0.60892
                        -----------------------------------------
Magnitude (a.u.)       :      0.80986
Magnitude (Debye)      :      2.05851

                             ****ORCA TERMINATED NORMALLY****
TOTAL RUN TIME: 0 days 0 hours 0 minutes 7 seconds 75 msec
