                         Program Version 3.0.3 - RELEASE   -
|  1> ! RI PBE def2-SVP def2-SVP/J NBO PAL2
|  2> % maxcore 2000
|  3> % output
|  4>     # printlevel mini
|  5>     print[ P_Basis ] 0
|  6>     print[ P_SCFInfo ] 1
|  7>     print[ P_SCFIterInfo ] 1
|  8>     print[ P_OrbEn ] 0
|  9>     print[ P_Cartesian ] 0
| 10> end
| 11> *xyz 0 1
| 12>  N        1.3065330000    -0.2945360000     0.4181320000
| 13>  C        2.6846890000    -0.1918260000     0.0561120000
| 14>  C        3.2604810000    -0.7368970000    -1.2298100000
| 15>  N        2.4262110000    -1.4872760000    -2.1148970000
| 16>  C        3.1038620000     0.7524580000    -1.0348450000
| 17>  C        4.2388760000     1.6789420000    -0.8492140000
| 18>  C        5.5136160000     1.4168780000    -1.1085000000
| 19>  H        1.0431680000    -1.2375790000     0.6753570000
| 20>  H        0.6831160000     0.0390850000    -0.3026630000
| 21>  H        3.3498460000    -0.2335570000     0.9127540000
| 22>  H        4.2730300000    -1.1202290000    -1.1493410000
| 23>  H        2.3969180000    -1.0927330000    -3.0452050000
| 24>  H        1.4781250000    -1.5432620000    -1.7643850000
| 25>  H        2.2584100000     1.1819950000    -1.5710340000
| 26>  H        3.9778410000     2.6587480000    -0.4519370000
| 27>  H        5.8325650000     0.4619820000    -1.5122870000
| 28>  H        6.2858220000     2.1542260000    -0.9241360000
| 29> *
| 30>
| 31>                          ****END OF INPUT****
 Total Charge           Charge          ....    0
 Multiplicity           Mult            ....    1
 Number of Electrons    NEL             ....   54
 Basis Dimension        Dim             ....  148

MULLIKEN ATOMIC CHARGES
-----------------------
   0 N :   -0.118142
   1 C :   -0.027021
   2 C :   -0.060521
   3 N :   -0.113277
   4 C :   -0.054189
   5 C :    0.004144
   6 C :   -0.041563
   7 H :    0.103827
   8 H :    0.080628
   9 H :    0.026448
  10 H :    0.015245
  11 H :    0.099814
  12 H :    0.041923
  13 H :    0.007628
  14 H :   -0.004000
  15 H :    0.015574
  16 H :    0.023482
Sum of atomic charges:   -0.0000000

LOEWDIN ATOMIC CHARGES
----------------------
   0 N :   -0.069020
   1 C :    0.004843
   2 C :   -0.022209
   3 N :   -0.084586
   4 C :   -0.065021
   5 C :   -0.023808
   6 C :   -0.069820
   7 H :    0.058667
   8 H :    0.046579
   9 H :    0.024503
  10 H :    0.016551
  11 H :    0.055459
  12 H :    0.029490
  13 H :    0.026596
  14 H :    0.027259
  15 H :    0.019934
  16 H :    0.024584

  Mayer bond orders larger than 0.1
B(  0-N ,  1-C ) :   1.1638 B(  0-N ,  7-H ) :   0.9681 B(  0-N ,  8-H ) :   0.9595
B(  1-C ,  2-C ) :   0.8943 B(  1-C ,  4-C ) :   0.9328 B(  1-C ,  9-H ) :   0.9358
B(  2-C ,  3-N ) :   1.1839 B(  2-C ,  4-C ) :   0.8957 B(  2-C , 10-H ) :   0.9293
B(  3-N , 11-H ) :   0.9685 B(  3-N , 12-H ) :   0.9467 B(  4-C ,  5-C ) :   1.0742
B(  4-C , 13-H ) :   0.9162 B(  5-C ,  6-C ) :   1.9908 B(  5-C , 14-H ) :   0.9506
B(  6-C , 15-H ) :   0.9358 B(  6-C , 16-H ) :   0.9410

FINAL SINGLE POINT ENERGY      -305.363769713263

DIPOLE MOMENT
-------------
                                X             Y             Z
Electronic contribution:     -0.52093      -0.03711       0.40170
Nuclear contribution   :     -0.01403       0.09063      -0.63328
                        -----------------------------------------
Total Dipole Moment    :     -0.53496       0.05352      -0.23157
                        -----------------------------------------
Magnitude (a.u.)       :      0.58539
Magnitude (Debye)      :      1.48793

                             ****ORCA TERMINATED NORMALLY****
TOTAL RUN TIME: 0 days 0 hours 0 minutes 7 seconds 541 msec
