                         Program Version 3.0.3 - RELEASE   -
|  1> ! RI PBE def2-SVP def2-SVP/J NBO PAL2
|  2> % maxcore 2000
|  3> % output
|  4>     # printlevel mini
|  5>     print[ P_Basis ] 0
|  6>     print[ P_SCFInfo ] 1
|  7>     print[ P_SCFIterInfo ] 1
|  8>     print[ P_OrbEn ] 0
|  9>     print[ P_Cartesian ] 0
| 10> end
| 11> *xyz 0 1
| 12>  N        1.1391140000    -0.0467300000     0.1536950000
| 13>  C        2.5610390000    -0.0943970000     0.0281060000
| 14>  C        3.2662240000    -0.8290500000    -1.0707450000
| 15>  N        2.5171630000    -1.6155160000    -1.9867320000
| 16>  C        3.2237000000     0.7039560000    -1.0676780000
| 17>  C        4.4000380000     1.4691640000    -0.8090750000
| 18>  C        5.4068180000     2.0903970000    -0.5928330000
| 19>  H        0.7327080000    -0.9540440000     0.3403070000
| 20>  H        0.6773410000     0.3774280000    -0.6366540000
| 21>  H        3.0787080000    -0.0717510000     0.9813150000
| 22>  H        4.2329410000    -1.2478610000    -0.8106940000
| 23>  H        2.8395170000    -1.5104290000    -2.9394440000
| 24>  H        1.5324440000    -1.3851120000    -1.9522150000
| 25>  H        2.5402730000     1.1319270000    -1.7970120000
| 26>  H        6.2937720000     2.6454190000    -0.4000500000
| 27> *
| 28>
| 29>                          ****END OF INPUT****
 Total Charge           Charge          ....    0
 Multiplicity           Mult            ....    1
 Number of Electrons    NEL             ....   52
 Basis Dimension        Dim             ....  138

MULLIKEN ATOMIC CHARGES
-----------------------
   0 N :   -0.123713
   1 C :   -0.009090
   2 C :   -0.027637
   3 N :   -0.097050
   4 C :   -0.149202
   5 C :    0.458916
   6 C :   -0.482157
   7 H :    0.108544
   8 H :    0.087031
   9 H :    0.033277
  10 H :    0.023816
  11 H :    0.103102
  12 H :    0.046696
  13 H :    0.031716
  14 H :   -0.004251
Sum of atomic charges:    0.0000000

LOEWDIN ATOMIC CHARGES
----------------------
   0 N :   -0.067962
   1 C :    0.011728
   2 C :   -0.001767
   3 N :   -0.072950
   4 C :   -0.078032
   5 C :   -0.019807
   6 C :   -0.098119
   7 H :    0.060184
   8 H :    0.049751
   9 H :    0.028591
  10 H :    0.025637
  11 H :    0.060324
  12 H :    0.033091
  13 H :    0.036994
  14 H :    0.032339

  Mayer bond orders larger than 0.1
B(  0-N ,  1-C ) :   1.1684 B(  0-N ,  7-H ) :   0.9672 B(  0-N ,  8-H ) :   0.9613
B(  1-C ,  2-C ) :   0.8969 B(  1-C ,  4-C ) :   0.9133 B(  1-C ,  9-H ) :   0.9376
B(  2-C ,  3-N ) :   1.1950 B(  2-C ,  4-C ) :   0.8524 B(  2-C , 10-H ) :   0.9354
B(  3-N , 11-H ) :   0.9655 B(  3-N , 12-H ) :   0.9395 B(  4-C ,  5-C ) :   1.0462
B(  4-C , 13-H ) :   0.9088 B(  5-C ,  6-C ) :   2.2516 B(  5-C , 14-H ) :  -0.1068
B(  6-C , 14-H ) :   1.0972

FINAL SINGLE POINT ENERGY      -304.123417987707

DIPOLE MOMENT
-------------
                                X             Y             Z
Electronic contribution:      2.30913       1.96384       0.38638
Nuclear contribution   :     -2.84990      -2.19716      -0.90405
                        -----------------------------------------
Total Dipole Moment    :     -0.54077      -0.23333      -0.51766
                        -----------------------------------------
Magnitude (a.u.)       :      0.78413
Magnitude (Debye)      :      1.99309

                             ****ORCA TERMINATED NORMALLY****
TOTAL RUN TIME: 0 days 0 hours 0 minutes 6 seconds 985 msec
