                         Program Version 3.0.3 - RELEASE   -
|  1> ! RI PBE def2-SVP def2-SVP/J NBO PAL2
|  2> % maxcore 2000
|  3> % output
|  4>     # printlevel mini
|  5>     print[ P_Basis ] 0
|  6>     print[ P_SCFInfo ] 1
|  7>     print[ P_SCFIterInfo ] 1
|  8>     print[ P_OrbEn ] 0
|  9>     print[ P_Cartesian ] 0
| 10> end
| 11> *xyz 0 1
| 12>  N        1.1481390000     0.0903690000    -0.3164320000
| 13>  C        2.5246250000    -0.0160680000     0.0663740000
| 14>  C        3.1731630000     0.8680080000     1.1555500000
| 15>  N        3.8960120000    -0.3194820000     1.6302230000
| 16>  C        2.9218250000    -1.2038190000     0.9771820000
| 17>  C        3.4296860000    -2.4577780000     0.3627040000
| 18>  C        4.6986700000    -2.8406070000     0.3759870000
| 19>  H        1.0008320000     0.8300170000    -0.9901430000
| 20>  H        0.5532490000     0.2727220000     0.4823180000
| 21>  H        3.1439320000    -0.0279980000    -0.8326260000
| 22>  H        2.4080780000     1.2386040000     1.8544940000
| 23>  H        3.8065940000     1.7032380000     0.8437720000
| 24>  H        3.9753060000    -0.4211470000     2.6332910000
| 25>  H        2.0557500000    -1.4376900000     1.6206550000
| 26>  H        2.6766030000    -3.0706440000    -0.1283530000
| 27>  H        5.4538190000    -2.2291680000     0.8577330000
| 28>  H        5.0153060000    -3.7633580000    -0.0958290000
| 29> *
| 30>
| 31>                          ****END OF INPUT****
 Total Charge           Charge          ....    0
 Multiplicity           Mult            ....    1
 Number of Electrons    NEL             ....   54
 Basis Dimension        Dim             ....  148

MULLIKEN ATOMIC CHARGES
-----------------------
   0 N :   -0.132144
   1 C :   -0.130573
   2 C :    0.198232
   3 N :   -0.245800
   4 C :    0.090771
   5 C :   -0.035309
   6 C :   -0.028024
   7 H :    0.095000
   8 H :    0.083525
   9 H :    0.010909
  10 H :   -0.027627
  11 H :    0.005022
  12 H :    0.098978
  13 H :   -0.017003
  14 H :   -0.001043
  15 H :    0.018266
  16 H :    0.016822
Sum of atomic charges:    0.0000000

LOEWDIN ATOMIC CHARGES
----------------------
   0 N :   -0.085211
   1 C :    0.003803
   2 C :    0.008114
   3 N :   -0.096563
   4 C :    0.011520
   5 C :   -0.043160
   6 C :   -0.064045
   7 H :    0.056598
   8 H :    0.047567
   9 H :    0.027201
  10 H :   -0.002831
  11 H :    0.007953
  12 H :    0.048722
  13 H :    0.010422
  14 H :    0.028224
  15 H :    0.020190
  16 H :    0.021497

  Mayer bond orders larger than 0.1
B(  0-N ,  1-C ) :   1.1535 B(  0-N ,  7-H ) :   0.9647 B(  0-N ,  8-H ) :   0.9572
B(  1-C ,  2-C ) :   1.0296 B(  1-C ,  4-C ) :   0.9799 B(  1-C ,  9-H ) :   0.8856
B(  2-C ,  3-N ) :   1.0462 B(  2-C , 10-H ) :   0.9044 B(  2-C , 11-H ) :   0.9335
B(  3-N ,  4-C ) :   1.0421 B(  3-N , 12-H ) :   0.9357 B(  4-C ,  5-C ) :   1.0489
B(  4-C , 13-H ) :   0.8795 B(  5-C ,  6-C ) :   2.0014 B(  5-C , 14-H ) :   0.9535
B(  6-C , 15-H ) :   0.9274 B(  6-C , 16-H ) :   0.9419

FINAL SINGLE POINT ENERGY      -305.366983489421

DIPOLE MOMENT
-------------
                                X             Y             Z
Electronic contribution:      0.13975      -0.38270       0.17957
Nuclear contribution   :     -0.65787       0.98813       0.12608
                        -----------------------------------------
Total Dipole Moment    :     -0.51812       0.60543       0.30565
                        -----------------------------------------
Magnitude (a.u.)       :      0.85347
Magnitude (Debye)      :      2.16936

                             ****ORCA TERMINATED NORMALLY****
TOTAL RUN TIME: 0 days 0 hours 0 minutes 7 seconds 584 msec
