                         Program Version 3.0.3 - RELEASE   -
|  1> ! RI PBE def2-SVP def2-SVP/J NBO PAL2
|  2> % maxcore 2000
|  3> % output
|  4>     # printlevel mini
|  5>     print[ P_Basis ] 0
|  6>     print[ P_SCFInfo ] 1
|  7>     print[ P_SCFIterInfo ] 1
|  8>     print[ P_OrbEn ] 0
|  9>     print[ P_Cartesian ] 0
| 10> end
| 11> *xyz 0 1
| 12>  N        0.8907670000    -0.1030290000    -0.0296860000
| 13>  C        2.3153990000    -0.0073440000     0.0202230000
| 14>  C        3.0695550000     1.0028510000     0.9145490000
| 15>  N        4.0552110000    -0.0488570000     1.1951710000
| 16>  C        3.0761330000    -1.0888940000     0.8292290000
| 17>  C        3.5845490000    -2.2668990000     0.1563000000
| 18>  C        3.9903490000    -3.2450730000    -0.4098020000
| 19>  H        0.4903470000     0.5331460000    -0.7048310000
| 20>  H        0.4655150000     0.0785970000     0.8704060000
| 21>  H        2.7095910000     0.0180370000    -0.9964930000
| 22>  H        2.4493750000     1.2855940000     1.7789500000
| 23>  H        3.4764410000     1.9069770000     0.4546000000
| 24>  H        4.4049920000    -0.0993080000     2.1430100000
| 25>  H        2.4420450000    -1.4031570000     1.6735380000
| 26>  H        4.3548410000    -4.1083290000    -0.9141740000
| 27> *
| 28>
| 29>                          ****END OF INPUT****
 Total Charge           Charge          ....    0
 Multiplicity           Mult            ....    1
 Number of Electrons    NEL             ....   52
 Basis Dimension        Dim             ....  138

MULLIKEN ATOMIC CHARGES
-----------------------
   0 N :   -0.123357
   1 C :   -0.118672
   2 C :    0.198396
   3 N :   -0.240923
   4 C :    0.045907
   5 C :    0.479704
   6 C :   -0.523878
   7 H :    0.098550
   8 H :    0.083333
   9 H :    0.017978
  10 H :   -0.026304
  11 H :    0.007548
  12 H :    0.098646
  13 H :    0.004428
  14 H :   -0.001356
Sum of atomic charges:    0.0000000

LOEWDIN ATOMIC CHARGES
----------------------
   0 N :   -0.078698
   1 C :    0.010517
   2 C :    0.007289
   3 N :   -0.093104
   4 C :    0.001142
   5 C :   -0.020580
   6 C :   -0.078700
   7 H :    0.058602
   8 H :    0.048593
   9 H :    0.031555
  10 H :   -0.002302
  11 H :    0.009763
  12 H :    0.049540
  13 H :    0.022836
  14 H :    0.033546

  Mayer bond orders larger than 0.1
B(  0-N ,  1-C ) :   1.1680 B(  0-N ,  7-H ) :   0.9645 B(  0-N ,  8-H ) :   0.9572
B(  1-C ,  2-C ) :   1.0293 B(  1-C ,  4-C ) :   0.9743 B(  1-C ,  9-H ) :   0.8832
B(  2-C ,  3-N ) :   1.0460 B(  2-C , 10-H ) :   0.9036 B(  2-C , 11-H ) :   0.9344
B(  3-N ,  4-C ) :   1.0453 B(  3-N , 12-H ) :   0.9340 B(  4-C ,  5-C ) :   0.9831
B(  4-C , 13-H ) :   0.8635 B(  5-C ,  6-C ) :   2.2760 B(  5-C , 14-H ) :  -0.1082
B(  6-C , 14-H ) :   1.0974

FINAL SINGLE POINT ENERGY      -304.119303397011

DIPOLE MOMENT
-------------
                                X             Y             Z
Electronic contribution:      2.06920      -3.25389      -0.60887
Nuclear contribution   :     -2.58022       3.89265       1.01104
                        -----------------------------------------
Total Dipole Moment    :     -0.51102       0.63876       0.40217
                        -----------------------------------------
Magnitude (a.u.)       :      0.91154
Magnitude (Debye)      :      2.31695

                             ****ORCA TERMINATED NORMALLY****
TOTAL RUN TIME: 0 days 0 hours 0 minutes 7 seconds 8 msec
