                         Program Version 3.0.3 - RELEASE   -
|  1> ! RI PBE def2-SVP def2-SVP/J NBO PAL2
|  2> % maxcore 2000
|  3> % output
|  4>     # printlevel mini
|  5>     print[ P_Basis ] 0
|  6>     print[ P_SCFInfo ] 1
|  7>     print[ P_SCFIterInfo ] 1
|  8>     print[ P_OrbEn ] 0
|  9>     print[ P_Cartesian ] 0
| 10> end
| 11> *xyz 0 1
| 12>  N        1.0279000000     0.3103250000     0.2057650000
| 13>  C        2.3981160000    -0.0469470000    -0.1275430000
| 14>  C        2.6931790000    -1.5286120000    -0.4699220000
| 15>  N        2.8551100000    -1.6394990000    -1.9193570000
| 16>  C        3.2041550000    -0.3353110000    -2.4223050000
| 17>  C        2.0867450000     0.6426090000    -2.6207850000
| 18>  C        2.9049800000     0.6823320000    -1.3624170000
| 19>  H        0.7102340000    -0.2152110000     1.0112060000
| 20>  H        0.4005680000     0.0930950000    -0.5588680000
| 21>  H        3.0098920000     0.2527510000     0.7291230000
| 22>  H        1.9077560000    -2.1992860000    -0.1108540000
| 23>  H        3.6272970000    -1.8323870000     0.0186540000
| 24>  H        2.0190050000    -1.9933120000    -2.3626480000
| 25>  H        4.0939330000    -0.2637690000    -3.0392900000
| 26>  H        1.0728230000     0.2573810000    -2.5959420000
| 27>  H        2.2303410000     1.4570440000    -3.3214670000
| 28>  H        3.5477700000     1.5416160000    -1.2212510000
| 29> *
| 30>
| 31>                          ****END OF INPUT****
 Total Charge           Charge          ....    0
 Multiplicity           Mult            ....    1
 Number of Electrons    NEL             ....   54
 Basis Dimension        Dim             ....  148

MULLIKEN ATOMIC CHARGES
-----------------------
   0 N :   -0.147952
   1 C :   -0.045730
   2 C :    0.190337
   3 N :   -0.192308
   4 C :   -0.042022
   5 C :    0.002875
   6 C :   -0.075189
   7 H :    0.085938
   8 H :    0.069856
   9 H :   -0.003134
  10 H :   -0.022894
  11 H :    0.000177
  12 H :    0.096442
  13 H :    0.016362
  14 H :    0.019484
  15 H :    0.026689
  16 H :    0.021068
Sum of atomic charges:   -0.0000000

LOEWDIN ATOMIC CHARGES
----------------------
   0 N :   -0.093782
   1 C :   -0.006717
   2 C :    0.004495
   3 N :   -0.089100
   4 C :   -0.001980
   5 C :   -0.049603
   6 C :   -0.037489
   7 H :    0.048902
   8 H :    0.040421
   9 H :    0.023332
  10 H :    0.009843
  11 H :    0.014146
  12 H :    0.050566
  13 H :    0.014031
  14 H :    0.016196
  15 H :    0.030114
  16 H :    0.026625

  Mayer bond orders larger than 0.1
B(  0-N ,  1-C ) :   1.1050 B(  0-N ,  7-H ) :   0.9660 B(  0-N ,  8-H ) :   0.9613
B(  1-C ,  2-C ) :   1.0061 B(  1-C ,  6-C ) :   1.0666 B(  1-C ,  9-H ) :   0.9070
B(  2-C ,  3-N ) :   1.0755 B(  2-C , 10-H ) :   0.9285 B(  2-C , 11-H ) :   0.9185
B(  3-N ,  4-C ) :   1.1116 B(  3-N , 12-H ) :   0.9483 B(  4-C ,  5-C ) :   0.9812
B(  4-C ,  6-C ) :   0.9231 B(  4-C , 13-H ) :   0.9461 B(  5-C ,  6-C ) :   0.9866
B(  5-C , 14-H ) :   0.9367 B(  5-C , 15-H ) :   0.9272 B(  6-C , 16-H ) :   0.9493

FINAL SINGLE POINT ENERGY      -305.382227087809

DIPOLE MOMENT
-------------
                                X             Y             Z
Electronic contribution:      1.02899      -0.19505      -0.67933
Nuclear contribution   :     -1.41728       0.00516       0.69835
                        -----------------------------------------
Total Dipole Moment    :     -0.38829      -0.18989       0.01902
                        -----------------------------------------
Magnitude (a.u.)       :      0.43266
Magnitude (Debye)      :      1.09973

                             ****ORCA TERMINATED NORMALLY****
TOTAL RUN TIME: 0 days 0 hours 0 minutes 7 seconds 907 msec
