                         Program Version 3.0.3 - RELEASE   -
|  1> ! RI PBE def2-SVP def2-SVP/J NBO PAL2
|  2> % maxcore 2000
|  3> % output
|  4>     # printlevel mini
|  5>     print[ P_Basis ] 0
|  6>     print[ P_SCFInfo ] 1
|  7>     print[ P_SCFIterInfo ] 1
|  8>     print[ P_OrbEn ] 0
|  9>     print[ P_Cartesian ] 0
| 10> end
| 11> *xyz 0 1
| 12>  N        1.0020110000    -0.1164160000    -0.0187810000
| 13>  C        2.4358520000    -0.0544440000     0.1279200000
| 14>  C        3.0439740000     1.0341880000     1.0203920000
| 15>  N        4.3881070000     0.5324180000     1.2264960000
| 16>  C        4.2628450000    -0.8959650000     1.5043970000
| 17>  C        3.0288370000    -1.3028130000     0.7390130000
| 18>  C        2.5005730000    -2.5147460000     0.6675530000
| 19>  H        0.6438160000     0.7200180000    -0.4611040000
| 20>  H        0.5535320000    -0.2115230000     0.8848370000
| 21>  H        2.8694780000     0.0701220000    -0.8727520000
| 22>  H        2.4426590000     1.1077340000     1.9456480000
| 23>  H        3.0582700000     2.0177530000     0.5431950000
| 24>  H        4.8945120000     1.0279210000     1.9459950000
| 25>  H        4.1162490000    -1.1184140000     2.5736720000
| 26>  H        5.1556140000    -1.4367080000     1.1766080000
| 27>  H        2.9625600000    -3.3680400000     1.1526600000
| 28>  H        1.5841910000    -2.6798850000     0.1128610000
| 29> *
| 30>
| 31>                          ****END OF INPUT****
 Total Charge           Charge          ....    0
 Multiplicity           Mult            ....    1
 Number of Electrons    NEL             ....   54
 Basis Dimension        Dim             ....  148

MULLIKEN ATOMIC CHARGES
-----------------------
   0 N :   -0.149006
   1 C :    0.024975
   2 C :    0.146875
   3 N :   -0.280188
   4 C :    0.250115
   5 C :   -0.262644
   6 C :   -0.028504
   7 H :    0.090583
   8 H :    0.086370
   9 H :    0.026456
  10 H :   -0.026658
  11 H :   -0.004826
  12 H :    0.096229
  13 H :    0.001177
  14 H :    0.013703
  15 H :    0.000161
  16 H :    0.015181
Sum of atomic charges:   -0.0000000

LOEWDIN ATOMIC CHARGES
----------------------
   0 N :   -0.080379
   1 C :   -0.004661
   2 C :   -0.000524
   3 N :   -0.107170
   4 C :    0.021456
   5 C :   -0.042104
   6 C :   -0.070863
   7 H :    0.054383
   8 H :    0.050740
   9 H :    0.037604
  10 H :   -0.009519
  11 H :    0.013325
  12 H :    0.054113
  13 H :    0.013276
  14 H :    0.025734
  15 H :    0.020317
  16 H :    0.024271

  Mayer bond orders larger than 0.1
B(  0-N ,  1-C ) :   1.1525 B(  0-N ,  7-H ) :   0.9642 B(  0-N ,  8-H ) :   0.9603
B(  1-C ,  2-C ) :   1.0231 B(  1-C ,  5-C ) :   1.0138 B(  1-C ,  9-H ) :   0.8701
B(  2-C ,  3-N ) :   1.0425 B(  2-C , 10-H ) :   0.9084 B(  2-C , 11-H ) :   0.9248
B(  3-N ,  4-C ) :   1.0490 B(  3-N , 12-H ) :   0.9376 B(  4-C ,  5-C ) :   1.0159
B(  4-C , 13-H ) :   0.9076 B(  4-C , 14-H ) :   0.9141 B(  5-C ,  6-C ) :   2.0457
B(  6-C , 15-H ) :   0.9314 B(  6-C , 16-H ) :   0.9162

FINAL SINGLE POINT ENERGY      -305.393065740221

DIPOLE MOMENT
-------------
                                X             Y             Z
Electronic contribution:      0.86530       0.06075      -0.75168
Nuclear contribution   :     -0.94558       0.47814       1.29862
                        -----------------------------------------
Total Dipole Moment    :     -0.08028       0.53889       0.54694
                        -----------------------------------------
Magnitude (a.u.)       :      0.77200
Magnitude (Debye)      :      1.96227

                             ****ORCA TERMINATED NORMALLY****
TOTAL RUN TIME: 0 days 0 hours 0 minutes 7 seconds 708 msec
