                         Program Version 3.0.3 - RELEASE   -
|  1> ! RI PBE def2-SVP def2-SVP/J NBO PAL2
|  2> % maxcore 2000
|  3> % output
|  4>     # printlevel mini
|  5>     print[ P_Basis ] 0
|  6>     print[ P_SCFInfo ] 1
|  7>     print[ P_SCFIterInfo ] 1
|  8>     print[ P_OrbEn ] 0
|  9>     print[ P_Cartesian ] 0
| 10> end
| 11> *xyz 0 1
| 12>  N        1.1876740000    -0.1326060000     0.1287240000
| 13>  C        2.5742330000     0.1787480000    -0.1561970000
| 14>  C        2.7705070000     1.5429880000    -0.8337970000
| 15>  N        4.0293790000     1.4546240000    -1.5590310000
| 16>  C        4.0500860000     0.0936120000    -2.0910950000
| 17>  C        3.2192480000    -0.7566610000    -1.1527350000
| 18>  C        3.0697300000    -2.0713980000    -1.2072280000
| 19>  H        0.8792550000     0.3405200000     0.9688620000
| 20>  H        1.0651980000    -1.1247530000     0.2849610000
| 21>  H        3.2081740000     0.1660260000     0.7494620000
| 22>  H        2.7790240000     2.3826360000    -0.1361430000
| 23>  H        1.9468890000     1.6952250000    -1.5398960000
| 24>  H        4.7971770000     1.5690500000    -0.9083720000
| 25>  H        5.0727970000    -0.2701420000    -2.2088250000
| 26>  H        3.5899360000     0.0900650000    -3.0868070000
| 27>  H        3.5683150000    -2.6691290000    -1.9628190000
| 28>  H        2.4437660000    -2.6127950000    -0.5047560000
| 29> *
| 30>
| 31>                          ****END OF INPUT****
 Total Charge           Charge          ....    0
 Multiplicity           Mult            ....    1
 Number of Electrons    NEL             ....   54
 Basis Dimension        Dim             ....  148

MULLIKEN ATOMIC CHARGES
-----------------------
   0 N :   -0.153956
   1 C :   -0.007700
   2 C :    0.141400
   3 N :   -0.251837
   4 C :    0.193235
   5 C :   -0.196551
   6 C :   -0.053667
   7 H :    0.087711
   8 H :    0.082100
   9 H :    0.000244
  10 H :    0.004277
  11 H :    0.005943
  12 H :    0.096045
  13 H :    0.017757
  14 H :    0.024283
  15 H :    0.009348
  16 H :    0.001370
Sum of atomic charges:    0.0000000

LOEWDIN ATOMIC CHARGES
----------------------
   0 N :   -0.094652
   1 C :   -0.013313
   2 C :    0.007392
   3 N :   -0.095316
   4 C :    0.016514
   5 C :   -0.040759
   6 C :   -0.083457
   7 H :    0.053625
   8 H :    0.049262
   9 H :    0.011607
  10 H :    0.017532
  11 H :    0.018814
  12 H :    0.051684
  13 H :    0.028526
  14 H :    0.032634
  15 H :    0.023966
  16 H :    0.015942

  Mayer bond orders larger than 0.1
B(  0-N ,  1-C ) :   1.1052 B(  0-N ,  7-H ) :   0.9587 B(  0-N ,  8-H ) :   0.9599
B(  1-C ,  2-C ) :   1.0212 B(  1-C ,  5-C ) :   1.0161 B(  1-C ,  9-H ) :   0.8656
B(  2-C ,  3-N ) :   1.0848 B(  2-C , 10-H ) :   0.9376 B(  2-C , 11-H ) :   0.9142
B(  3-N ,  4-C ) :   1.0716 B(  3-N , 12-H ) :   0.9519 B(  4-C ,  5-C ) :   1.0108
B(  4-C , 13-H ) :   0.9332 B(  4-C , 14-H ) :   0.9061 B(  5-C ,  6-C ) :   2.0287
B(  6-C , 15-H ) :   0.9311 B(  6-C , 16-H ) :   0.9284

FINAL SINGLE POINT ENERGY      -305.389269772093

DIPOLE MOMENT
-------------
                                X             Y             Z
Electronic contribution:      0.52132       0.70289      -0.37356
Nuclear contribution   :     -0.28746      -0.96549       1.14005
                        -----------------------------------------
Total Dipole Moment    :      0.23386      -0.26260       0.76648
                        -----------------------------------------
Magnitude (a.u.)       :      0.84330
Magnitude (Debye)      :      2.14349

                             ****ORCA TERMINATED NORMALLY****
TOTAL RUN TIME: 0 days 0 hours 0 minutes 7 seconds 172 msec
