                         Program Version 3.0.3 - RELEASE   -
|  1> ! RI PBE def2-SVP def2-SVP/J NBO PAL2
|  2> % maxcore 2000
|  3> % output
|  4>     # printlevel mini
|  5>     print[ P_Basis ] 0
|  6>     print[ P_SCFInfo ] 1
|  7>     print[ P_SCFIterInfo ] 1
|  8>     print[ P_OrbEn ] 0
|  9>     print[ P_Cartesian ] 0
| 10> end
| 11> *xyz 0 1
| 12>  N        1.1543720000     0.0812870000     0.0045020000
| 13>  C        2.4220530000     0.0473010000    -0.0077990000
| 14>  N        3.3414690000    -0.9735280000     0.0336740000
| 15>  C        4.6406440000    -0.3003340000    -0.0149750000
| 16>  C        4.3900340000     0.7412810000    -1.1256440000
| 17>  C        3.3526490000     1.2457500000    -0.0787650000
| 18>  C        4.4136930000     0.8482860000     0.9902550000
| 19>  H        0.7573640000    -0.8562490000     0.0563160000
| 20>  H        3.1714770000    -1.9587420000     0.0848840000
| 21>  H        5.4940560000    -0.9748660000     0.0095970000
| 22>  H        4.0162980000     0.3716330000    -2.0815640000
| 23>  H        5.2148260000     1.4417790000    -1.2611700000
| 24>  H        2.8722230000     2.2182850000    -0.1225770000
| 25>  H        4.0617990000     0.5773700000     1.9866860000
| 26>  H        5.2405150000     1.5579470000     1.0359810000
| 27> *
| 28>
| 29>                          ****END OF INPUT****
 Total Charge           Charge          ....    0
 Multiplicity           Mult            ....    1
 Number of Electrons    NEL             ....   52
 Basis Dimension        Dim             ....  138

MULLIKEN ATOMIC CHARGES
-----------------------
   0 N :   -0.062167
   1 C :   -0.082740
   2 N :   -0.132110
   3 C :   -0.051473
   4 C :    0.119102
   5 C :   -0.136582
   6 C :    0.110924
   7 H :    0.073165
   8 H :    0.094796
   9 H :   -0.004591
  10 H :    0.018772
  11 H :    0.022238
  12 H :   -0.014574
  13 H :    0.021353
  14 H :    0.023885
Sum of atomic charges:    0.0000000

LOEWDIN ATOMIC CHARGES
----------------------
   0 N :   -0.175832
   1 C :    0.005699
   2 N :   -0.028604
   3 C :    0.038393
   4 C :   -0.018346
   5 C :   -0.020830
   6 C :   -0.019603
   7 H :    0.041331
   8 H :    0.063798
   9 H :    0.010504
  10 H :    0.017722
  11 H :    0.023578
  12 H :    0.020105
  13 H :    0.018185
  14 H :    0.023900

  Mayer bond orders larger than 0.1
B(  0-N ,  1-C ) :   2.0826 B(  0-N ,  7-H ) :   0.9238 B(  1-C ,  2-N ) :   1.1076
B(  1-C ,  5-C ) :   0.9062 B(  2-N ,  3-C ) :   0.9669 B(  2-N ,  8-H ) :   0.9625
B(  3-C ,  4-C ) :   0.9817 B(  3-C ,  6-C ) :   0.9822 B(  3-C ,  9-H ) :   0.9592
B(  4-C ,  5-C ) :   0.9560 B(  4-C , 10-H ) :   0.9276 B(  4-C , 11-H ) :   0.9424
B(  5-C ,  6-C ) :   0.9559 B(  5-C , 12-H ) :   0.9559 B(  6-C , 13-H ) :   0.9282
B(  6-C , 14-H ) :   0.9430

FINAL SINGLE POINT ENERGY      -304.187583963051

DIPOLE MOMENT
-------------
                                X             Y             Z
Electronic contribution:     -2.47682      -1.33399       0.09605
Nuclear contribution   :      3.54506       0.59003      -0.06990
                        -----------------------------------------
Total Dipole Moment    :      1.06824      -0.74396       0.02616
                        -----------------------------------------
Magnitude (a.u.)       :      1.30204
Magnitude (Debye)      :      3.30951

                             ****ORCA TERMINATED NORMALLY****
TOTAL RUN TIME: 0 days 0 hours 0 minutes 7 seconds 318 msec
