                         Program Version 3.0.3 - RELEASE   -
|  1> ! RI PBE def2-SVP def2-SVP/J NBO PAL2
|  2> % maxcore 2000
|  3> % output
|  4>     # printlevel mini
|  5>     print[ P_Basis ] 0
|  6>     print[ P_SCFInfo ] 1
|  7>     print[ P_SCFIterInfo ] 1
|  8>     print[ P_OrbEn ] 0
|  9>     print[ P_Cartesian ] 0
| 10> end
| 11> *xyz 0 1
| 12>  N        1.1097000000     0.2538160000     0.3702150000
| 13>  C        2.2563610000    -0.0428560000    -0.0924340000
| 14>  N        2.7159330000    -1.2306630000    -0.6192930000
| 15>  C        4.1606800000    -1.3256280000    -0.6692670000
| 16>  C        4.6021700000     0.1170120000    -0.5583720000
| 17>  C        4.0034420000     1.0754960000    -1.5286980000
| 18>  C        3.3874950000     0.9169720000    -0.1650820000
| 19>  H        0.4856750000    -0.5516870000     0.3689820000
| 20>  H        2.1499150000    -2.0591490000    -0.5591500000
| 21>  H        4.5628820000    -1.9082250000     0.1700410000
| 22>  H        4.4955690000    -1.7966580000    -1.5998380000
| 23>  H        5.5761710000     0.3253570000    -0.1364080000
| 24>  H        3.4576980000     0.6860880000    -2.3805330000
| 25>  H        4.5421170000     1.9971190000    -1.7091450000
| 26>  H        3.4024820000     1.7356050000     0.5392920000
| 27> *
| 28>
| 29>                          ****END OF INPUT****
 Total Charge           Charge          ....    0
 Multiplicity           Mult            ....    1
 Number of Electrons    NEL             ....   52
 Basis Dimension        Dim             ....  138

MULLIKEN ATOMIC CHARGES
-----------------------
   0 N :   -0.084094
   1 C :   -0.048105
   2 N :   -0.205677
   3 C :    0.246220
   4 C :   -0.166876
   5 C :    0.038570
   6 C :   -0.088946
   7 H :    0.068675
   8 H :    0.097856
   9 H :    0.017252
  10 H :    0.014860
  11 H :    0.020845
  12 H :    0.035520
  13 H :    0.033424
  14 H :    0.020476
Sum of atomic charges:    0.0000000

LOEWDIN ATOMIC CHARGES
----------------------
   0 N :   -0.178948
   1 C :    0.005516
   2 N :   -0.031383
   3 C :    0.039102
   4 C :   -0.039617
   5 C :   -0.023447
   6 C :   -0.032937
   7 H :    0.037646
   8 H :    0.063897
   9 H :    0.017607
  10 H :    0.020157
  11 H :    0.027634
  12 H :    0.027722
  13 H :    0.032200
  14 H :    0.034849

  Mayer bond orders larger than 0.1
B(  0-N ,  1-C ) :   2.0121 B(  0-N ,  7-H ) :   0.9227 B(  1-C ,  2-N ) :   1.1242
B(  1-C ,  6-C ) :   0.9775 B(  2-N ,  3-C ) :   0.9992 B(  2-N ,  8-H ) :   0.9361
B(  3-C ,  4-C ) :   1.0610 B(  3-C ,  9-H ) :   0.9287 B(  3-C , 10-H ) :   0.9248
B(  4-C ,  5-C ) :   0.9986 B(  4-C ,  6-C ) :   0.9232 B(  4-C , 11-H ) :   0.9440
B(  5-C ,  6-C ) :   0.9594 B(  5-C , 12-H ) :   0.9398 B(  5-C , 13-H ) :   0.9408
B(  6-C , 14-H ) :   0.9689

FINAL SINGLE POINT ENERGY      -304.210687542781

DIPOLE MOMENT
-------------
                                X             Y             Z
Electronic contribution:     -2.37679       0.05304       1.15709
Nuclear contribution   :      3.18221      -0.98197      -1.45867
                        -----------------------------------------
Total Dipole Moment    :      0.80542      -0.92893      -0.30158
                        -----------------------------------------
Magnitude (a.u.)       :      1.26593
Magnitude (Debye)      :      3.21773

                             ****ORCA TERMINATED NORMALLY****
TOTAL RUN TIME: 0 days 0 hours 0 minutes 7 seconds 12 msec
