                         Program Version 3.0.3 - RELEASE   -
|  1> ! RI PBE def2-SVP def2-SVP/J NBO PAL2
|  2> % maxcore 2000
|  3> % output
|  4>     # printlevel mini
|  5>     print[ P_Basis ] 0
|  6>     print[ P_SCFInfo ] 1
|  7>     print[ P_SCFIterInfo ] 1
|  8>     print[ P_OrbEn ] 0
|  9>     print[ P_Cartesian ] 0
| 10> end
| 11> *xyz 0 1
| 12>  N        0.9994470000    -0.0923200000     0.0809060000
| 13>  C        2.2746260000     0.0027670000     0.0535150000
| 14>  N        3.0137770000     1.1414620000     0.2989060000
| 15>  C        4.3680500000     1.2436280000    -0.2113830000
| 16>  C        5.1680970000     0.0178230000     0.1867560000
| 17>  C        4.3916590000    -1.2246330000    -0.1062070000
| 18>  C        3.0629550000    -1.2117620000    -0.1881030000
| 19>  H        0.5627510000     0.8096510000     0.2716360000
| 20>  H        2.4786780000     1.9953980000     0.2805200000
| 21>  H        4.8226670000     2.1479740000     0.1984510000
| 22>  H        4.3776570000     1.3349850000    -1.3079410000
| 23>  H        5.4124320000     0.0525280000     1.2564640000
| 24>  H        6.1208800000     0.0126550000    -0.3499260000
| 25>  H        4.9347110000    -2.1566490000    -0.2293490000
| 26>  H        2.4828140000    -2.1034860000    -0.3878440000
| 27> *
| 28>
| 29>                          ****END OF INPUT****
 Total Charge           Charge          ....    0
 Multiplicity           Mult            ....    1
 Number of Electrons    NEL             ....   52
 Basis Dimension        Dim             ....  138

MULLIKEN ATOMIC CHARGES
-----------------------
   0 N :   -0.089046
   1 C :   -0.139625
   2 N :   -0.148705
   3 C :    0.092392
   4 C :    0.065222
   5 C :   -0.071513
   6 C :    0.058792
   7 H :    0.066503
   8 H :    0.100757
   9 H :    0.006185
  10 H :    0.019381
  11 H :    0.036638
  12 H :    0.019902
  13 H :   -0.000020
  14 H :   -0.016862
Sum of atomic charges:    0.0000000

LOEWDIN ATOMIC CHARGES
----------------------
   0 N :   -0.160597
   1 C :   -0.005424
   2 N :   -0.034324
   3 C :    0.026955
   4 C :   -0.045891
   5 C :   -0.021435
   6 C :   -0.039129
   7 H :    0.035113
   8 H :    0.064165
   9 H :    0.024054
  10 H :    0.013837
  11 H :    0.041499
  12 H :    0.036593
  13 H :    0.027776
  14 H :    0.036807

  Mayer bond orders larger than 0.1
B(  0-N ,  1-C ) :   1.9788 B(  0-N ,  7-H ) :   0.9292 B(  1-C ,  2-N ) :   1.1549
B(  1-C ,  6-C ) :   1.0278 B(  2-N ,  3-C ) :   1.0117 B(  2-N ,  8-H ) :   0.9227
B(  3-C ,  4-C ) :   1.1066 B(  3-C ,  9-H ) :   0.9321 B(  3-C , 10-H ) :   0.9335
B(  4-C ,  5-C ) :   1.0481 B(  4-C , 11-H ) :   0.8940 B(  4-C , 12-H ) :   0.9204
B(  5-C ,  6-C ) :   1.8052 B(  5-C , 13-H ) :   0.9569 B(  6-C , 14-H ) :   0.9649

FINAL SINGLE POINT ENERGY      -304.222316409028

DIPOLE MOMENT
-------------
                                X             Y             Z
Electronic contribution:     -3.31509      -0.88764       0.34241
Nuclear contribution   :      4.34029       1.75628      -0.39491
                        -----------------------------------------
Total Dipole Moment    :      1.02520       0.86864      -0.05250
                        -----------------------------------------
Magnitude (a.u.)       :      1.34475
Magnitude (Debye)      :      3.41808

                             ****ORCA TERMINATED NORMALLY****
TOTAL RUN TIME: 0 days 0 hours 0 minutes 7 seconds 222 msec
