                         Program Version 3.0.3 - RELEASE   -
|  1> ! RI PBE def2-SVP def2-SVP/J NBO PAL2
|  2> % maxcore 2000
|  3> % output
|  4>     # printlevel mini
|  5>     print[ P_Basis ] 0
|  6>     print[ P_SCFInfo ] 1
|  7>     print[ P_SCFIterInfo ] 1
|  8>     print[ P_OrbEn ] 0
|  9>     print[ P_Cartesian ] 0
| 10> end
| 11> *xyz 0 1
| 12>  N        3.3479860000     0.4720590000     0.7493960000
| 13>  C        2.3962210000    -0.1616950000    -0.1493590000
| 14>  C        2.7677940000     0.0947790000    -1.5792130000
| 15>  C        1.7344850000     0.0134290000    -2.6563760000
| 16>  C        2.2842020000     1.3509340000    -2.2698860000
| 17>  C        3.1884540000     2.1220910000    -3.1455410000
| 18>  C        3.4168650000     1.8998440000    -4.4334350000
| 19>  H        3.1045480000     0.2963680000     1.7159460000
| 20>  H        3.3386570000     1.4761420000     0.6151660000
| 21>  H        1.3519330000     0.1607350000     0.0017420000
| 22>  H        2.4202020000    -1.2403250000     0.0416430000
| 23>  H        3.7701300000    -0.2213260000    -1.8503860000
| 24>  H        0.7144370000    -0.2098630000    -2.3658120000
| 25>  H        2.0291210000    -0.4086490000    -3.6085150000
| 26>  H        1.6269830000     1.9653080000    -1.6578580000
| 27>  H        3.7167860000     2.9400270000    -2.6579570000
| 28>  H        2.9093620000     1.1112050000    -4.9784270000
| 29>  H        4.1222230000     2.5050280000    -4.9904380000
| 30> *
| 31>
| 32>                          ****END OF INPUT****
 Total Charge           Charge          ....    0
 Multiplicity           Mult            ....    1
 Number of Electrons    NEL             ....   54
 Basis Dimension        Dim             ....  153

MULLIKEN ATOMIC CHARGES
-----------------------
   0 N :   -0.207566
   1 C :    0.157754
   2 C :   -0.136643
   3 C :    0.038302
   4 C :   -0.083384
   5 C :   -0.007249
   6 C :   -0.034589
   7 H :    0.086076
   8 H :    0.085600
   9 H :   -0.026604
  10 H :    0.012357
  11 H :    0.021389
  12 H :    0.018335
  13 H :    0.025102
  14 H :    0.017093
  15 H :   -0.002268
  16 H :    0.013630
  17 H :    0.022664
Sum of atomic charges:   -0.0000000

LOEWDIN ATOMIC CHARGES
----------------------
   0 N :   -0.111204
   1 C :    0.012040
   2 C :   -0.031037
   3 C :   -0.033839
   4 C :   -0.048166
   5 C :   -0.024619
   6 C :   -0.068010
   7 H :    0.051292
   8 H :    0.049077
   9 H :   -0.002238
  10 H :    0.024428
  11 H :    0.028797
  12 H :    0.026121
  13 H :    0.026947
  14 H :    0.029117
  15 H :    0.026922
  16 H :    0.019797
  17 H :    0.024575

  Mayer bond orders larger than 0.1
B(  0-N ,  1-C ) :   1.0936 B(  0-N ,  7-H ) :   0.9633 B(  0-N ,  8-H ) :   0.9709
B(  1-C ,  2-C ) :   1.0748 B(  1-C ,  9-H ) :   0.9075 B(  1-C , 10-H ) :   0.9239
B(  2-C ,  3-C ) :   0.9896 B(  2-C ,  4-C ) :   0.9172 B(  2-C , 11-H ) :   0.9405
B(  3-C ,  4-C ) :   1.0219 B(  3-C , 12-H ) :   0.9250 B(  3-C , 13-H ) :   0.9290
B(  4-C ,  5-C ) :   1.0588 B(  4-C , 14-H ) :   0.9188 B(  5-C ,  6-C ) :   2.0021
B(  5-C , 15-H ) :   0.9571 B(  6-C , 16-H ) :   0.9350 B(  6-C , 17-H ) :   0.9424

FINAL SINGLE POINT ENERGY      -289.348000796743

DIPOLE MOMENT
-------------
                                X             Y             Z
Electronic contribution:      0.52806       0.66143      -0.30253
Nuclear contribution   :     -0.93012      -0.53009       0.65626
                        -----------------------------------------
Total Dipole Moment    :     -0.40206       0.13134       0.35374
                        -----------------------------------------
Magnitude (a.u.)       :      0.55139
Magnitude (Debye)      :      1.40152

                             ****ORCA TERMINATED NORMALLY****
TOTAL RUN TIME: 0 days 0 hours 0 minutes 7 seconds 841 msec
