                         Program Version 3.0.3 - RELEASE   -
|  1> ! RI PBE def2-SVP def2-SVP/J NBO PAL2
|  2> % maxcore 2000
|  3> % output
|  4>     # printlevel mini
|  5>     print[ P_Basis ] 0
|  6>     print[ P_SCFInfo ] 1
|  7>     print[ P_SCFIterInfo ] 1
|  8>     print[ P_OrbEn ] 0
|  9>     print[ P_Cartesian ] 0
| 10> end
| 11> *xyz 0 1
| 12>  N        3.0809720000     1.0734340000     0.5486770000
| 13>  C        2.4979220000    -0.0851320000    -0.1049230000
| 14>  C        2.9900300000    -0.1945480000    -1.5174540000
| 15>  C        2.2148250000    -0.9615870000    -2.5294940000
| 16>  C        2.2475820000     0.5470200000    -2.6089730000
| 17>  C        2.9644610000     1.1965890000    -3.6622380000
| 18>  C        3.5692220000     1.7417980000    -4.5464930000
| 19>  H        2.7504090000     1.1581530000     1.5012060000
| 20>  H        2.8213540000     1.9221190000     0.0605100000
| 21>  H        1.3943740000    -0.0899960000    -0.1195080000
| 22>  H        2.8054730000    -0.9782060000     0.4500200000
| 23>  H        4.0693570000    -0.2015580000    -1.6224790000
| 24>  H        1.2775140000    -1.4123690000    -2.2250510000
| 25>  H        2.7598510000    -1.5048660000    -3.2898640000
| 26>  H        1.3372790000     1.0518010000    -2.2983940000
| 27>  H        4.1057770000     2.2248470000    -5.3279530000
| 28> *
| 29>
| 30>                          ****END OF INPUT****
 Total Charge           Charge          ....    0
 Multiplicity           Mult            ....    1
 Number of Electrons    NEL             ....   52
 Basis Dimension        Dim             ....  143

MULLIKEN ATOMIC CHARGES
-----------------------
   0 N :   -0.211228
   1 C :    0.164907
   2 C :   -0.149256
   3 C :    0.055302
   4 C :   -0.155184
   5 C :    0.458572
   6 C :   -0.480761
   7 H :    0.090744
   8 H :    0.090523
   9 H :   -0.021195
  10 H :    0.012450
  11 H :    0.040324
  12 H :    0.026162
  13 H :    0.040360
  14 H :    0.041707
  15 H :   -0.003425
Sum of atomic charges:   -0.0000000

LOEWDIN ATOMIC CHARGES
----------------------
   0 N :   -0.110272
   1 C :    0.014272
   2 C :   -0.027207
   3 C :   -0.017909
   4 C :   -0.054184
   5 C :   -0.016692
   6 C :   -0.092914
   7 H :    0.053592
   8 H :    0.052179
   9 H :   -0.001024
  10 H :    0.025825
  11 H :    0.036548
  12 H :    0.028458
  13 H :    0.035088
  14 H :    0.041278
  15 H :    0.032963

  Mayer bond orders larger than 0.1
B(  0-N ,  1-C ) :   1.0943 B(  0-N ,  7-H ) :   0.9620 B(  0-N ,  8-H ) :   0.9689
B(  1-C ,  2-C ) :   1.0738 B(  1-C ,  9-H ) :   0.9054 B(  1-C , 10-H ) :   0.9213
B(  2-C ,  3-C ) :   0.9795 B(  2-C ,  4-C ) :   0.9127 B(  2-C , 11-H ) :   0.9437
B(  3-C ,  4-C ) :   0.9775 B(  3-C , 12-H ) :   0.9307 B(  3-C , 13-H ) :   0.9397
B(  4-C ,  5-C ) :   1.0316 B(  4-C , 14-H ) :   0.9151 B(  5-C ,  6-C ) :   2.2649
B(  5-C , 15-H ) :  -0.1073 B(  6-C , 15-H ) :   1.0980

FINAL SINGLE POINT ENERGY      -288.106288507261

DIPOLE MOMENT
-------------
                                X             Y             Z
Electronic contribution:      1.08445       1.79646      -3.96192
Nuclear contribution   :     -1.60525      -1.88136       4.36358
                        -----------------------------------------
Total Dipole Moment    :     -0.52080      -0.08489       0.40165
                        -----------------------------------------
Magnitude (a.u.)       :      0.66314
Magnitude (Debye)      :      1.68558

                             ****ORCA TERMINATED NORMALLY****
TOTAL RUN TIME: 0 days 0 hours 0 minutes 7 seconds 78 msec
