                         Program Version 3.0.3 - RELEASE   -
|  1> ! RI PBE def2-SVP def2-SVP/J NBO PAL2
|  2> % maxcore 2000
|  3> % output
|  4>     # printlevel mini
|  5>     print[ P_Basis ] 0
|  6>     print[ P_SCFInfo ] 1
|  7>     print[ P_SCFIterInfo ] 1
|  8>     print[ P_OrbEn ] 0
|  9>     print[ P_Cartesian ] 0
| 10> end
| 11> *xyz 0 1
| 12>  N        3.1030290000     1.1433770000    -0.2495650000
| 13>  C        2.4978730000    -0.1739470000    -0.3751350000
| 14>  C        2.7238520000    -0.9755810000     0.8729800000
| 15>  C        2.6860600000    -2.4717970000     0.8252520000
| 16>  C        3.9908620000    -1.7576470000     1.0378250000
| 17>  C        4.6749560000    -1.8372880000     2.3704870000
| 18>  N        5.5140960000    -3.0243530000     2.4401630000
| 19>  H        2.9485710000     1.6925960000    -1.0856600000
| 20>  H        4.1052860000     1.0538030000    -0.1315380000
| 21>  H        2.8684050000    -0.7565710000    -1.2351410000
| 22>  H        1.4222340000    -0.0366420000    -0.5306080000
| 23>  H        2.3332160000    -0.5113450000     1.7739990000
| 24>  H        2.5113210000    -2.9474150000    -0.1328020000
| 25>  H        2.2495470000    -2.9921440000     1.6706500000
| 26>  H        4.6701030000    -1.7579210000     0.1891810000
| 27>  H        3.9055980000    -1.7854700000     3.1588260000
| 28>  H        5.3190660000    -0.9613870000     2.5052280000
| 29>  H        4.9468350000    -3.8556140000     2.3226110000
| 30>  H        5.9656790000    -3.0948650000     3.3433380000
| 31> *
| 32>
| 33>                          ****END OF INPUT****
 Total Charge           Charge          ....    0
 Multiplicity           Mult            ....    1
 Number of Electrons    NEL             ....   56
 Basis Dimension        Dim             ....  158

MULLIKEN ATOMIC CHARGES
-----------------------
   0 N :   -0.211862
   1 C :    0.162579
   2 C :   -0.142244
   3 C :    0.023697
   4 C :   -0.166790
   5 C :    0.178198
   6 N :   -0.212437
   7 H :    0.085933
   8 H :    0.087395
   9 H :   -0.027725
  10 H :    0.008184
  11 H :    0.013304
  12 H :    0.020006
  13 H :    0.018139
  14 H :    0.014529
  15 H :   -0.024062
  16 H :    0.004237
  17 H :    0.083363
  18 H :    0.085556
Sum of atomic charges:   -0.0000000

LOEWDIN ATOMIC CHARGES
----------------------
   0 N :   -0.112725
   1 C :    0.014073
   2 C :   -0.044366
   3 C :   -0.044962
   4 C :   -0.050266
   5 C :    0.014109
   6 N :   -0.113529
   7 H :    0.050826
   8 H :    0.049740
   9 H :   -0.002226
  10 H :    0.022481
  11 H :    0.025051
  12 H :    0.024215
  13 H :    0.023066
  14 H :    0.024129
  15 H :   -0.001272
  16 H :    0.021667
  17 H :    0.048926
  18 H :    0.051063

  Mayer bond orders larger than 0.1
B(  0-N ,  1-C ) :   1.0945 B(  0-N ,  7-H ) :   0.9629 B(  0-N ,  8-H ) :   0.9714
B(  1-C ,  2-C ) :   1.0818 B(  1-C ,  9-H ) :   0.9087 B(  1-C , 10-H ) :   0.9232
B(  2-C ,  3-C ) :   0.9952 B(  2-C ,  4-C ) :   0.9217 B(  2-C , 11-H ) :   0.9333
B(  3-C ,  4-C ) :   1.0017 B(  3-C , 12-H ) :   0.9339 B(  3-C , 13-H ) :   0.9339
B(  4-C ,  5-C ) :   1.0731 B(  4-C , 14-H ) :   0.9392 B(  5-C ,  6-N ) :   1.0866
B(  5-C , 15-H ) :   0.9089 B(  5-C , 16-H ) :   0.9245 B(  6-N , 17-H ) :   0.9712
B(  6-N , 18-H ) :   0.9623

FINAL SINGLE POINT ENERGY      -306.585189894863

DIPOLE MOMENT
-------------
                                X             Y             Z
Electronic contribution:      0.23787       0.25337       0.04866
Nuclear contribution   :     -0.26007      -0.45236      -0.06165
                        -----------------------------------------
Total Dipole Moment    :     -0.02220      -0.19899      -0.01300
                        -----------------------------------------
Magnitude (a.u.)       :      0.20065
Magnitude (Debye)      :      0.51000

                             ****ORCA TERMINATED NORMALLY****
TOTAL RUN TIME: 0 days 0 hours 0 minutes 7 seconds 681 msec
