                         Program Version 3.0.3 - RELEASE   -
|  1> ! RI PBE def2-SVP def2-SVP/J NBO PAL2
|  2> % maxcore 2000
|  3> % output
|  4>     # printlevel mini
|  5>     print[ P_Basis ] 0
|  6>     print[ P_SCFInfo ] 1
|  7>     print[ P_SCFIterInfo ] 1
|  8>     print[ P_OrbEn ] 0
|  9>     print[ P_Cartesian ] 0
| 10> end
| 11> *xyz 0 1
| 12>  N        1.0994040000     0.0855900000    -0.0957980000
| 13>  C        2.2478490000     0.0362880000    -0.0543220000
| 14>  C        3.6778310000    -0.0298160000    -0.0171840000
| 15>  C        4.4158680000    -0.7562220000    -1.1016310000
| 16>  C        4.4546310000     0.7424420000    -1.0718870000
| 17>  C        5.6530540000     1.4128740000    -0.6658240000
| 18>  N        6.6201540000     1.9408150000    -0.3355860000
| 19>  H        4.1070580000    -0.0496930000     0.9771990000
| 20>  H        3.8309820000    -1.2125720000    -1.8884250000
| 21>  H        5.3110730000    -1.2877900000    -0.8093160000
| 22>  H        3.8655950000     1.2708830000    -1.8116350000
| 23> *
| 24>
| 25>                          ****END OF INPUT****
 Total Charge           Charge          ....    0
 Multiplicity           Mult            ....    1
 Number of Electrons    NEL             ....   48
 Basis Dimension        Dim             ....  118

MULLIKEN ATOMIC CHARGES
-----------------------
   0 N :    0.080289
   1 C :   -0.096484
   2 C :   -0.184352
   3 C :    0.079311
   4 C :   -0.182168
   5 C :   -0.099108
   6 N :    0.081555
   7 H :    0.091897
   8 H :    0.068332
   9 H :    0.069548
  10 H :    0.091181
Sum of atomic charges:   -0.0000000

LOEWDIN ATOMIC CHARGES
----------------------
   0 N :   -0.046098
   1 C :   -0.038714
   2 C :   -0.038318
   3 C :    0.018556
   4 C :   -0.037776
   5 C :   -0.039301
   6 N :   -0.045823
   7 H :    0.064956
   8 H :    0.048658
   9 H :    0.048933
  10 H :    0.064927

  Mayer bond orders larger than 0.1
B(  0-N ,  1-C ) :   3.0286 B(  1-C ,  2-C ) :   1.1433 B(  2-C ,  3-C ) :   0.9846
B(  2-C ,  4-C ) :   0.9306 B(  2-C ,  7-H ) :   0.9105 B(  3-C ,  4-C ) :   0.9896
B(  3-C ,  8-H ) :   0.9373 B(  3-C ,  9-H ) :   0.9370 B(  4-C ,  5-C ) :   1.1445
B(  4-C , 10-H ) :   0.9097 B(  5-C ,  6-N ) :   3.0279

FINAL SINGLE POINT ENERGY      -301.778496131857

DIPOLE MOMENT
-------------
                                X             Y             Z
Electronic contribution:     -0.67166       2.14405       1.07415
Nuclear contribution   :      0.93836      -2.98604      -1.49503
                        -----------------------------------------
Total Dipole Moment    :      0.26670      -0.84199      -0.42088
                        -----------------------------------------
Magnitude (a.u.)       :      0.97837
Magnitude (Debye)      :      2.48683

                             ****ORCA TERMINATED NORMALLY****
TOTAL RUN TIME: 0 days 0 hours 0 minutes 5 seconds 400 msec
