                         Program Version 3.0.3 - RELEASE   -
|  1> ! RI PBE def2-SVP def2-SVP/J NBO PAL2
|  2> % maxcore 2000
|  3> % output
|  4>     # printlevel mini
|  5>     print[ P_Basis ] 0
|  6>     print[ P_SCFInfo ] 1
|  7>     print[ P_SCFIterInfo ] 1
|  8>     print[ P_OrbEn ] 0
|  9>     print[ P_Cartesian ] 0
| 10> end
| 11> *xyz 0 1
| 12>  N        3.0100680000    -0.9206560000     0.7500330000
| 13>  C        2.4182970000     0.1255660000    -0.0745120000
| 14>  C        3.1654020000     1.4284740000     0.0739290000
| 15>  C        2.5959700000     2.6897120000    -0.6016880000
| 16>  C        3.0538090000     3.5079560000     0.6192480000
| 17>  C        3.1106420000     2.2020200000     1.4235210000
| 18>  N        4.1323120000     2.1061060000     2.4342140000
| 19>  H        2.5762320000    -1.8143680000     0.5556130000
| 20>  H        2.8415150000    -0.7296090000     1.7303700000
| 21>  H        1.3519310000     0.3069510000     0.1433990000
| 22>  H        2.4692390000    -0.2007820000    -1.1190120000
| 23>  H        4.2152960000     1.2823170000    -0.2046260000
| 24>  H        1.5053460000     2.6438170000    -0.6683970000
| 25>  H        2.9919560000     2.9667080000    -1.5792800000
| 26>  H        2.4138020000     4.3107680000     0.9875040000
| 27>  H        4.0621830000     3.9058670000     0.4726100000
| 28>  H        2.1386150000     2.0212810000     1.8995420000
| 29>  H        5.0492560000     2.2182030000     2.0172080000
| 30>  H        4.1256260000     1.2000590000     2.8860250000
| 31> *
| 32>
| 33>                          ****END OF INPUT****
 Total Charge           Charge          ....    0
 Multiplicity           Mult            ....    1
 Number of Electrons    NEL             ....   56
 Basis Dimension        Dim             ....  158

MULLIKEN ATOMIC CHARGES
-----------------------
   0 N :   -0.213343
   1 C :    0.142976
   2 C :   -0.120336
   3 C :    0.046358
   4 C :    0.067082
   5 C :   -0.100143
   6 N :   -0.125889
   7 H :    0.089243
   8 H :    0.081433
   9 H :   -0.023041
  10 H :    0.003742
  11 H :   -0.020952
  12 H :    0.005028
  13 H :    0.004313
  14 H :    0.010074
  15 H :   -0.003277
  16 H :   -0.008716
  17 H :    0.081770
  18 H :    0.083678
Sum of atomic charges:   -0.0000000

LOEWDIN ATOMIC CHARGES
----------------------
   0 N :   -0.114056
   1 C :    0.004358
   2 C :   -0.059518
   3 C :   -0.030306
   4 C :   -0.031714
   5 C :   -0.002503
   6 N :   -0.091446
   7 H :    0.052993
   8 H :    0.044436
   9 H :   -0.003896
  10 H :    0.021017
  11 H :    0.018776
  12 H :    0.021068
  13 H :    0.015817
  14 H :    0.016863
  15 H :    0.022211
  16 H :    0.017404
  17 H :    0.048937
  18 H :    0.049558

  Mayer bond orders larger than 0.1
B(  0-N ,  1-C ) :   1.0934 B(  0-N ,  7-H ) :   0.9634 B(  0-N ,  8-H ) :   0.9668
B(  1-C ,  2-C ) :   1.0734 B(  1-C ,  9-H ) :   0.9100 B(  1-C , 10-H ) :   0.9279
B(  2-C ,  3-C ) :   1.0827 B(  2-C ,  5-C ) :   1.0040 B(  2-C , 11-H ) :   0.8672
B(  3-C ,  4-C ) :   1.1228 B(  3-C , 12-H ) :   0.9143 B(  3-C , 13-H ) :   0.9257
B(  4-C ,  5-C ) :   1.0870 B(  4-C , 14-H ) :   0.9250 B(  4-C , 15-H ) :   0.9129
B(  5-C ,  6-N ) :   1.1542 B(  5-C , 16-H ) :   0.8962 B(  6-N , 17-H ) :   0.9564
B(  6-N , 18-H ) :   0.9689

FINAL SINGLE POINT ENERGY      -306.591895274044

DIPOLE MOMENT
-------------
                                X             Y             Z
Electronic contribution:      0.85791      -0.10411       0.99931
Nuclear contribution   :     -1.12127      -0.37451      -1.07381
                        -----------------------------------------
Total Dipole Moment    :     -0.26336      -0.47863      -0.07450
                        -----------------------------------------
Magnitude (a.u.)       :      0.55136
Magnitude (Debye)      :      1.40144

                             ****ORCA TERMINATED NORMALLY****
TOTAL RUN TIME: 0 days 0 hours 0 minutes 8 seconds 261 msec
