                         Program Version 3.0.3 - RELEASE   -
|  1> ! RI PBE def2-SVP def2-SVP/J NBO PAL2
|  2> % maxcore 2000
|  3> % output
|  4>     # printlevel mini
|  5>     print[ P_Basis ] 0
|  6>     print[ P_SCFInfo ] 1
|  7>     print[ P_SCFIterInfo ] 1
|  8>     print[ P_OrbEn ] 0
|  9>     print[ P_Cartesian ] 0
| 10> end
| 11> *xyz 0 1
| 12>  N        2.8449010000    -1.3399260000    -0.4899120000
| 13>  C        2.3550600000    -0.0322340000    -0.0781830000
| 14>  C        2.7340190000     0.2722370000     1.3569730000
| 15>  C        2.3139870000     1.6577100000     1.8365320000
| 16>  C        2.4806380000     1.5822200000     3.3519390000
| 17>  C        2.1168240000     0.1301130000     3.7232250000
| 18>  C        2.0839300000    -0.6493010000     2.3936500000
| 19>  H        2.6414790000    -1.5052260000    -1.4674740000
| 20>  H        2.3771840000    -2.0708630000     0.0323860000
| 21>  H        1.2613570000     0.0824390000    -0.1783080000
| 22>  H        2.8094360000     0.7160600000    -0.7360140000
| 23>  H        3.8247990000     0.1847180000     1.4424860000
| 24>  H        1.2610120000     1.8259120000     1.5774690000
| 25>  H        2.8940920000     2.4641520000     1.3808710000
| 26>  H        1.8724500000     2.3176250000     3.8826510000
| 27>  H        3.5229010000     1.7860280000     3.6136310000
| 28>  H        1.1497260000     0.0781530000     4.2279430000
| 29>  H        2.8490510000    -0.2913160000     4.4150970000
| 30>  H        1.0457000000    -0.8391250000     2.0951000000
| 31>  H        2.5801450000    -1.6194870000     2.4664480000
| 32> *
| 33>
| 34>                          ****END OF INPUT****
 Total Charge           Charge          ....    0
 Multiplicity           Mult            ....    1
 Number of Electrons    NEL             ....   56
 Basis Dimension        Dim             ....  163

MULLIKEN ATOMIC CHARGES
-----------------------
   0 N :   -0.206585
   1 C :    0.147443
   2 C :   -0.217488
   3 C :    0.038175
   4 C :    0.030920
   5 C :   -0.018208
   6 C :    0.042748
   7 H :    0.087119
   8 H :    0.084925
   9 H :   -0.019862
  10 H :   -0.004989
  11 H :    0.013896
  12 H :   -0.003031
  13 H :    0.006567
  14 H :    0.003869
  15 H :   -0.000828
  16 H :    0.006520
  17 H :    0.010125
  18 H :   -0.007916
  19 H :    0.006601
Sum of atomic charges:    0.0000000

LOEWDIN ATOMIC CHARGES
----------------------
   0 N :   -0.112345
   1 C :    0.010089
   2 C :   -0.053274
   3 C :   -0.035549
   4 C :   -0.040382
   5 C :   -0.044874
   6 C :   -0.040480
   7 H :    0.051983
   8 H :    0.048028
   9 H :   -0.004463
  10 H :    0.019735
  11 H :    0.025997
  12 H :    0.018121
  13 H :    0.021913
  14 H :    0.022485
  15 H :    0.023107
  16 H :    0.024165
  17 H :    0.025033
  18 H :    0.018879
  19 H :    0.021832

  Mayer bond orders larger than 0.1
B(  0-N ,  1-C ) :   1.1027 B(  0-N ,  7-H ) :   0.9621 B(  0-N ,  8-H ) :   0.9682
B(  1-C ,  2-C ) :   1.0712 B(  1-C ,  9-H ) :   0.9106 B(  1-C , 10-H ) :   0.9217
B(  2-C ,  3-C ) :   1.0413 B(  2-C ,  6-C ) :   1.0799 B(  2-C , 11-H ) :   0.9069
B(  3-C ,  4-C ) :   1.1207 B(  3-C , 12-H ) :   0.9248 B(  3-C , 13-H ) :   0.9301
B(  4-C ,  5-C ) :   1.1249 B(  4-C , 14-H ) :   0.9331 B(  4-C , 15-H ) :   0.9218
B(  5-C ,  6-C ) :   1.1337 B(  5-C , 16-H ) :   0.9320 B(  5-C , 17-H ) :   0.9286
B(  6-C , 18-H ) :   0.9184 B(  6-C , 19-H ) :   0.9230

FINAL SINGLE POINT ENERGY      -290.599252130002

DIPOLE MOMENT
-------------
                                X             Y             Z
Electronic contribution:      0.80006      -0.55154      -0.88738
Nuclear contribution   :     -1.20222       0.47412       0.76977
                        -----------------------------------------
Total Dipole Moment    :     -0.40216      -0.07742      -0.11760
                        -----------------------------------------
Magnitude (a.u.)       :      0.42610
Magnitude (Debye)      :      1.08306

                             ****ORCA TERMINATED NORMALLY****
TOTAL RUN TIME: 0 days 0 hours 0 minutes 8 seconds 673 msec
