                         Program Version 3.0.3 - RELEASE   -
|  1> ! RI PBE def2-SVP def2-SVP/J NBO PAL2
|  2> % maxcore 2000
|  3> % output
|  4>     # printlevel mini
|  5>     print[ P_Basis ] 0
|  6>     print[ P_SCFInfo ] 1
|  7>     print[ P_SCFIterInfo ] 1
|  8>     print[ P_OrbEn ] 0
|  9>     print[ P_Cartesian ] 0
| 10> end
| 11> *xyz 0 1
| 12>  N        0.9487890000    -0.0128210000    -0.3036420000
| 13>  C        2.0888700000    -0.0299140000    -0.1512700000
| 14>  C        3.5259180000    -0.0523670000     0.0596400000
| 15>  C        4.0516030000     1.1013360000     0.9211730000
| 16>  C        5.4697290000     0.6490940000     1.2645420000
| 17>  C        5.4122890000    -0.8927300000     1.3336280000
| 18>  C        4.0230970000    -1.2953930000     0.8122580000
| 19>  H        4.0040820000    -0.0075290000    -0.9260790000
| 20>  H        3.4361350000     1.1774330000     1.8220720000
| 21>  H        4.0108430000     2.0639190000     0.4095950000
| 22>  H        5.8261450000     1.0977800000     2.1929090000
| 23>  H        6.1585860000     0.9655360000     0.4769690000
| 24>  H        5.5622360000    -1.2586000000     2.3505500000
| 25>  H        6.2021490000    -1.3352890000     0.7237180000
| 26>  H        3.3409450000    -1.4974420000     1.6415940000
| 27>  H        4.0368750000    -2.1839340000     0.1800420000
| 28> *
| 29>
| 30>                          ****END OF INPUT****
 Total Charge           Charge          ....    0
 Multiplicity           Mult            ....    1
 Number of Electrons    NEL             ....   52
 Basis Dimension        Dim             ....  143

MULLIKEN ATOMIC CHARGES
-----------------------
   0 N :    0.081743
   1 C :   -0.185032
   2 C :   -0.175026
   3 C :    0.007666
   4 C :    0.019410
   5 C :    0.012098
   6 C :    0.011586
   7 H :    0.047144
   8 H :    0.029721
   9 H :    0.030933
  10 H :    0.017593
  11 H :    0.012582
  12 H :    0.014570
  13 H :    0.014767
  14 H :    0.030018
  15 H :    0.030227
Sum of atomic charges:   -0.0000000

LOEWDIN ATOMIC CHARGES
----------------------
   0 N :   -0.071277
   1 C :   -0.038978
   2 C :   -0.065649
   3 C :   -0.019221
   4 C :   -0.041041
   5 C :   -0.040477
   6 C :   -0.020721
   7 H :    0.053282
   8 H :    0.031779
   9 H :    0.031143
  10 H :    0.030077
  11 H :    0.027779
  12 H :    0.029697
  13 H :    0.028759
  14 H :    0.033056
  15 H :    0.031793

  Mayer bond orders larger than 0.1
B(  0-N ,  1-C ) :   3.0706 B(  1-C ,  2-C ) :   1.1233 B(  2-C ,  3-C ) :   1.0566
B(  2-C ,  6-C ) :   1.0684 B(  2-C ,  7-H ) :   0.8620 B(  3-C ,  4-C ) :   1.1316
B(  3-C ,  8-H ) :   0.9265 B(  3-C ,  9-H ) :   0.9365 B(  4-C ,  5-C ) :   1.1102
B(  4-C , 10-H ) :   0.9343 B(  4-C , 11-H ) :   0.9237 B(  5-C ,  6-C ) :   1.1332
B(  5-C , 12-H ) :   0.9329 B(  5-C , 13-H ) :   0.9270 B(  6-C , 14-H ) :   0.9250
B(  6-C , 15-H ) :   0.9350

FINAL SINGLE POINT ENERGY      -288.199450184027

DIPOLE MOMENT
-------------
                                X             Y             Z
Electronic contribution:     -7.18287       0.22979      -3.04724
Nuclear contribution   :      8.75139      -0.25962       3.38245
                        -----------------------------------------
Total Dipole Moment    :      1.56852      -0.02983       0.33521
                        -----------------------------------------
Magnitude (a.u.)       :      1.60422
Magnitude (Debye)      :      4.07760

                             ****ORCA TERMINATED NORMALLY****
TOTAL RUN TIME: 0 days 0 hours 0 minutes 7 seconds 40 msec
