                         Program Version 3.0.3 - RELEASE   -
|  1> ! RI PBE def2-SVP def2-SVP/J NBO PAL2
|  2> % maxcore 2000
|  3> % output
|  4>     # printlevel mini
|  5>     print[ P_Basis ] 0
|  6>     print[ P_SCFInfo ] 1
|  7>     print[ P_SCFIterInfo ] 1
|  8>     print[ P_OrbEn ] 0
|  9>     print[ P_Cartesian ] 0
| 10> end
| 11> *xyz 0 1
| 12>  N        0.9685890000    -0.0601320000     0.0182060000
| 13>  C        2.1201220000    -0.0960150000    -0.0249510000
| 14>  C        3.5381850000    -0.0966920000    -0.0791690000
| 15>  C        4.3051450000    -1.1873310000    -0.1531900000
| 16>  C        5.7582830000    -0.8380530000    -0.1351860000
| 17>  C        5.7617470000     0.6793050000    -0.3846780000
| 18>  C        4.3578410000     1.1674280000     0.0047540000
| 19>  H        3.9267860000    -2.2019000000    -0.1808040000
| 20>  H        6.3343120000    -1.3932640000    -0.8801200000
| 21>  H        6.1878030000    -1.0983540000     0.8410640000
| 22>  H        5.9250630000     0.8673080000    -1.4483380000
| 23>  H        6.5514760000     1.1959180000     0.1615970000
| 24>  H        3.9816270000     1.9535950000    -0.6529300000
| 25>  H        4.3222110000     1.5640780000     1.0257530000
| 26> *
| 27>
| 28>                          ****END OF INPUT****
 Total Charge           Charge          ....    0
 Multiplicity           Mult            ....    1
 Number of Electrons    NEL             ....   50
 Basis Dimension        Dim             ....  133

MULLIKEN ATOMIC CHARGES
-----------------------
   0 N :    0.071432
   1 C :   -0.116274
   2 C :   -0.265641
   3 C :   -0.011257
   4 C :    0.033245
   5 C :   -0.017847
   6 C :    0.106539
   7 H :    0.000538
   8 H :    0.035496
   9 H :    0.039868
  10 H :    0.029357
  11 H :    0.018812
  12 H :    0.037742
  13 H :    0.037991
Sum of atomic charges:   -0.0000000

LOEWDIN ATOMIC CHARGES
----------------------
   0 N :   -0.057838
   1 C :   -0.039892
   2 C :   -0.081969
   3 C :    0.019134
   4 C :   -0.038535
   5 C :   -0.029882
   6 C :   -0.017323
   7 H :    0.032978
   8 H :    0.036400
   9 H :    0.040121
  10 H :    0.032357
  11 H :    0.029033
  12 H :    0.036870
  13 H :    0.038545

  Mayer bond orders larger than 0.1
B(  0-N ,  1-C ) :   2.9809 B(  0-N ,  3-C ) :   0.1096 B(  1-C ,  2-C ) :   1.1637
B(  2-C ,  3-C ) :   1.7963 B(  2-C ,  6-C ) :   1.0300 B(  3-C ,  4-C ) :   1.0112
B(  3-C ,  7-H ) :   0.9878 B(  4-C ,  5-C ) :   1.1031 B(  4-C ,  8-H ) :   0.9262
B(  4-C ,  9-H ) :   0.9099 B(  5-C ,  6-C ) :   1.0804 B(  5-C , 10-H ) :   0.9415
B(  5-C , 11-H ) :   0.9347 B(  6-C , 12-H ) :   0.9318 B(  6-C , 13-H ) :   0.9134

FINAL SINGLE POINT ENERGY      -286.988891274769

DIPOLE MOMENT
-------------
                                X             Y             Z
Electronic contribution:     -7.70677      -1.19013       0.31200
Nuclear contribution   :      9.42129       1.14330      -0.34614
                        -----------------------------------------
Total Dipole Moment    :      1.71452      -0.04682      -0.03414
                        -----------------------------------------
Magnitude (a.u.)       :      1.71549
Magnitude (Debye)      :      4.36044

                             ****ORCA TERMINATED NORMALLY****
TOTAL RUN TIME: 0 days 0 hours 0 minutes 6 seconds 718 msec
