                         Program Version 3.0.3 - RELEASE   -
|  1> ! RI PBE def2-SVP def2-SVP/J NBO PAL2
|  2> % maxcore 2000
|  3> % output
|  4>     # printlevel mini
|  5>     print[ P_Basis ] 0
|  6>     print[ P_SCFInfo ] 1
|  7>     print[ P_SCFIterInfo ] 1
|  8>     print[ P_OrbEn ] 0
|  9>     print[ P_Cartesian ] 0
| 10> end
| 11> *xyz 0 1
| 12>  N        1.0233110000     0.0256010000    -0.0851670000
| 13>  C        2.1770540000     0.0513610000    -0.0841770000
| 14>  C        3.5883120000     0.0501190000    -0.0829860000
| 15>  C        4.3999850000     1.1310710000    -0.0795400000
| 16>  C        5.7810080000     0.6886680000    -0.0795040000
| 17>  C        5.8146750000    -0.6550970000    -0.0829060000
| 18>  C        4.4264900000    -1.1914620000    -0.0854470000
| 19>  H        4.0704890000     2.1613570000    -0.0771890000
| 20>  H        6.6357910000     1.3512500000    -0.0770920000
| 21>  H        6.6981440000    -1.2784500000    -0.0837510000
| 22>  H        4.2224300000    -1.8209920000     0.7893560000
| 23>  H        4.2239120000    -1.8165150000    -0.9637970000
| 24> *
| 25>
| 26>                          ****END OF INPUT****
 Total Charge           Charge          ....    0
 Multiplicity           Mult            ....    1
 Number of Electrons    NEL             ....   48
 Basis Dimension        Dim             ....  123

MULLIKEN ATOMIC CHARGES
-----------------------
   0 N :    0.074427
   1 C :   -0.120691
   2 C :   -0.275413
   3 C :    0.059413
   4 C :    0.034094
   5 C :   -0.066566
   6 C :    0.155383
   7 H :   -0.004252
   8 H :   -0.005115
   9 H :    0.005080
  10 H :    0.071855
  11 H :    0.071786
Sum of atomic charges:   -0.0000000

LOEWDIN ATOMIC CHARGES
----------------------
   0 N :   -0.061347
   1 C :   -0.045958
   2 C :   -0.082092
   3 C :    0.014319
   4 C :   -0.032013
   5 C :   -0.011551
   6 C :   -0.014929
   7 H :    0.035230
   8 H :    0.030731
   9 H :    0.029472
  10 H :    0.069074
  11 H :    0.069065

  Mayer bond orders larger than 0.1
B(  0-N ,  1-C ) :   2.9660 B(  1-C ,  2-C ) :   1.1740 B(  2-C ,  3-C ) :   1.6592
B(  2-C ,  5-C ) :   0.1247 B(  2-C ,  6-C ) :   1.0545 B(  3-C ,  4-C ) :   1.0867
B(  3-C ,  7-H ) :   1.0037 B(  4-C ,  5-C ) :   1.6934 B(  4-C ,  8-H ) :   0.9946
B(  5-C ,  6-C ) :   1.0467 B(  5-C ,  9-H ) :   0.9867 B(  6-C , 10-H ) :   0.8821
B(  6-C , 11-H ) :   0.8821

FINAL SINGLE POINT ENERGY      -285.779405462502

DIPOLE MOMENT
-------------
                                X             Y             Z
Electronic contribution:     -4.30024       1.11104      -0.00073
Nuclear contribution   :      5.96350      -1.30824       0.00166
                        -----------------------------------------
Total Dipole Moment    :      1.66326      -0.19720       0.00093
                        -----------------------------------------
Magnitude (a.u.)       :      1.67491
Magnitude (Debye)      :      4.25728

                             ****ORCA TERMINATED NORMALLY****
TOTAL RUN TIME: 0 days 0 hours 0 minutes 5 seconds 874 msec
