                         Program Version 3.0.3 - RELEASE   -
|  1> ! RI PBE def2-SVP def2-SVP/J NBO PAL2
|  2> % maxcore 2000
|  3> % output
|  4>     # printlevel mini
|  5>     print[ P_Basis ] 0
|  6>     print[ P_SCFInfo ] 1
|  7>     print[ P_SCFIterInfo ] 1
|  8>     print[ P_OrbEn ] 0
|  9>     print[ P_Cartesian ] 0
| 10> end
| 11> *xyz 0 1
| 12>  N        1.0319000000     0.0403830000     0.0859020000
| 13>  C        2.1836730000     0.0108420000     0.0870980000
| 14>  C        3.6038660000    -0.0002330000     0.0883340000
| 15>  C        4.3875130000    -1.0977990000     0.0896140000
| 16>  C        5.8108320000    -0.6662230000     0.0906270000
| 17>  C        5.7285890000     0.8232780000     0.0897380000
| 18>  C        4.4439120000     1.2012900000     0.0884120000
| 19>  H        4.0491830000    -2.1239470000     0.0898790000
| 20>  H        6.3514210000    -1.0533030000    -0.7833790000
| 21>  H        6.3498880000    -1.0523440000     0.9660040000
| 22>  H        6.5897830000     1.4764990000     0.0901340000
| 23>  H        4.0569400000     2.2107460000     0.0875260000
| 24> *
| 25>
| 26>                          ****END OF INPUT****
 Total Charge           Charge          ....    0
 Multiplicity           Mult            ....    1
 Number of Electrons    NEL             ....   48
 Basis Dimension        Dim             ....  123

MULLIKEN ATOMIC CHARGES
-----------------------
   0 N :    0.079125
   1 C :   -0.111499
   2 C :   -0.151582
   3 C :   -0.052194
   4 C :    0.082192
   5 C :   -0.068044
   6 C :    0.081199
   7 H :    0.005110
   8 H :    0.069554
   9 H :    0.069521
  10 H :    0.004254
  11 H :   -0.007636
Sum of atomic charges:   -0.0000000

LOEWDIN ATOMIC CHARGES
----------------------
   0 N :   -0.053237
   1 C :   -0.037043
   2 C :   -0.079632
   3 C :    0.012132
   4 C :   -0.033802
   5 C :   -0.024711
   6 C :   -0.012832
   7 H :    0.033399
   8 H :    0.066810
   9 H :    0.066803
  10 H :    0.028931
  11 H :    0.033182

  Mayer bond orders larger than 0.1
B(  0-N ,  1-C ) :   2.9970 B(  0-N ,  3-C ) :   0.1044 B(  1-C ,  2-C ) :   1.1201
B(  2-C ,  3-C ) :   1.6880 B(  2-C ,  6-C ) :   1.0888 B(  3-C ,  4-C ) :   1.0272
B(  3-C ,  7-H ) :   1.0015 B(  4-C ,  5-C ) :   1.0709 B(  4-C ,  8-H ) :   0.8845
B(  4-C ,  9-H ) :   0.8845 B(  5-C ,  6-C ) :   1.7122 B(  5-C , 10-H ) :   0.9836
B(  6-C , 11-H ) :   1.0084

FINAL SINGLE POINT ENERGY      -285.775602058533

DIPOLE MOMENT
-------------
                                X             Y             Z
Electronic contribution:     -5.51863       0.47051      -0.00509
Nuclear contribution   :      7.34588      -0.67745       0.00691
                        -----------------------------------------
Total Dipole Moment    :      1.82724      -0.20694       0.00181
                        -----------------------------------------
Magnitude (a.u.)       :      1.83893
Magnitude (Debye)      :      4.67418

                             ****ORCA TERMINATED NORMALLY****
TOTAL RUN TIME: 0 days 0 hours 0 minutes 6 seconds 5 msec
