                         Program Version 3.0.3 - RELEASE   -
|  1> ! RI PBE def2-SVP def2-SVP/J NBO PAL2
|  2> % maxcore 2000
|  3> % output
|  4>     # printlevel mini
|  5>     print[ P_Basis ] 0
|  6>     print[ P_SCFInfo ] 1
|  7>     print[ P_SCFIterInfo ] 1
|  8>     print[ P_OrbEn ] 0
|  9>     print[ P_Cartesian ] 0
| 10> end
| 11> *xyz 0 1
| 12>  N        0.9825800000     0.0340120000     0.0517550000
| 13>  C        2.1277870000     0.0335860000    -0.0490190000
| 14>  C        3.5794000000     0.0331120000    -0.1642660000
| 15>  C        4.1340880000     1.2136480000    -0.9166970000
| 16>  C        4.9245240000     0.7628840000    -1.8976340000
| 17>  C        4.9241030000    -0.6985050000    -1.8971680000
| 18>  C        4.1334130000    -1.1482000000    -0.9159440000
| 19>  H        3.9891890000     0.0333080000     0.8579280000
| 20>  H        3.9121570000     2.2382070000    -0.6568070000
| 21>  H        5.4846350000     1.3760870000    -2.5911180000
| 22>  H        5.4838910000    -1.3124730000    -2.5902370000
| 23>  H        3.9109340000    -2.1724760000    -0.6553930000
| 24> *
| 25>
| 26>                          ****END OF INPUT****
 Total Charge           Charge          ....    0
 Multiplicity           Mult            ....    1
 Number of Electrons    NEL             ....   48
 Basis Dimension        Dim             ....  123

MULLIKEN ATOMIC CHARGES
-----------------------
   0 N :    0.058567
   1 C :   -0.182105
   2 C :   -0.040664
   3 C :   -0.005855
   4 C :    0.021874
   5 C :    0.021881
   6 C :   -0.005831
   7 H :    0.090881
   8 H :    0.016258
   9 H :    0.004377
  10 H :    0.004373
  11 H :    0.016242
Sum of atomic charges:   -0.0000000

LOEWDIN ATOMIC CHARGES
----------------------
   0 N :   -0.061990
   1 C :   -0.029948
   2 C :   -0.055052
   3 C :   -0.013157
   4 C :   -0.021126
   5 C :   -0.021122
   6 C :   -0.013156
   7 H :    0.088194
   8 H :    0.032188
   9 H :    0.031492
  10 H :    0.031491
  11 H :    0.032186

  Mayer bond orders larger than 0.1
B(  0-N ,  1-C ) :   3.0730 B(  1-C ,  2-C ) :   1.0353 B(  2-C ,  3-C ) :   1.0191
B(  2-C ,  6-C ) :   1.0191 B(  2-C ,  7-H ) :   0.8331 B(  3-C ,  4-C ) :   1.7281
B(  3-C ,  8-H ) :   0.9937 B(  4-C ,  5-C ) :   1.0923 B(  4-C ,  9-H ) :   0.9973
B(  5-C ,  6-C ) :   1.7281 B(  5-C , 10-H ) :   0.9973 B(  6-C , 11-H ) :   0.9937

FINAL SINGLE POINT ENERGY      -285.763333629312

DIPOLE MOMENT
-------------
                                X             Y             Z
Electronic contribution:     -3.26130       0.00136       1.25671
Nuclear contribution   :      4.73571      -0.00189      -1.41547
                        -----------------------------------------
Total Dipole Moment    :      1.47441      -0.00054      -0.15876
                        -----------------------------------------
Magnitude (a.u.)       :      1.48293
Magnitude (Debye)      :      3.76932

                             ****ORCA TERMINATED NORMALLY****
TOTAL RUN TIME: 0 days 0 hours 0 minutes 6 seconds 192 msec
