                         Program Version 3.0.3 - RELEASE   -
|  1> ! RI PBE def2-SVP def2-SVP/J NBO PAL2
|  2> % maxcore 2000
|  3> % output
|  4>     # printlevel mini
|  5>     print[ P_Basis ] 0
|  6>     print[ P_SCFInfo ] 1
|  7>     print[ P_SCFIterInfo ] 1
|  8>     print[ P_OrbEn ] 0
|  9>     print[ P_Cartesian ] 0
| 10> end
| 11> *xyz 0 1
| 12>  N        0.9632440000     0.0836630000     0.1830480000
| 13>  C        2.1111350000     0.0843640000     0.1085990000
| 14>  C        3.5642440000     0.0851620000     0.0124370000
| 15>  C        4.0683230000    -1.1504780000    -0.7797390000
| 16>  C        4.4397050000    -0.5765520000    -2.1130910000
| 17>  C        4.4390090000     0.7497230000    -2.1124880000
| 18>  C        4.0670390000     1.3220490000    -0.7786130000
| 19>  H        3.9489350000     0.0848970000     1.0346300000
| 20>  H        3.3068120000    -1.9309910000    -0.8437680000
| 21>  H        4.9382570000    -1.5976810000    -0.2860900000
| 22>  H        4.7047220000    -1.1985980000    -2.9594590000
| 23>  H        4.7033790000     1.3728190000    -2.9582860000
| 24>  H        3.3047120000     2.1018240000    -0.8419280000
| 25>  H        4.9365050000     1.7697100000    -0.2845540000
| 26> *
| 27>
| 28>                          ****END OF INPUT****
 Total Charge           Charge          ....    0
 Multiplicity           Mult            ....    1
 Number of Electrons    NEL             ....   50
 Basis Dimension        Dim             ....  133

MULLIKEN ATOMIC CHARGES
-----------------------
   0 N :    0.061351
   1 C :   -0.173971
   2 C :   -0.200251
   3 C :    0.097378
   4 C :   -0.051710
   5 C :   -0.051702
   6 C :    0.097296
   7 H :    0.050285
   8 H :    0.046729
   9 H :    0.035412
  10 H :    0.003495
  11 H :    0.003508
  12 H :    0.046744
  13 H :    0.035436
Sum of atomic charges:   -0.0000000

LOEWDIN ATOMIC CHARGES
----------------------
   0 N :   -0.071984
   1 C :   -0.037637
   2 C :   -0.050170
   3 C :   -0.020642
   4 C :   -0.032813
   5 C :   -0.032818
   6 C :   -0.020653
   7 H :    0.055145
   8 H :    0.040332
   9 H :    0.037675
  10 H :    0.027776
  11 H :    0.027780
  12 H :    0.040333
  13 H :    0.037678

  Mayer bond orders larger than 0.1
B(  0-N ,  1-C ) :   3.0782 B(  1-C ,  2-C ) :   1.0700 B(  2-C ,  3-C ) :   1.0749
B(  2-C ,  6-C ) :   1.0748 B(  2-C ,  7-H ) :   0.8785 B(  3-C ,  4-C ) :   1.0260
B(  3-C ,  8-H ) :   0.9304 B(  3-C ,  9-H ) :   0.9109 B(  4-C ,  5-C ) :   1.8735
B(  4-C , 10-H ) :   0.9842 B(  5-C ,  6-C ) :   1.0261 B(  5-C , 11-H ) :   0.9842
B(  6-C , 12-H ) :   0.9304 B(  6-C , 13-H ) :   0.9109

FINAL SINGLE POINT ENERGY      -286.979878238394

DIPOLE MOMENT
-------------
                                X             Y             Z
Electronic contribution:     -4.18723      -0.00285       1.38719
Nuclear contribution   :      5.69449       0.00375      -1.56968
                        -----------------------------------------
Total Dipole Moment    :      1.50726       0.00089      -0.18249
                        -----------------------------------------
Magnitude (a.u.)       :      1.51826
Magnitude (Debye)      :      3.85912

                             ****ORCA TERMINATED NORMALLY****
TOTAL RUN TIME: 0 days 0 hours 0 minutes 6 seconds 511 msec
