                         Program Version 3.0.3 - RELEASE   -
|  1> ! RI PBE def2-SVP def2-SVP/J NBO PAL2
|  2> % maxcore 2000
|  3> % output
|  4>     # printlevel mini
|  5>     print[ P_Basis ] 0
|  6>     print[ P_SCFInfo ] 1
|  7>     print[ P_SCFIterInfo ] 1
|  8>     print[ P_OrbEn ] 0
|  9>     print[ P_Cartesian ] 0
| 10> end
| 11> *xyz 0 1
| 12>  N        0.9289830000     0.1074870000    -0.1446400000
| 13>  C        2.0775240000     0.0893740000    -0.0827800000
| 14>  C        3.5365000000     0.0626170000     0.0024830000
| 15>  C        4.0806520000    -1.2285160000     0.6630410000
| 16>  C        4.4223680000    -0.8402570000     2.1090600000
| 17>  C        4.5276410000     0.6531610000     2.0486390000
| 18>  C        4.0505590000     1.1525080000     0.9169090000
| 19>  H        3.9112630000     0.1730960000    -1.0203120000
| 20>  H        4.9908890000    -1.5179190000     0.1349580000
| 21>  H        3.3775620000    -2.0576180000     0.5912470000
| 22>  H        5.3433280000    -1.3164400000     2.4552060000
| 23>  H        3.6355970000    -1.1356860000     2.8131510000
| 24>  H        4.9178460000     1.2501540000     2.8646230000
| 25>  H        3.9738980000     2.2017290000     0.6621130000
| 26> *
| 27>
| 28>                          ****END OF INPUT****
 Total Charge           Charge          ....    0
 Multiplicity           Mult            ....    1
 Number of Electrons    NEL             ....   50
 Basis Dimension        Dim             ....  133

MULLIKEN ATOMIC CHARGES
-----------------------
   0 N :    0.055944
   1 C :   -0.175962
   2 C :   -0.115110
   3 C :    0.021061
   4 C :    0.061309
   5 C :   -0.056767
   6 C :   -0.004068
   7 H :    0.052933
   8 H :    0.031818
   9 H :    0.035516
  10 H :    0.028944
  11 H :    0.044543
  12 H :    0.008409
  13 H :    0.011430
Sum of atomic charges:    0.0000000

LOEWDIN ATOMIC CHARGES
----------------------
   0 N :   -0.071313
   1 C :   -0.039452
   2 C :   -0.058731
   3 C :   -0.012313
   4 C :   -0.037878
   5 C :   -0.016303
   6 C :   -0.024957
   7 H :    0.056122
   8 H :    0.035917
   9 H :    0.035193
  10 H :    0.033838
  11 H :    0.040608
  12 H :    0.029182
  13 H :    0.030087

  Mayer bond orders larger than 0.1
B(  0-N ,  1-C ) :   3.0797 B(  1-C ,  2-C ) :   1.0359 B(  2-C ,  3-C ) :   1.0836
B(  2-C ,  6-C ) :   1.0181 B(  2-C ,  7-H ) :   0.8753 B(  3-C ,  4-C ) :   1.0877
B(  3-C ,  8-H ) :   0.9308 B(  3-C ,  9-H ) :   0.9385 B(  4-C ,  5-C ) :   1.0388
B(  4-C , 10-H ) :   0.9323 B(  4-C , 11-H ) :   0.9143 B(  5-C ,  6-C ) :   1.8628
B(  5-C , 12-H ) :   0.9828 B(  6-C , 13-H ) :   0.9893

FINAL SINGLE POINT ENERGY      -286.979446231915

DIPOLE MOMENT
-------------
                                X             Y             Z
Electronic contribution:     -4.49184       1.95376      -2.41208
Nuclear contribution   :      5.98950      -2.09469       2.71712
                        -----------------------------------------
Total Dipole Moment    :      1.49765      -0.14093       0.30504
                        -----------------------------------------
Magnitude (a.u.)       :      1.53488
Magnitude (Debye)      :      3.90137

                             ****ORCA TERMINATED NORMALLY****
TOTAL RUN TIME: 0 days 0 hours 0 minutes 6 seconds 776 msec
