                         Program Version 3.0.3 - RELEASE   -
|  1> ! RI PBE def2-SVP def2-SVP/J NBO PAL2
|  2> % maxcore 2000
|  3> % output
|  4>     # printlevel mini
|  5>     print[ P_Basis ] 0
|  6>     print[ P_SCFInfo ] 1
|  7>     print[ P_SCFIterInfo ] 1
|  8>     print[ P_OrbEn ] 0
|  9>     print[ P_Cartesian ] 0
| 10> end
| 11> *xyz 0 1
| 12>  N        3.5450120000     0.6873700000     0.7335170000
| 13>  C        2.4147340000    -0.0801750000     0.2135180000
| 14>  C        2.8396500000    -1.4381460000    -0.2329420000
| 15>  C        2.3792750000    -2.6055890000     0.2079300000
| 16>  C        3.0524230000    -3.7739770000    -0.4473560000
| 17>  C        3.7825030000    -3.1258400000    -1.6357090000
| 18>  C        3.9162340000    -1.6404280000    -1.2675230000
| 19>  H        3.2340130000     1.6068030000     1.0226200000
| 20>  H        4.2318730000     0.8338620000     0.0032380000
| 21>  H        1.9090940000     0.4204210000    -0.6309210000
| 22>  H        1.6740880000    -0.1803060000     1.0113470000
| 23>  H        1.6346540000    -2.7131980000     0.9895890000
| 24>  H        2.3529840000    -4.5541240000    -0.7619330000
| 25>  H        3.7526440000    -4.2514820000     0.2506760000
| 26>  H        3.1613700000    -3.2179770000    -2.5304540000
| 27>  H        4.7410070000    -3.5983730000    -1.8571580000
| 28>  H        3.8003050000    -0.9816640000    -2.1353950000
| 29>  H        4.8995360000    -1.4167650000    -0.8333130000
| 30> *
| 31>
| 32>                          ****END OF INPUT****
 Total Charge           Charge          ....    0
 Multiplicity           Mult            ....    1
 Number of Electrons    NEL             ....   54
 Basis Dimension        Dim             ....  153

MULLIKEN ATOMIC CHARGES
-----------------------
   0 N :   -0.221610
   1 C :    0.165277
   2 C :   -0.160287
   3 C :   -0.099660
   4 C :    0.040227
   5 C :   -0.014205
   6 C :    0.061363
   7 H :    0.088331
   8 H :    0.088939
   9 H :   -0.003665
  10 H :   -0.006066
  11 H :   -0.026547
  12 H :    0.014373
  13 H :    0.025869
  14 H :    0.015634
  15 H :    0.004525
  16 H :    0.005935
  17 H :    0.021566
Sum of atomic charges:   -0.0000000

LOEWDIN ATOMIC CHARGES
----------------------
   0 N :   -0.113106
   1 C :    0.010054
   2 C :   -0.042460
   3 C :   -0.046212
   4 C :   -0.042382
   5 C :   -0.030876
   6 C :   -0.039342
   7 H :    0.052194
   8 H :    0.048012
   9 H :    0.005872
  10 H :    0.024339
  11 H :    0.018013
  12 H :    0.025394
  13 H :    0.030399
  14 H :    0.026689
  15 H :    0.021587
  16 H :    0.023031
  17 H :    0.028797

  Mayer bond orders larger than 0.1
B(  0-N ,  1-C ) :   1.0749 B(  0-N ,  7-H ) :   0.9614 B(  0-N ,  8-H ) :   0.9671
B(  1-C ,  2-C ) :   1.0693 B(  1-C ,  9-H ) :   0.9018 B(  1-C , 10-H ) :   0.9147
B(  2-C ,  3-C ) :   1.8788 B(  2-C ,  6-C ) :   1.0421 B(  3-C ,  4-C ) :   1.0219
B(  3-C , 11-H ) :   0.9816 B(  4-C ,  5-C ) :   1.1087 B(  4-C , 12-H ) :   0.9306
B(  4-C , 13-H ) :   0.9136 B(  5-C ,  6-C ) :   1.0995 B(  5-C , 14-H ) :   0.9403
B(  5-C , 15-H ) :   0.9358 B(  6-C , 16-H ) :   0.9246 B(  6-C , 17-H ) :   0.9040

FINAL SINGLE POINT ENERGY      -289.383175711079

DIPOLE MOMENT
-------------
                                X             Y             Z
Electronic contribution:     -0.75849       0.19265       1.25030
Nuclear contribution   :      0.68806       0.14261      -1.59895
                        -----------------------------------------
Total Dipole Moment    :     -0.07044       0.33526      -0.34865
                        -----------------------------------------
Magnitude (a.u.)       :      0.48879
Magnitude (Debye)      :      1.24242

                             ****ORCA TERMINATED NORMALLY****
TOTAL RUN TIME: 0 days 0 hours 0 minutes 8 seconds 53 msec
