                         Program Version 3.0.3 - RELEASE   -
|  1> ! RI PBE def2-SVP def2-SVP/J NBO PAL2
|  2> % maxcore 2000
|  3> % output
|  4>     # printlevel mini
|  5>     print[ P_Basis ] 0
|  6>     print[ P_SCFInfo ] 1
|  7>     print[ P_SCFIterInfo ] 1
|  8>     print[ P_OrbEn ] 0
|  9>     print[ P_Cartesian ] 0
| 10> end
| 11> *xyz 0 1
| 12>  N        3.4742610000    -0.4207690000    -0.9950340000
| 13>  C        2.6295110000     0.1202140000     0.0690010000
| 14>  C        3.0370580000    -0.3791720000     1.4117330000
| 15>  C        3.3478360000     0.3443540000     2.5009960000
| 16>  C        3.6472420000    -0.5461730000     3.6166570000
| 17>  C        3.5226560000    -1.8189050000     3.2119180000
| 18>  C        3.1249350000    -1.8321010000     1.7719390000
| 19>  H        3.1913500000    -0.0348880000    -1.8879130000
| 20>  H        3.3475430000    -1.4233880000    -1.0655960000
| 21>  H        1.5585800000    -0.1016160000    -0.0823350000
| 22>  H        2.7257690000     1.2091240000     0.0574770000
| 23>  H        3.3758340000     1.4262190000     2.5502660000
| 24>  H        3.9314190000    -0.2171510000     4.6081260000
| 25>  H        3.6906080000    -2.7086110000     3.8030610000
| 26>  H        2.1709370000    -2.3522240000     1.6121490000
| 27>  H        3.8687710000    -2.3570220000     1.1575550000
| 28> *
| 29>
| 30>                          ****END OF INPUT****
 Total Charge           Charge          ....    0
 Multiplicity           Mult            ....    1
 Number of Electrons    NEL             ....   52
 Basis Dimension        Dim             ....  143

MULLIKEN ATOMIC CHARGES
-----------------------
   0 N :   -0.215555
   1 C :    0.163382
   2 C :   -0.180338
   3 C :   -0.013039
   4 C :    0.020853
   5 C :   -0.086978
   6 C :    0.117688
   7 H :    0.085531
   8 H :    0.085730
   9 H :    0.000272
  10 H :   -0.001367
  11 H :   -0.030643
  12 H :   -0.022693
  13 H :   -0.012517
  14 H :    0.039314
  15 H :    0.050359
Sum of atomic charges:   -0.0000000

LOEWDIN ATOMIC CHARGES
----------------------
   0 N :   -0.112961
   1 C :    0.008134
   2 C :   -0.037157
   3 C :   -0.045908
   4 C :   -0.037079
   5 C :   -0.042279
   6 C :   -0.035894
   7 H :    0.051516
   8 H :    0.045920
   9 H :    0.007593
  10 H :    0.027594
  11 H :    0.020238
  12 H :    0.021636
  13 H :    0.019755
  14 H :    0.052940
  15 H :    0.055952

  Mayer bond orders larger than 0.1
B(  0-N ,  1-C ) :   1.0727 B(  0-N ,  7-H ) :   0.9617 B(  0-N ,  8-H ) :   0.9671
B(  1-C ,  2-C ) :   1.0693 B(  1-C ,  9-H ) :   0.9033 B(  1-C , 10-H ) :   0.9125
B(  2-C ,  3-C ) :   1.7558 B(  2-C ,  5-C ) :   0.1055 B(  2-C ,  6-C ) :   1.0632
B(  3-C ,  4-C ) :   1.0749 B(  3-C , 11-H ) :   0.9957 B(  4-C ,  5-C ) :   1.7358
B(  4-C , 12-H ) :   0.9946 B(  5-C ,  6-C ) :   1.0479 B(  5-C , 13-H ) :   0.9894
B(  6-C , 14-H ) :   0.8857 B(  6-C , 15-H ) :   0.8769

FINAL SINGLE POINT ENERGY      -288.171162843862

DIPOLE MOMENT
-------------
                                X             Y             Z
Electronic contribution:      0.77971       0.39336       2.67421
Nuclear contribution   :     -1.25320      -0.66015      -3.06258
                        -----------------------------------------
Total Dipole Moment    :     -0.47349      -0.26680      -0.38836
                        -----------------------------------------
Magnitude (a.u.)       :      0.66798
Magnitude (Debye)      :      1.69787

                             ****ORCA TERMINATED NORMALLY****
TOTAL RUN TIME: 0 days 0 hours 0 minutes 7 seconds 177 msec
