                         Program Version 3.0.3 - RELEASE   -
|  1> ! RI PBE def2-SVP def2-SVP/J NBO PAL2
|  2> % maxcore 2000
|  3> % output
|  4>     # printlevel mini
|  5>     print[ P_Basis ] 0
|  6>     print[ P_SCFInfo ] 1
|  7>     print[ P_SCFIterInfo ] 1
|  8>     print[ P_OrbEn ] 0
|  9>     print[ P_Cartesian ] 0
| 10> end
| 11> *xyz 0 1
| 12>  N        4.1074640000     0.7321890000     0.5397930000
| 13>  C        2.7781730000     0.2359720000     0.8824500000
| 14>  C        2.2182720000    -0.7906090000    -0.0511710000
| 15>  C        1.9302910000    -2.0762640000     0.2202000000
| 16>  C        1.4188650000    -2.7504960000    -1.0087430000
| 17>  C        1.4548800000    -1.6647830000    -2.0330920000
| 18>  C        1.9177380000    -0.5419620000    -1.4651860000
| 19>  H        4.7420520000    -0.0489350000     0.4201560000
| 20>  H        4.0846890000     1.2206850000    -0.3472840000
| 21>  H        2.1062460000     1.0998100000     0.9309630000
| 22>  H        2.8166590000    -0.1797210000     1.8931060000
| 23>  H        2.0422620000    -2.5653640000     1.1793950000
| 24>  H        0.4029660000    -3.1443410000    -0.8708070000
| 25>  H        2.0357310000    -3.6113470000    -1.2994990000
| 26>  H        1.1421380000    -1.7896700000    -3.0609530000
| 27>  H        2.0469840000     0.4130260000    -1.9611300000
| 28> *
| 29>
| 30>                          ****END OF INPUT****
 Total Charge           Charge          ....    0
 Multiplicity           Mult            ....    1
 Number of Electrons    NEL             ....   52
 Basis Dimension        Dim             ....  143

MULLIKEN ATOMIC CHARGES
-----------------------
   0 N :   -0.214912
   1 C :    0.175856
   2 C :   -0.081626
   3 C :   -0.139506
   4 C :    0.101765
   5 C :   -0.078726
   6 C :    0.009519
   7 H :    0.088588
   8 H :    0.087765
   9 H :    0.015313
  10 H :   -0.001766
  11 H :   -0.020723
  12 H :    0.048009
  13 H :    0.048270
  14 H :   -0.010305
  15 H :   -0.027522
Sum of atomic charges:   -0.0000000

LOEWDIN ATOMIC CHARGES
----------------------
   0 N :   -0.097702
   1 C :    0.006770
   2 C :   -0.063650
   3 C :   -0.053599
   4 C :   -0.036845
   5 C :   -0.036004
   6 C :   -0.042254
   7 H :    0.051545
   8 H :    0.049262
   9 H :    0.029806
  10 H :    0.025649
  11 H :    0.018102
  12 H :    0.056100
  13 H :    0.054705
  14 H :    0.020461
  15 H :    0.017654

  Mayer bond orders larger than 0.1
B(  0-N ,  1-C ) :   1.1112 B(  0-N ,  7-H ) :   0.9748 B(  0-N ,  8-H ) :   0.9767
B(  1-C ,  2-C ) :   1.0420 B(  1-C ,  9-H ) :   0.9197 B(  1-C , 10-H ) :   0.9229
B(  2-C ,  3-C ) :   1.7287 B(  2-C ,  6-C ) :   1.0851 B(  3-C ,  4-C ) :   1.0381
B(  3-C , 11-H ) :   0.9917 B(  4-C ,  5-C ) :   1.0659 B(  4-C , 12-H ) :   0.8879
B(  4-C , 13-H ) :   0.8902 B(  5-C ,  6-C ) :   1.7336 B(  5-C , 14-H ) :   0.9846
B(  6-C , 15-H ) :   0.9980

FINAL SINGLE POINT ENERGY      -288.174481335890

DIPOLE MOMENT
-------------
                                X             Y             Z
Electronic contribution:     -0.70385      -0.28788      -0.76643
Nuclear contribution   :      0.59298      -0.11664       0.37276
                        -----------------------------------------
Total Dipole Moment    :     -0.11087      -0.40451      -0.39367
                        -----------------------------------------
Magnitude (a.u.)       :      0.57524
Magnitude (Debye)      :      1.46214

                             ****ORCA TERMINATED NORMALLY****
TOTAL RUN TIME: 0 days 0 hours 0 minutes 7 seconds 146 msec
