                         Program Version 3.0.3 - RELEASE   -
|  1> ! RI PBE def2-SVP def2-SVP/J NBO PAL2
|  2> % maxcore 2000
|  3> % output
|  4>     # printlevel mini
|  5>     print[ P_Basis ] 0
|  6>     print[ P_SCFInfo ] 1
|  7>     print[ P_SCFIterInfo ] 1
|  8>     print[ P_OrbEn ] 0
|  9>     print[ P_Cartesian ] 0
| 10> end
| 11> *xyz 0 1
| 12>  N        2.4194470000    -1.6281330000     0.0570820000
| 13>  C        2.4697060000    -0.1780690000     0.1481120000
| 14>  C        2.9532000000     0.4313820000    -1.1678190000
| 15>  C        3.0858780000     1.9222980000    -1.1419680000
| 16>  C        2.3755340000     2.4490060000    -2.1506640000
| 17>  C        1.7233410000     1.3718410000    -2.8917420000
| 18>  C        2.0421320000     0.1955780000    -2.3310220000
| 19>  H        1.9609840000    -2.0211440000     0.8688310000
| 20>  H        3.3551330000    -2.0154530000     0.0296790000
| 21>  H        3.1127910000     0.1933360000     0.9605220000
| 22>  H        1.4591920000     0.1895240000     0.3476500000
| 23>  H        3.9393020000    -0.0078550000    -1.3957160000
| 24>  H        3.6777660000     2.4630200000    -0.4152010000
| 25>  H        2.2901260000     3.5017290000    -2.3892650000
| 26>  H        1.0800520000     1.5174060000    -3.7503660000
| 27>  H        1.7073960000    -0.7880660000    -2.6270320000
| 28> *
| 29>
| 30>                          ****END OF INPUT****
 Total Charge           Charge          ....    0
 Multiplicity           Mult            ....    1
 Number of Electrons    NEL             ....   52
 Basis Dimension        Dim             ....  143

MULLIKEN ATOMIC CHARGES
-----------------------
   0 N :   -0.199117
   1 C :    0.100149
   2 C :   -0.059972
   3 C :   -0.022043
   4 C :    0.004815
   5 C :    0.008359
   6 C :    0.000143
   7 H :    0.090818
   8 H :    0.086454
   9 H :   -0.001040
  10 H :    0.012641
  11 H :    0.038930
  12 H :   -0.014100
  13 H :   -0.017919
  14 H :   -0.017494
  15 H :   -0.010622
Sum of atomic charges:   -0.0000000

LOEWDIN ATOMIC CHARGES
----------------------
   0 N :   -0.108900
   1 C :    0.024921
   2 C :   -0.046172
   3 C :   -0.038047
   4 C :   -0.036686
   5 C :   -0.042272
   6 C :   -0.021049
   7 H :    0.054699
   8 H :    0.050331
   9 H :    0.001488
  10 H :    0.026222
  11 H :    0.053668
  12 H :    0.018677
  13 H :    0.020889
  14 H :    0.020793
  15 H :    0.021438

  Mayer bond orders larger than 0.1
B(  0-N ,  1-C ) :   1.1021 B(  0-N ,  7-H ) :   0.9644 B(  0-N ,  8-H ) :   0.9678
B(  1-C ,  2-C ) :   1.0263 B(  1-C ,  9-H ) :   0.9330 B(  1-C , 10-H ) :   0.9316
B(  2-C ,  3-C ) :   1.0173 B(  2-C ,  6-C ) :   1.0313 B(  2-C , 11-H ) :   0.8585
B(  3-C ,  4-C ) :   1.7258 B(  3-C , 12-H ) :   0.9897 B(  4-C ,  5-C ) :   1.0853
B(  4-C , 13-H ) :   0.9968 B(  5-C ,  6-C ) :   1.7123 B(  5-C , 14-H ) :   1.0003
B(  6-C , 15-H ) :   0.9970

FINAL SINGLE POINT ENERGY      -288.168625586933

DIPOLE MOMENT
-------------
                                X             Y             Z
Electronic contribution:     -0.24803       1.79228      -2.41129
Nuclear contribution   :      0.54351      -2.01469       2.99542
                        -----------------------------------------
Total Dipole Moment    :      0.29548      -0.22241       0.58412
                        -----------------------------------------
Magnitude (a.u.)       :      0.69136
Magnitude (Debye)      :      1.75729

                             ****ORCA TERMINATED NORMALLY****
TOTAL RUN TIME: 0 days 0 hours 0 minutes 7 seconds 244 msec
