                         Program Version 3.0.3 - RELEASE   -
|  1> ! RI PBE def2-SVP def2-SVP/J NBO PAL2
|  2> % maxcore 2000
|  3> % output
|  4>     # printlevel mini
|  5>     print[ P_Basis ] 0
|  6>     print[ P_SCFInfo ] 1
|  7>     print[ P_SCFIterInfo ] 1
|  8>     print[ P_OrbEn ] 0
|  9>     print[ P_Cartesian ] 0
| 10> end
| 11> *xyz 0 1
| 12>  N        3.1306970000     1.3104610000     0.6454140000
| 13>  C        2.5134360000     0.1046730000     0.1143040000
| 14>  C        2.6187390000     0.0569540000    -1.3966560000
| 15>  C        2.0805010000    -1.2470010000    -2.0136850000
| 16>  C        1.4930610000    -0.8004520000    -3.3190790000
| 17>  C        1.3736190000     0.5205720000    -3.3812310000
| 18>  C        1.8610930000     1.1846240000    -2.1272310000
| 19>  H        3.1051330000     1.3098490000     1.6572040000
| 20>  H        2.6198910000     2.1309500000     0.3417120000
| 21>  H        1.4516060000    -0.0110830000     0.3933750000
| 22>  H        3.0427870000    -0.7559990000     0.5367480000
| 23>  H        3.6780570000     0.1489100000    -1.6577370000
| 24>  H        1.3039560000    -1.7003930000    -1.3808460000
| 25>  H        2.8623330000    -2.0033710000    -2.1301010000
| 26>  H        1.1725660000    -1.4902050000    -4.0916530000
| 27>  H        0.9408960000     1.0677000000    -4.2111760000
| 28>  H        1.0066030000     1.5467250000    -1.5355000000
| 29>  H        2.4944240000     2.0548960000    -2.3224520000
| 30> *
| 31>
| 32>                          ****END OF INPUT****
 Total Charge           Charge          ....    0
 Multiplicity           Mult            ....    1
 Number of Electrons    NEL             ....   54
 Basis Dimension        Dim             ....  153

MULLIKEN ATOMIC CHARGES
-----------------------
   0 N :   -0.208307
   1 C :    0.109333
   2 C :   -0.181536
   3 C :    0.114815
   4 C :   -0.072452
   5 C :   -0.074903
   6 C :    0.097031
   7 H :    0.089620
   8 H :    0.084289
   9 H :   -0.016708
  10 H :    0.000608
  11 H :    0.015717
  12 H :    0.013441
  13 H :    0.021503
  14 H :   -0.012164
  15 H :   -0.012331
  16 H :    0.011637
  17 H :    0.020406
Sum of atomic charges:   -0.0000000

LOEWDIN ATOMIC CHARGES
----------------------
   0 N :   -0.112202
   1 C :    0.008497
   2 C :   -0.037015
   3 C :   -0.037044
   4 C :   -0.036971
   5 C :   -0.039158
   6 C :   -0.040806
   7 H :    0.052991
   8 H :    0.048118
   9 H :   -0.005413
  10 H :    0.020134
  11 H :    0.029875
  12 H :    0.027869
  13 H :    0.028346
  14 H :    0.020268
  15 H :    0.019858
  16 H :    0.025588
  17 H :    0.027065

  Mayer bond orders larger than 0.1
B(  0-N ,  1-C ) :   1.0973 B(  0-N ,  7-H ) :   0.9638 B(  0-N ,  8-H ) :   0.9672
B(  1-C ,  2-C ) :   1.0643 B(  1-C ,  9-H ) :   0.9162 B(  1-C , 10-H ) :   0.9272
B(  2-C ,  3-C ) :   1.0579 B(  2-C ,  6-C ) :   1.0663 B(  2-C , 11-H ) :   0.9033
B(  3-C ,  4-C ) :   1.0297 B(  3-C , 12-H ) :   0.9041 B(  3-C , 13-H ) :   0.9251
B(  4-C ,  5-C ) :   1.8714 B(  4-C , 14-H ) :   0.9822 B(  5-C ,  6-C ) :   1.0324
B(  5-C , 15-H ) :   0.9826 B(  6-C , 16-H ) :   0.9068 B(  6-C , 17-H ) :   0.9238

FINAL SINGLE POINT ENERGY      -289.381427670516

DIPOLE MOMENT
-------------
                                X             Y             Z
Electronic contribution:     -0.15784      -0.12917      -2.25522
Nuclear contribution   :     -0.20614       0.19684       2.55015
                        -----------------------------------------
Total Dipole Moment    :     -0.36397       0.06768       0.29492
                        -----------------------------------------
Magnitude (a.u.)       :      0.47332
Magnitude (Debye)      :      1.20309

                             ****ORCA TERMINATED NORMALLY****
TOTAL RUN TIME: 0 days 0 hours 0 minutes 8 seconds 35 msec
