                         Program Version 3.0.3 - RELEASE   -
|  1> ! RI PBE def2-SVP def2-SVP/J NBO PAL2
|  2> % maxcore 2000
|  3> % output
|  4>     # printlevel mini
|  5>     print[ P_Basis ] 0
|  6>     print[ P_SCFInfo ] 1
|  7>     print[ P_SCFIterInfo ] 1
|  8>     print[ P_OrbEn ] 0
|  9>     print[ P_Cartesian ] 0
| 10> end
| 11> *xyz 0 1
| 12>  N        3.4634490000    -0.7828850000    -0.7136310000
| 13>  C        2.4649640000    -0.1338730000     0.1210700000
| 14>  C        3.0720150000     1.0390700000     0.8891940000
| 15>  C        2.0467740000     1.7735050000     1.7787190000
| 16>  C        1.7252880000     3.1007580000     1.0663370000
| 17>  C        2.8320460000     3.2292120000     0.0630450000
| 18>  C        3.5640220000     2.1252010000    -0.0262440000
| 19>  H        3.0394570000    -1.4923210000    -1.2973090000
| 20>  H        4.1538330000    -1.2497960000    -0.1373300000
| 21>  H        1.9847380000    -0.8118840000     0.8454940000
| 22>  H        1.6723350000     0.2472870000    -0.5318650000
| 23>  H        3.8934110000     0.6370290000     1.4976280000
| 24>  H        2.4893020000     1.9801310000     2.7553550000
| 25>  H        1.1545560000     1.1680310000     1.9571000000
| 26>  H        1.6879880000     3.9443080000     1.7624090000
| 27>  H        0.7498680000     3.0791460000     0.5647000000
| 28>  H        2.9777810000     4.1187250000    -0.5400320000
| 29>  H        4.3864950000     1.9704360000    -0.7129700000
| 30> *
| 31>
| 32>                          ****END OF INPUT****
 Total Charge           Charge          ....    0
 Multiplicity           Mult            ....    1
 Number of Electrons    NEL             ....   54
 Basis Dimension        Dim             ....  153

MULLIKEN ATOMIC CHARGES
-----------------------
   0 N :   -0.204765
   1 C :    0.123976
   2 C :   -0.123559
   3 C :    0.035308
   4 C :    0.053386
   5 C :   -0.079954
   6 C :    0.008143
   7 H :    0.087848
   8 H :    0.084390
   9 H :   -0.009054
  10 H :   -0.002020
  11 H :   -0.001046
  12 H :    0.013079
  13 H :   -0.000154
  14 H :    0.017385
  15 H :    0.017747
  16 H :   -0.010592
  17 H :   -0.010119
Sum of atomic charges:   -0.0000000

LOEWDIN ATOMIC CHARGES
----------------------
   0 N :   -0.109013
   1 C :    0.010932
   2 C :   -0.048797
   3 C :   -0.027918
   4 C :   -0.041945
   5 C :   -0.041070
   6 C :   -0.026891
   7 H :    0.052768
   8 H :    0.049037
   9 H :   -0.003181
  10 H :    0.019344
  11 H :    0.020782
  12 H :    0.028533
  13 H :    0.021014
  14 H :    0.027186
  15 H :    0.028220
  16 H :    0.019486
  17 H :    0.021512

  Mayer bond orders larger than 0.1
B(  0-N ,  1-C ) :   1.0990 B(  0-N ,  7-H ) :   0.9657 B(  0-N ,  8-H ) :   0.9687
B(  1-C ,  2-C ) :   1.0359 B(  1-C ,  9-H ) :   0.9272 B(  1-C , 10-H ) :   0.9244
B(  2-C ,  3-C ) :   1.0714 B(  2-C ,  6-C ) :   1.0124 B(  2-C , 11-H ) :   0.9060
B(  3-C ,  4-C ) :   1.1008 B(  3-C , 12-H ) :   0.9282 B(  3-C , 13-H ) :   0.9315
B(  4-C ,  5-C ) :   1.0365 B(  4-C , 14-H ) :   0.9314 B(  4-C , 15-H ) :   0.9151
B(  5-C ,  6-C ) :   1.8599 B(  5-C , 16-H ) :   0.9850 B(  6-C , 17-H ) :   0.9911

FINAL SINGLE POINT ENERGY      -289.380802265934

DIPOLE MOMENT
-------------
                                X             Y             Z
Electronic contribution:      1.57795       1.27606      -1.00699
Nuclear contribution   :     -1.75562      -1.75559       1.21227
                        -----------------------------------------
Total Dipole Moment    :     -0.17767      -0.47952       0.20528
                        -----------------------------------------
Magnitude (a.u.)       :      0.55105
Magnitude (Debye)      :      1.40065

                             ****ORCA TERMINATED NORMALLY****
TOTAL RUN TIME: 0 days 0 hours 0 minutes 8 seconds 78 msec
