                         Program Version 3.0.3 - RELEASE   -
|  1> ! RI PBE def2-SVP def2-SVP/J NBO PAL2
|  2> % maxcore 2000
|  3> % output
|  4>     # printlevel mini
|  5>     print[ P_Basis ] 0
|  6>     print[ P_SCFInfo ] 1
|  7>     print[ P_SCFIterInfo ] 1
|  8>     print[ P_OrbEn ] 0
|  9>     print[ P_Cartesian ] 0
| 10> end
| 11> *xyz 0 1
| 12>  N        2.5366640000    -1.4460410000     0.4249580000
| 13>  C        2.4944490000    -0.0787780000    -0.0593310000
| 14>  C        2.8510660000     0.8832740000     1.0496140000
| 15>  C        2.9924940000     2.3498280000     0.6199260000
| 16>  C        2.6298600000     3.1514650000     1.8835840000
| 17>  C        2.1432920000     2.0798360000     2.8842050000
| 18>  N        1.8443210000     0.8792660000     2.1113930000
| 19>  H        2.1603310000    -2.0905310000    -0.2575930000
| 20>  H        1.9797840000    -1.5217880000     1.2678600000
| 21>  H        1.5136380000     0.2267410000    -0.4691900000
| 22>  H        3.2192210000     0.0323390000    -0.8726650000
| 23>  H        3.7918560000     0.5440470000     1.5019270000
| 24>  H        2.2876670000     2.5628030000    -0.1907380000
| 25>  H        3.9928300000     2.5772900000     0.2457430000
| 26>  H        1.8436530000     3.8801280000     1.6744650000
| 27>  H        3.4827010000     3.7084520000     2.2771570000
| 28>  H        1.2728880000     2.3906520000     3.4645160000
| 29>  H        2.9390170000     1.8397960000     3.5963730000
| 30>  H        0.9338770000     0.9978210000     1.6729740000
| 31> *
| 32>
| 33>                          ****END OF INPUT****
 Total Charge           Charge          ....    0
 Multiplicity           Mult            ....    1
 Number of Electrons    NEL             ....   56
 Basis Dimension        Dim             ....  158

MULLIKEN ATOMIC CHARGES
-----------------------
   0 N :   -0.202706
   1 C :    0.123596
   2 C :   -0.091429
   3 C :    0.067840
   4 C :   -0.042604
   5 C :    0.107183
   6 N :   -0.242851
   7 H :    0.085264
   8 H :    0.087558
   9 H :   -0.026402
  10 H :    0.008494
  11 H :    0.006909
  12 H :   -0.005126
  13 H :    0.001839
  14 H :    0.007804
  15 H :    0.007718
  16 H :    0.008256
  17 H :    0.006520
  18 H :    0.092134
Sum of atomic charges:    0.0000000

LOEWDIN ATOMIC CHARGES
----------------------
   0 N :   -0.110784
   1 C :    0.005254
   2 C :   -0.006054
   3 C :   -0.049303
   4 C :   -0.061554
   5 C :    0.008878
   6 N :   -0.098711
   7 H :    0.050817
   8 H :    0.046605
   9 H :   -0.006569
  10 H :    0.023002
  11 H :    0.021301
  12 H :    0.019206
  13 H :    0.023874
  14 H :    0.022744
  15 H :    0.024241
  16 H :    0.019594
  17 H :    0.019948
  18 H :    0.047512

  Mayer bond orders larger than 0.1
B(  0-N ,  1-C ) :   1.1080 B(  0-N ,  7-H ) :   0.9633 B(  0-N ,  8-H ) :   0.9591
B(  1-C ,  2-C ) :   1.0732 B(  1-C ,  9-H ) :   0.8971 B(  1-C , 10-H ) :   0.9280
B(  2-C ,  3-C ) :   1.0601 B(  2-C ,  6-N ) :   1.0352 B(  2-C , 11-H ) :   0.8910
B(  3-C ,  4-C ) :   1.1430 B(  3-C , 12-H ) :   0.9131 B(  3-C , 13-H ) :   0.9193
B(  4-C ,  5-C ) :   1.0911 B(  4-C , 14-H ) :   0.9255 B(  4-C , 15-H ) :   0.9228
B(  5-C ,  6-N ) :   1.0815 B(  5-C , 16-H ) :   0.9474 B(  5-C , 17-H ) :   0.9248
B(  6-N , 18-H ) :   0.9380

FINAL SINGLE POINT ENERGY      -306.612426835111

DIPOLE MOMENT
-------------
                                X             Y             Z
Electronic contribution:     -0.18040      -1.69300       0.83078
Nuclear contribution   :     -0.33425       2.05192      -1.12836
                        -----------------------------------------
Total Dipole Moment    :     -0.51465       0.35892      -0.29758
                        -----------------------------------------
Magnitude (a.u.)       :      0.69444
Magnitude (Debye)      :      1.76512

                             ****ORCA TERMINATED NORMALLY****
TOTAL RUN TIME: 0 days 0 hours 0 minutes 7 seconds 985 msec
