                         Program Version 3.0.3 - RELEASE   -
|  1> ! RI PBE def2-SVP def2-SVP/J NBO PAL2
|  2> % maxcore 2000
|  3> % output
|  4>     # printlevel mini
|  5>     print[ P_Basis ] 0
|  6>     print[ P_SCFInfo ] 1
|  7>     print[ P_SCFIterInfo ] 1
|  8>     print[ P_OrbEn ] 0
|  9>     print[ P_Cartesian ] 0
| 10> end
| 11> *xyz 0 1
| 12>  N        1.3193230000    -0.3325230000     1.4710750000
| 13>  C        2.2578650000    -0.1316560000     0.8360470000
| 14>  C        3.4762030000     0.0698310000     0.0277180000
| 15>  C        4.3011470000     1.2593300000     0.5491720000
| 16>  C        5.3376790000     0.6234010000     1.4973740000
| 17>  C        5.0647010000    -0.8809700000     1.4260570000
| 18>  N        4.4098040000    -1.0349400000     0.1328540000
| 19>  H        3.1581940000     0.2127870000    -1.0084190000
| 20>  H        3.6709670000     2.0015770000     1.0380610000
| 21>  H        4.7902440000     1.7406040000    -0.2976280000
| 22>  H        5.2454100000     0.9957480000     2.5177580000
| 23>  H        6.3484190000     0.8480090000     1.1551200000
| 24>  H        4.4201080000    -1.1891510000     2.2625040000
| 25>  H        5.9749120000    -1.4822060000     1.4617560000
| 26>  H        3.9640140000    -1.9360420000     0.0169520000
| 27> *
| 28>
| 29>                          ****END OF INPUT****
 Total Charge           Charge          ....    0
 Multiplicity           Mult            ....    1
 Number of Electrons    NEL             ....   52
 Basis Dimension        Dim             ....  138

MULLIKEN ATOMIC CHARGES
-----------------------
   0 N :    0.049223
   1 C :   -0.199497
   2 C :   -0.081187
   3 C :    0.073882
   4 C :   -0.026153
   5 C :    0.127636
   6 N :   -0.227499
   7 H :    0.042910
   8 H :    0.031447
   9 H :    0.024779
  10 H :    0.023408
  11 H :    0.019349
  12 H :    0.012463
  13 H :    0.018681
  14 H :    0.110559
Sum of atomic charges:    0.0000000

LOEWDIN ATOMIC CHARGES
----------------------
   0 N :   -0.071678
   1 C :   -0.067512
   2 C :   -0.014216
   3 C :   -0.021084
   4 C :   -0.039323
   5 C :    0.015955
   6 N :   -0.074652
   7 H :    0.046699
   8 H :    0.035283
   9 H :    0.035033
  10 H :    0.031288
  11 H :    0.031259
  12 H :    0.007925
  13 H :    0.023897
  14 H :    0.061126

  Mayer bond orders larger than 0.1
B(  0-N ,  1-C ) :   3.0760 B(  1-C ,  2-C ) :   0.9757 B(  2-C ,  3-C ) :   1.1254
B(  2-C ,  6-N ) :   1.1195 B(  2-C ,  7-H ) :   0.8799 B(  3-C ,  4-C ) :   1.1247
B(  3-C ,  8-H ) :   0.9291 B(  3-C ,  9-H ) :   0.9162 B(  4-C ,  5-C ) :   1.1335
B(  4-C , 10-H ) :   0.9324 B(  4-C , 11-H ) :   0.9235 B(  5-C ,  6-N ) :   1.0246
B(  5-C , 12-H ) :   0.9182 B(  5-C , 13-H ) :   0.9382 B(  6-N , 14-H ) :   0.9447

FINAL SINGLE POINT ENERGY      -304.208621194668

DIPOLE MOMENT
-------------
                                X             Y             Z
Electronic contribution:     -5.76055      -1.50316      -0.74320
Nuclear contribution   :      6.85215       1.63116       0.32101
                        -----------------------------------------
Total Dipole Moment    :      1.09161       0.12799      -0.42220
                        -----------------------------------------
Magnitude (a.u.)       :      1.17739
Magnitude (Debye)      :      2.99268

                             ****ORCA TERMINATED NORMALLY****
TOTAL RUN TIME: 0 days 0 hours 0 minutes 6 seconds 949 msec
