                         Program Version 3.0.3 - RELEASE   -
|  1> ! RI PBE def2-SVP def2-SVP/J NBO PAL2
|  2> % maxcore 2000
|  3> % output
|  4>     # printlevel mini
|  5>     print[ P_Basis ] 0
|  6>     print[ P_SCFInfo ] 1
|  7>     print[ P_SCFIterInfo ] 1
|  8>     print[ P_OrbEn ] 0
|  9>     print[ P_Cartesian ] 0
| 10> end
| 11> *xyz 0 1
| 12>  N        0.9088240000    -0.0328680000     0.0463270000
| 13>  C        2.0602550000     0.0406960000     0.0509850000
| 14>  C        3.4671650000     0.1168330000     0.0564230000
| 15>  C        4.3060100000     1.2132970000     0.0595540000
| 16>  C        5.6254350000     0.7259140000     0.0647100000
| 17>  C        5.5570300000    -0.6486610000     0.0646060000
| 18>  N        4.2516080000    -1.0073780000     0.0595960000
| 19>  H        3.9833390000     2.2420110000     0.0581910000
| 20>  H        6.5302320000     1.3121870000     0.0681450000
| 21>  H        6.3390100000    -1.3908180000     0.0677210000
| 22>  H        3.8985910000    -1.9480130000     0.0583430000
| 23> *
| 24>
| 25>                          ****END OF INPUT****
 Total Charge           Charge          ....    0
 Multiplicity           Mult            ....    1
 Number of Electrons    NEL             ....   48
 Basis Dimension        Dim             ....  118

MULLIKEN ATOMIC CHARGES
-----------------------
   0 N :    0.102257
   1 C :   -0.121619
   2 C :   -0.138148
   3 C :    0.016306
   4 C :   -0.006361
   5 C :    0.059179
   6 N :   -0.016581
   7 H :   -0.016572
   8 H :   -0.008845
   9 H :    0.009371
  10 H :    0.121014
Sum of atomic charges:    0.0000000

LOEWDIN ATOMIC CHARGES
----------------------
   0 N :   -0.058500
   1 C :   -0.058983
   2 C :   -0.076375
   3 C :   -0.037193
   4 C :   -0.072603
   5 C :   -0.009324
   6 N :    0.124420
   7 H :    0.035774
   8 H :    0.031683
   9 H :    0.026764
  10 H :    0.094338

  Mayer bond orders larger than 0.1
B(  0-N ,  1-C ) :   2.9956 B(  1-C ,  2-C ) :   1.1120 B(  2-C ,  3-C ) :   1.4540
B(  2-C ,  5-C ) :   0.1262 B(  2-C ,  6-N ) :   1.2475 B(  3-C ,  4-C ) :   1.3131
B(  3-C ,  7-H ) :   1.0191 B(  4-C ,  5-C ) :   1.4284 B(  4-C ,  8-H ) :   0.9961
B(  5-C ,  6-N ) :   1.2405 B(  5-C ,  9-H ) :   0.9845 B(  6-N , 10-H ) :   0.9408

FINAL SINGLE POINT ENERGY      -301.833323269002

DIPOLE MOMENT
-------------
                                X             Y             Z
Electronic contribution:     -3.85308      -0.70642      -0.01478
Nuclear contribution   :      5.37282       0.07212       0.02093
                        -----------------------------------------
Total Dipole Moment    :      1.51974      -0.63430       0.00615
                        -----------------------------------------
Magnitude (a.u.)       :      1.64681
Magnitude (Debye)      :      4.18587

                             ****ORCA TERMINATED NORMALLY****
TOTAL RUN TIME: 0 days 0 hours 0 minutes 5 seconds 319 msec
