                         Program Version 3.0.3 - RELEASE   -
|  1> ! RI PBE def2-SVP def2-SVP/J NBO PAL2
|  2> % maxcore 2000
|  3> % output
|  4>     # printlevel mini
|  5>     print[ P_Basis ] 0
|  6>     print[ P_SCFInfo ] 1
|  7>     print[ P_SCFIterInfo ] 1
|  8>     print[ P_OrbEn ] 0
|  9>     print[ P_Cartesian ] 0
| 10> end
| 11> *xyz 0 1
| 12>  N        3.4479900000     0.4957820000    -0.8129540000
| 13>  C        2.5601260000    -0.2937980000     0.0200870000
| 14>  C        3.0475490000    -0.3198980000     1.4286470000
| 15>  C        3.8045660000     0.5790060000     2.1394420000
| 16>  C        3.9469830000     0.0726110000     3.4560670000
| 17>  C        3.2716990000    -1.1178430000     3.5118910000
| 18>  N        2.7354430000    -1.3447860000     2.2761880000
| 19>  H        3.1076340000     0.5362080000    -1.7644910000
| 20>  H        4.3740470000     0.0868490000    -0.8281920000
| 21>  H        2.4264890000    -1.3352030000    -0.3230140000
| 22>  H        1.5666720000     0.1702830000    -0.0258670000
| 23>  H        4.2016230000     1.4997730000     1.7429190000
| 24>  H        4.4865870000     0.5296930000     4.2708500000
| 25>  H        3.1376220000    -1.8208430000     4.3181440000
| 26>  H        2.1948710000    -2.1517140000     2.0222840000
| 27> *
| 28>
| 29>                          ****END OF INPUT****
 Total Charge           Charge          ....    0
 Multiplicity           Mult            ....    1
 Number of Electrons    NEL             ....   52
 Basis Dimension        Dim             ....  138

MULLIKEN ATOMIC CHARGES
-----------------------
   0 N :   -0.210239
   1 C :    0.207565
   2 C :   -0.108746
   3 C :   -0.046258
   4 C :   -0.018330
   5 C :    0.030692
   6 N :   -0.050051
   7 H :    0.086678
   8 H :    0.091976
   9 H :   -0.024665
  10 H :    0.013550
  11 H :   -0.035466
  12 H :   -0.026485
  13 H :   -0.012328
  14 H :    0.102107
Sum of atomic charges:   -0.0000000

LOEWDIN ATOMIC CHARGES
----------------------
   0 N :   -0.101222
   1 C :    0.005681
   2 C :   -0.053562
   3 C :   -0.085373
   4 C :   -0.086289
   5 C :   -0.046086
   6 N :    0.097395
   7 H :    0.052919
   8 H :    0.053054
   9 H :   -0.001215
  10 H :    0.028568
  11 H :    0.022680
  12 H :    0.021346
  13 H :    0.015132
  14 H :    0.076973

  Mayer bond orders larger than 0.1
B(  0-N ,  1-C ) :   1.1081 B(  0-N ,  7-H ) :   0.9607 B(  0-N ,  8-H ) :   0.9656
B(  1-C ,  2-C ) :   1.0500 B(  1-C ,  9-H ) :   0.9033 B(  1-C , 10-H ) :   0.8952
B(  2-C ,  3-C ) :   1.4992 B(  2-C ,  5-C ) :   0.1094 B(  2-C ,  6-N ) :   1.2321
B(  3-C ,  4-C ) :   1.2809 B(  3-C , 11-H ) :   1.0103 B(  4-C ,  5-C ) :   1.4744
B(  4-C , 12-H ) :   1.0012 B(  5-C ,  6-N ) :   1.2058 B(  5-C , 13-H ) :   0.9861
B(  6-N , 14-H ) :   0.9381

FINAL SINGLE POINT ENERGY      -304.228561963832

DIPOLE MOMENT
-------------
                                X             Y             Z
Electronic contribution:      0.03892      -0.74340       2.82909
Nuclear contribution   :     -0.44629      -0.19618      -3.41898
                        -----------------------------------------
Total Dipole Moment    :     -0.40737      -0.93957      -0.58989
                        -----------------------------------------
Magnitude (a.u.)       :      1.18183
Magnitude (Debye)      :      3.00397

                             ****ORCA TERMINATED NORMALLY****
TOTAL RUN TIME: 0 days 0 hours 0 minutes 6 seconds 612 msec
