                         Program Version 3.0.3 - RELEASE   -
|  1> ! RI PBE def2-SVP def2-SVP/J NBO PAL2
|  2> % maxcore 2000
|  3> % output
|  4>     # printlevel mini
|  5>     print[ P_Basis ] 0
|  6>     print[ P_SCFInfo ] 1
|  7>     print[ P_SCFIterInfo ] 1
|  8>     print[ P_OrbEn ] 0
|  9>     print[ P_Cartesian ] 0
| 10> end
| 11> *xyz 0 1
| 12>  N        1.0564630000    -0.2118660000     0.9374850000
| 13>  C        2.1215810000    -0.1475470000     0.5061310000
| 14>  C        3.4798720000    -0.0855810000    -0.0081100000
| 15>  C        4.2736360000     1.1028930000     0.5956010000
| 16>  C        5.4446760000     0.4313990000     1.3418090000
| 17>  N        5.0521900000    -0.9441700000     1.6038670000
| 18>  C        4.3050770000    -1.3329150000     0.4286160000
| 19>  H        3.4161860000    -0.0189950000    -1.0968900000
| 20>  H        3.6432660000     1.6690150000     1.2821630000
| 21>  H        4.6112090000     1.7896400000    -0.1815800000
| 22>  H        5.7087510000     0.9440040000     2.2673160000
| 23>  H        6.3361620000     0.4214170000     0.7061130000
| 24>  H        4.4507260000    -0.9824450000     2.4191130000
| 25>  H        3.6861470000    -2.2101370000     0.6140730000
| 26>  H        5.0074770000    -1.5751030000    -0.3751160000
| 27> *
| 28>
| 29>                          ****END OF INPUT****
 Total Charge           Charge          ....    0
 Multiplicity           Mult            ....    1
 Number of Electrons    NEL             ....   52
 Basis Dimension        Dim             ....  138

MULLIKEN ATOMIC CHARGES
-----------------------
   0 N :    0.064083
   1 C :   -0.202653
   2 C :   -0.222578
   3 C :    0.051668
   4 C :    0.075406
   5 N :   -0.232509
   6 C :    0.164429
   7 H :    0.048578
   8 H :    0.034072
   9 H :    0.022687
  10 H :    0.023661
  11 H :    0.015220
  12 H :    0.106271
  13 H :    0.034688
  14 H :    0.016977
Sum of atomic charges:   -0.0000000

LOEWDIN ATOMIC CHARGES
----------------------
   0 N :   -0.076885
   1 C :   -0.048527
   2 C :   -0.080255
   3 C :   -0.038187
   4 C :    0.012669
   5 N :   -0.086372
   6 C :    0.030680
   7 H :    0.054015
   8 H :    0.035493
   9 H :    0.032132
  10 H :    0.026911
  11 H :    0.022310
  12 H :    0.058947
  13 H :    0.031832
  14 H :    0.025236

  Mayer bond orders larger than 0.1
B(  0-N ,  1-C ) :   3.0658 B(  1-C ,  2-C ) :   1.0832 B(  2-C ,  3-C ) :   1.0910
B(  2-C ,  6-C ) :   1.0468 B(  2-C ,  7-H ) :   0.8565 B(  3-C ,  4-C ) :   1.0856
B(  3-C ,  8-H ) :   0.9268 B(  3-C ,  9-H ) :   0.9176 B(  4-C ,  5-N ) :   1.0872
B(  4-C , 10-H ) :   0.9472 B(  4-C , 11-H ) :   0.9248 B(  5-N ,  6-C ) :   1.0925
B(  5-N , 12-H ) :   0.9501 B(  6-C , 13-H ) :   0.9448 B(  6-C , 14-H ) :   0.9181

FINAL SINGLE POINT ENERGY      -304.208508131925

DIPOLE MOMENT
-------------
                                X             Y             Z
Electronic contribution:     -5.44105      -1.03128       0.26806
Nuclear contribution   :      6.58970       1.32165      -0.61622
                        -----------------------------------------
Total Dipole Moment    :      1.14865       0.29037      -0.34817
                        -----------------------------------------
Magnitude (a.u.)       :      1.23488
Magnitude (Debye)      :      3.13881

                             ****ORCA TERMINATED NORMALLY****
TOTAL RUN TIME: 0 days 0 hours 0 minutes 6 seconds 697 msec
