                         Program Version 3.0.3 - RELEASE   -
|  1> ! RI PBE def2-SVP def2-SVP/J NBO PAL2
|  2> % maxcore 2000
|  3> % output
|  4>     # printlevel mini
|  5>     print[ P_Basis ] 0
|  6>     print[ P_SCFInfo ] 1
|  7>     print[ P_SCFIterInfo ] 1
|  8>     print[ P_OrbEn ] 0
|  9>     print[ P_Cartesian ] 0
| 10> end
| 11> *xyz 0 1
| 12>  N        0.9051160000     0.0347570000     0.0985510000
| 13>  C        2.0559700000    -0.0221190000     0.0573870000
| 14>  C        3.4708150000    -0.0386220000     0.0028890000
| 15>  C        4.2490330000    -1.1188390000    -0.0580790000
| 16>  C        5.6899970000    -0.7070160000    -0.0267240000
| 17>  N        5.6763960000     0.7463380000    -0.1995180000
| 18>  C        4.3226380000     1.2115990000     0.0901390000
| 19>  H        3.9025340000    -2.1441920000    -0.0702790000
| 20>  H        6.2938200000    -1.1930420000    -0.7982220000
| 21>  H        6.1341410000    -0.9890760000     0.9390600000
| 22>  H        5.8962660000     0.9614150000    -1.1616590000
| 23>  H        4.0094200000     1.9924470000    -0.6064760000
| 24>  H        4.2511660000     1.6340600000     1.1007400000
| 25> *
| 26>
| 27>                          ****END OF INPUT****
 Total Charge           Charge          ....    0
 Multiplicity           Mult            ....    1
 Number of Electrons    NEL             ....   50
 Basis Dimension        Dim             ....  128

MULLIKEN ATOMIC CHARGES
-----------------------
   0 N :    0.078954
   1 C :   -0.116653
   2 C :   -0.282458
   3 C :   -0.050165
   4 C :    0.153022
   5 N :   -0.266217
   6 C :    0.226035
   7 H :    0.003130
   8 H :    0.034592
   9 H :    0.040150
  10 H :    0.107353
  11 H :    0.035411
  12 H :    0.036847
Sum of atomic charges:    0.0000000

LOEWDIN ATOMIC CHARGES
----------------------
   0 N :   -0.054539
   1 C :   -0.043144
   2 C :   -0.093034
   3 C :    0.005786
   4 C :    0.019339
   5 N :   -0.094781
   6 C :    0.038680
   7 H :    0.035608
   8 H :    0.031518
   9 H :    0.032120
  10 H :    0.059881
  11 H :    0.031950
  12 H :    0.030615

  Mayer bond orders larger than 0.1
B(  0-N ,  1-C ) :   2.9736 B(  0-N ,  3-C ) :   0.1123 B(  1-C ,  2-C ) :   1.1849
B(  2-C ,  3-C ) :   1.8092 B(  2-C ,  6-C ) :   0.9805 B(  3-C ,  4-C ) :   0.9850
B(  3-C ,  7-H ) :   0.9891 B(  4-C ,  5-N ) :   1.0747 B(  4-C ,  8-H ) :   0.9336
B(  4-C ,  9-H ) :   0.9044 B(  5-N ,  6-C ) :   1.0499 B(  5-N , 10-H ) :   0.9541
B(  6-C , 11-H ) :   0.9384 B(  6-C , 12-H ) :   0.9104

FINAL SINGLE POINT ENERGY      -302.994320706528

DIPOLE MOMENT
-------------
                                X             Y             Z
Electronic contribution:     -5.61309      -0.32220       0.08613
Nuclear contribution   :      7.02952       0.06414      -0.48692
                        -----------------------------------------
Total Dipole Moment    :      1.41643      -0.25806      -0.40078
                        -----------------------------------------
Magnitude (a.u.)       :      1.49449
Magnitude (Debye)      :      3.79868

                             ****ORCA TERMINATED NORMALLY****
TOTAL RUN TIME: 0 days 0 hours 0 minutes 6 seconds 342 msec
