                         Program Version 3.0.3 - RELEASE   -
|  1> ! RI PBE def2-SVP def2-SVP/J NBO PAL2
|  2> % maxcore 2000
|  3> % output
|  4>     # printlevel mini
|  5>     print[ P_Basis ] 0
|  6>     print[ P_SCFInfo ] 1
|  7>     print[ P_SCFIterInfo ] 1
|  8>     print[ P_OrbEn ] 0
|  9>     print[ P_Cartesian ] 0
| 10> end
| 11> *xyz 0 1
| 12>  N        2.3208100000     0.6661570000     1.3749350000
| 13>  C        2.3945230000    -0.1053280000     0.1358280000
| 14>  C        2.9026410000    -1.4852700000     0.3808850000
| 15>  C        2.3020740000    -2.6368120000     0.1061520000
| 16>  C        3.1439230000    -3.7992280000     0.5390430000
| 17>  N        4.4268620000    -3.2078160000     0.9399510000
| 18>  C        4.2300860000    -1.7586030000     1.0401330000
| 19>  H        1.9567290000     1.5915150000     1.1838600000
| 20>  H        3.2461240000     0.7966590000     1.7657730000
| 21>  H        3.0338100000     0.3695620000    -0.6290450000
| 22>  H        1.3886570000    -0.1649470000    -0.2876030000
| 23>  H        1.3108090000    -2.7413300000    -0.3196670000
| 24>  H        3.2860180000    -4.5481600000    -0.2474240000
| 25>  H        2.6722810000    -4.3230040000     1.3831120000
| 26>  H        5.1099310000    -3.3951210000     0.2209540000
| 27>  H        5.0586590000    -1.2144260000     0.5707440000
| 28>  H        4.2023630000    -1.4411580000     2.0927690000
| 29> *
| 30>
| 31>                          ****END OF INPUT****
 Total Charge           Charge          ....    0
 Multiplicity           Mult            ....    1
 Number of Electrons    NEL             ....   54
 Basis Dimension        Dim             ....  148

MULLIKEN ATOMIC CHARGES
-----------------------
   0 N :   -0.221343
   1 C :    0.173081
   2 C :   -0.197174
   3 C :   -0.120582
   4 C :    0.159190
   5 N :   -0.280339
   6 C :    0.191922
   7 H :    0.089746
   8 H :    0.090097
   9 H :    0.000378
  10 H :   -0.009710
  11 H :   -0.027714
  12 H :    0.014813
  13 H :    0.022246
  14 H :    0.098227
  15 H :   -0.000757
  16 H :    0.017919
Sum of atomic charges:   -0.0000000

LOEWDIN ATOMIC CHARGES
----------------------
   0 N :   -0.111818
   1 C :    0.011493
   2 C :   -0.054909
   3 C :   -0.054751
   4 C :    0.015386
   5 N :   -0.106645
   6 C :    0.017492
   7 H :    0.052981
   8 H :    0.048408
   9 H :    0.006780
  10 H :    0.025004
  11 H :    0.020266
  12 H :    0.019974
  13 H :    0.021004
  14 H :    0.053480
  15 H :    0.016853
  16 H :    0.019003

  Mayer bond orders larger than 0.1
B(  0-N ,  1-C ) :   1.0747 B(  0-N ,  7-H ) :   0.9619 B(  0-N ,  8-H ) :   0.9655
B(  1-C ,  2-C ) :   1.0732 B(  1-C ,  9-H ) :   0.9046 B(  1-C , 10-H ) :   0.9104
B(  2-C ,  3-C ) :   1.9033 B(  2-C ,  6-C ) :   1.0098 B(  3-C ,  4-C ) :   1.0016
B(  3-C , 11-H ) :   0.9755 B(  4-C ,  5-N ) :   1.0688 B(  4-C , 12-H ) :   0.9348
B(  4-C , 13-H ) :   0.9104 B(  5-N ,  6-C ) :   1.0641 B(  5-N , 14-H ) :   0.9562
B(  6-C , 15-H ) :   0.9270 B(  6-C , 16-H ) :   0.9011

FINAL SINGLE POINT ENERGY      -305.388298714442

DIPOLE MOMENT
-------------
                                X             Y             Z
Electronic contribution:      0.09663      -1.43931       0.12282
Nuclear contribution   :      0.09773       1.95563      -0.79545
                        -----------------------------------------
Total Dipole Moment    :      0.19436       0.51632      -0.67263
                        -----------------------------------------
Magnitude (a.u.)       :      0.86994
Magnitude (Debye)      :      2.21120

                             ****ORCA TERMINATED NORMALLY****
TOTAL RUN TIME: 0 days 0 hours 0 minutes 8 seconds 47 msec
