                         Program Version 3.0.3 - RELEASE   -
|  1> ! RI PBE def2-SVP def2-SVP/J NBO PAL2
|  2> % maxcore 2000
|  3> % output
|  4>     # printlevel mini
|  5>     print[ P_Basis ] 0
|  6>     print[ P_SCFInfo ] 1
|  7>     print[ P_SCFIterInfo ] 1
|  8>     print[ P_OrbEn ] 0
|  9>     print[ P_Cartesian ] 0
| 10> end
| 11> *xyz 0 1
| 12>  N        2.2786700000    -1.4775720000     0.2518760000
| 13>  C        2.2731510000    -0.0622060000    -0.0849780000
| 14>  C        2.8244050000     0.7593810000     1.0541440000
| 15>  C        2.8022440000     2.2953280000     0.9195670000
| 16>  C        2.3409640000     2.4080140000     2.3860540000
| 17>  N        3.4182460000     2.8036010000     3.2689080000
| 18>  C        1.9677260000     0.9012000000     2.3328080000
| 19>  H        1.9174730000    -2.0315420000    -0.5143420000
| 20>  H        1.6740500000    -1.6482360000     1.0470680000
| 21>  H        1.2740080000     0.3301910000    -0.3433850000
| 22>  H        2.9040560000     0.0791220000    -0.9696520000
| 23>  H        3.8260650000     0.3917480000     1.2953010000
| 24>  H        2.0299020000     2.6285890000     0.2213090000
| 25>  H        3.7373800000     2.8025390000     0.6743830000
| 26>  H        1.5015640000     3.0843570000     2.5641500000
| 27>  H        4.2339320000     2.2190900000     3.1233110000
| 28>  H        3.1446390000     2.6899550000     4.2380760000
| 29>  H        0.9033550000     0.7544600000     2.1195360000
| 30>  H        2.2394520000     0.3001720000     3.2038660000
| 31> *
| 32>
| 33>                          ****END OF INPUT****
 Total Charge           Charge          ....    0
 Multiplicity           Mult            ....    1
 Number of Electrons    NEL             ....   56
 Basis Dimension        Dim             ....  158

MULLIKEN ATOMIC CHARGES
-----------------------
   0 N :   -0.210757
   1 C :    0.144066
   2 C :   -0.239749
   3 C :    0.147935
   4 C :   -0.158969
   5 N :   -0.129102
   6 C :    0.138994
   7 H :    0.088588
   8 H :    0.084544
   9 H :   -0.024282
  10 H :    0.005239
  11 H :    0.002978
  12 H :    0.000999
  13 H :    0.005160
  14 H :    0.000663
  15 H :    0.075908
  16 H :    0.088076
  17 H :   -0.011484
  18 H :   -0.008806
Sum of atomic charges:   -0.0000000

LOEWDIN ATOMIC CHARGES
----------------------
   0 N :   -0.112447
   1 C :    0.004659
   2 C :   -0.044225
   3 C :   -0.029646
   4 C :    0.006207
   5 N :   -0.090203
   6 C :   -0.056093
   7 H :    0.052215
   8 H :    0.048641
   9 H :   -0.005720
  10 H :    0.021501
  11 H :    0.021666
  12 H :    0.025130
  13 H :    0.017790
  14 H :    0.011918
  15 H :    0.047959
  16 H :    0.051139
  17 H :    0.019228
  18 H :    0.010282

  Mayer bond orders larger than 0.1
B(  0-N ,  1-C ) :   1.0949 B(  0-N ,  7-H ) :   0.9627 B(  0-N ,  8-H ) :   0.9699
B(  1-C ,  2-C ) :   1.0764 B(  1-C ,  9-H ) :   0.9085 B(  1-C , 10-H ) :   0.9223
B(  2-C ,  3-C ) :   1.0671 B(  2-C ,  6-C ) :   1.0744 B(  2-C , 11-H ) :   0.8993
B(  3-C ,  4-C ) :   1.0849 B(  3-C , 12-H ) :   0.9027 B(  3-C , 13-H ) :   0.9187
B(  4-C ,  5-N ) :   1.1304 B(  4-C ,  6-C ) :   1.0524 B(  4-C , 14-H ) :   0.9131
B(  5-N , 15-H ) :   0.9645 B(  5-N , 16-H ) :   0.9654 B(  6-C , 17-H ) :   0.8941
B(  6-C , 18-H ) :   0.9153

FINAL SINGLE POINT ENERGY      -306.588586006564

DIPOLE MOMENT
-------------
                                X             Y             Z
Electronic contribution:      0.73831       0.63335       0.77266
Nuclear contribution   :     -1.20700      -1.03018      -0.71741
                        -----------------------------------------
Total Dipole Moment    :     -0.46870      -0.39683       0.05525
                        -----------------------------------------
Magnitude (a.u.)       :      0.61660
Magnitude (Debye)      :      1.56729

                             ****ORCA TERMINATED NORMALLY****
TOTAL RUN TIME: 0 days 0 hours 0 minutes 7 seconds 860 msec
