                         Program Version 3.0.3 - RELEASE   -
|  1> ! RI PBE def2-SVP def2-SVP/J NBO PAL2
|  2> % maxcore 2000
|  3> % output
|  4>     # printlevel mini
|  5>     print[ P_Basis ] 0
|  6>     print[ P_SCFInfo ] 1
|  7>     print[ P_SCFIterInfo ] 1
|  8>     print[ P_OrbEn ] 0
|  9>     print[ P_Cartesian ] 0
| 10> end
| 11> *xyz 0 1
| 12>  N        1.0245500000     0.0760180000    -0.0571490000
| 13>  C        2.1769880000     0.0475290000    -0.0523540000
| 14>  C        3.5901130000     0.0033470000    -0.0470870000
| 15>  C        4.4275500000     1.0995420000    -0.0436730000
| 16>  N        5.6980990000     0.6351550000    -0.0390200000
| 17>  C        5.7066130000    -0.7317030000    -0.0393490000
| 18>  C        4.4100910000    -1.1604010000    -0.0443220000
| 19>  H        4.1967300000     2.1519000000    -0.0442640000
| 20>  H        6.5174310000     1.2156380000    -0.0357890000
| 21>  H        6.6304810000    -1.2862830000    -0.0360260000
| 22>  H        4.0678530000    -2.1822330000    -0.0458660000
| 23> *
| 24>
| 25>                          ****END OF INPUT****
 Total Charge           Charge          ....    0
 Multiplicity           Mult            ....    1
 Number of Electrons    NEL             ....   48
 Basis Dimension        Dim             ....  118

MULLIKEN ATOMIC CHARGES
-----------------------
   0 N :    0.076775
   1 C :   -0.126533
   2 C :   -0.164627
   3 C :    0.054654
   4 N :   -0.033260
   5 C :    0.052473
   6 C :    0.009734
   7 H :    0.010719
   8 H :    0.125047
   9 H :    0.006385
  10 H :   -0.011367
Sum of atomic charges:    0.0000000

LOEWDIN ATOMIC CHARGES
----------------------
   0 N :   -0.071840
   1 C :   -0.040081
   2 C :   -0.118998
   3 C :    0.001498
   4 N :    0.119091
   5 C :   -0.023971
   6 C :   -0.049235
   7 H :    0.030765
   8 H :    0.091782
   9 H :    0.025413
  10 H :    0.035576

  Mayer bond orders larger than 0.1
B(  0-N ,  1-C ) :   2.9965 B(  1-C ,  2-C ) :   1.1599 B(  2-C ,  3-C ) :   1.4161
B(  2-C ,  6-C ) :   1.3032 B(  3-C ,  4-N ) :   1.2565 B(  3-C ,  7-H ) :   0.9934
B(  4-N ,  5-C ) :   1.2135 B(  4-N ,  8-H ) :   0.9398 B(  5-C ,  6-C ) :   1.4695
B(  5-C ,  9-H ) :   0.9807 B(  6-C , 10-H ) :   1.0178

FINAL SINGLE POINT ENERGY      -301.833767259380

DIPOLE MOMENT
-------------
                                X             Y             Z
Electronic contribution:     -2.99833       0.55645      -0.01099
Nuclear contribution   :      5.42622      -0.12969       0.02057
                        -----------------------------------------
Total Dipole Moment    :      2.42789       0.42676       0.00957
                        -----------------------------------------
Magnitude (a.u.)       :      2.46513
Magnitude (Debye)      :      6.26587

                             ****ORCA TERMINATED NORMALLY****
TOTAL RUN TIME: 0 days 0 hours 0 minutes 5 seconds 684 msec
