                         Program Version 3.0.3 - RELEASE   -
|  1> ! RI PBE def2-SVP def2-SVP/J NBO PAL2
|  2> % maxcore 2000
|  3> % output
|  4>     # printlevel mini
|  5>     print[ P_Basis ] 0
|  6>     print[ P_SCFInfo ] 1
|  7>     print[ P_SCFIterInfo ] 1
|  8>     print[ P_OrbEn ] 0
|  9>     print[ P_Cartesian ] 0
| 10> end
| 11> *xyz 0 1
| 12>  N        3.1268830000     0.2880780000    -1.2673160000
| 13>  C        2.6596090000    -0.2262980000     0.0126130000
| 14>  C        2.9714160000     0.7236550000     1.1220270000
| 15>  C        3.1744200000     2.0765960000     1.0008980000
| 16>  N        3.4077490000     2.5803710000     2.2478060000
| 17>  C        3.3604180000     1.5794120000     3.1701440000
| 18>  C        3.0934760000     0.4121600000     2.5020940000
| 19>  H        2.8716310000    -0.3413300000    -2.0174860000
| 20>  H        4.1376390000     0.3579980000    -1.2619740000
| 21>  H        3.0704430000    -1.2147700000     0.2718260000
| 22>  H        1.5740490000    -0.3606460000    -0.0656370000
| 23>  H        3.1637150000     2.7020660000     0.1236360000
| 24>  H        3.6014330000     3.5432270000     2.4511590000
| 25>  H        3.5260530000     1.7714680000     4.2180520000
| 26>  H        2.9973660000    -0.5641860000     2.9530680000
| 27> *
| 28>
| 29>                          ****END OF INPUT****
 Total Charge           Charge          ....    0
 Multiplicity           Mult            ....    1
 Number of Electrons    NEL             ....   52
 Basis Dimension        Dim             ....  138

MULLIKEN ATOMIC CHARGES
-----------------------
   0 N :   -0.221983
   1 C :    0.195486
   2 C :   -0.126328
   3 C :    0.007463
   4 N :   -0.046448
   5 C :    0.037684
   6 C :   -0.056650
   7 H :    0.085168
   8 H :    0.088029
   9 H :   -0.019743
  10 H :    0.013475
  11 H :   -0.017793
  12 H :    0.111157
  13 H :   -0.013184
  14 H :   -0.036332
Sum of atomic charges:   -0.0000000

LOEWDIN ATOMIC CHARGES
----------------------
   0 N :   -0.109771
   1 C :    0.014751
   2 C :   -0.094478
   3 C :   -0.042353
   4 N :    0.101022
   5 C :   -0.042588
   6 C :   -0.091340
   7 H :    0.050965
   8 H :    0.050363
   9 H :    0.002823
  10 H :    0.028100
  11 H :    0.016494
  12 H :    0.080874
  13 H :    0.015345
  14 H :    0.019793

  Mayer bond orders larger than 0.1
B(  0-N ,  1-C ) :   1.1065 B(  0-N ,  7-H ) :   0.9636 B(  0-N ,  8-H ) :   0.9691
B(  1-C ,  2-C ) :   1.0662 B(  1-C ,  9-H ) :   0.9167 B(  1-C , 10-H ) :   0.9028
B(  2-C ,  3-C ) :   1.4791 B(  2-C ,  6-C ) :   1.3310 B(  3-C ,  4-N ) :   1.2094
B(  3-C , 11-H ) :   0.9847 B(  4-N ,  5-C ) :   1.2320 B(  4-N , 12-H ) :   0.9441
B(  5-C ,  6-C ) :   1.4539 B(  5-C , 13-H ) :   0.9828 B(  6-C , 14-H ) :   1.0090

FINAL SINGLE POINT ENERGY      -304.228082562297

DIPOLE MOMENT
-------------
                                X             Y             Z
Electronic contribution:      0.36073       2.64730       2.72512
Nuclear contribution   :     -0.01632      -2.34827      -2.66657
                        -----------------------------------------
Total Dipole Moment    :      0.34442       0.29904       0.05855
                        -----------------------------------------
Magnitude (a.u.)       :      0.45986
Magnitude (Debye)      :      1.16887

                             ****ORCA TERMINATED NORMALLY****
TOTAL RUN TIME: 0 days 0 hours 0 minutes 6 seconds 678 msec
