                         Program Version 3.0.3 - RELEASE   -
|  1> ! RI PBE def2-SVP def2-SVP/J NBO PAL2
|  2> % maxcore 2000
|  3> % output
|  4>     # printlevel mini
|  5>     print[ P_Basis ] 0
|  6>     print[ P_SCFInfo ] 1
|  7>     print[ P_SCFIterInfo ] 1
|  8>     print[ P_OrbEn ] 0
|  9>     print[ P_Cartesian ] 0
| 10> end
| 11> *xyz 0 1
| 12>  N        1.0000090000     0.0988690000    -0.0809660000
| 13>  C        2.1501790000     0.0592920000    -0.0843470000
| 14>  C        3.5674590000    -0.0440140000    -0.0883880000
| 15>  N        4.3325420000     1.0446040000    -0.0936010000
| 16>  N        5.5660970000     0.5689790000    -0.0960940000
| 17>  C        5.6319090000    -0.7789200000    -0.0927260000
| 18>  C        4.3363880000    -1.2257790000    -0.0876010000
| 19>  H        6.3337960000     1.2187060000    -0.1001510000
| 20>  H        6.5719330000    -1.3067410000    -0.0941890000
| 21>  H        3.9844870000    -2.2432860000    -0.0838360000
| 22> *
| 23>
| 24>                          ****END OF INPUT****
 Total Charge           Charge          ....    0
 Multiplicity           Mult            ....    1
 Number of Electrons    NEL             ....   48
 Basis Dimension        Dim             ....  113

MULLIKEN ATOMIC CHARGES
-----------------------
   0 N :    0.104547
   1 C :   -0.081983
   2 C :   -0.178303
   3 N :   -0.091146
   4 N :    0.014626
   5 C :    0.114936
   6 C :   -0.026244
   7 H :    0.135770
   8 H :    0.008162
   9 H :   -0.000364
Sum of atomic charges:    0.0000000

LOEWDIN ATOMIC CHARGES
----------------------
   0 N :   -0.046581
   1 C :   -0.036416
   2 C :   -0.094709
   3 N :   -0.065724
   4 N :    0.153494
   5 C :   -0.012788
   6 C :   -0.060436
   7 H :    0.090868
   8 H :    0.031997
   9 H :    0.040295

  Mayer bond orders larger than 0.1
B(  0-N ,  1-C ) :   3.0276 B(  1-C ,  2-C ) :   1.1302 B(  2-C ,  3-N ) :   1.5439
B(  2-C ,  4-N ) :   0.1002 B(  2-C ,  6-C ) :   1.3240 B(  3-N ,  4-N ) :   1.1980
B(  3-N ,  5-C ) :   0.1200 B(  4-N ,  5-C ) :   1.2250 B(  4-N ,  7-H ) :   0.9442
B(  5-C ,  6-C ) :   1.4380 B(  5-C ,  8-H ) :   0.9726 B(  6-C ,  9-H ) :   0.9978

FINAL SINGLE POINT ENERGY      -317.842011498937

DIPOLE MOMENT
-------------
                                X             Y             Z
Electronic contribution:     -2.60094       1.64481       0.00357
Nuclear contribution   :      5.01579      -2.10907      -0.00968
                        -----------------------------------------
Total Dipole Moment    :      2.41485      -0.46426      -0.00610
                        -----------------------------------------
Magnitude (a.u.)       :      2.45908
Magnitude (Debye)      :      6.25047

                             ****ORCA TERMINATED NORMALLY****
TOTAL RUN TIME: 0 days 0 hours 0 minutes 5 seconds 379 msec
