                         Program Version 3.0.3 - RELEASE   -
|  1> ! RI PBE def2-SVP def2-SVP/J NBO PAL2
|  2> % maxcore 2000
|  3> % output
|  4>     # printlevel mini
|  5>     print[ P_Basis ] 0
|  6>     print[ P_SCFInfo ] 1
|  7>     print[ P_SCFIterInfo ] 1
|  8>     print[ P_OrbEn ] 0
|  9>     print[ P_Cartesian ] 0
| 10> end
| 11> *xyz 0 1
| 12>  N        1.0694280000     0.0972320000     0.0585870000
| 13>  C        2.2180290000     0.0400560000     0.0497860000
| 14>  C        3.6855690000     0.0032220000     0.0470020000
| 15>  C        4.2327890000    -1.2028270000    -0.7350120000
| 16>  C        4.5137390000    -0.5438200000    -2.0555180000
| 17>  N        4.5064550000     0.7252320000    -2.0018840000
| 18>  N        4.2688420000     1.1248470000    -0.7020760000
| 19>  H        4.0243730000     0.0183250000     1.0843330000
| 20>  H        3.5317220000    -2.0348590000    -0.7900530000
| 21>  H        5.1602140000    -1.5663950000    -0.2798850000
| 22>  H        4.7579550000    -1.0549790000    -2.9772060000
| 23>  H        3.7385750000     1.9847560000    -0.6837930000
| 24> *
| 25>
| 26>                          ****END OF INPUT****
 Total Charge           Charge          ....    0
 Multiplicity           Mult            ....    1
 Number of Electrons    NEL             ....   50
 Basis Dimension        Dim             ....  123

MULLIKEN ATOMIC CHARGES
-----------------------
   0 N :    0.068691
   1 C :   -0.160577
   2 C :   -0.060384
   3 C :    0.028664
   4 C :   -0.026750
   5 N :   -0.071935
   6 N :   -0.100387
   7 H :    0.057642
   8 H :    0.058102
   9 H :    0.051689
  10 H :    0.024141
  11 H :    0.131104
Sum of atomic charges:   -0.0000000

LOEWDIN ATOMIC CHARGES
----------------------
   0 N :   -0.051792
   1 C :   -0.057189
   2 C :   -0.014450
   3 C :   -0.042118
   4 C :   -0.044533
   5 N :   -0.028702
   6 N :   -0.001085
   7 H :    0.053094
   8 H :    0.046515
   9 H :    0.046424
  10 H :    0.026196
  11 H :    0.067640

  Mayer bond orders larger than 0.1
B(  0-N ,  1-C ) :   3.0789 B(  1-C ,  2-C ) :   1.0154 B(  2-C ,  3-C ) :   1.1120
B(  2-C ,  6-N ) :   1.0451 B(  2-C ,  7-H ) :   0.8845 B(  3-C ,  4-C ) :   0.9889
B(  3-C ,  8-H ) :   0.9376 B(  3-C ,  9-H ) :   0.9012 B(  4-C ,  5-N ) :   1.8881
B(  4-C , 10-H ) :   0.9765 B(  5-N ,  6-N ) :   1.0706 B(  6-N , 11-H ) :   0.9372

FINAL SINGLE POINT ENERGY      -319.004175656950

DIPOLE MOMENT
-------------
                                X             Y             Z
Electronic contribution:     -2.44342       2.15800       0.17464
Nuclear contribution   :      3.36224      -2.68344       0.18171
                        -----------------------------------------
Total Dipole Moment    :      0.91882      -0.52544       0.35635
                        -----------------------------------------
Magnitude (a.u.)       :      1.11683
Magnitude (Debye)      :      2.83875

                             ****ORCA TERMINATED NORMALLY****
TOTAL RUN TIME: 0 days 0 hours 0 minutes 5 seconds 867 msec
