                         Program Version 3.0.3 - RELEASE   -
|  1> ! RI PBE def2-SVP def2-SVP/J NBO PAL2
|  2> % maxcore 2000
|  3> % output
|  4>     # printlevel mini
|  5>     print[ P_Basis ] 0
|  6>     print[ P_SCFInfo ] 1
|  7>     print[ P_SCFIterInfo ] 1
|  8>     print[ P_OrbEn ] 0
|  9>     print[ P_Cartesian ] 0
| 10> end
| 11> *xyz 0 1
| 12>  N        1.0478070000    -0.0333240000     0.2829040000
| 13>  C        2.1981270000    -0.0662050000     0.1676620000
| 14>  C        3.5932960000    -0.0632440000     0.0287740000
| 15>  C        4.3843740000    -1.1518250000    -0.0737680000
| 16>  N        5.6903160000    -0.8336480000    -0.1961160000
| 17>  C        5.8894540000     0.6097350000    -0.1863640000
| 18>  C        4.4585930000     1.1807050000    -0.0291100000
| 19>  H        4.0698430000    -2.1868220000    -0.0653540000
| 20>  H        6.4294030000    -1.5026970000    -0.2864860000
| 21>  H        6.3604440000     0.9418850000    -1.1158180000
| 22>  H        6.5392910000     0.9054040000     0.6420230000
| 23>  H        4.1854390000     1.8226680000    -0.8699470000
| 24>  H        4.3611120000     1.7814790000     0.8782920000
| 25> *
| 26>
| 27>                          ****END OF INPUT****
 Total Charge           Charge          ....    0
 Multiplicity           Mult            ....    1
 Number of Electrons    NEL             ....   50
 Basis Dimension        Dim             ....  128

MULLIKEN ATOMIC CHARGES
-----------------------
   0 N :    0.050546
   1 C :   -0.143268
   2 C :   -0.347065
   3 C :    0.142750
   4 N :   -0.180058
   5 C :    0.126927
   6 C :    0.085882
   7 H :    0.007188
   8 H :    0.117578
   9 H :    0.029373
  10 H :    0.032209
  11 H :    0.039371
  12 H :    0.038565
Sum of atomic charges:   -0.0000000

LOEWDIN ATOMIC CHARGES
----------------------
   0 N :   -0.096359
   1 C :   -0.059344
   2 C :   -0.163885
   3 C :    0.050973
   4 N :    0.009846
   5 C :    0.041804
   6 C :   -0.014763
   7 H :    0.034483
   8 H :    0.075749
   9 H :    0.023754
  10 H :    0.024513
  11 H :    0.036767
  12 H :    0.036461

  Mayer bond orders larger than 0.1
B(  0-N ,  1-C ) :   2.9436 B(  1-C ,  2-C ) :   1.2614 B(  2-C ,  3-C ) :   1.5834
B(  2-C ,  4-N ) :   0.1472 B(  2-C ,  6-C ) :   1.0727 B(  3-C ,  4-N ) :   1.2193
B(  3-C ,  7-H ) :   0.9797 B(  4-N ,  5-C ) :   0.9963 B(  4-N ,  8-H ) :   0.9432
B(  5-C ,  6-C ) :   1.0937 B(  5-C ,  9-H ) :   0.9403 B(  5-C , 10-H ) :   0.9403
B(  6-C , 11-H ) :   0.9228 B(  6-C , 12-H ) :   0.9233

FINAL SINGLE POINT ENERGY      -303.011205110415

DIPOLE MOMENT
-------------
                                X             Y             Z
Electronic contribution:     -5.08535      -2.19181       0.46008
Nuclear contribution   :      7.64956       1.90303      -0.72296
                        -----------------------------------------
Total Dipole Moment    :      2.56421      -0.28878      -0.26289
                        -----------------------------------------
Magnitude (a.u.)       :      2.59378
Magnitude (Debye)      :      6.59286

                             ****ORCA TERMINATED NORMALLY****
TOTAL RUN TIME: 0 days 0 hours 0 minutes 6 seconds 804 msec
