                         Program Version 3.0.3 - RELEASE   -
|  1> ! RI PBE def2-SVP def2-SVP/J NBO PAL2
|  2> % maxcore 2000
|  3> % output
|  4>     # printlevel mini
|  5>     print[ P_Basis ] 0
|  6>     print[ P_SCFInfo ] 1
|  7>     print[ P_SCFIterInfo ] 1
|  8>     print[ P_OrbEn ] 0
|  9>     print[ P_Cartesian ] 0
| 10> end
| 11> *xyz 0 1
| 12>  N        1.0868480000     0.3188720000    -0.0183160000
| 13>  C        2.4978100000    -0.0148890000    -0.1555830000
| 14>  C        2.9923270000    -0.8201070000     1.0242590000
| 15>  C        2.7022770000    -0.2290650000     2.3807240000
| 16>  N        3.1294930000     1.1617560000     2.4537360000
| 17>  C        2.9775310000    -2.3110110000     0.9251600000
| 18>  C        4.2799710000    -1.5686290000     0.8396280000
| 19>  H        0.7299250000     0.6816410000    -0.8932500000
| 20>  H        0.9944840000     1.0670430000     0.6600990000
| 21>  H        3.1377630000     0.8723550000    -0.2673870000
| 22>  H        2.6248590000    -0.6167490000    -1.0608100000
| 23>  H        3.1583200000    -0.8771810000     3.1456620000
| 24>  H        1.6210400000    -0.2570730000     2.5512890000
| 25>  H        4.1334260000     1.2290660000     2.3343890000
| 26>  H        2.9099760000     1.5567800000     3.3591460000
| 27>  H        2.5767540000    -2.7501360000     0.0197010000
| 28>  H        2.7786740000    -2.8827790000     1.8245720000
| 29>  H        4.7698380000    -1.5086380000    -0.1257720000
| 30>  H        4.9599050000    -1.6394570000     1.6813540000
| 31> *
| 32>
| 33>                          ****END OF INPUT****
 Total Charge           Charge          ....    0
 Multiplicity           Mult            ....    1
 Number of Electrons    NEL             ....   56
 Basis Dimension        Dim             ....  158

MULLIKEN ATOMIC CHARGES
-----------------------
   0 N :   -0.211456
   1 C :    0.192905
   2 C :   -0.320963
   3 C :    0.159902
   4 N :   -0.208172
   5 C :    0.015642
   6 C :   -0.013335
   7 H :    0.084434
   8 H :    0.092897
   9 H :   -0.015011
  10 H :   -0.022458
  11 H :   -0.026359
  12 H :    0.012704
  13 H :    0.090393
  14 H :    0.087940
  15 H :    0.023685
  16 H :    0.018193
  17 H :    0.021998
  18 H :    0.017060
Sum of atomic charges:   -0.0000000

LOEWDIN ATOMIC CHARGES
----------------------
   0 N :   -0.112520
   1 C :    0.021525
   2 C :   -0.071563
   3 C :    0.016893
   4 N :   -0.109057
   5 C :   -0.033554
   6 C :   -0.047815
   7 H :    0.051463
   8 H :    0.049888
   9 H :   -0.000183
  10 H :    0.016807
  11 H :   -0.000107
  12 H :    0.021146
  13 H :    0.051969
  14 H :    0.052640
  15 H :    0.025732
  16 H :    0.022318
  17 H :    0.023432
  18 H :    0.020985

  Mayer bond orders larger than 0.1
B(  0-N ,  1-C ) :   1.1206 B(  0-N ,  7-H ) :   0.9618 B(  0-N ,  8-H ) :   0.9587
B(  1-C ,  2-C ) :   1.0312 B(  1-C ,  9-H ) :   0.9156 B(  1-C , 10-H ) :   0.9110
B(  2-C ,  3-C ) :   1.0684 B(  2-C ,  5-C ) :   0.9781 B(  2-C ,  6-C ) :   0.9728
B(  3-C ,  4-N ) :   1.0937 B(  3-C , 11-H ) :   0.9063 B(  3-C , 12-H ) :   0.9191
B(  4-N , 13-H ) :   0.9653 B(  4-N , 14-H ) :   0.9628 B(  5-C ,  6-C ) :   1.0501
B(  5-C , 15-H ) :   0.9361 B(  5-C , 16-H ) :   0.9388 B(  6-C , 17-H ) :   0.9397
B(  6-C , 18-H ) :   0.9347

FINAL SINGLE POINT ENERGY      -306.585113168282

DIPOLE MOMENT
-------------
                                X             Y             Z
Electronic contribution:     -0.50893       0.24806      -0.04687
Nuclear contribution   :      0.86923       0.12828       0.31070
                        -----------------------------------------
Total Dipole Moment    :      0.36030       0.37633       0.26383
                        -----------------------------------------
Magnitude (a.u.)       :      0.58399
Magnitude (Debye)      :      1.48439

                             ****ORCA TERMINATED NORMALLY****
TOTAL RUN TIME: 0 days 0 hours 0 minutes 7 seconds 883 msec
