                         Program Version 3.0.3 - RELEASE   -
|  1> ! RI PBE def2-SVP def2-SVP/J NBO PAL2
|  2> % maxcore 2000
|  3> % output
|  4>     # printlevel mini
|  5>     print[ P_Basis ] 0
|  6>     print[ P_SCFInfo ] 1
|  7>     print[ P_SCFIterInfo ] 1
|  8>     print[ P_OrbEn ] 0
|  9>     print[ P_Cartesian ] 0
| 10> end
| 11> *xyz 0 1
| 12>  N        1.0411850000    -0.0580650000     0.0878840000
| 13>  C        2.1910030000    -0.0626630000     0.0709870000
| 14>  C        3.6562010000    -0.0513570000     0.0531800000
| 15>  C        4.2631040000    -1.2440000000    -0.7458040000
| 16>  N        4.6682070000    -0.6940890000    -2.0319280000
| 17>  C        4.5830290000     0.5656920000    -1.9277380000
| 18>  N        4.1846800000     1.0768540000    -0.7044560000
| 19>  H        4.0023090000    -0.0353350000     1.0889320000
| 20>  H        3.5536000000    -2.0622010000    -0.8711640000
| 21>  H        5.1412550000    -1.6345160000    -0.2229190000
| 22>  H        4.8476530000     1.2539920000    -2.7243310000
| 23>  H        3.6821730000     1.9505870000    -0.6789430000
| 24> *
| 25>
| 26>                          ****END OF INPUT****
 Total Charge           Charge          ....    0
 Multiplicity           Mult            ....    1
 Number of Electrons    NEL             ....   50
 Basis Dimension        Dim             ....  123

MULLIKEN ATOMIC CHARGES
-----------------------
   0 N :    0.067747
   1 C :   -0.169611
   2 C :   -0.085813
   3 C :    0.158764
   4 N :   -0.210252
   5 C :    0.107265
   6 N :   -0.164483
   7 H :    0.058412
   8 H :    0.043262
   9 H :    0.037528
  10 H :    0.028303
  11 H :    0.128880
Sum of atomic charges:    0.0000000

LOEWDIN ATOMIC CHARGES
----------------------
   0 N :   -0.051967
   1 C :   -0.056983
   2 C :   -0.015183
   3 C :    0.027940
   4 N :   -0.134192
   5 C :    0.030922
   6 N :   -0.021568
   7 H :    0.050242
   8 H :    0.036561
   9 H :    0.033842
  10 H :    0.023943
  11 H :    0.076443

  Mayer bond orders larger than 0.1
B(  0-N ,  1-C ) :   3.0790 B(  1-C ,  2-C ) :   1.0272 B(  2-C ,  3-C ) :   1.0518
B(  2-C ,  6-N ) :   1.0835 B(  2-C ,  7-H ) :   0.8853 B(  3-C ,  4-N ) :   1.0738
B(  3-C ,  8-H ) :   0.9358 B(  3-C ,  9-H ) :   0.9231 B(  4-N ,  5-C ) :   1.8674
B(  4-N ,  6-N ) :   0.1121 B(  5-C ,  6-N ) :   1.1148 B(  5-C , 10-H ) :   0.9599
B(  6-N , 11-H ) :   0.9332

FINAL SINGLE POINT ENERGY      -319.029479248949

DIPOLE MOMENT
-------------
                                X             Y             Z
Electronic contribution:     -2.45990       0.88644       0.13213
Nuclear contribution   :      3.31519      -0.22083       0.30960
                        -----------------------------------------
Total Dipole Moment    :      0.85529       0.66561       0.44174
                        -----------------------------------------
Magnitude (a.u.)       :      1.17034
Magnitude (Debye)      :      2.97476

                             ****ORCA TERMINATED NORMALLY****
TOTAL RUN TIME: 0 days 0 hours 0 minutes 6 seconds 318 msec
