                         Program Version 3.0.3 - RELEASE   -
|  1> ! RI PBE def2-SVP def2-SVP/J NBO PAL2
|  2> % maxcore 2000
|  3> % output
|  4>     # printlevel mini
|  5>     print[ P_Basis ] 0
|  6>     print[ P_SCFInfo ] 1
|  7>     print[ P_SCFIterInfo ] 1
|  8>     print[ P_OrbEn ] 0
|  9>     print[ P_Cartesian ] 0
| 10> end
| 11> *xyz 0 1
| 12>  N        0.9948450000    -0.0753580000    -0.0804260000
| 13>  C        2.1462470000    -0.0853760000    -0.0761940000
| 14>  C        3.5647780000    -0.0624080000    -0.0711490000
| 15>  C        4.3615830000     1.0544780000    -0.0708080000
| 16>  N        5.6327850000     0.5738810000    -0.0651500000
| 17>  C        5.5606880000    -0.7836460000    -0.0623500000
| 18>  N        4.3278150000    -1.2024210000    -0.0658470000
| 19>  H        4.1266000000     2.1054040000    -0.0740230000
| 20>  H        6.4722080000     1.1274320000    -0.0633770000
| 21>  H        6.4392700000    -1.4109770000    -0.0577750000
| 22> *
| 23>
| 24>                          ****END OF INPUT****
 Total Charge           Charge          ....    0
 Multiplicity           Mult            ....    1
 Number of Electrons    NEL             ....   48
 Basis Dimension        Dim             ....  113

MULLIKEN ATOMIC CHARGES
-----------------------
   0 N :    0.099604
   1 C :   -0.071291
   2 C :   -0.222035
   3 C :    0.065011
   4 N :   -0.030148
   5 C :    0.095518
   6 N :   -0.099398
   7 H :    0.013701
   8 H :    0.127543
   9 H :    0.021495
Sum of atomic charges:   -0.0000000

LOEWDIN ATOMIC CHARGES
----------------------
   0 N :   -0.053500
   1 C :   -0.036936
   2 C :   -0.095816
   3 C :   -0.003743
   4 N :    0.109249
   5 C :    0.007313
   6 N :   -0.079084
   7 H :    0.034928
   8 H :    0.094101
   9 H :    0.023486

  Mayer bond orders larger than 0.1
B(  0-N ,  1-C ) :   3.0230 B(  1-C ,  2-C ) :   1.1323 B(  2-C ,  3-C ) :   1.4581
B(  2-C ,  6-N ) :   1.4377 B(  3-C ,  4-N ) :   1.2410 B(  3-C ,  7-H ) :   0.9874
B(  4-N ,  5-C ) :   1.2134 B(  4-N ,  8-H ) :   0.9273 B(  5-C ,  6-N ) :   1.6306
B(  5-C ,  9-H ) :   0.9690

FINAL SINGLE POINT ENERGY      -317.859188400355

DIPOLE MOMENT
-------------
                                X             Y             Z
Electronic contribution:     -2.57239      -0.73172      -0.00760
Nuclear contribution   :      5.14532       1.90440       0.01424
                        -----------------------------------------
Total Dipole Moment    :      2.57294       1.17268       0.00664
                        -----------------------------------------
Magnitude (a.u.)       :      2.82758
Magnitude (Debye)      :      7.18715

                             ****ORCA TERMINATED NORMALLY****
TOTAL RUN TIME: 0 days 0 hours 0 minutes 5 seconds 200 msec
