                         Program Version 3.0.3 - RELEASE   -
|  1> ! RI PBE def2-SVP def2-SVP/J NBO PAL2
|  2> % maxcore 2000
|  3> % output
|  4>     # printlevel mini
|  5>     print[ P_Basis ] 0
|  6>     print[ P_SCFInfo ] 1
|  7>     print[ P_SCFIterInfo ] 1
|  8>     print[ P_OrbEn ] 0
|  9>     print[ P_Cartesian ] 0
| 10> end
| 11> *xyz 0 1
| 12>  N        1.0304610000    -0.0547390000     0.0855560000
| 13>  C        2.1770150000    -0.0546620000     0.0098570000
| 14>  C        3.6238070000    -0.0545750000    -0.0868980000
| 15>  C        4.2347300000     1.0737550000    -0.8664320000
| 16>  N        5.0236650000     0.6565720000    -1.7725890000
| 17>  N        5.0238350000    -0.7687910000    -1.7711660000
| 18>  C        4.2350270000    -1.1843320000    -0.8641460000
| 19>  H        4.0419060000    -0.0534790000     0.9316090000
| 20>  H        4.0663020000     2.1274300000    -0.6819500000
| 21>  H        4.0668520000    -2.2376680000    -0.6775310000
| 22> *
| 23>
| 24>                          ****END OF INPUT****
 Total Charge           Charge          ....    0
 Multiplicity           Mult            ....    1
 Number of Electrons    NEL             ....   48
 Basis Dimension        Dim             ....  113

MULLIKEN ATOMIC CHARGES
-----------------------
   0 N :    0.086283
   1 C :   -0.159593
   2 C :   -0.160033
   3 C :    0.078343
   4 N :   -0.071256
   5 N :   -0.071263
   6 C :    0.078383
   7 H :    0.116351
   8 H :    0.051404
   9 H :    0.051382
Sum of atomic charges:   -0.0000000

LOEWDIN ATOMIC CHARGES
----------------------
   0 N :   -0.037348
   1 C :   -0.036507
   2 C :   -0.099398
   3 C :    0.025562
   4 N :   -0.027656
   5 N :   -0.027655
   6 C :    0.025572
   7 H :    0.100511
   8 H :    0.038461
   9 H :    0.038457

  Mayer bond orders larger than 0.1
B(  0-N ,  1-C ) :   3.0676 B(  1-C ,  2-C ) :   1.0416 B(  2-C ,  3-C ) :   0.9809
B(  2-C ,  6-C ) :   0.9809 B(  2-C ,  7-H ) :   0.8316 B(  3-C ,  4-N ) :   1.8913
B(  3-C ,  8-H ) :   0.9725 B(  4-N ,  5-N ) :   1.0166 B(  5-N ,  6-C ) :   1.8913
B(  6-C ,  9-H ) :   0.9725

FINAL SINGLE POINT ENERGY      -317.781654654241

DIPOLE MOMENT
-------------
                                X             Y             Z
Electronic contribution:     -0.75886      -0.00085      -0.69153
Nuclear contribution   :      1.17829       0.00192       1.72609
                        -----------------------------------------
Total Dipole Moment    :      0.41943       0.00107       1.03456
                        -----------------------------------------
Magnitude (a.u.)       :      1.11635
Magnitude (Debye)      :      2.83754

                             ****ORCA TERMINATED NORMALLY****
TOTAL RUN TIME: 0 days 0 hours 0 minutes 5 seconds 573 msec
