                         Program Version 3.0.3 - RELEASE   -
|  1> ! RI PBE def2-SVP def2-SVP/J NBO PAL2
|  2> % maxcore 2000
|  3> % output
|  4>     # printlevel mini
|  5>     print[ P_Basis ] 0
|  6>     print[ P_SCFInfo ] 1
|  7>     print[ P_SCFIterInfo ] 1
|  8>     print[ P_OrbEn ] 0
|  9>     print[ P_Cartesian ] 0
| 10> end
| 11> *xyz 0 1
| 12>  N        1.0546020000    -0.1093510000    -0.6838170000
| 13>  C        2.1559420000    -0.0906710000    -0.3547250000
| 14>  C        3.5442160000    -0.0653020000     0.0651770000
| 15>  C        4.0258680000    -1.3532660000     0.7483160000
| 16>  N        5.0450270000    -0.8159240000     1.6484240000
| 17>  N        4.6941330000     0.4607150000     2.0090930000
| 18>  C        3.8671340000     0.9283720000     1.1659020000
| 19>  H        4.1618430000     0.1608870000    -0.8153170000
| 20>  H        4.4459190000    -2.0755050000     0.0497060000
| 21>  H        3.1949750000    -1.8161120000     1.2963920000
| 22>  H        5.2581660000    -1.3717600000     2.4634540000
| 23>  H        3.5131770000     1.9484970000     1.2148860000
| 24> *
| 25>
| 26>                          ****END OF INPUT****
 Total Charge           Charge          ....    0
 Multiplicity           Mult            ....    1
 Number of Electrons    NEL             ....   50
 Basis Dimension        Dim             ....  123

MULLIKEN ATOMIC CHARGES
-----------------------
   0 N :    0.074838
   1 C :   -0.190586
   2 C :   -0.168223
   3 C :    0.186827
   4 N :   -0.146078
   5 N :   -0.067650
   6 C :    0.002981
   7 H :    0.074103
   8 H :    0.039719
   9 H :    0.036809
  10 H :    0.127641
  11 H :    0.029621
Sum of atomic charges:   -0.0000000

LOEWDIN ATOMIC CHARGES
----------------------
   0 N :   -0.058055
   1 C :   -0.041216
   2 C :   -0.082055
   3 C :    0.034782
   4 N :   -0.011520
   5 N :   -0.020888
   6 C :   -0.041071
   7 H :    0.065481
   8 H :    0.033411
   9 H :    0.025312
  10 H :    0.066721
  11 H :    0.029098

  Mayer bond orders larger than 0.1
B(  0-N ,  1-C ) :   3.0730 B(  1-C ,  2-C ) :   1.0768 B(  2-C ,  3-C ) :   1.0797
B(  2-C ,  6-C ) :   0.9815 B(  2-C ,  7-H ) :   0.8280 B(  3-C ,  4-N ) :   0.9867
B(  3-C ,  8-H ) :   0.9303 B(  3-C ,  9-H ) :   0.9351 B(  4-N ,  5-N ) :   1.1094
B(  4-N ,  6-C ) :   0.1140 B(  4-N , 10-H ) :   0.9382 B(  5-N ,  6-C ) :   1.8818
B(  6-C , 11-H ) :   0.9818

FINAL SINGLE POINT ENERGY      -319.004228066964

DIPOLE MOMENT
-------------
                                X             Y             Z
Electronic contribution:     -1.81135       1.53757      -0.51442
Nuclear contribution   :      2.77048      -2.13679       0.72771
                        -----------------------------------------
Total Dipole Moment    :      0.95913      -0.59922       0.21329
                        -----------------------------------------
Magnitude (a.u.)       :      1.15086
Magnitude (Debye)      :      2.92526

                             ****ORCA TERMINATED NORMALLY****
TOTAL RUN TIME: 0 days 0 hours 0 minutes 5 seconds 859 msec
