                         Program Version 3.0.3 - RELEASE   -
|  1> ! RI PBE def2-SVP def2-SVP/J NBO PAL2
|  2> % maxcore 2000
|  3> % output
|  4>     # printlevel mini
|  5>     print[ P_Basis ] 0
|  6>     print[ P_SCFInfo ] 1
|  7>     print[ P_SCFIterInfo ] 1
|  8>     print[ P_OrbEn ] 0
|  9>     print[ P_Cartesian ] 0
| 10> end
| 11> *xyz 0 1
| 12>  N        0.9072190000     0.0466010000     0.0869940000
| 13>  C        2.0594260000     0.0513380000     0.0904490000
| 14>  C        3.4715300000     0.0448470000     0.0946640000
| 15>  C        4.3126920000     1.1410830000     0.0981110000
| 16>  N        5.5559130000     0.6443340000     0.1014020000
| 17>  N        5.6019290000    -0.6897080000     0.1004110000
| 18>  C        4.3418530000    -1.0699550000     0.0963210000
| 19>  H        4.1014150000     2.1981140000     0.0983760000
| 20>  H        6.4176910000     1.1624770000     0.1044180000
| 21>  H        4.0814320000    -2.1170120000     0.0946540000
| 22> *
| 23>
| 24>                          ****END OF INPUT****
 Total Charge           Charge          ....    0
 Multiplicity           Mult            ....    1
 Number of Electrons    NEL             ....   48
 Basis Dimension        Dim             ....  113

MULLIKEN ATOMIC CHARGES
-----------------------
   0 N :    0.091383
   1 C :   -0.114006
   2 C :   -0.230280
   3 C :    0.107526
   4 N :    0.000325
   5 N :   -0.095061
   6 C :    0.069100
   7 H :    0.021583
   8 H :    0.137891
   9 H :    0.011539
Sum of atomic charges:   -0.0000000

LOEWDIN ATOMIC CHARGES
----------------------
   0 N :   -0.057864
   1 C :   -0.040202
   2 C :   -0.136383
   3 C :    0.012849
   4 N :    0.151208
   5 N :   -0.076157
   6 C :   -0.014766
   7 H :    0.037653
   8 H :    0.091253
   9 H :    0.032408

  Mayer bond orders larger than 0.1
B(  0-N ,  1-C ) :   2.9990 B(  1-C ,  2-C ) :   1.1486 B(  2-C ,  3-C ) :   1.3912
B(  2-C ,  6-C ) :   1.2900 B(  3-C ,  4-N ) :   1.2619 B(  3-C ,  5-N ) :   0.1180
B(  3-C ,  7-H ) :   0.9878 B(  4-N ,  5-N ) :   1.1751 B(  4-N ,  8-H ) :   0.9432
B(  5-N ,  6-C ) :   1.6066 B(  6-C ,  9-H ) :   1.0000

FINAL SINGLE POINT ENERGY      -317.844453823251

DIPOLE MOMENT
-------------
                                X             Y             Z
Electronic contribution:     -1.37388      -0.18053      -0.00424
Nuclear contribution   :      2.99549       1.06694       0.00986
                        -----------------------------------------
Total Dipole Moment    :      1.62161       0.88642       0.00562
                        -----------------------------------------
Magnitude (a.u.)       :      1.84808
Magnitude (Debye)      :      4.69743

                             ****ORCA TERMINATED NORMALLY****
TOTAL RUN TIME: 0 days 0 hours 0 minutes 5 seconds 218 msec
