                         Program Version 3.0.3 - RELEASE   -
|  1> ! RI PBE def2-SVP def2-SVP/J NBO PAL2
|  2> % maxcore 2000
|  3> % output
|  4>     # printlevel mini
|  5>     print[ P_Basis ] 0
|  6>     print[ P_SCFInfo ] 1
|  7>     print[ P_SCFIterInfo ] 1
|  8>     print[ P_OrbEn ] 0
|  9>     print[ P_Cartesian ] 0
| 10> end
| 11> *xyz 0 1
| 12>  N        2.9063780000    -0.3451500000     1.5948790000
| 13>  C        2.3843790000    -0.1307920000     0.2517190000
| 14>  C        3.0081910000    -1.0918060000    -0.7180800000
| 15>  N        2.7228080000    -2.5098430000    -0.6247690000
| 16>  C        2.1690560000    -1.7504130000    -1.7513710000
| 17>  C        2.6913760000    -2.0768820000    -3.0856530000
| 18>  C        1.9979050000    -1.9599050000    -4.2105560000
| 19>  H        2.5178800000     0.3306100000     2.2407550000
| 20>  H        3.9120620000    -0.2225170000     1.6083190000
| 21>  H        2.5311400000     0.8923760000    -0.1293420000
| 22>  H        1.3031410000    -0.3060450000     0.2802040000
| 23>  H        4.0441220000    -0.8758780000    -0.9768620000
| 24>  H        2.0178270000    -2.6720360000     0.0877290000
| 25>  H        1.1097800000    -1.5029540000    -1.7196530000
| 26>  H        3.7175930000    -2.4359890000    -3.1087000000
| 27>  H        0.9680630000    -1.6160280000    -4.2088710000
| 28>  H        2.4325100000    -2.2043570000    -5.1721510000
| 29> *
| 30>
| 31>                          ****END OF INPUT****
 Total Charge           Charge          ....    0
 Multiplicity           Mult            ....    1
 Number of Electrons    NEL             ....   54
 Basis Dimension        Dim             ....  148

MULLIKEN ATOMIC CHARGES
-----------------------
   0 N :   -0.218796
   1 C :    0.153464
   2 C :   -0.056948
   3 N :   -0.145409
   4 C :   -0.084959
   5 C :    0.069659
   6 C :   -0.031573
   7 H :    0.090498
   8 H :    0.091426
   9 H :    0.002116
  10 H :   -0.011246
  11 H :    0.009163
  12 H :    0.109306
  13 H :    0.001053
  14 H :   -0.007943
  15 H :    0.011183
  16 H :    0.019006
Sum of atomic charges:   -0.0000000

LOEWDIN ATOMIC CHARGES
----------------------
   0 N :   -0.114608
   1 C :   -0.001240
   2 C :   -0.003979
   3 N :   -0.085882
   4 C :   -0.003747
   5 C :   -0.021996
   6 C :   -0.068124
   7 H :    0.053178
   8 H :    0.052685
   9 H :    0.006912
  10 H :    0.019120
  11 H :    0.016980
  12 H :    0.057230
  13 H :    0.016832
  14 H :    0.031244
  15 H :    0.020422
  16 H :    0.024972

  Mayer bond orders larger than 0.1
B(  0-N ,  1-C ) :   1.0635 B(  0-N ,  7-H ) :   0.9645 B(  0-N ,  8-H ) :   0.9681
B(  1-C ,  2-C ) :   1.0669 B(  1-C ,  9-H ) :   0.9142 B(  1-C , 10-H ) :   0.9093
B(  2-C ,  3-N ) :   0.9989 B(  2-C ,  4-C ) :   0.9661 B(  2-C , 11-H ) :   0.9160
B(  3-N ,  4-C ) :   0.9631 B(  3-N , 12-H ) :   0.9371 B(  4-C ,  5-C ) :   1.0629
B(  4-C , 13-H ) :   0.9375 B(  5-C ,  6-C ) :   1.9714 B(  5-C , 14-H ) :   0.9362
B(  6-C , 15-H ) :   0.9497 B(  6-C , 16-H ) :   0.9343

FINAL SINGLE POINT ENERGY      -305.361051592559

DIPOLE MOMENT
-------------
                                X             Y             Z
Electronic contribution:      0.72358      -2.04726      -0.01488
Nuclear contribution   :     -0.92892       2.93571       0.29888
                        -----------------------------------------
Total Dipole Moment    :     -0.20534       0.88845       0.28401
                        -----------------------------------------
Magnitude (a.u.)       :      0.95507
Magnitude (Debye)      :      2.42761

                             ****ORCA TERMINATED NORMALLY****
TOTAL RUN TIME: 0 days 0 hours 0 minutes 7 seconds 840 msec
