                         Program Version 3.0.3 - RELEASE   -
|  1> ! RI PBE def2-SVP def2-SVP/J NBO PAL2
|  2> % maxcore 2000
|  3> % output
|  4>     # printlevel mini
|  5>     print[ P_Basis ] 0
|  6>     print[ P_SCFInfo ] 1
|  7>     print[ P_SCFIterInfo ] 1
|  8>     print[ P_OrbEn ] 0
|  9>     print[ P_Cartesian ] 0
| 10> end
| 11> *xyz 0 1
| 12>  N        3.4768270000     0.3196660000     0.9611290000
| 13>  C        2.5055110000    -0.0470680000    -0.0505230000
| 14>  C        3.0329740000     0.2630430000    -1.4213810000
| 15>  N        2.1366120000     0.3142370000    -2.5597270000
| 16>  C        2.7068560000     1.5708360000    -2.0520380000
| 17>  C        3.6349910000     2.2719910000    -2.8912560000
| 18>  C        4.4173740000     2.8796000000    -3.5696390000
| 19>  H        3.1702790000     0.0378330000     1.8826440000
| 20>  H        3.6195000000     1.3217890000     0.9775010000
| 21>  H        1.5204620000     0.4414710000     0.0589000000
| 22>  H        2.3310920000    -1.1261570000     0.0225800000
| 23>  H        4.0060320000    -0.1635350000    -1.6452650000
| 24>  H        1.1706030000     0.2404730000    -2.2530260000
| 25>  H        2.0437230000     2.2149650000    -1.4783250000
| 26>  H        5.1107760000     3.4087850000    -4.1791640000
| 27> *
| 28>
| 29>                          ****END OF INPUT****
 Total Charge           Charge          ....    0
 Multiplicity           Mult            ....    1
 Number of Electrons    NEL             ....   52
 Basis Dimension        Dim             ....  138

MULLIKEN ATOMIC CHARGES
-----------------------
   0 N :   -0.202719
   1 C :    0.153626
   2 C :   -0.062170
   3 N :   -0.127429
   4 C :   -0.138041
   5 C :    0.498098
   6 C :   -0.472061
   7 H :    0.091037
   8 H :    0.093447
   9 H :   -0.031877
  10 H :    0.022753
  11 H :    0.030331
  12 H :    0.104860
  13 H :    0.038294
  14 H :    0.001850
Sum of atomic charges:    0.0000000

LOEWDIN ATOMIC CHARGES
----------------------
   0 N :   -0.103411
   1 C :    0.001180
   2 C :    0.008380
   3 N :   -0.074237
   4 C :   -0.020082
   5 C :   -0.017540
   6 C :   -0.073656
   7 H :    0.054513
   8 H :    0.053244
   9 H :   -0.004719
  10 H :    0.028935
  11 H :    0.029526
  12 H :    0.053430
  13 H :    0.029666
  14 H :    0.034772

  Mayer bond orders larger than 0.1
B(  0-N ,  1-C ) :   1.0951 B(  0-N ,  7-H ) :   0.9603 B(  0-N ,  8-H ) :   0.9701
B(  1-C ,  2-C ) :   1.0538 B(  1-C ,  9-H ) :   0.8941 B(  1-C , 10-H ) :   0.9224
B(  2-C ,  3-N ) :   0.9819 B(  2-C ,  4-C ) :   0.9716 B(  2-C , 11-H ) :   0.9293
B(  3-N ,  4-C ) :   1.0255 B(  3-N , 12-H ) :   0.9330 B(  4-C ,  5-C ) :   0.9477
B(  4-C , 13-H ) :   0.9171 B(  5-C ,  6-C ) :   2.2993 B(  5-C , 14-H ) :  -0.1039
B(  6-C , 14-H ) :   1.0939

FINAL SINGLE POINT ENERGY      -304.114471178409

DIPOLE MOMENT
-------------
                                X             Y             Z
Electronic contribution:      1.09161       1.94529      -4.45646
Nuclear contribution   :     -1.68049      -1.72771       5.43488
                        -----------------------------------------
Total Dipole Moment    :     -0.58889       0.21757       0.97841
                        -----------------------------------------
Magnitude (a.u.)       :      1.16250
Magnitude (Debye)      :      2.95485

                             ****ORCA TERMINATED NORMALLY****
TOTAL RUN TIME: 0 days 0 hours 0 minutes 6 seconds 866 msec
