                         Program Version 3.0.3 - RELEASE   -
|  1> ! RI PBE def2-SVP def2-SVP/J NBO PAL2
|  2> % maxcore 2000
|  3> % output
|  4>     # printlevel mini
|  5>     print[ P_Basis ] 0
|  6>     print[ P_SCFInfo ] 1
|  7>     print[ P_SCFIterInfo ] 1
|  8>     print[ P_OrbEn ] 0
|  9>     print[ P_Cartesian ] 0
| 10> end
| 11> *xyz 0 1
| 12>  N        0.9084800000     0.0132510000    -0.1619230000
| 13>  C        2.0545910000     0.0267630000    -0.0670100000
| 14>  C        3.4882020000     0.0141750000     0.0342420000
| 15>  N        4.2789300000    -0.7017190000    -0.9539260000
| 16>  C        4.2639840000     0.7505930000    -1.0106570000
| 17>  C        5.4794560000     1.4324940000    -0.6504070000
| 18>  N        6.4340520000     2.0024950000    -0.3600960000
| 19>  H        3.8796190000    -0.0223380000     1.0450110000
| 20>  H        3.6910870000    -1.0895540000    -1.6853860000
| 21>  H        3.6863900000     1.2431310000    -1.7865360000
| 22> *
| 23>
| 24>                          ****END OF INPUT****
 Total Charge           Charge          ....    0
 Multiplicity           Mult            ....    1
 Number of Electrons    NEL             ....   48
 Basis Dimension        Dim             ....  113

MULLIKEN ATOMIC CHARGES
-----------------------
   0 N :    0.078315
   1 C :   -0.095185
   2 C :   -0.084632
   3 N :   -0.087472
   4 C :   -0.170141
   5 C :   -0.037464
   6 N :    0.081568
   7 H :    0.088852
   8 H :    0.136402
   9 H :    0.089756
Sum of atomic charges:   -0.0000000

LOEWDIN ATOMIC CHARGES
----------------------
   0 N :   -0.031683
   1 C :   -0.055074
   2 C :    0.001958
   3 N :   -0.034126
   4 C :   -0.002403
   5 C :   -0.038748
   6 N :   -0.028299
   7 H :    0.059084
   8 H :    0.076045
   9 H :    0.053246

  Mayer bond orders larger than 0.1
B(  0-N ,  1-C ) :   3.0197 B(  1-C ,  2-C ) :   1.0749 B(  2-C ,  3-N ) :   1.0095
B(  2-C ,  4-C ) :   0.9993 B(  2-C ,  7-H ) :   0.9045 B(  3-N ,  4-C ) :   1.0944
B(  3-N ,  8-H ) :   0.9266 B(  4-C ,  5-C ) :   1.0593 B(  4-C ,  9-H ) :   0.9172
B(  5-C ,  6-N ) :   3.0508

FINAL SINGLE POINT ENERGY      -317.782215009301

DIPOLE MOMENT
-------------
                                X             Y             Z
Electronic contribution:     -0.00453       0.81703       0.50209
Nuclear contribution   :     -0.25431      -1.24581      -0.96314
                        -----------------------------------------
Total Dipole Moment    :     -0.25883      -0.42878      -0.46105
                        -----------------------------------------
Magnitude (a.u.)       :      0.68075
Magnitude (Debye)      :      1.73032

                             ****ORCA TERMINATED NORMALLY****
TOTAL RUN TIME: 0 days 0 hours 0 minutes 5 seconds 782 msec
