                         Program Version 3.0.3 - RELEASE   -
|  1> ! RI PBE def2-SVP def2-SVP/J NBO PAL2
|  2> % maxcore 2000
|  3> % output
|  4>     # printlevel mini
|  5>     print[ P_Basis ] 0
|  6>     print[ P_SCFInfo ] 1
|  7>     print[ P_SCFIterInfo ] 1
|  8>     print[ P_OrbEn ] 0
|  9>     print[ P_Cartesian ] 0
| 10> end
| 11> *xyz 0 1
| 12>  N        1.0546540000     0.2316100000    -0.6338010000
| 13>  C        2.1478070000     0.1642200000    -0.2848680000
| 14>  C        3.5601040000     0.0982660000     0.1275150000
| 15>  N        3.8485530000    -1.1003960000     0.9009290000
| 16>  C        4.6558270000    -0.7563860000     2.0683230000
| 17>  C        4.5517110000     0.7311440000     2.1306050000
| 18>  C        3.9389300000     1.2167120000     1.0635650000
| 19>  H        4.1480590000     0.1721800000    -0.8027650000
| 20>  H        4.2346790000    -1.8438650000     0.3418300000
| 21>  H        5.7071120000    -1.0682980000     1.9726200000
| 22>  H        4.2643820000    -1.2324630000     2.9756980000
| 23>  H        4.9405840000     1.3157800000     2.9541750000
| 24>  H        3.7253970000     2.2535070000     0.8438640000
| 25> *
| 26>
| 27>                          ****END OF INPUT****
 Total Charge           Charge          ....    0
 Multiplicity           Mult            ....    1
 Number of Electrons    NEL             ....   50
 Basis Dimension        Dim             ....  128

MULLIKEN ATOMIC CHARGES
-----------------------
   0 N :    0.047878
   1 C :   -0.165357
   2 C :    0.069039
   3 N :   -0.258735
   4 C :    0.206146
   5 C :   -0.097796
   6 C :   -0.034269
   7 H :    0.045364
   8 H :    0.107864
   9 H :    0.020258
  10 H :    0.027789
  11 H :    0.014515
  12 H :    0.017303
Sum of atomic charges:   -0.0000000

LOEWDIN ATOMIC CHARGES
----------------------
   0 N :   -0.064050
   1 C :   -0.047423
   2 C :   -0.005640
   3 N :   -0.080910
   4 C :    0.026340
   5 C :   -0.021493
   6 C :   -0.023536
   7 H :    0.040755
   8 H :    0.061397
   9 H :    0.020592
  10 H :    0.026117
  11 H :    0.032983
  12 H :    0.034868

  Mayer bond orders larger than 0.1
B(  0-N ,  1-C ) :   3.0934 B(  1-C ,  2-C ) :   1.0058 B(  2-C ,  3-N ) :   1.1391
B(  2-C ,  6-C ) :   1.0078 B(  2-C ,  7-H ) :   0.8730 B(  3-N ,  4-C ) :   1.0331
B(  3-N ,  8-H ) :   0.9420 B(  4-C ,  5-C ) :   1.0272 B(  4-C ,  9-H ) :   0.9172
B(  4-C , 10-H ) :   0.9224 B(  5-C ,  6-C ) :   1.8761 B(  5-C , 11-H ) :   0.9849
B(  6-C , 12-H ) :   0.9935

FINAL SINGLE POINT ENERGY      -302.984661273636

DIPOLE MOMENT
-------------
                                X             Y             Z
Electronic contribution:     -4.25167       0.62013      -2.91788
Nuclear contribution   :      6.05799      -0.67594       3.37541
                        -----------------------------------------
Total Dipole Moment    :      1.80633      -0.05581       0.45753
                        -----------------------------------------
Magnitude (a.u.)       :      1.86421
Magnitude (Debye)      :      4.73844

                             ****ORCA TERMINATED NORMALLY****
TOTAL RUN TIME: 0 days 0 hours 0 minutes 6 seconds 350 msec
