                         Program Version 3.0.3 - RELEASE   -
|  1> ! RI PBE def2-SVP def2-SVP/J NBO PAL2
|  2> % maxcore 2000
|  3> % output
|  4>     # printlevel mini
|  5>     print[ P_Basis ] 0
|  6>     print[ P_SCFInfo ] 1
|  7>     print[ P_SCFIterInfo ] 1
|  8>     print[ P_OrbEn ] 0
|  9>     print[ P_Cartesian ] 0
| 10> end
| 11> *xyz 0 1
| 12>  N        2.5602280000     0.3677000000     1.5064410000
| 13>  C        2.4440810000     0.0455170000     0.0938440000
| 14>  C        2.9941980000     1.1312540000    -0.8234290000
| 15>  N        2.8416700000     0.7913400000    -2.2294040000
| 16>  C        2.5198240000     2.5872830000    -0.6035220000
| 17>  C        3.9672810000     3.0577820000    -0.8393720000
| 18>  C        4.4353280000     1.6167890000    -0.5659540000
| 19>  H        2.4335360000    -0.4588220000     2.0750090000
| 20>  H        1.8475290000     1.0289760000     1.7866420000
| 21>  H        1.4103810000    -0.1747210000    -0.2252660000
| 22>  H        3.0245820000    -0.8661900000    -0.0912650000
| 23>  H        1.8658090000     0.6226130000    -2.4497800000
| 24>  H        3.3477710000    -0.0615520000    -2.4426350000
| 25>  H        2.2087810000     2.7652520000     0.4280050000
| 26>  H        1.7442340000     2.9497330000    -1.2811960000
| 27>  H        4.3495130000     3.8412020000    -0.1838280000
| 28>  H        4.1296460000     3.3460600000    -1.8774160000
| 29>  H        4.7035160000     1.4666030000     0.4807930000
| 30>  H        5.2088730000     1.1979110000    -1.2131450000
| 31> *
| 32>
| 33>                          ****END OF INPUT****
 Total Charge           Charge          ....    0
 Multiplicity           Mult            ....    1
 Number of Electrons    NEL             ....   56
 Basis Dimension        Dim             ....  158

MULLIKEN ATOMIC CHARGES
-----------------------
   0 N :   -0.200212
   1 C :    0.163674
   2 C :   -0.381287
   3 N :   -0.134826
   4 C :    0.121281
   5 C :    0.008039
   6 C :    0.141427
   7 H :    0.090950
   8 H :    0.089004
   9 H :   -0.027645
  10 H :   -0.015192
  11 H :    0.081394
  12 H :    0.084134
  13 H :   -0.019115
  14 H :   -0.003211
  15 H :    0.002310
  16 H :    0.011625
  17 H :   -0.001897
  18 H :   -0.010454
Sum of atomic charges:   -0.0000000

LOEWDIN ATOMIC CHARGES
----------------------
   0 N :   -0.104919
   1 C :   -0.010236
   2 C :   -0.030977
   3 N :   -0.079712
   4 C :   -0.028607
   5 C :   -0.027265
   6 C :   -0.025497
   7 H :    0.054617
   8 H :    0.048386
   9 H :   -0.006134
  10 H :    0.016563
  11 H :    0.045295
  12 H :    0.047757
  13 H :    0.015654
  14 H :    0.014144
  15 H :    0.014235
  16 H :    0.024218
  17 H :    0.020633
  18 H :    0.011845

  Mayer bond orders larger than 0.1
B(  0-N ,  1-C ) :   1.0931 B(  0-N ,  7-H ) :   0.9604 B(  0-N ,  8-H ) :   0.9640
B(  1-C ,  2-C ) :   1.0036 B(  1-C ,  9-H ) :   0.9164 B(  1-C , 10-H ) :   0.9182
B(  2-C ,  3-N ) :   1.0380 B(  2-C ,  4-C ) :   1.0635 B(  2-C ,  6-C ) :   1.0552
B(  3-N , 11-H ) :   0.9642 B(  3-N , 12-H ) :   0.9657 B(  4-C ,  5-C ) :   1.1340
B(  4-C , 13-H ) :   0.9053 B(  4-C , 14-H ) :   0.9205 B(  5-C ,  6-C ) :   1.1357
B(  5-C , 15-H ) :   0.9317 B(  5-C , 16-H ) :   0.9261 B(  6-C , 17-H ) :   0.9009
B(  6-C , 18-H ) :   0.9213

FINAL SINGLE POINT ENERGY      -306.592063367416

DIPOLE MOMENT
-------------
                                X             Y             Z
Electronic contribution:      0.05994      -0.30284      -0.45083
Nuclear contribution   :     -0.67337      -0.30978       0.71680
                        -----------------------------------------
Total Dipole Moment    :     -0.61344      -0.61262       0.26597
                        -----------------------------------------
Magnitude (a.u.)       :      0.90684
Magnitude (Debye)      :      2.30499

                             ****ORCA TERMINATED NORMALLY****
TOTAL RUN TIME: 0 days 0 hours 0 minutes 8 seconds 136 msec
