                         Program Version 3.0.3 - RELEASE   -
|  1> ! RI PBE def2-SVP def2-SVP/J NBO PAL2
|  2> % maxcore 2000
|  3> % output
|  4>     # printlevel mini
|  5>     print[ P_Basis ] 0
|  6>     print[ P_SCFInfo ] 1
|  7>     print[ P_SCFIterInfo ] 1
|  8>     print[ P_OrbEn ] 0
|  9>     print[ P_Cartesian ] 0
| 10> end
| 11> *xyz 0 1
| 12>  N        3.0593450000     1.3503340000    -0.5101020000
| 13>  C        2.3446820000     0.1835040000    -0.0163990000
| 14>  C        2.9855560000    -1.0978110000    -0.5407520000
| 15>  N        2.2388750000    -2.2809550000    -0.1140670000
| 16>  C        3.1666640000    -3.3279850000     0.3079920000
| 17>  C        4.4543500000    -2.5876950000     0.4787680000
| 18>  C        4.3567140000    -1.3549430000     0.0025960000
| 19>  H        2.7365160000     2.1906410000    -0.0490680000
| 20>  H        2.8932840000     1.4772230000    -1.5013960000
| 21>  H        1.2754270000     0.1637300000    -0.2784380000
| 22>  H        2.4025260000     0.1688360000     1.0753420000
| 23>  H        3.0409630000    -1.0095810000    -1.6430600000
| 24>  H        1.5874110000    -2.6006690000    -0.8137680000
| 25>  H        3.2781980000    -4.1368130000    -0.4332480000
| 26>  H        2.8343880000    -3.8026140000     1.2404010000
| 27>  H        5.3333100000    -3.0299270000     0.9309660000
| 28>  H        5.1287920000    -0.5977750000    -0.0103560000
| 29> *
| 30>
| 31>                          ****END OF INPUT****
 Total Charge           Charge          ....    0
 Multiplicity           Mult            ....    1
 Number of Electrons    NEL             ....   54
 Basis Dimension        Dim             ....  148

MULLIKEN ATOMIC CHARGES
-----------------------
   0 N :   -0.211117
   1 C :    0.128204
   2 C :    0.038883
   3 N :   -0.263197
   4 C :    0.193866
   5 C :   -0.107668
   6 C :   -0.040072
   7 H :    0.089074
   8 H :    0.085434
   9 H :   -0.016207
  10 H :    0.003322
  11 H :   -0.006284
  12 H :    0.094506
  13 H :    0.008349
  14 H :    0.012137
  15 H :   -0.005547
  16 H :   -0.003683
Sum of atomic charges:   -0.0000000

LOEWDIN ATOMIC CHARGES
----------------------
   0 N :   -0.112171
   1 C :   -0.000014
   2 C :    0.002867
   3 N :   -0.097153
   4 C :    0.019514
   5 C :   -0.042925
   6 C :   -0.027869
   7 H :    0.053766
   8 H :    0.049138
   9 H :   -0.003114
  10 H :    0.020759
  11 H :    0.006508
  12 H :    0.052305
  13 H :    0.012331
  14 H :    0.017240
  15 H :    0.022964
  16 H :    0.025854

  Mayer bond orders larger than 0.1
B(  0-N ,  1-C ) :   1.0839 B(  0-N ,  7-H ) :   0.9645 B(  0-N ,  8-H ) :   0.9676
B(  1-C ,  2-C ) :   1.0222 B(  1-C ,  9-H ) :   0.9272 B(  1-C , 10-H ) :   0.9217
B(  2-C ,  3-N ) :   1.0395 B(  2-C ,  6-C ) :   0.9954 B(  2-C , 11-H ) :   0.8928
B(  3-N ,  4-C ) :   1.0429 B(  3-N , 12-H ) :   0.9405 B(  4-C ,  5-C ) :   1.0209
B(  4-C , 13-H ) :   0.9123 B(  4-C , 14-H ) :   0.9240 B(  5-C ,  6-C ) :   1.8593
B(  5-C , 15-H ) :   0.9877 B(  6-C , 16-H ) :   0.9980

FINAL SINGLE POINT ENERGY      -305.391762484444

DIPOLE MOMENT
-------------
                                X             Y             Z
Electronic contribution:      0.97307      -1.16811       0.22916
Nuclear contribution   :     -1.28607       1.24267      -0.68161
                        -----------------------------------------
Total Dipole Moment    :     -0.31301       0.07456      -0.45246
                        -----------------------------------------
Magnitude (a.u.)       :      0.55520
Magnitude (Debye)      :      1.41122

                             ****ORCA TERMINATED NORMALLY****
TOTAL RUN TIME: 0 days 0 hours 0 minutes 7 seconds 864 msec
