                         Program Version 3.0.3 - RELEASE   -
|  1> ! RI PBE def2-SVP def2-SVP/J NBO PAL2
|  2> % maxcore 2000
|  3> % output
|  4>     # printlevel mini
|  5>     print[ P_Basis ] 0
|  6>     print[ P_SCFInfo ] 1
|  7>     print[ P_SCFIterInfo ] 1
|  8>     print[ P_OrbEn ] 0
|  9>     print[ P_Cartesian ] 0
| 10> end
| 11> *xyz 0 1
| 12>  N        1.1618370000     0.1829800000     0.1629630000
| 13>  C        2.3037450000     0.0935350000     0.0692090000
| 14>  C        3.7349150000     0.0357370000    -0.0530000000
| 15>  N        4.3899420000    -1.0568910000    -0.0167530000
| 16>  C        5.7957190000    -0.6790980000    -0.1743010000
| 17>  C        5.8449000000     0.8674720000    -0.3127960000
| 18>  N        4.4342750000     1.1922780000    -0.2151180000
| 19>  H        6.2062470000    -1.1838610000    -1.0522860000
| 20>  H        6.3609860000    -1.0326070000     0.6915480000
| 21>  H        6.2630630000     1.1883830000    -1.2709660000
| 22>  H        6.4199800000     1.3409140000     0.4878610000
| 23>  H        4.0322910000     2.1092670000    -0.2589700000
| 24> *
| 25>
| 26>                          ****END OF INPUT****
 Total Charge           Charge          ....    0
 Multiplicity           Mult            ....    1
 Number of Electrons    NEL             ....   50
 Basis Dimension        Dim             ....  123

MULLIKEN ATOMIC CHARGES
-----------------------
   0 N :    0.114283
   1 C :   -0.068569
   2 C :   -0.169135
   3 N :   -0.164617
   4 C :    0.078317
   5 C :    0.118872
   6 N :   -0.158007
   7 H :    0.039298
   8 H :    0.039644
   9 H :    0.027637
  10 H :    0.032125
  11 H :    0.110154
Sum of atomic charges:   -0.0000000

LOEWDIN ATOMIC CHARGES
----------------------
   0 N :   -0.026427
   1 C :   -0.034350
   2 C :   -0.033672
   3 N :   -0.123685
   4 C :    0.012460
   5 C :    0.023789
   6 N :   -0.005984
   7 H :    0.032446
   8 H :    0.032296
   9 H :    0.021834
  10 H :    0.022952
  11 H :    0.078341

  Mayer bond orders larger than 0.1
B(  0-N ,  1-C ) :   3.0579 B(  1-C ,  2-C ) :   1.0653 B(  2-C ,  3-N ) :   1.8665
B(  2-C ,  6-N ) :   1.2369 B(  3-N ,  4-C ) :   1.0398 B(  3-N ,  6-N ) :   0.1573
B(  4-C ,  5-C ) :   1.0650 B(  4-C ,  7-H ) :   0.9362 B(  4-C ,  8-H ) :   0.9369
B(  5-C ,  6-N ) :   0.9854 B(  5-C ,  9-H ) :   0.9420 B(  5-C , 10-H ) :   0.9421
B(  6-N , 11-H ) :   0.9320

FINAL SINGLE POINT ENERGY      -319.029584713644

DIPOLE MOMENT
-------------
                                X             Y             Z
Electronic contribution:     -6.99046      -0.62786       0.67620
Nuclear contribution   :      8.63239       1.74369      -0.91875
                        -----------------------------------------
Total Dipole Moment    :      1.64193       1.11583      -0.24255
                        -----------------------------------------
Magnitude (a.u.)       :      1.99996
Magnitude (Debye)      :      5.08351

                             ****ORCA TERMINATED NORMALLY****
TOTAL RUN TIME: 0 days 0 hours 0 minutes 5 seconds 997 msec
