                         Program Version 3.0.3 - RELEASE   -
|  1> ! RI PBE def2-SVP def2-SVP/J NBO PAL2
|  2> % maxcore 2000
|  3> % output
|  4>     # printlevel mini
|  5>     print[ P_Basis ] 0
|  6>     print[ P_SCFInfo ] 1
|  7>     print[ P_SCFIterInfo ] 1
|  8>     print[ P_OrbEn ] 0
|  9>     print[ P_Cartesian ] 0
| 10> end
| 11> *xyz 0 1
| 12>  N        0.9575480000    -0.0989900000    -0.0657640000
| 13>  C        2.1073940000    -0.0346820000    -0.0702860000
| 14>  C        3.5245750000    -0.0086470000    -0.0745420000
| 15>  N        4.2865910000     1.0612890000    -0.0794830000
| 16>  C        5.5606960000     0.5925030000    -0.0821410000
| 17>  C        5.5718900000    -0.7789760000    -0.0786590000
| 18>  N        4.2649480000    -1.1507650000    -0.0737950000
| 19>  H        6.4070830000     1.2612030000    -0.0863870000
| 20>  H        6.3743690000    -1.4977880000    -0.0792280000
| 21>  H        3.9037060000    -2.0897380000    -0.0703150000
| 22> *
| 23>
| 24>                          ****END OF INPUT****
 Total Charge           Charge          ....    0
 Multiplicity           Mult            ....    1
 Number of Electrons    NEL             ....   48
 Basis Dimension        Dim             ....  113

MULLIKEN ATOMIC CHARGES
-----------------------
   0 N :    0.126665
   1 C :   -0.085052
   2 C :   -0.184820
   3 N :   -0.083376
   4 C :    0.034533
   5 C :    0.053736
   6 N :   -0.004388
   7 H :    0.002618
   8 H :    0.014570
   9 H :    0.125513
Sum of atomic charges:   -0.0000000

LOEWDIN ATOMIC CHARGES
----------------------
   0 N :   -0.037163
   1 C :   -0.050314
   2 C :   -0.059431
   3 N :   -0.070585
   4 C :   -0.035859
   5 C :   -0.023413
   6 N :    0.121718
   7 H :    0.026403
   8 H :    0.030892
   9 H :    0.097754

  Mayer bond orders larger than 0.1
B(  0-N ,  1-C ) :   3.0255 B(  1-C ,  2-C ) :   1.1095 B(  2-C ,  3-N ) :   1.6535
B(  2-C ,  5-C ) :   0.1154 B(  2-C ,  6-N ) :   1.2694 B(  3-N ,  4-C ) :   1.4086
B(  4-C ,  5-C ) :   1.4410 B(  4-C ,  7-H ) :   0.9892 B(  5-C ,  6-N ) :   1.2256
B(  5-C ,  8-H ) :   0.9748 B(  6-N ,  9-H ) :   0.9290

FINAL SINGLE POINT ENERGY      -317.856786018456

DIPOLE MOMENT
-------------
                                X             Y             Z
Electronic contribution:     -3.47038       0.53178       0.00883
Nuclear contribution   :      5.01998      -1.94800      -0.01037
                        -----------------------------------------
Total Dipole Moment    :      1.54960      -1.41622      -0.00154
                        -----------------------------------------
Magnitude (a.u.)       :      2.09927
Magnitude (Debye)      :      5.33592

                             ****ORCA TERMINATED NORMALLY****
TOTAL RUN TIME: 0 days 0 hours 0 minutes 5 seconds 235 msec
