                         Program Version 3.0.3 - RELEASE   -
|  1> ! RI PBE def2-SVP def2-SVP/J NBO PAL2
|  2> % maxcore 2000
|  3> % output
|  4>     # printlevel mini
|  5>     print[ P_Basis ] 0
|  6>     print[ P_SCFInfo ] 1
|  7>     print[ P_SCFIterInfo ] 1
|  8>     print[ P_OrbEn ] 0
|  9>     print[ P_Cartesian ] 0
| 10> end
| 11> *xyz 0 1
| 12>  N        1.1323970000    -0.0310010000     0.3586000000
| 13>  C        2.2791010000    -0.0330770000     0.2297650000
| 14>  C        3.6786620000     0.0584890000     0.0735830000
| 15>  N        4.4266380000    -0.9880990000    -0.0217680000
| 16>  N        5.6838130000    -0.6130740000    -0.1586970000
| 17>  C        5.8928210000     0.8283330000    -0.1667710000
| 18>  C        4.4548310000     1.3548430000     0.0006050000
| 19>  H        6.3869980000    -1.3211420000    -0.2456760000
| 20>  H        6.3490870000     1.1537720000    -1.1057790000
| 21>  H        6.5470970000     1.1349170000     0.6540450000
| 22>  H        4.1305030000     1.9692130000    -0.8417460000
| 23>  H        4.3269420000     1.9500160000     0.9070390000
| 24> *
| 25>
| 26>                          ****END OF INPUT****
 Total Charge           Charge          ....    0
 Multiplicity           Mult            ....    1
 Number of Electrons    NEL             ....   50
 Basis Dimension        Dim             ....  123

MULLIKEN ATOMIC CHARGES
-----------------------
   0 N :    0.070078
   1 C :   -0.078622
   2 C :   -0.321464
   3 N :   -0.012267
   4 N :   -0.135997
   5 C :    0.154078
   6 C :    0.022477
   7 H :    0.124901
   8 H :    0.035553
   9 H :    0.038948
  10 H :    0.051364
  11 H :    0.050951
Sum of atomic charges:   -0.0000000

LOEWDIN ATOMIC CHARGES
----------------------
   0 N :   -0.065033
   1 C :   -0.053323
   2 C :   -0.126254
   3 N :    0.005166
   4 N :    0.035215
   5 C :    0.025184
   6 C :   -0.035657
   7 H :    0.072220
   8 H :    0.027295
   9 H :    0.028089
  10 H :    0.043614
  11 H :    0.043483

  Mayer bond orders larger than 0.1
B(  0-N ,  1-C ) :   2.9713 B(  1-C ,  2-C ) :   1.2034 B(  2-C ,  3-N ) :   1.7719
B(  2-C ,  4-N ) :   0.1764 B(  2-C ,  6-C ) :   1.0486 B(  3-N ,  4-N ) :   1.1881
B(  4-N ,  5-C ) :   0.9488 B(  4-N ,  7-H ) :   0.9488 B(  5-C ,  6-C ) :   1.0988
B(  5-C ,  8-H ) :   0.9381 B(  5-C ,  9-H ) :   0.9379 B(  6-C , 10-H ) :   0.9197
B(  6-C , 11-H ) :   0.9197

FINAL SINGLE POINT ENERGY      -319.014070839445

DIPOLE MOMENT
-------------
                                X             Y             Z
Electronic contribution:     -4.81740      -3.53570       0.50330
Nuclear contribution   :      7.21507       4.15042      -0.76558
                        -----------------------------------------
Total Dipole Moment    :      2.39767       0.61473      -0.26227
                        -----------------------------------------
Magnitude (a.u.)       :      2.48907
Magnitude (Debye)      :      6.32672

                             ****ORCA TERMINATED NORMALLY****
TOTAL RUN TIME: 0 days 0 hours 0 minutes 5 seconds 799 msec
