                         Program Version 3.0.3 - RELEASE   -
|  1> ! RI PBE def2-SVP def2-SVP/J NBO PAL2
|  2> % maxcore 2000
|  3> % output
|  4>     # printlevel mini
|  5>     print[ P_Basis ] 0
|  6>     print[ P_SCFInfo ] 1
|  7>     print[ P_SCFIterInfo ] 1
|  8>     print[ P_OrbEn ] 0
|  9>     print[ P_Cartesian ] 0
| 10> end
| 11> *xyz 0 1
| 12>  N        0.9464380000     0.0662390000    -0.0311580000
| 13>  C        2.0972430000     0.0401620000    -0.0288430000
| 14>  C        3.5147350000    -0.0663940000    -0.0254150000
| 15>  N        4.2850370000     0.9630810000    -0.0199590000
| 16>  N        5.6233010000     0.5193040000    -0.0184200000
| 17>  C        5.6356820000    -0.7603740000    -0.0229940000
| 18>  C        4.2743430000    -1.3451470000    -0.0297000000
| 19>  H        6.5688060000    -1.3110090000    -0.0230940000
| 20>  H        4.0656620000    -1.9683080000     0.8468770000
| 21>  H        4.0703540000    -1.9600540000    -0.9131940000
| 22> *
| 23>
| 24>                          ****END OF INPUT****
 Total Charge           Charge          ....    0
 Multiplicity           Mult            ....    1
 Number of Electrons    NEL             ....   48
 Basis Dimension        Dim             ....  113

MULLIKEN ATOMIC CHARGES
-----------------------
   0 N :    0.113468
   1 C :   -0.047230
   2 C :   -0.274559
   3 N :   -0.040730
   4 N :   -0.068067
   5 C :    0.038144
   6 C :    0.055464
   7 H :    0.028015
   8 H :    0.097709
   9 H :    0.097786
Sum of atomic charges:   -0.0000000

LOEWDIN ATOMIC CHARGES
----------------------
   0 N :   -0.016994
   1 C :   -0.036600
   2 C :   -0.056974
   3 N :   -0.013080
   4 N :   -0.037614
   5 C :    0.018400
   6 C :   -0.054333
   7 H :    0.034091
   8 H :    0.081514
   9 H :    0.081590

  Mayer bond orders larger than 0.1
B(  0-N ,  1-C ) :   2.9964 B(  1-C ,  2-C ) :   1.1308 B(  2-C ,  3-N ) :   1.8489
B(  2-C ,  6-C ) :   1.0403 B(  3-N ,  4-N ) :   1.0342 B(  4-N ,  5-C ) :   1.8523
B(  5-C ,  6-C ) :   1.0173 B(  5-C ,  7-H ) :   0.9662 B(  6-C ,  8-H ) :   0.8810
B(  6-C ,  9-H ) :   0.8810

FINAL SINGLE POINT ENERGY      -317.793034095358

DIPOLE MOMENT
-------------
                                X             Y             Z
Electronic contribution:     -2.22002       2.90003       0.00756
Nuclear contribution   :      3.11083      -4.62731      -0.01284
                        -----------------------------------------
Total Dipole Moment    :      0.89081      -1.72728      -0.00528
                        -----------------------------------------
Magnitude (a.u.)       :      1.94346
Magnitude (Debye)      :      4.93989

                             ****ORCA TERMINATED NORMALLY****
TOTAL RUN TIME: 0 days 0 hours 0 minutes 5 seconds 668 msec
