                         Program Version 3.0.3 - RELEASE   -
|  1> ! RI PBE def2-SVP def2-SVP/J NBO PAL2
|  2> % maxcore 2000
|  3> % output
|  4>     # printlevel mini
|  5>     print[ P_Basis ] 0
|  6>     print[ P_SCFInfo ] 1
|  7>     print[ P_SCFIterInfo ] 1
|  8>     print[ P_OrbEn ] 0
|  9>     print[ P_Cartesian ] 0
| 10> end
| 11> *xyz 0 1
| 12>  N        1.0354950000    -0.7341720000     0.4945760000
| 13>  C        2.4633460000    -0.4796560000     0.3707550000
| 14>  C        3.0781490000    -1.3792820000    -0.6875300000
| 15>  C        4.5464370000    -1.1333000000    -0.8932870000
| 16>  C        5.5599970000    -1.7484590000     0.0378510000
| 17>  C        5.4610830000    -2.2279910000    -1.3700200000
| 18>  N        6.5595200000    -2.0169520000    -2.2670000000
| 19>  H        0.6190080000    -0.1157000000     1.1790810000
| 20>  H        0.8754760000    -1.6802210000     0.8205910000
| 21>  H        3.0226380000    -0.6045700000     1.3115710000
| 22>  H        2.5929310000     0.5651640000     0.0686540000
| 23>  H        2.5300410000    -1.2393060000    -1.6254710000
| 24>  H        2.9292370000    -2.4276100000    -0.3963560000
| 25>  H        4.8013140000    -0.1404460000    -1.2570500000
| 26>  H        5.2019110000    -2.3944940000     0.8311950000
| 27>  H        6.4315230000    -1.1612360000     0.3059760000
| 28>  H        4.9914210000    -3.1990720000    -1.5042150000
| 29>  H        7.1484260000    -1.2584310000    -1.9489910000
| 30>  H        6.2316680000    -1.7794570000    -3.1955300000
| 31> *
| 32>
| 33>                          ****END OF INPUT****
 Total Charge           Charge          ....    0
 Multiplicity           Mult            ....    1
 Number of Electrons    NEL             ....   56
 Basis Dimension        Dim             ....  158

MULLIKEN ATOMIC CHARGES
-----------------------
   0 N :   -0.205683
   1 C :    0.060952
   2 C :    0.079977
   3 C :   -0.121967
   4 C :   -0.000429
   5 C :   -0.077526
   6 N :   -0.120568
   7 H :    0.086278
   8 H :    0.083823
   9 H :   -0.010371
  10 H :   -0.000515
  11 H :    0.010426
  12 H :   -0.015614
  13 H :   -0.002125
  14 H :    0.028072
  15 H :    0.022609
  16 H :    0.013660
  17 H :    0.076248
  18 H :    0.092755
Sum of atomic charges:   -0.0000000

LOEWDIN ATOMIC CHARGES
----------------------
   0 N :   -0.114684
   1 C :    0.005140
   2 C :   -0.039810
   3 C :   -0.062524
   4 C :   -0.050655
   5 C :   -0.006185
   6 N :   -0.085876
   7 H :    0.051627
   8 H :    0.047998
   9 H :   -0.002185
  10 H :    0.018213
  11 H :    0.027033
  12 H :    0.019596
  13 H :    0.018471
  14 H :    0.025223
  15 H :    0.024511
  16 H :    0.018907
  17 H :    0.050370
  18 H :    0.054831

  Mayer bond orders larger than 0.1
B(  0-N ,  1-C ) :   1.0879 B(  0-N ,  7-H ) :   0.9644 B(  0-N ,  8-H ) :   0.9696
B(  1-C ,  2-C ) :   1.0844 B(  1-C ,  9-H ) :   0.9359 B(  1-C , 10-H ) :   0.9297
B(  2-C ,  3-C ) :   1.0668 B(  2-C , 11-H ) :   0.9229 B(  2-C , 12-H ) :   0.9170
B(  3-C ,  4-C ) :   0.9727 B(  3-C ,  5-C ) :   0.8976 B(  3-C , 13-H ) :   0.9345
B(  4-C ,  5-C ) :   1.0171 B(  4-C , 14-H ) :   0.9396 B(  4-C , 15-H ) :   0.9382
B(  5-C ,  6-N ) :   1.1591 B(  5-C , 16-H ) :   0.9356 B(  6-N , 17-H ) :   0.9602
B(  6-N , 18-H ) :   0.9697

FINAL SINGLE POINT ENERGY      -306.583475832437

DIPOLE MOMENT
-------------
                                X             Y             Z
Electronic contribution:      1.31775      -0.64762      -1.38752
Nuclear contribution   :     -1.37763       1.00643       1.75622
                        -----------------------------------------
Total Dipole Moment    :     -0.05988       0.35881       0.36869
                        -----------------------------------------
Magnitude (a.u.)       :      0.51795
Magnitude (Debye)      :      1.31652

                             ****ORCA TERMINATED NORMALLY****
TOTAL RUN TIME: 0 days 0 hours 0 minutes 7 seconds 651 msec
