                         Program Version 3.0.3 - RELEASE   -
|  1> ! RI PBE def2-SVP def2-SVP/J NBO PAL2
|  2> % maxcore 2000
|  3> % output
|  4>     # printlevel mini
|  5>     print[ P_Basis ] 0
|  6>     print[ P_SCFInfo ] 1
|  7>     print[ P_SCFIterInfo ] 1
|  8>     print[ P_OrbEn ] 0
|  9>     print[ P_Cartesian ] 0
| 10> end
| 11> *xyz 0 1
| 12>  N        1.1829280000    -2.7576790000    -0.0952800000
| 13>  C        2.5662850000    -2.7902580000     0.3572820000
| 14>  C        3.3849150000    -1.7186340000    -0.3383500000
| 15>  C        4.8296470000    -1.6870160000     0.1040110000
| 16>  C        5.7771800000    -2.8447330000    -0.2834650000
| 17>  C        6.8973100000    -1.8068440000    -0.4812760000
| 18>  C        5.8084210000    -0.7243590000    -0.5988840000
| 19>  H        0.6347520000    -3.4667110000     0.3754280000
| 20>  H        1.1353760000    -2.9623250000    -1.0866110000
| 21>  H        3.0560420000    -3.7668220000     0.2108390000
| 22>  H        2.5713450000    -2.5986890000     1.4359140000
| 23>  H        2.9136440000    -0.7458130000    -0.1597430000
| 24>  H        3.3494000000    -1.8854050000    -1.4239420000
| 25>  H        4.8815260000    -1.5269330000     1.1876570000
| 26>  H        5.4744530000    -3.2879190000    -1.2372610000
| 27>  H        5.9388780000    -3.6478730000     0.4377500000
| 28>  H        7.5782170000    -1.9423190000    -1.3229320000
| 29>  H        7.4900050000    -1.6803060000     0.4275590000
| 30>  H        5.5144410000    -0.5689030000    -1.6410830000
| 31>  H        5.9923350000     0.2489220000    -0.1401130000
| 32> *
| 33>
| 34>                          ****END OF INPUT****
 Total Charge           Charge          ....    0
 Multiplicity           Mult            ....    1
 Number of Electrons    NEL             ....   56
 Basis Dimension        Dim             ....  163

MULLIKEN ATOMIC CHARGES
-----------------------
   0 N :   -0.204226
   1 C :    0.058061
   2 C :    0.064770
   3 C :   -0.225188
   4 C :    0.042627
   5 C :   -0.029112
   6 C :    0.074554
   7 H :    0.085529
   8 H :    0.085633
   9 H :   -0.009471
  10 H :    0.003013
  11 H :    0.011006
  12 H :   -0.013688
  13 H :    0.006833
  14 H :    0.000580
  15 H :    0.014165
  16 H :    0.011400
  17 H :    0.016688
  18 H :   -0.001548
  19 H :    0.008372
Sum of atomic charges:    0.0000000

LOEWDIN ATOMIC CHARGES
----------------------
   0 N :   -0.114194
   1 C :    0.004933
   2 C :   -0.049007
   3 C :   -0.036272
   4 C :   -0.036238
   5 C :   -0.036589
   6 C :   -0.029101
   7 H :    0.051568
   8 H :    0.048497
   9 H :   -0.001785
  10 H :    0.019289
  11 H :    0.027085
  12 H :    0.016389
  13 H :    0.024174
  14 H :    0.020686
  15 H :    0.014332
  16 H :    0.015919
  17 H :    0.024104
  18 H :    0.021588
  19 H :    0.014623

  Mayer bond orders larger than 0.1
B(  0-N ,  1-C ) :   1.0908 B(  0-N ,  7-H ) :   0.9640 B(  0-N ,  8-H ) :   0.9694
B(  1-C ,  2-C ) :   1.0979 B(  1-C ,  9-H ) :   0.9336 B(  1-C , 10-H ) :   0.9280
B(  2-C ,  3-C ) :   1.0667 B(  2-C , 11-H ) :   0.9221 B(  2-C , 12-H ) :   0.9116
B(  3-C ,  4-C ) :   1.0717 B(  3-C ,  6-C ) :   1.0761 B(  3-C , 13-H ) :   0.9067
B(  4-C ,  5-C ) :   1.1181 B(  4-C , 14-H ) :   0.9186 B(  4-C , 15-H ) :   0.9337
B(  5-C ,  6-C ) :   1.1176 B(  5-C , 16-H ) :   0.9338 B(  5-C , 17-H ) :   0.9335
B(  6-C , 18-H ) :   0.9153 B(  6-C , 19-H ) :   0.9337

FINAL SINGLE POINT ENERGY      -290.571251160490

DIPOLE MOMENT
-------------
                                X             Y             Z
Electronic contribution:     -0.69821       0.37205       0.31432
Nuclear contribution   :      0.74925      -0.82198      -0.39377
                        -----------------------------------------
Total Dipole Moment    :      0.05103      -0.44992      -0.07944
                        -----------------------------------------
Magnitude (a.u.)       :      0.45973
Magnitude (Debye)      :      1.16853

                             ****ORCA TERMINATED NORMALLY****
TOTAL RUN TIME: 0 days 0 hours 0 minutes 7 seconds 804 msec
