                         Program Version 3.0.3 - RELEASE   -
|  1> ! RI PBE def2-SVP def2-SVP/J NBO PAL2
|  2> % maxcore 2000
|  3> % output
|  4>     # printlevel mini
|  5>     print[ P_Basis ] 0
|  6>     print[ P_SCFInfo ] 1
|  7>     print[ P_SCFIterInfo ] 1
|  8>     print[ P_OrbEn ] 0
|  9>     print[ P_Cartesian ] 0
| 10> end
| 11> *xyz 0 1
| 12>  N        3.8526390000    -2.4777120000     0.3736590000
| 13>  C        3.7159190000    -1.3448870000     0.2317880000
| 14>  C        3.5563100000     0.0933720000     0.0805520000
| 15>  C        4.0942750000     0.8673730000     1.2742330000
| 16>  C        3.8642170000     2.3901330000     1.3144580000
| 17>  C        3.6535310000     2.2666410000     2.8355520000
| 18>  C        3.3698840000     0.7661420000     2.6300540000
| 19>  H        2.4914500000     0.3078000000    -0.0577550000
| 20>  H        4.0667270000     0.4004590000    -0.8381860000
| 21>  H        5.1570760000     0.6443120000     1.4029890000
| 22>  H        2.9332210000     2.6585920000     0.8067170000
| 23>  H        4.6618630000     3.0385500000     0.9489820000
| 24>  H        2.8720310000     2.8749730000     3.2913210000
| 25>  H        4.5847000000     2.4270040000     3.3825190000
| 26>  H        2.3013850000     0.5798420000     2.4895020000
| 27>  H        3.7541620000     0.0564080000     3.3627160000
| 28> *
| 29>
| 30>                          ****END OF INPUT****
 Total Charge           Charge          ....    0
 Multiplicity           Mult            ....    1
 Number of Electrons    NEL             ....   52
 Basis Dimension        Dim             ....  143

MULLIKEN ATOMIC CHARGES
-----------------------
   0 N :    0.051200
   1 C :   -0.281638
   2 C :    0.165942
   3 C :   -0.259287
   4 C :    0.062971
   5 C :   -0.022936
   6 C :    0.053988
   7 H :    0.034334
   8 H :    0.049183
   9 H :    0.030704
  10 H :    0.006549
  11 H :    0.023259
  12 H :    0.019615
  13 H :    0.024261
  14 H :    0.009971
  15 H :    0.031883
Sum of atomic charges:   -0.0000000

LOEWDIN ATOMIC CHARGES
----------------------
   0 N :   -0.069700
   1 C :   -0.044301
   2 C :   -0.058094
   3 C :   -0.027312
   4 C :   -0.029076
   5 C :   -0.031104
   6 C :   -0.028190
   7 H :    0.053484
   8 H :    0.059341
   9 H :    0.033570
  10 H :    0.024344
  11 H :    0.019684
  12 H :    0.020209
  13 H :    0.027447
  14 H :    0.025977
  15 H :    0.023721

  Mayer bond orders larger than 0.1
B(  0-N ,  1-C ) :   3.0539 B(  1-C ,  2-C ) :   1.1227 B(  2-C ,  3-C ) :   1.0561
B(  2-C ,  7-H ) :   0.8727 B(  2-C ,  8-H ) :   0.8804 B(  3-C ,  4-C ) :   1.0735
B(  3-C ,  6-C ) :   1.0708 B(  3-C ,  9-H ) :   0.9103 B(  4-C ,  5-C ) :   1.1160
B(  4-C , 10-H ) :   0.9152 B(  4-C , 11-H ) :   0.9346 B(  5-C ,  6-C ) :   1.1180
B(  5-C , 12-H ) :   0.9365 B(  5-C , 13-H ) :   0.9358 B(  6-C , 14-H ) :   0.9195
B(  6-C , 15-H ) :   0.9358

FINAL SINGLE POINT ENERGY      -288.171952581220

DIPOLE MOMENT
-------------
                                X             Y             Z
Electronic contribution:      0.53394      -7.20161      -3.16593
Nuclear contribution   :     -0.65190       8.71628       3.16411
                        -----------------------------------------
Total Dipole Moment    :     -0.11796       1.51467      -0.00182
                        -----------------------------------------
Magnitude (a.u.)       :      1.51926
Magnitude (Debye)      :      3.86166

                             ****ORCA TERMINATED NORMALLY****
TOTAL RUN TIME: 0 days 0 hours 0 minutes 6 seconds 725 msec
