                         Program Version 3.0.3 - RELEASE   -
|  1> ! RI PBE def2-SVP def2-SVP/J NBO PAL2
|  2> % maxcore 2000
|  3> % output
|  4>     # printlevel mini
|  5>     print[ P_Basis ] 0
|  6>     print[ P_SCFInfo ] 1
|  7>     print[ P_SCFIterInfo ] 1
|  8>     print[ P_OrbEn ] 0
|  9>     print[ P_Cartesian ] 0
| 10> end
| 11> *xyz 0 1
| 12>  N        0.8308340000     1.6665860000     1.2840880000
| 13>  C        2.2185120000     1.9941170000     0.9913520000
| 14>  C        3.1276100000     0.8269620000     1.3276230000
| 15>  C        4.5864850000     1.0948430000     1.0088540000
| 16>  C        5.3351800000     1.9725210000     2.0342760000
| 17>  C        5.9476430000     0.6656930000     2.5619380000
| 18>  N        5.5110970000    -0.0095670000     1.3295160000
| 19>  H        0.2207340000     2.4331730000     1.0294820000
| 20>  H        0.7083430000     1.5133890000     2.2781700000
| 21>  H        2.5790560000     2.8957620000     1.5126090000
| 22>  H        2.2945830000     2.2046850000    -0.0807650000
| 23>  H        2.7870580000    -0.0501170000     0.7653920000
| 24>  H        3.0278320000     0.5779320000     2.3930730000
| 25>  H        4.6715530000     1.4226250000    -0.0346210000
| 26>  H        4.7198770000     2.5477520000     2.7268580000
| 27>  H        6.0710460000     2.6325400000     1.5755400000
| 28>  H        5.4582330000     0.3086650000     3.4765440000
| 29>  H        7.0289940000     0.6526060000     2.7229240000
| 30>  H        5.0710290000    -0.9130570000     1.4549750000
| 31> *
| 32>
| 33>                          ****END OF INPUT****
 Total Charge           Charge          ....    0
 Multiplicity           Mult            ....    1
 Number of Electrons    NEL             ....   56
 Basis Dimension        Dim             ....  158

MULLIKEN ATOMIC CHARGES
-----------------------
   0 N :   -0.208723
   1 C :    0.067092
   2 C :    0.054013
   3 C :   -0.076298
   4 C :   -0.018183
   5 C :    0.122078
   6 N :   -0.231083
   7 H :    0.087309
   8 H :    0.086030
   9 H :   -0.013557
  10 H :    0.005483
  11 H :    0.016605
  12 H :   -0.020137
  13 H :   -0.001778
  14 H :    0.015934
  15 H :    0.019366
  16 H :   -0.001390
  17 H :    0.009310
  18 H :    0.087931
Sum of atomic charges:    0.0000000

LOEWDIN ATOMIC CHARGES
----------------------
   0 N :   -0.113360
   1 C :    0.007151
   2 C :   -0.058293
   3 C :    0.016579
   4 C :   -0.041456
   5 C :    0.026767
   6 N :   -0.107563
   7 H :    0.052355
   8 H :    0.048692
   9 H :   -0.002673
  10 H :    0.020513
  11 H :    0.026980
  12 H :    0.016399
  13 H :    0.008501
  14 H :    0.017060
  15 H :    0.028000
  16 H :    0.002459
  17 H :    0.010336
  18 H :    0.041553

  Mayer bond orders larger than 0.1
B(  0-N ,  1-C ) :   1.0875 B(  0-N ,  7-H ) :   0.9631 B(  0-N ,  8-H ) :   0.9705
B(  1-C ,  2-C ) :   1.0932 B(  1-C ,  9-H ) :   0.9305 B(  1-C , 10-H ) :   0.9267
B(  2-C ,  3-C ) :   1.0310 B(  2-C , 11-H ) :   0.9157 B(  2-C , 12-H ) :   0.9128
B(  3-C ,  4-C ) :   1.0723 B(  3-C ,  6-N ) :   1.0823 B(  3-C , 13-H ) :   0.9178
B(  4-C ,  5-C ) :   1.1174 B(  4-C , 14-H ) :   0.9388 B(  4-C , 15-H ) :   0.9152
B(  5-C ,  6-N ) :   1.0609 B(  5-C , 16-H ) :   0.9297 B(  5-C , 17-H ) :   0.9343
B(  6-N , 18-H ) :   0.9483

FINAL SINGLE POINT ENERGY      -306.580448500999

DIPOLE MOMENT
-------------
                                X             Y             Z
Electronic contribution:      1.42998      -1.49624      -0.99422
Nuclear contribution   :     -1.81125       1.92393       1.53500
                        -----------------------------------------
Total Dipole Moment    :     -0.38128       0.42770       0.54078
                        -----------------------------------------
Magnitude (a.u.)       :      0.78787
Magnitude (Debye)      :      2.00261

                             ****ORCA TERMINATED NORMALLY****
TOTAL RUN TIME: 0 days 0 hours 0 minutes 8 seconds 363 msec
