                         Program Version 3.0.3 - RELEASE   -
|  1> ! RI PBE def2-SVP def2-SVP/J NBO PAL2
|  2> % maxcore 2000
|  3> % output
|  4>     # printlevel mini
|  5>     print[ P_Basis ] 0
|  6>     print[ P_SCFInfo ] 1
|  7>     print[ P_SCFIterInfo ] 1
|  8>     print[ P_OrbEn ] 0
|  9>     print[ P_Cartesian ] 0
| 10> end
| 11> *xyz 0 1
| 12>  N        3.5967500000    -2.3407650000     0.4166540000
| 13>  C        3.6601410000    -1.2099320000     0.2175720000
| 14>  C        3.7641110000     0.2107130000    -0.0721620000
| 15>  C        3.8851820000     0.4851140000    -1.5759770000
| 16>  C        4.3776050000     1.9143990000    -1.8720450000
| 17>  C        5.7605890000     1.2788930000    -2.0981820000
| 18>  N        5.0977140000    -0.0264620000    -2.2155720000
| 19>  H        4.6362810000     0.6071190000     0.4580340000
| 20>  H        2.8808290000     0.7169910000     0.3301510000
| 21>  H        2.9610360000     0.1671830000    -2.0683520000
| 22>  H        4.2825640000     2.6454610000    -1.0689630000
| 23>  H        3.9461830000     2.3202150000    -2.7858880000
| 24>  H        6.4225120000     1.3844720000    -1.2291550000
| 25>  H        6.3101820000     1.5874070000    -2.9904990000
| 26>  H        5.5425090000    -0.8301980000    -1.7898180000
| 27> *
| 28>
| 29>                          ****END OF INPUT****
 Total Charge           Charge          ....    0
 Multiplicity           Mult            ....    1
 Number of Electrons    NEL             ....   52
 Basis Dimension        Dim             ....  138

MULLIKEN ATOMIC CHARGES
-----------------------
   0 N :    0.059664
   1 C :   -0.277948
   2 C :    0.125306
   3 C :   -0.081495
   4 C :    0.006261
   5 C :    0.109558
   6 N :   -0.233856
   7 H :    0.036811
   8 H :    0.052012
   9 H :    0.020620
  10 H :    0.018577
  11 H :    0.030759
  12 H :    0.011067
  13 H :    0.019278
  14 H :    0.103384
Sum of atomic charges:    0.0000000

LOEWDIN ATOMIC CHARGES
----------------------
   0 N :   -0.066373
   1 C :   -0.048934
   2 C :   -0.069872
   3 C :    0.028891
   4 C :   -0.034316
   5 C :    0.029880
   6 N :   -0.095631
   7 H :    0.054890
   8 H :    0.059893
   9 H :    0.016915
  10 H :    0.021425
  11 H :    0.034397
  12 H :    0.004869
  13 H :    0.015136
  14 H :    0.048828

  Mayer bond orders larger than 0.1
B(  0-N ,  1-C ) :   3.0465 B(  1-C ,  2-C ) :   1.1240 B(  2-C ,  3-C ) :   1.0077
B(  2-C ,  7-H ) :   0.8811 B(  2-C ,  8-H ) :   0.8761 B(  3-C ,  4-C ) :   1.0751
B(  3-C ,  6-N ) :   1.0861 B(  3-C ,  9-H ) :   0.9166 B(  4-C ,  5-C ) :   1.1105
B(  4-C , 10-H ) :   0.9367 B(  4-C , 11-H ) :   0.9163 B(  5-C ,  6-N ) :   1.0474
B(  5-C , 12-H ) :   0.9314 B(  5-C , 13-H ) :   0.9396 B(  6-N , 14-H ) :   0.9432

FINAL SINGLE POINT ENERGY      -304.181129270159

DIPOLE MOMENT
-------------
                                X             Y             Z
Electronic contribution:     -1.91727      -5.94037       2.52608
Nuclear contribution   :      2.16521       7.45280      -2.54498
                        -----------------------------------------
Total Dipole Moment    :      0.24794       1.51243      -0.01890
                        -----------------------------------------
Magnitude (a.u.)       :      1.53273
Magnitude (Debye)      :      3.89589

                             ****ORCA TERMINATED NORMALLY****
TOTAL RUN TIME: 0 days 0 hours 0 minutes 6 seconds 832 msec
