                         Program Version 3.0.3 - RELEASE   -
|  1> ! RI PBE def2-SVP def2-SVP/J NBO PAL2
|  2> % maxcore 2000
|  3> % output
|  4>     # printlevel mini
|  5>     print[ P_Basis ] 0
|  6>     print[ P_SCFInfo ] 1
|  7>     print[ P_SCFIterInfo ] 1
|  8>     print[ P_OrbEn ] 0
|  9>     print[ P_Cartesian ] 0
| 10> end
| 11> *xyz 0 1
| 12>  N        0.9185660000     0.1227560000     0.0647180000
| 13>  C        2.3732180000     0.1263120000     0.0416520000
| 14>  C        2.9215260000     1.2464390000     0.9072220000
| 15>  C        4.4293310000     1.2592170000     0.9701830000
| 16>  C        5.1337090000     2.2333420000     1.9306560000
| 17>  N        6.1018860000     1.1719950000     2.2489030000
| 18>  C        5.1633320000     0.1532640000     1.7532970000
| 19>  H        0.5524690000    -0.6415950000    -0.4886510000
| 20>  H        0.5592170000     0.9778790000    -0.3432670000
| 21>  H        2.8016770000     0.2155580000    -0.9702900000
| 22>  H        2.7163170000    -0.8348160000     0.4399110000
| 23>  H        2.5022770000     1.1480680000     1.9144410000
| 24>  H        2.5666400000     2.2093620000     0.5159460000
| 25>  H        4.8562350000     1.3505490000    -0.0329660000
| 26>  H        4.4756790000     2.5075380000     2.7678170000
| 27>  H        5.5704710000     3.1441690000     1.5115380000
| 28>  H        6.3617400000     1.0922800000     3.2233930000
| 29>  H        4.5135270000    -0.2761730000     2.5300050000
| 30>  H        5.6264820000    -0.6615450000     1.1899020000
| 31> *
| 32>
| 33>                          ****END OF INPUT****
 Total Charge           Charge          ....    0
 Multiplicity           Mult            ....    1
 Number of Electrons    NEL             ....   56
 Basis Dimension        Dim             ....  158

MULLIKEN ATOMIC CHARGES
-----------------------
   0 N :   -0.199781
   1 C :    0.059385
   2 C :    0.062344
   3 C :   -0.263575
   4 C :    0.197823
   5 N :   -0.280127
   6 C :    0.164371
   7 H :    0.086475
   8 H :    0.085166
   9 H :   -0.011211
  10 H :    0.002137
  11 H :    0.000373
  12 H :    0.000435
  13 H :    0.013863
  14 H :   -0.015363
  15 H :    0.005719
  16 H :    0.091272
  17 H :   -0.009255
  18 H :    0.009948
Sum of atomic charges:    0.0000000

LOEWDIN ATOMIC CHARGES
----------------------
   0 N :   -0.112188
   1 C :    0.006589
   2 C :   -0.047773
   3 C :   -0.042611
   4 C :    0.031346
   5 N :   -0.114492
   6 C :    0.025927
   7 H :    0.051978
   8 H :    0.048495
   9 H :   -0.001993
  10 H :    0.018831
  11 H :    0.021585
  12 H :    0.022029
  13 H :    0.026163
  14 H :    0.002267
  15 H :    0.008164
  16 H :    0.044664
  17 H :    0.002675
  18 H :    0.008345

  Mayer bond orders larger than 0.1
B(  0-N ,  1-C ) :   1.0990 B(  0-N ,  7-H ) :   0.9646 B(  0-N ,  8-H ) :   0.9690
B(  1-C ,  2-C ) :   1.0930 B(  1-C ,  9-H ) :   0.9275 B(  1-C , 10-H ) :   0.9334
B(  2-C ,  3-C ) :   1.0532 B(  2-C , 11-H ) :   0.9107 B(  2-C , 12-H ) :   0.9246
B(  3-C ,  4-C ) :   1.0622 B(  3-C ,  6-C ) :   1.0693 B(  3-C , 13-H ) :   0.8949
B(  4-C ,  5-N ) :   1.0512 B(  4-C , 14-H ) :   0.9200 B(  4-C , 15-H ) :   0.9343
B(  5-N ,  6-C ) :   1.0524 B(  5-N , 16-H ) :   0.9426 B(  6-C , 17-H ) :   0.9205
B(  6-C , 18-H ) :   0.9364

FINAL SINGLE POINT ENERGY      -306.579507022801

DIPOLE MOMENT
-------------
                                X             Y             Z
Electronic contribution:      2.18352       0.36773       0.85455
Nuclear contribution   :     -2.52941      -0.37640      -1.09474
                        -----------------------------------------
Total Dipole Moment    :     -0.34589      -0.00866      -0.24019
                        -----------------------------------------
Magnitude (a.u.)       :      0.42120
Magnitude (Debye)      :      1.07060

                             ****ORCA TERMINATED NORMALLY****
TOTAL RUN TIME: 0 days 0 hours 0 minutes 8 seconds 290 msec
