                         Program Version 3.0.3 - RELEASE   -
|  1> ! RI PBE def2-SVP def2-SVP/J NBO PAL2
|  2> % maxcore 2000
|  3> % output
|  4>     # printlevel mini
|  5>     print[ P_Basis ] 0
|  6>     print[ P_SCFInfo ] 1
|  7>     print[ P_SCFIterInfo ] 1
|  8>     print[ P_OrbEn ] 0
|  9>     print[ P_Cartesian ] 0
| 10> end
| 11> *xyz 0 1
| 12>  N        5.1827000000     0.6976810000    -1.9431340000
| 13>  C        4.5203720000     0.4091520000    -1.0488490000
| 14>  C        3.6966930000     0.0214280000     0.0866920000
| 15>  C        4.2835600000    -1.1492980000     0.8542540000
| 16>  C        3.4235380000    -1.7968680000     1.9527900000
| 17>  N        3.9174280000    -3.1074100000     1.5096730000
| 18>  C        4.2965960000    -2.5436710000     0.2050020000
| 19>  H        2.6979310000    -0.2284880000    -0.2852530000
| 20>  H        3.5857600000     0.8918080000     0.7415730000
| 21>  H        5.2734460000    -0.8925470000     1.2348790000
| 22>  H        2.3514000000    -1.6312120000     1.7700260000
| 23>  H        3.6478190000    -1.5448390000     2.9923810000
| 24>  H        3.2365190000    -3.8548870000     1.4895530000
| 25>  H        3.5204900000    -2.6311870000    -0.5689650000
| 26>  H        5.2424370000    -2.9087510000    -0.2004210000
| 27> *
| 28>
| 29>                          ****END OF INPUT****
 Total Charge           Charge          ....    0
 Multiplicity           Mult            ....    1
 Number of Electrons    NEL             ....   52
 Basis Dimension        Dim             ....  138

MULLIKEN ATOMIC CHARGES
-----------------------
   0 N :    0.056960
   1 C :   -0.274243
   2 C :    0.139901
   3 C :   -0.285368
   4 C :    0.186589
   5 N :   -0.274772
   6 C :    0.181086
   7 H :    0.037997
   8 H :    0.055952
   9 H :    0.037123
  10 H :   -0.004486
  11 H :    0.019236
  12 H :    0.098971
  13 H :    0.001657
  14 H :    0.023398
Sum of atomic charges:   -0.0000000

LOEWDIN ATOMIC CHARGES
----------------------
   0 N :   -0.065683
   1 C :   -0.044609
   2 C :   -0.056795
   3 C :   -0.031686
   4 C :    0.031447
   5 N :   -0.109402
   6 C :    0.034837
   7 H :    0.053035
   8 H :    0.060826
   9 H :    0.036880
  10 H :    0.004509
  11 H :    0.013765
  12 H :    0.048969
  13 H :    0.006887
  14 H :    0.017018

  Mayer bond orders larger than 0.1
B(  0-N ,  1-C ) :   3.0550 B(  1-C ,  2-C ) :   1.1238 B(  2-C ,  3-C ) :   1.0482
B(  2-C ,  7-H ) :   0.8769 B(  2-C ,  8-H ) :   0.8841 B(  3-C ,  4-C ) :   1.0588
B(  3-C ,  6-C ) :   1.0591 B(  3-C ,  9-H ) :   0.9009 B(  4-C ,  5-N ) :   1.0545
B(  4-C , 10-H ) :   0.9170 B(  4-C , 11-H ) :   0.9352 B(  5-N ,  6-C ) :   1.0438
B(  5-N , 12-H ) :   0.9414 B(  6-C , 13-H ) :   0.9253 B(  6-C , 14-H ) :   0.9368

FINAL SINGLE POINT ENERGY      -304.178934745910

DIPOLE MOMENT
-------------
                                X             Y             Z
Electronic contribution:      2.39063       3.21073      -3.76404
Nuclear contribution   :     -3.50655      -3.62291       4.71213
                        -----------------------------------------
Total Dipole Moment    :     -1.11592      -0.41218       0.94809
                        -----------------------------------------
Magnitude (a.u.)       :      1.52120
Magnitude (Debye)      :      3.86658

                             ****ORCA TERMINATED NORMALLY****
TOTAL RUN TIME: 0 days 0 hours 0 minutes 6 seconds 882 msec
