                         Program Version 3.0.3 - RELEASE   -
|  1> ! RI PBE def2-SVP def2-SVP/J NBO PAL2
|  2> % maxcore 2000
|  3> % output
|  4>     # printlevel mini
|  5>     print[ P_Basis ] 0
|  6>     print[ P_SCFInfo ] 1
|  7>     print[ P_SCFIterInfo ] 1
|  8>     print[ P_OrbEn ] 0
|  9>     print[ P_Cartesian ] 0
| 10> end
| 11> *xyz 0 1
| 12>  N        1.1680300000     1.2765270000    -0.5609970000
| 13>  C        2.5985530000     1.5412940000    -0.5958040000
| 14>  C        3.2958900000     0.8449620000     0.5595520000
| 15>  C        4.7967980000     1.0355680000     0.5751170000
| 16>  N        5.5581950000     0.5224450000    -0.5326030000
| 17>  C        5.3473000000     2.2863020000     1.1922880000
| 18>  C        5.4964890000     0.9690440000     1.8976230000
| 19>  H        0.7021010000     1.7163960000    -1.3445110000
| 20>  H        0.7589830000     1.6670370000     0.2797060000
| 21>  H        2.8550670000     2.6127990000    -0.5737910000
| 22>  H        2.9828360000     1.1453760000    -1.5419130000
| 23>  H        3.0581980000    -0.2246270000     0.5179740000
| 24>  H        2.8794010000     1.2180290000     1.5032270000
| 25>  H        5.2971120000     0.9769940000    -1.3991140000
| 26>  H        5.3959230000    -0.4714630000    -0.6487220000
| 27>  H        4.6461090000     3.0062120000     1.5975740000
| 28>  H        6.2337910000     2.7105390000     0.7390540000
| 29>  H        4.8994810000     0.7904370000     2.7839400000
| 30>  H        6.4812210000     0.5201290000     1.9039110000
| 31> *
| 32>
| 33>                          ****END OF INPUT****
 Total Charge           Charge          ....    0
 Multiplicity           Mult            ....    1
 Number of Electrons    NEL             ....   56
 Basis Dimension        Dim             ....  158

MULLIKEN ATOMIC CHARGES
-----------------------
   0 N :   -0.204676
   1 C :    0.074466
   2 C :    0.118963
   3 C :   -0.263181
   4 N :   -0.131809
   5 C :    0.008170
   6 C :    0.020011
   7 H :    0.086962
   8 H :    0.086128
   9 H :   -0.011310
  10 H :   -0.024011
  11 H :    0.004410
  12 H :   -0.030258
  13 H :    0.089312
  14 H :    0.091464
  15 H :    0.022199
  16 H :    0.021279
  17 H :    0.019915
  18 H :    0.021967
Sum of atomic charges:    0.0000000

LOEWDIN ATOMIC CHARGES
----------------------
   0 N :   -0.112776
   1 C :    0.002115
   2 C :   -0.045106
   3 C :   -0.032608
   4 N :   -0.075969
   5 C :   -0.045471
   6 C :   -0.041422
   7 H :    0.052116
   8 H :    0.048689
   9 H :   -0.001468
  10 H :    0.008214
  11 H :    0.023510
  12 H :    0.019816
  13 H :    0.049172
  14 H :    0.053807
  15 H :    0.021380
  16 H :    0.027003
  17 H :    0.021950
  18 H :    0.027048

  Mayer bond orders larger than 0.1
B(  0-N ,  1-C ) :   1.0954 B(  0-N ,  7-H ) :   0.9632 B(  0-N ,  8-H ) :   0.9693
B(  1-C ,  2-C ) :   1.0948 B(  1-C ,  9-H ) :   0.9302 B(  1-C , 10-H ) :   0.9131
B(  2-C ,  3-C ) :   1.0252 B(  2-C , 11-H ) :   0.9165 B(  2-C , 12-H ) :   0.8911
B(  3-C ,  4-N ) :   1.1407 B(  3-C ,  5-C ) :   0.9720 B(  3-C ,  6-C ) :   0.9786
B(  4-N , 13-H ) :   0.9717 B(  4-N , 14-H ) :   0.9675 B(  5-C ,  6-C ) :   1.0530
B(  5-C , 15-H ) :   0.9429 B(  5-C , 16-H ) :   0.9332 B(  6-C , 17-H ) :   0.9406
B(  6-C , 18-H ) :   0.9309

FINAL SINGLE POINT ENERGY      -306.588054231756

DIPOLE MOMENT
-------------
                                X             Y             Z
Electronic contribution:      1.12779      -0.74568      -0.16738
Nuclear contribution   :     -1.56666       1.07446      -0.03781
                        -----------------------------------------
Total Dipole Moment    :     -0.43887       0.32878      -0.20519
                        -----------------------------------------
Magnitude (a.u.)       :      0.58550
Magnitude (Debye)      :      1.48821

                             ****ORCA TERMINATED NORMALLY****
TOTAL RUN TIME: 0 days 0 hours 0 minutes 8 seconds 92 msec
