                         Program Version 3.0.3 - RELEASE   -
|  1> ! RI PBE def2-SVP def2-SVP/J NBO PAL2
|  2> % maxcore 2000
|  3> % output
|  4>     # printlevel mini
|  5>     print[ P_Basis ] 0
|  6>     print[ P_SCFInfo ] 1
|  7>     print[ P_SCFIterInfo ] 1
|  8>     print[ P_OrbEn ] 0
|  9>     print[ P_Cartesian ] 0
| 10> end
| 11> *xyz 0 1
| 12>  N        1.2244180000     2.7383870000    -0.0326050000
| 13>  C        2.6328730000     2.6198150000     0.3226950000
| 14>  C        2.8830130000     1.3115920000     1.0506540000
| 15>  C        4.3466030000     1.0313620000     1.3719490000
| 16>  C        4.9740350000     1.9951180000     2.3449390000
| 17>  C        6.4642160000     2.0677390000     2.4706440000
| 18>  C        5.7074900000     3.2103330000     1.8630660000
| 19>  H        1.0529600000     3.6067490000    -0.5240780000
| 20>  H        0.6559620000     2.7632780000     0.8061010000
| 21>  H        3.0052850000     3.4562220000     0.9318110000
| 22>  H        3.2137280000     2.6262430000    -0.6067230000
| 23>  H        2.4794070000     0.5000700000     0.4371100000
| 24>  H        2.3038710000     1.3057760000     1.9839440000
| 25>  H        4.9324900000     1.0318070000     0.4440680000
| 26>  H        4.4253810000     0.0164290000     1.7781110000
| 27>  H        4.4205960000     2.1185760000     3.2725400000
| 28>  H        7.0523310000     1.4430820000     1.8078930000
| 29>  H        6.8955420000     2.2039380000     3.4545810000
| 30>  H        5.7871900000     3.3519900000     0.7915520000
| 31>  H        5.6225060000     4.1293140000     2.4301580000
| 32> *
| 33>
| 34>                          ****END OF INPUT****
 Total Charge           Charge          ....    0
 Multiplicity           Mult            ....    1
 Number of Electrons    NEL             ....   56
 Basis Dimension        Dim             ....  163

MULLIKEN ATOMIC CHARGES
-----------------------
   0 N :   -0.208751
   1 C :    0.058720
   2 C :   -0.023345
   3 C :    0.096637
   4 C :   -0.168349
   5 C :   -0.017085
   6 C :   -0.037429
   7 H :    0.083734
   8 H :    0.085042
   9 H :    0.000680
  10 H :   -0.002301
  11 H :    0.011630
  12 H :   -0.004234
  13 H :   -0.012989
  14 H :    0.008189
  15 H :    0.013945
  16 H :    0.028080
  17 H :    0.028520
  18 H :    0.029888
  19 H :    0.029418
Sum of atomic charges:    0.0000000

LOEWDIN ATOMIC CHARGES
----------------------
   0 N :   -0.114572
   1 C :    0.003921
   2 C :   -0.047345
   3 C :   -0.032591
   4 C :   -0.046830
   5 C :   -0.047669
   6 C :   -0.051565
   7 H :    0.050663
   8 H :    0.048252
   9 H :    0.000918
  10 H :    0.017761
  11 H :    0.025638
  12 H :    0.018571
  13 H :    0.023270
  14 H :    0.028072
  15 H :    0.024244
  16 H :    0.025263
  17 H :    0.025688
  18 H :    0.023451
  19 H :    0.024862

  Mayer bond orders larger than 0.1
B(  0-N ,  1-C ) :   1.0871 B(  0-N ,  7-H ) :   0.9649 B(  0-N ,  8-H ) :   0.9695
B(  1-C ,  2-C ) :   1.1001 B(  1-C ,  9-H ) :   0.9322 B(  1-C , 10-H ) :   0.9285
B(  2-C ,  3-C ) :   1.1026 B(  2-C , 11-H ) :   0.9257 B(  2-C , 12-H ) :   0.9262
B(  3-C ,  4-C ) :   1.0784 B(  3-C , 13-H ) :   0.9108 B(  3-C , 14-H ) :   0.9219
B(  4-C ,  5-C ) :   0.9832 B(  4-C ,  6-C ) :   0.9959 B(  4-C , 15-H ) :   0.9439
B(  5-C ,  6-C ) :   1.0461 B(  5-C , 16-H ) :   0.9456 B(  5-C , 17-H ) :   0.9448
B(  6-C , 18-H ) :   0.9455 B(  6-C , 19-H ) :   0.9490

FINAL SINGLE POINT ENERGY      -290.566536805050

DIPOLE MOMENT
-------------
                                X             Y             Z
Electronic contribution:     -0.19365      -0.07413       0.29687
Nuclear contribution   :      0.19816       0.46187      -0.02344
                        -----------------------------------------
Total Dipole Moment    :      0.00451       0.38774       0.27343
                        -----------------------------------------
Magnitude (a.u.)       :      0.47448
Magnitude (Debye)      :      1.20603

                             ****ORCA TERMINATED NORMALLY****
TOTAL RUN TIME: 0 days 0 hours 0 minutes 8 seconds 107 msec
