                         Program Version 3.0.3 - RELEASE   -
|  1> ! RI PBE def2-SVP def2-SVP/J NBO PAL2
|  2> % maxcore 2000
|  3> % output
|  4>     # printlevel mini
|  5>     print[ P_Basis ] 0
|  6>     print[ P_SCFInfo ] 1
|  7>     print[ P_SCFIterInfo ] 1
|  8>     print[ P_OrbEn ] 0
|  9>     print[ P_Cartesian ] 0
| 10> end
| 11> *xyz 0 1
| 12>  N        0.8187130000    -0.2562440000     0.0825970000
| 13>  C        1.9466230000    -0.0900170000    -0.0665760000
| 14>  C        3.3770990000     0.0915660000    -0.2512130000
| 15>  C        4.1474330000    -1.2317200000    -0.2297920000
| 16>  C        5.6235240000    -1.0172290000    -0.4086340000
| 17>  C        6.4735410000    -0.6563440000     0.7726920000
| 18>  C        6.5945160000    -2.0118190000     0.1442110000
| 19>  H        3.7465250000     0.7555460000     0.5360130000
| 20>  H        3.5365250000     0.6094050000    -1.2020800000
| 21>  H        3.7584310000    -1.8875760000    -1.0144420000
| 22>  H        3.9615080000    -1.7390250000     0.7217270000
| 23>  H        5.9035620000    -0.5564800000    -1.3519450000
| 24>  H        5.9884880000    -0.5929820000     1.7403450000
| 25>  H        7.2832560000     0.0485410000     0.6323540000
| 26>  H        6.1905290000    -2.8579510000     0.6875040000
| 27>  H        7.4857270000    -2.2333820000    -0.4290620000
| 28> *
| 29>
| 30>                          ****END OF INPUT****
 Total Charge           Charge          ....    0
 Multiplicity           Mult            ....    1
 Number of Electrons    NEL             ....   52
 Basis Dimension        Dim             ....  143

MULLIKEN ATOMIC CHARGES
-----------------------
   0 N :    0.061447
   1 C :   -0.265379
   2 C :    0.044431
   3 C :    0.041477
   4 C :   -0.141613
   5 C :   -0.044216
   6 C :   -0.016139
   7 H :    0.052981
   8 H :    0.047632
   9 H :    0.037785
  10 H :    0.015863
  11 H :    0.018988
  12 H :    0.035113
  13 H :    0.041207
  14 H :    0.035278
  15 H :    0.035145
Sum of atomic charges:   -0.0000000

LOEWDIN ATOMIC CHARGES
----------------------
   0 N :   -0.070409
   1 C :   -0.045290
   2 C :   -0.057231
   3 C :   -0.018017
   4 C :   -0.046779
   5 C :   -0.047802
   6 C :   -0.038981
   7 H :    0.057747
   8 H :    0.056758
   9 H :    0.036421
  10 H :    0.033475
  11 H :    0.026830
  12 H :    0.026105
  13 H :    0.029658
  14 H :    0.028055
  15 H :    0.029457

  Mayer bond orders larger than 0.1
B(  0-N ,  1-C ) :   3.0564 B(  1-C ,  2-C ) :   1.1337 B(  2-C ,  3-C ) :   1.0963
B(  2-C ,  7-H ) :   0.8906 B(  2-C ,  8-H ) :   0.8874 B(  3-C ,  4-C ) :   1.0957
B(  3-C ,  9-H ) :   0.9287 B(  3-C , 10-H ) :   0.9192 B(  4-C ,  5-C ) :   0.9920
B(  4-C ,  6-C ) :   0.9972 B(  4-C , 11-H ) :   0.9346 B(  5-C ,  6-C ) :   1.0497
B(  5-C , 12-H ) :   0.9483 B(  5-C , 13-H ) :   0.9475 B(  6-C , 14-H ) :   0.9472
B(  6-C , 15-H ) :   0.9440

FINAL SINGLE POINT ENERGY      -288.168369083345

DIPOLE MOMENT
-------------
                                X             Y             Z
Electronic contribution:     -7.99235       1.68966      -0.40088
Nuclear contribution   :      9.56007      -1.61424       0.21157
                        -----------------------------------------
Total Dipole Moment    :      1.56773       0.07542      -0.18931
                        -----------------------------------------
Magnitude (a.u.)       :      1.58091
Magnitude (Debye)      :      4.01837

                             ****ORCA TERMINATED NORMALLY****
TOTAL RUN TIME: 0 days 0 hours 0 minutes 7 seconds 296 msec
