                         Program Version 3.0.3 - RELEASE   -
|  1> ! RI PBE def2-SVP def2-SVP/J NBO PAL2
|  2> % maxcore 2000
|  3> % output
|  4>     # printlevel mini
|  5>     print[ P_Basis ] 0
|  6>     print[ P_SCFInfo ] 1
|  7>     print[ P_SCFIterInfo ] 1
|  8>     print[ P_OrbEn ] 0
|  9>     print[ P_Cartesian ] 0
| 10> end
| 11> *xyz 0 1
| 12>  N        1.0388690000    -1.4522000000     0.6203820000
| 13>  C        2.1741100000    -1.6032790000     0.4877070000
| 14>  C        3.5694590000    -1.8164700000     0.3333900000
| 15>  C        4.4017360000    -0.8441380000    -0.0498690000
| 16>  C        5.8445000000    -0.9831790000    -0.2799270000
| 17>  C        6.5486840000    -2.3028720000    -0.2687280000
| 18>  C        6.3364490000    -1.6056010000    -1.5707660000
| 19>  H        3.9236960000    -2.8183190000     0.5510020000
| 20>  H        3.9860240000     0.1444890000    -0.2285260000
| 21>  H        6.4236400000    -0.1275190000     0.0519240000
| 22>  H        5.9694830000    -3.1970250000    -0.0766140000
| 23>  H        7.5484870000    -2.3254470000     0.1455040000
| 24>  H        5.5820560000    -2.0035690000    -2.2376090000
| 25>  H        7.1824180000    -1.1407500000    -2.0608700000
| 26> *
| 27>
| 28>                          ****END OF INPUT****
 Total Charge           Charge          ....    0
 Multiplicity           Mult            ....    1
 Number of Electrons    NEL             ....   50
 Basis Dimension        Dim             ....  133

MULLIKEN ATOMIC CHARGES
-----------------------
   0 N :    0.040285
   1 C :   -0.100025
   2 C :   -0.118736
   3 C :    0.044206
   4 C :   -0.110915
   5 C :   -0.011949
   6 C :   -0.026323
   7 H :    0.037635
   8 H :    0.022450
   9 H :    0.040444
  10 H :    0.041376
  11 H :    0.044180
  12 H :    0.050037
  13 H :    0.047336
Sum of atomic charges:   -0.0000000

LOEWDIN ATOMIC CHARGES
----------------------
   0 N :   -0.062959
   1 C :   -0.044299
   2 C :   -0.081874
   3 C :    0.030746
   4 C :   -0.045917
   5 C :   -0.033192
   6 C :   -0.019803
   7 H :    0.046220
   8 H :    0.041818
   9 H :    0.040538
  10 H :    0.029212
  11 H :    0.034879
  12 H :    0.032589
  13 H :    0.032044

  Mayer bond orders larger than 0.1
B(  0-N ,  1-C ) :   2.9671 B(  0-N ,  3-C ) :   0.1069 B(  1-C ,  2-C ) :   1.1113
B(  2-C ,  3-C ) :   1.8185 B(  2-C ,  7-H ) :   0.9354 B(  3-C ,  4-C ) :   1.0892
B(  3-C ,  8-H ) :   0.9633 B(  4-C ,  5-C ) :   0.9982 B(  4-C ,  6-C ) :   0.9519
B(  4-C ,  9-H ) :   0.9279 B(  5-C ,  6-C ) :   1.0521 B(  5-C , 10-H ) :   0.9369
B(  5-C , 11-H ) :   0.9397 B(  6-C , 12-H ) :   0.9485 B(  6-C , 13-H ) :   0.9491

FINAL SINGLE POINT ENERGY      -286.952176536150

DIPOLE MOMENT
-------------
                                X             Y             Z
Electronic contribution:     -7.85618       0.71519       2.44147
Nuclear contribution   :      9.71685      -0.75455      -2.80960
                        -----------------------------------------
Total Dipole Moment    :      1.86067      -0.03936      -0.36813
                        -----------------------------------------
Magnitude (a.u.)       :      1.89715
Magnitude (Debye)      :      4.82216

                             ****ORCA TERMINATED NORMALLY****
TOTAL RUN TIME: 0 days 0 hours 0 minutes 6 seconds 311 msec
