                         Program Version 3.0.3 - RELEASE   -
|  1> ! RI PBE def2-SVP def2-SVP/J NBO PAL2
|  2> % maxcore 2000
|  3> % output
|  4>     # printlevel mini
|  5>     print[ P_Basis ] 0
|  6>     print[ P_SCFInfo ] 1
|  7>     print[ P_SCFIterInfo ] 1
|  8>     print[ P_OrbEn ] 0
|  9>     print[ P_Cartesian ] 0
| 10> end
| 11> *xyz 0 1
| 12>  N        1.0242710000     0.0788380000    -0.0307900000
| 13>  C        2.1803130000     0.0770700000    -0.0338840000
| 14>  C        3.5454750000     0.0750470000    -0.0393200000
| 15>  C        4.7533000000     0.0735090000    -0.0455390000
| 16>  C        6.1748610000     0.0716270000    -0.0578160000
| 17>  C        6.9109170000    -0.6604820000    -1.1588060000
| 18>  C        6.9131570000     0.8246960000    -1.1430620000
| 19>  H        6.6352020000     0.0603080000     0.9242090000
| 20>  H        6.3043540000    -1.1624030000    -1.9007670000
| 21>  H        7.8110040000    -1.1863530000    -0.8679640000
| 22>  H        6.3083080000     1.3441280000    -1.8743090000
| 23>  H        7.8148370000     1.3416040000    -0.8412610000
| 24> *
| 25>
| 26>                          ****END OF INPUT****
 Total Charge           Charge          ....    0
 Multiplicity           Mult            ....    1
 Number of Electrons    NEL             ....   48
 Basis Dimension        Dim             ....  123

MULLIKEN ATOMIC CHARGES
-----------------------
   0 N :    0.094090
   1 C :   -0.177673
   2 C :    0.072746
   3 C :   -0.045440
   4 C :   -0.234735
   5 C :   -0.003731
   6 C :   -0.002740
   7 H :    0.068156
   8 H :    0.061649
   9 H :    0.053102
  10 H :    0.061756
  11 H :    0.052821
Sum of atomic charges:   -0.0000000

LOEWDIN ATOMIC CHARGES
----------------------
   0 N :   -0.035439
   1 C :   -0.050774
   2 C :   -0.091899
   3 C :    0.047545
   4 C :   -0.053908
   5 C :   -0.011892
   6 C :   -0.011787
   7 H :    0.054364
   8 H :    0.039485
   9 H :    0.037412
  10 H :    0.039526
  11 H :    0.037368

  Mayer bond orders larger than 0.1
B(  0-N ,  1-C ) :   2.8658 B(  0-N ,  2-C ) :   0.1208 B(  0-N ,  3-C ) :   0.1803
B(  1-C ,  2-C ) :   1.0011 B(  2-C ,  3-C ) :   2.1581 B(  3-C ,  4-C ) :   1.0871
B(  4-C ,  5-C ) :   0.9501 B(  4-C ,  6-C ) :   0.9503 B(  4-C ,  7-H ) :   0.9186
B(  5-C ,  6-C ) :   1.0401 B(  5-C ,  8-H ) :   0.9529 B(  5-C ,  9-H ) :   0.9433
B(  6-C , 10-H ) :   0.9529 B(  6-C , 11-H ) :   0.9433

FINAL SINGLE POINT ENERGY      -285.716450373983

DIPOLE MOMENT
-------------
                                X             Y             Z
Electronic contribution:     -9.12851      -0.01118       2.29448
Nuclear contribution   :     11.30285       0.00990      -2.48478
                        -----------------------------------------
Total Dipole Moment    :      2.17434      -0.00128      -0.19030
                        -----------------------------------------
Magnitude (a.u.)       :      2.18265
Magnitude (Debye)      :      5.54785

                             ****ORCA TERMINATED NORMALLY****
TOTAL RUN TIME: 0 days 0 hours 0 minutes 6 seconds 69 msec
