                         Program Version 3.0.3 - RELEASE   -
|  1> ! RI PBE def2-SVP def2-SVP/J NBO PAL2
|  2> % maxcore 2000
|  3> % output
|  4>     # printlevel mini
|  5>     print[ P_Basis ] 0
|  6>     print[ P_SCFInfo ] 1
|  7>     print[ P_SCFIterInfo ] 1
|  8>     print[ P_OrbEn ] 0
|  9>     print[ P_Cartesian ] 0
| 10> end
| 11> *xyz 0 1
| 12>  N        0.6788650000     0.2552000000    -0.2663380000
| 13>  C        2.1284390000     0.2034470000    -0.2122970000
| 14>  C        2.8109490000    -0.6036330000    -1.2865530000
| 15>  C        2.2176500000    -1.2149870000    -2.3016210000
| 16>  C        2.6956440000     1.6041220000    -0.1939800000
| 17>  C        2.6491800000     2.4059000000     1.0645240000
| 18>  C        3.9609740000     1.8887710000     0.5549560000
| 19>  H        0.2912900000    -0.6798800000    -0.3110560000
| 20>  H        0.3745460000     0.7419640000    -1.1020290000
| 21>  H        2.3949120000    -0.2552440000     0.7515810000
| 22>  H        3.8944360000    -0.6579620000    -1.1951510000
| 23>  H        1.1410840000    -1.1875850000    -2.4362930000
| 24>  H        2.7880380000    -1.7671120000    -3.0391330000
| 25>  H        2.5578780000     2.1473390000    -1.1253950000
| 26>  H        2.2150420000     1.9285680000     1.9346380000
| 27>  H        2.4528560000     3.4681180000     0.9914140000
| 28>  H        4.4233640000     1.0688920000     1.0930380000
| 29>  H        4.6642430000     2.5937940000     0.1295830000
| 30> *
| 31>
| 32>                          ****END OF INPUT****
 Total Charge           Charge          ....    0
 Multiplicity           Mult            ....    1
 Number of Electrons    NEL             ....   54
 Basis Dimension        Dim             ....  153

MULLIKEN ATOMIC CHARGES
-----------------------
   0 N :   -0.155414
   1 C :    0.080116
   2 C :   -0.016316
   3 C :   -0.054710
   4 C :   -0.137578
   5 C :    0.005985
   6 C :   -0.033011
   7 H :    0.092302
   8 H :    0.088952
   9 H :   -0.011710
  10 H :   -0.005673
  11 H :   -0.010801
  12 H :    0.024123
  13 H :    0.013159
  14 H :    0.028617
  15 H :    0.033028
  16 H :    0.026710
  17 H :    0.032221
Sum of atomic charges:    0.0000000

LOEWDIN ATOMIC CHARGES
----------------------
   0 N :   -0.083879
   1 C :    0.001792
   2 C :   -0.035932
   3 C :   -0.081209
   4 C :   -0.040064
   5 C :   -0.037702
   6 C :   -0.046804
   7 H :    0.050964
   8 H :    0.049818
   9 H :    0.030257
  10 H :    0.026347
  11 H :    0.007912
  12 H :    0.025553
  13 H :    0.024874
  14 H :    0.028473
  15 H :    0.028030
  16 H :    0.024273
  17 H :    0.027297

  Mayer bond orders larger than 0.1
B(  0-N ,  1-C ) :   1.1156 B(  0-N ,  7-H ) :   0.9621 B(  0-N ,  8-H ) :   0.9648
B(  1-C ,  2-C ) :   0.9744 B(  1-C ,  4-C ) :   1.0413 B(  1-C ,  9-H ) :   0.8714
B(  2-C ,  3-C ) :   2.0022 B(  2-C , 10-H ) :   0.9441 B(  3-C , 11-H ) :   0.9325
B(  3-C , 12-H ) :   0.9408 B(  4-C ,  5-C ) :   0.9836 B(  4-C ,  6-C ) :   0.9891
B(  4-C , 13-H ) :   0.9368 B(  5-C ,  6-C ) :   1.0665 B(  5-C , 14-H ) :   0.9361
B(  5-C , 15-H ) :   0.9444 B(  6-C , 16-H ) :   0.9405 B(  6-C , 17-H ) :   0.9414

FINAL SINGLE POINT ENERGY      -289.346988151817

DIPOLE MOMENT
-------------
                                X             Y             Z
Electronic contribution:     -0.50048      -0.38818      -0.07738
Nuclear contribution   :      0.58237       0.30435      -0.15438
                        -----------------------------------------
Total Dipole Moment    :      0.08189      -0.08384      -0.23177
                        -----------------------------------------
Magnitude (a.u.)       :      0.25971
Magnitude (Debye)      :      0.66014

                             ****ORCA TERMINATED NORMALLY****
TOTAL RUN TIME: 0 days 0 hours 0 minutes 7 seconds 944 msec
