                         Program Version 3.0.3 - RELEASE   -
|  1> ! RI PBE def2-SVP def2-SVP/J NBO PAL2
|  2> % maxcore 2000
|  3> % output
|  4>     # printlevel mini
|  5>     print[ P_Basis ] 0
|  6>     print[ P_SCFInfo ] 1
|  7>     print[ P_SCFIterInfo ] 1
|  8>     print[ P_OrbEn ] 0
|  9>     print[ P_Cartesian ] 0
| 10> end
| 11> *xyz 0 1
| 12>  N        1.0980410000    -0.0308680000     0.1925900000
| 13>  C        2.5473870000     0.0813890000     0.0516000000
| 14>  C        3.0640960000     1.4139850000     0.3836250000
| 15>  C        3.4461770000     2.5215190000     0.6515410000
| 16>  C        3.2028090000    -1.0177250000     0.8604450000
| 17>  C        4.6254590000    -0.9392960000     1.3069380000
| 18>  C        3.5188940000    -0.8326370000     2.3131400000
| 19>  H        0.6398090000     0.7039470000    -0.3334180000
| 20>  H        0.8482070000     0.1053370000     1.1660270000
| 21>  H        2.7808570000    -0.1010420000    -1.0048990000
| 22>  H        3.7834700000     3.5038280000     0.8849200000
| 23>  H        2.8341200000    -1.9953080000     0.5701840000
| 24>  H        5.1734670000    -0.0321700000     1.0822700000
| 25>  H        5.2147040000    -1.8471510000     1.2784290000
| 26>  H        3.3455870000     0.1461680000     2.7451240000
| 27>  H        3.3427150000    -1.6649760000     2.9826840000
| 28> *
| 29>
| 30>                          ****END OF INPUT****
 Total Charge           Charge          ....    0
 Multiplicity           Mult            ....    1
 Number of Electrons    NEL             ....   52
 Basis Dimension        Dim             ....  143

MULLIKEN ATOMIC CHARGES
-----------------------
   0 N :   -0.165817
   1 C :    0.203507
   2 C :    0.310034
   3 C :   -0.510901
   4 C :   -0.171232
   5 C :   -0.007837
   6 C :   -0.041029
   7 H :    0.093121
   8 H :    0.089894
   9 H :    0.027327
  10 H :   -0.001815
  11 H :    0.024169
  12 H :    0.041431
  13 H :    0.032086
  14 H :    0.039745
  15 H :    0.037316
Sum of atomic charges:    0.0000000

LOEWDIN ATOMIC CHARGES
----------------------
   0 N :   -0.078269
   1 C :    0.000564
   2 C :   -0.034816
   3 C :   -0.092345
   4 C :   -0.039479
   5 C :   -0.043258
   6 C :   -0.047592
   7 H :    0.055636
   8 H :    0.054120
   9 H :    0.045868
  10 H :    0.034861
  11 H :    0.030516
  12 H :    0.030592
  13 H :    0.027985
  14 H :    0.027721
  15 H :    0.027898

  Mayer bond orders larger than 0.1
B(  0-N ,  1-C ) :   1.0996 B(  0-N ,  7-H ) :   0.9661 B(  0-N ,  8-H ) :   0.9664
B(  1-C ,  2-C ) :   0.9376 B(  1-C ,  4-C ) :   1.0067 B(  1-C ,  9-H ) :   0.8712
B(  2-C ,  3-C ) :   2.3281 B(  2-C , 10-H ) :  -0.1158 B(  3-C , 10-H ) :   1.1051
B(  4-C ,  5-C ) :   0.9954 B(  4-C ,  6-C ) :   0.9885 B(  4-C , 11-H ) :   0.9371
B(  5-C ,  6-C ) :   1.0432 B(  5-C , 12-H ) :   0.9338 B(  5-C , 13-H ) :   0.9447
B(  6-C , 14-H ) :   0.9437 B(  6-C , 15-H ) :   0.9476

FINAL SINGLE POINT ENERGY      -288.103725825253

DIPOLE MOMENT
-------------
                                X             Y             Z
Electronic contribution:     -0.66340       2.51364      -1.66884
Nuclear contribution   :      0.60750      -2.27333       1.77651
                        -----------------------------------------
Total Dipole Moment    :     -0.05590       0.24031       0.10767
                        -----------------------------------------
Magnitude (a.u.)       :      0.26920
Magnitude (Debye)      :      0.68425

                             ****ORCA TERMINATED NORMALLY****
TOTAL RUN TIME: 0 days 0 hours 0 minutes 7 seconds 431 msec
