                         Program Version 3.0.3 - RELEASE   -
|  1> ! RI PBE def2-SVP def2-SVP/J NBO PAL2
|  2> % maxcore 2000
|  3> % output
|  4>     # printlevel mini
|  5>     print[ P_Basis ] 0
|  6>     print[ P_SCFInfo ] 1
|  7>     print[ P_SCFIterInfo ] 1
|  8>     print[ P_OrbEn ] 0
|  9>     print[ P_Cartesian ] 0
| 10> end
| 11> *xyz 0 1
| 12>  N        1.6059880000     0.3846070000    -0.6280270000
| 13>  C        2.9561110000    -0.0109790000    -0.2476550000
| 14>  C        3.2517050000     0.4324970000     1.1461660000
| 15>  C        4.2991770000     1.1745070000     1.4887160000
| 16>  C        4.6604500000     1.6098410000     2.8530310000
| 17>  C        4.0968860000     0.9647470000     4.0783090000
| 18>  C        5.5331740000     0.7385740000     3.7212040000
| 19>  H        1.3728490000     0.0296120000    -1.5467110000
| 20>  H        1.5367420000     1.3942120000    -0.6663710000
| 21>  H        3.7453600000     0.3611820000    -0.9193030000
| 22>  H        2.9964380000    -1.1063070000    -0.2918460000
| 23>  H        2.5294720000     0.1219290000     1.8977520000
| 24>  H        4.9836850000     1.4945790000     0.7023490000
| 25>  H        4.8701590000     2.6728580000     2.9365110000
| 26>  H        3.4133760000     0.1353810000     3.9499610000
| 27>  H        3.8727120000     1.5998000000     4.9261440000
| 28>  H        5.8018590000    -0.2337620000     3.3268060000
| 29>  H        6.2994480000     1.2157210000     4.3197650000
| 30> *
| 31>
| 32>                          ****END OF INPUT****
 Total Charge           Charge          ....    0
 Multiplicity           Mult            ....    1
 Number of Electrons    NEL             ....   54
 Basis Dimension        Dim             ....  153

MULLIKEN ATOMIC CHARGES
-----------------------
   0 N :   -0.225898
   1 C :    0.145565
   2 C :   -0.095324
   3 C :    0.003876
   4 C :   -0.101833
   5 C :   -0.033072
   6 C :   -0.022111
   7 H :    0.086077
   8 H :    0.087436
   9 H :   -0.016171
  10 H :    0.018076
  11 H :   -0.004257
  12 H :   -0.011886
  13 H :    0.031566
  14 H :    0.040031
  15 H :    0.031692
  16 H :    0.033827
  17 H :    0.032407
Sum of atomic charges:   -0.0000000

LOEWDIN ATOMIC CHARGES
----------------------
   0 N :   -0.112015
   1 C :    0.005037
   2 C :   -0.049196
   3 C :   -0.037948
   4 C :   -0.047781
   5 C :   -0.042767
   6 C :   -0.034081
   7 H :    0.050839
   8 H :    0.050397
   9 H :    0.001147
  10 H :    0.029479
  11 H :    0.023221
  12 H :    0.022671
  13 H :    0.033481
  14 H :    0.027460
  15 H :    0.027955
  16 H :    0.026754
  17 H :    0.025347

  Mayer bond orders larger than 0.1
B(  0-N ,  1-C ) :   1.0609 B(  0-N ,  7-H ) :   0.9640 B(  0-N ,  8-H ) :   0.9735
B(  1-C ,  2-C ) :   1.0630 B(  1-C ,  9-H ) :   0.9213 B(  1-C , 10-H ) :   0.9134
B(  2-C ,  3-C ) :   1.8862 B(  2-C , 11-H ) :   0.9471 B(  3-C ,  4-C ) :   1.0593
B(  3-C , 12-H ) :   0.9518 B(  4-C ,  5-C ) :   1.0099 B(  4-C ,  6-C ) :   0.9721
B(  4-C , 13-H ) :   0.9275 B(  5-C ,  6-C ) :   1.0513 B(  5-C , 14-H ) :   0.9409
B(  5-C , 15-H ) :   0.9405 B(  6-C , 16-H ) :   0.9507 B(  6-C , 17-H ) :   0.9482

FINAL SINGLE POINT ENERGY      -289.348586111234

DIPOLE MOMENT
-------------
                                X             Y             Z
Electronic contribution:     -0.15234       0.65094      -0.10571
Nuclear contribution   :      0.39008      -0.44978      -0.22618
                        -----------------------------------------
Total Dipole Moment    :      0.23774       0.20116      -0.33189
                        -----------------------------------------
Magnitude (a.u.)       :      0.45512
Magnitude (Debye)      :      1.15683

                             ****ORCA TERMINATED NORMALLY****
TOTAL RUN TIME: 0 days 0 hours 0 minutes 7 seconds 665 msec
