                         Program Version 3.0.3 - RELEASE   -
|  1> ! RI PBE def2-SVP def2-SVP/J NBO PAL2
|  2> % maxcore 2000
|  3> % output
|  4>     # printlevel mini
|  5>     print[ P_Basis ] 0
|  6>     print[ P_SCFInfo ] 1
|  7>     print[ P_SCFIterInfo ] 1
|  8>     print[ P_OrbEn ] 0
|  9>     print[ P_Cartesian ] 0
| 10> end
| 11> *xyz 0 1
| 12>  N        1.3452620000     0.6961580000     0.2140450000
| 13>  C        2.7450690000     0.3291500000     0.1396510000
| 14>  C        3.2491330000    -0.3829080000     1.3648440000
| 15>  C        2.4468600000    -0.7589220000     2.3548530000
| 16>  C        4.7140990000    -0.6253550000     1.3534160000
| 17>  C        5.3641590000    -1.6886650000     2.1763220000
| 18>  C        5.2636640000    -1.8641020000     0.6927400000
| 19>  H        1.0343320000     1.0841800000    -0.6664800000
| 20>  H        1.2038360000     1.4058340000     0.9228070000
| 21>  H        3.4196900000     1.1829940000    -0.0467450000
| 22>  H        2.8798220000    -0.3391640000    -0.7196760000
| 23>  H        1.3778140000    -0.5970630000     2.2934450000
| 24>  H        2.8358260000    -1.2499390000     3.2387630000
| 25>  H        5.3079590000     0.2707430000     1.1897190000
| 26>  H        4.7324300000    -2.3124380000     2.7952620000
| 27>  H        6.3359390000    -1.4735860000     2.6028330000
| 28>  H        4.5427860000    -2.5854800000     0.3269290000
| 29>  H        6.1622200000    -1.7745280000     0.0946810000
| 30> *
| 31>
| 32>                          ****END OF INPUT****
 Total Charge           Charge          ....    0
 Multiplicity           Mult            ....    1
 Number of Electrons    NEL             ....   54
 Basis Dimension        Dim             ....  153

MULLIKEN ATOMIC CHARGES
-----------------------
   0 N :   -0.200593
   1 C :    0.166155
   2 C :   -0.143024
   3 C :   -0.020607
   4 C :   -0.108609
   5 C :   -0.025013
   6 C :   -0.027110
   7 H :    0.089347
   8 H :    0.092938
   9 H :   -0.009295
  10 H :    0.011994
  11 H :    0.011929
  12 H :    0.000922
  13 H :    0.024504
  14 H :    0.039718
  15 H :    0.026944
  16 H :    0.036603
  17 H :    0.033197
Sum of atomic charges:   -0.0000000

LOEWDIN ATOMIC CHARGES
----------------------
   0 N :   -0.101379
   1 C :    0.011736
   2 C :   -0.038876
   3 C :   -0.076101
   4 C :   -0.040121
   5 C :   -0.040514
   6 C :   -0.037800
   7 H :    0.054736
   8 H :    0.052823
   9 H :    0.007130
  10 H :    0.032237
  11 H :    0.019448
  12 H :    0.017969
  13 H :    0.029776
  14 H :    0.028430
  15 H :    0.027298
  16 H :    0.027923
  17 H :    0.025284

  Mayer bond orders larger than 0.1
B(  0-N ,  1-C ) :   1.1175 B(  0-N ,  7-H ) :   0.9609 B(  0-N ,  8-H ) :   0.9636
B(  1-C ,  2-C ) :   1.0057 B(  1-C ,  9-H ) :   0.9127 B(  1-C , 10-H ) :   0.9069
B(  2-C ,  3-C ) :   2.0073 B(  2-C ,  4-C ) :   1.0452 B(  3-C , 11-H ) :   0.9107
B(  3-C , 12-H ) :   0.9190 B(  4-C ,  5-C ) :   1.0061 B(  4-C ,  6-C ) :   0.9864
B(  4-C , 13-H ) :   0.9251 B(  5-C ,  6-C ) :   1.0511 B(  5-C , 14-H ) :   0.9425
B(  5-C , 15-H ) :   0.9377 B(  6-C , 16-H ) :   0.9461 B(  6-C , 17-H ) :   0.9471

FINAL SINGLE POINT ENERGY      -289.348982857982

DIPOLE MOMENT
-------------
                                X             Y             Z
Electronic contribution:     -0.51825       0.46507       0.31461
Nuclear contribution   :      0.75079       0.02882      -0.63443
                        -----------------------------------------
Total Dipole Moment    :      0.23254       0.49389      -0.31982
                        -----------------------------------------
Magnitude (a.u.)       :      0.63268
Magnitude (Debye)      :      1.60815

                             ****ORCA TERMINATED NORMALLY****
TOTAL RUN TIME: 0 days 0 hours 0 minutes 7 seconds 900 msec
