                         Program Version 3.0.3 - RELEASE   -
|  1> ! RI PBE def2-SVP def2-SVP/J NBO PAL2
|  2> % maxcore 2000
|  3> % output
|  4>     # printlevel mini
|  5>     print[ P_Basis ] 0
|  6>     print[ P_SCFInfo ] 1
|  7>     print[ P_SCFIterInfo ] 1
|  8>     print[ P_OrbEn ] 0
|  9>     print[ P_Cartesian ] 0
| 10> end
| 11> *xyz 0 1
| 12>  N        1.0714890000     0.1457530000    -0.0888670000
| 13>  C        2.5162170000    -0.0150040000     0.0442180000
| 14>  C        3.0329430000     0.7000660000     1.2013180000
| 15>  C        3.4644890000     1.3115930000     2.1445490000
| 16>  C        3.9750800000     2.0254850000     3.2756920000
| 17>  C        5.2752990000     2.7838590000     3.1630730000
| 18>  C        3.9930860000     3.5346940000     3.2707100000
| 19>  H        0.7571690000    -0.2784880000    -0.9532450000
| 20>  H        0.8390190000     1.1302620000    -0.1332720000
| 21>  H        3.0853210000     0.3164780000    -0.8392160000
| 22>  H        2.7297160000    -1.0830250000     0.1636930000
| 23>  H        3.7816770000     1.5582080000     4.2355950000
| 24>  H        5.7716630000     2.7594470000     2.2020130000
| 25>  H        5.9357150000     2.7614890000     4.0206870000
| 26>  H        3.6136270000     4.0236610000     2.3832710000
| 27>  H        3.7624910000     4.0342110000     4.2031810000
| 28> *
| 29>
| 30>                          ****END OF INPUT****
 Total Charge           Charge          ....    0
 Multiplicity           Mult            ....    1
 Number of Electrons    NEL             ....   52
 Basis Dimension        Dim             ....  143

MULLIKEN ATOMIC CHARGES
-----------------------
   0 N :   -0.215178
   1 C :    0.168301
   2 C :   -0.163170
   3 C :    0.000715
   4 C :   -0.194052
   5 C :   -0.017723
   6 C :   -0.004006
   7 H :    0.086225
   8 H :    0.091359
   9 H :    0.011265
  10 H :    0.024873
  11 H :    0.044946
  12 H :    0.044807
  13 H :    0.041007
  14 H :    0.043008
  15 H :    0.037623
Sum of atomic charges:   -0.0000000

LOEWDIN ATOMIC CHARGES
----------------------
   0 N :   -0.108944
   1 C :    0.000643
   2 C :   -0.070332
   3 C :   -0.049434
   4 C :   -0.051456
   5 C :   -0.027924
   6 C :   -0.025603
   7 H :    0.051638
   8 H :    0.052112
   9 H :    0.020370
  10 H :    0.041229
  11 H :    0.042541
  12 H :    0.032614
  13 H :    0.030463
  14 H :    0.032150
  15 H :    0.029933

  Mayer bond orders larger than 0.1
B(  0-N ,  1-C ) :   1.0789 B(  0-N ,  7-H ) :   0.9612 B(  0-N ,  8-H ) :   0.9684
B(  1-C ,  2-C ) :   1.0710 B(  1-C ,  9-H ) :   0.9006 B(  1-C , 10-H ) :   0.8900
B(  2-C ,  3-C ) :   2.5087 B(  3-C ,  4-C ) :   1.0396 B(  4-C ,  5-C ) :   0.9680
B(  4-C ,  6-C ) :   0.9643 B(  4-C , 11-H ) :   0.9244 B(  5-C ,  6-C ) :   1.0448
B(  5-C , 12-H ) :   0.9513 B(  5-C , 13-H ) :   0.9433 B(  6-C , 14-H ) :   0.9511
B(  6-C , 15-H ) :   0.9434

FINAL SINGLE POINT ENERGY      -288.108978627674

DIPOLE MOMENT
-------------
                                X             Y             Z
Electronic contribution:     -0.40984      -1.36939       0.54104
Nuclear contribution   :      0.62807       1.70864      -0.89212
                        -----------------------------------------
Total Dipole Moment    :      0.21823       0.33925      -0.35108
                        -----------------------------------------
Magnitude (a.u.)       :      0.53477
Magnitude (Debye)      :      1.35927

                             ****ORCA TERMINATED NORMALLY****
TOTAL RUN TIME: 0 days 0 hours 0 minutes 6 seconds 744 msec
