                         Program Version 3.0.3 - RELEASE   -
|  1> ! RI PBE def2-SVP def2-SVP/J NBO PAL2
|  2> % maxcore 2000
|  3> % output
|  4>     # printlevel mini
|  5>     print[ P_Basis ] 0
|  6>     print[ P_SCFInfo ] 1
|  7>     print[ P_SCFIterInfo ] 1
|  8>     print[ P_OrbEn ] 0
|  9>     print[ P_Cartesian ] 0
| 10> end
| 11> *xyz 0 1
| 12>  N        1.3979370000    -2.2650090000    -0.9310910000
| 13>  C        2.7270560000    -1.8651090000    -1.3739520000
| 14>  C        2.8566250000    -0.3525990000    -1.3465150000
| 15>  C        4.2447840000     0.1692090000    -1.6988530000
| 16>  C        4.6809140000    -0.1208200000    -3.1087800000
| 17>  C        6.1110540000    -0.1261510000    -3.4651920000
| 18>  N        5.3477080000    -1.3733050000    -3.4558350000
| 19>  H        1.3134840000    -3.2738740000    -0.9269910000
| 20>  H        0.6987170000    -1.9196830000    -1.5784410000
| 21>  H        2.9889550000    -2.2382540000    -2.3748870000
| 22>  H        3.4537140000    -2.2962580000    -0.6751150000
| 23>  H        2.5739270000    -0.0032620000    -0.3488830000
| 24>  H        2.1257710000     0.0813920000    -2.0414610000
| 25>  H        4.9878830000    -0.2460410000    -1.0051290000
| 26>  H        4.2604210000     1.2543430000    -1.5463420000
| 27>  H        3.9780510000     0.2045580000    -3.8738190000
| 28>  H        6.8235840000     0.0510820000    -2.6646450000
| 29>  H        6.4357360000     0.2073660000    -4.4448060000
| 30>  H        5.5564910000    -1.8965030000    -2.6112540000
| 31> *
| 32>
| 33>                          ****END OF INPUT****
 Total Charge           Charge          ....    0
 Multiplicity           Mult            ....    1
 Number of Electrons    NEL             ....   56
 Basis Dimension        Dim             ....  158

MULLIKEN ATOMIC CHARGES
-----------------------
   0 N :   -0.213437
   1 C :    0.055389
   2 C :   -0.009243
   3 C :    0.072353
   4 C :   -0.125268
   5 C :    0.046569
   6 N :   -0.199382
   7 H :    0.087197
   8 H :    0.086963
   9 H :    0.009019
  10 H :   -0.004463
  11 H :    0.007659
  12 H :    0.001586
  13 H :   -0.016399
  14 H :    0.023213
  15 H :    0.019502
  16 H :    0.024018
  17 H :    0.030126
  18 H :    0.104597
Sum of atomic charges:   -0.0000000

LOEWDIN ATOMIC CHARGES
----------------------
   0 N :   -0.113636
   1 C :    0.001843
   2 C :   -0.046302
   3 C :   -0.046806
   4 C :   -0.011059
   5 C :   -0.000431
   6 N :   -0.108577
   7 H :    0.052325
   8 H :    0.049482
   9 H :    0.003262
  10 H :    0.015865
  11 H :    0.025526
  12 H :    0.020625
  13 H :    0.021966
  14 H :    0.034665
  15 H :    0.020633
  16 H :    0.013678
  17 H :    0.019993
  18 H :    0.046945

  Mayer bond orders larger than 0.1
B(  0-N ,  1-C ) :   1.0905 B(  0-N ,  7-H ) :   0.9658 B(  0-N ,  8-H ) :   0.9699
B(  1-C ,  2-C ) :   1.0927 B(  1-C ,  9-H ) :   0.9286 B(  1-C , 10-H ) :   0.9293
B(  2-C ,  3-C ) :   1.0977 B(  2-C , 11-H ) :   0.9235 B(  2-C , 12-H ) :   0.9293
B(  3-C ,  4-C ) :   1.0589 B(  3-C , 13-H ) :   0.9017 B(  3-C , 14-H ) :   0.9186
B(  4-C ,  5-C ) :   1.0491 B(  4-C ,  6-N ) :   0.9753 B(  4-C , 15-H ) :   0.9324
B(  5-C ,  6-N ) :   1.0075 B(  5-C , 16-H ) :   0.9404 B(  5-C , 17-H ) :   0.9390
B(  6-N , 18-H ) :   0.9407

FINAL SINGLE POINT ENERGY      -306.577474678513

DIPOLE MOMENT
-------------
                                X             Y             Z
Electronic contribution:      1.20931      -0.41441      -1.75264
Nuclear contribution   :     -1.18066       0.50567       1.87416
                        -----------------------------------------
Total Dipole Moment    :      0.02865       0.09126       0.12152
                        -----------------------------------------
Magnitude (a.u.)       :      0.15465
Magnitude (Debye)      :      0.39310

                             ****ORCA TERMINATED NORMALLY****
TOTAL RUN TIME: 0 days 0 hours 0 minutes 8 seconds 245 msec
