                         Program Version 3.0.3 - RELEASE   -
|  1> ! RI PBE def2-SVP def2-SVP/J NBO PAL2
|  2> % maxcore 2000
|  3> % output
|  4>     # printlevel mini
|  5>     print[ P_Basis ] 0
|  6>     print[ P_SCFInfo ] 1
|  7>     print[ P_SCFIterInfo ] 1
|  8>     print[ P_OrbEn ] 0
|  9>     print[ P_Cartesian ] 0
| 10> end
| 11> *xyz 0 1
| 12>  N        0.9258970000     0.0039070000     0.1280810000
| 13>  C        2.0751320000    -0.0268440000     0.1269760000
| 14>  C        3.5284540000    -0.0461060000     0.1502050000
| 15>  C        4.1091810000     0.9308920000     1.1780020000
| 16>  C        5.6089060000     0.8847330000     1.1982130000
| 17>  C        6.3494810000     1.1656960000     2.4399220000
| 18>  N        6.3051260000    -0.1911290000     1.8975380000
| 19>  H        3.8923200000     0.1974190000    -0.8525700000
| 20>  H        3.8567020000    -1.0677430000     0.3635850000
| 21>  H        3.7174660000     0.6907900000     2.1717180000
| 22>  H        3.7688930000     1.9436740000     0.9422770000
| 23>  H        6.0849070000     1.1527580000     0.2570400000
| 24>  H        5.7685560000     1.3881790000     3.3299890000
| 25>  H        7.3205050000     1.6461450000     2.3979180000
| 26>  H        5.6433830000    -0.7516900000     2.4262170000
| 27> *
| 28>
| 29>                          ****END OF INPUT****
 Total Charge           Charge          ....    0
 Multiplicity           Mult            ....    1
 Number of Electrons    NEL             ....   52
 Basis Dimension        Dim             ....  138

MULLIKEN ATOMIC CHARGES
-----------------------
   0 N :    0.066505
   1 C :   -0.265272
   2 C :    0.044917
   3 C :    0.039384
   4 C :   -0.097887
   5 C :    0.047420
   6 N :   -0.196623
   7 H :    0.053431
   8 H :    0.053606
   9 H :    0.010316
  10 H :    0.041337
  11 H :    0.024844
  12 H :    0.031552
  13 H :    0.040236
  14 H :    0.106234
Sum of atomic charges:   -0.0000000

LOEWDIN ATOMIC CHARGES
----------------------
   0 N :   -0.065972
   1 C :   -0.045816
   2 C :   -0.055949
   3 C :   -0.030734
   4 C :   -0.010013
   5 C :    0.006693
   6 N :   -0.103429
   7 H :    0.059255
   8 H :    0.057547
   9 H :    0.031883
  10 H :    0.040993
  11 H :    0.023563
  12 H :    0.016682
  13 H :    0.024420
  14 H :    0.050880

  Mayer bond orders larger than 0.1
B(  0-N ,  1-C ) :   3.0580 B(  1-C ,  2-C ) :   1.1356 B(  2-C ,  3-C ) :   1.0863
B(  2-C ,  7-H ) :   0.8885 B(  2-C ,  8-H ) :   0.8938 B(  3-C ,  4-C ) :   1.0814
B(  3-C ,  9-H ) :   0.9122 B(  3-C , 10-H ) :   0.9226 B(  4-C ,  5-C ) :   1.0616
B(  4-C ,  6-N ) :   0.9929 B(  4-C , 11-H ) :   0.9200 B(  5-C ,  6-N ) :   1.0056
B(  5-C , 12-H ) :   0.9416 B(  5-C , 13-H ) :   0.9374 B(  6-N , 14-H ) :   0.9468

FINAL SINGLE POINT ENERGY      -304.177234220244

DIPOLE MOMENT
-------------
                                X             Y             Z
Electronic contribution:     -5.19775      -1.62661      -2.17841
Nuclear contribution   :      6.18875       1.94101       2.49362
                        -----------------------------------------
Total Dipole Moment    :      0.99100       0.31440       0.31522
                        -----------------------------------------
Magnitude (a.u.)       :      1.08642
Magnitude (Debye)      :      2.76145

                             ****ORCA TERMINATED NORMALLY****
TOTAL RUN TIME: 0 days 0 hours 0 minutes 6 seconds 648 msec
