                         Program Version 3.0.3 - RELEASE   -
|  1> ! RI PBE def2-SVP def2-SVP/J NBO PAL2
|  2> % maxcore 2000
|  3> % output
|  4>     # printlevel mini
|  5>     print[ P_Basis ] 0
|  6>     print[ P_SCFInfo ] 1
|  7>     print[ P_SCFIterInfo ] 1
|  8>     print[ P_OrbEn ] 0
|  9>     print[ P_Cartesian ] 0
| 10> end
| 11> *xyz 0 1
| 12>  N        0.9083870000    -0.0829890000    -0.7010880000
| 13>  C        2.0605930000    -0.0891210000    -0.7211900000
| 14>  C        3.4809280000    -0.1260990000    -0.7530600000
| 15>  C        4.2322100000     0.9409560000    -0.4720450000
| 16>  C        5.7040180000     0.9836400000    -0.5272360000
| 17>  C        6.4898210000     0.0189310000    -1.3162640000
| 18>  N        6.3636250000     1.3978760000    -1.7758490000
| 19>  H        3.9260390000    -1.0809520000    -1.0119560000
| 20>  H        3.7372190000     1.8651660000    -0.1836640000
| 21>  H        6.1684560000     1.4293530000     0.3486300000
| 22>  H        5.9620770000    -0.7566370000    -1.8608620000
| 23>  H        7.4801190000    -0.2605980000    -0.9749000000
| 24>  H        5.6747970000     1.4472940000    -2.5210370000
| 25> *
| 26>
| 27>                          ****END OF INPUT****
 Total Charge           Charge          ....    0
 Multiplicity           Mult            ....    1
 Number of Electrons    NEL             ....   50
 Basis Dimension        Dim             ....  128

MULLIKEN ATOMIC CHARGES
-----------------------
   0 N :    0.045816
   1 C :   -0.092098
   2 C :   -0.118142
   3 C :    0.029586
   4 C :   -0.058196
   5 C :    0.053875
   6 N :   -0.183804
   7 H :    0.045869
   8 H :    0.035048
   9 H :    0.043371
  10 H :    0.040083
  11 H :    0.045276
  12 H :    0.113315
Sum of atomic charges:    0.0000000

LOEWDIN ATOMIC CHARGES
----------------------
   0 N :   -0.052162
   1 C :   -0.042584
   2 C :   -0.070028
   3 C :    0.013659
   4 C :   -0.007633
   5 C :    0.010225
   6 N :   -0.083210
   7 H :    0.048881
   8 H :    0.043969
   9 H :    0.034843
  10 H :    0.018483
  11 H :    0.028809
  12 H :    0.056750

  Mayer bond orders larger than 0.1
B(  0-N ,  1-C ) :   2.9659 B(  0-N ,  3-C ) :   0.1067 B(  1-C ,  2-C ) :   1.1050
B(  2-C ,  3-C ) :   1.8202 B(  2-C ,  7-H ) :   0.9372 B(  3-C ,  4-C ) :   1.0618
B(  3-C ,  8-H ) :   0.9578 B(  4-C ,  5-C ) :   1.0669 B(  4-C ,  6-N ) :   0.9731
B(  4-C ,  9-H ) :   0.9138 B(  5-C ,  6-N ) :   0.9924 B(  5-C , 10-H ) :   0.9353
B(  5-C , 11-H ) :   0.9328 B(  6-N , 12-H ) :   0.9459

FINAL SINGLE POINT ENERGY      -302.958755068970

DIPOLE MOMENT
-------------
                                X             Y             Z
Electronic contribution:     -5.85199      -0.17752       0.60254
Nuclear contribution   :      7.04576      -0.01995      -0.65225
                        -----------------------------------------
Total Dipole Moment    :      1.19378      -0.19747      -0.04971
                        -----------------------------------------
Magnitude (a.u.)       :      1.21102
Magnitude (Debye)      :      3.07817

                             ****ORCA TERMINATED NORMALLY****
TOTAL RUN TIME: 0 days 0 hours 0 minutes 6 seconds 5 msec
