                         Program Version 3.0.3 - RELEASE   -
|  1> ! RI PBE def2-SVP def2-SVP/J NBO PAL2
|  2> % maxcore 2000
|  3> % output
|  4>     # printlevel mini
|  5>     print[ P_Basis ] 0
|  6>     print[ P_SCFInfo ] 1
|  7>     print[ P_SCFIterInfo ] 1
|  8>     print[ P_OrbEn ] 0
|  9>     print[ P_Cartesian ] 0
| 10> end
| 11> *xyz 0 1
| 12>  N        1.0190900000     0.1067740000     0.0154230000
| 13>  C        2.1741080000     0.0713690000     0.0307840000
| 14>  C        3.5390400000     0.0292990000     0.0460290000
| 15>  C        4.7456470000    -0.0138000000     0.0547860000
| 16>  C        6.1715440000    -0.0382000000     0.0699500000
| 17>  C        6.8938500000    -0.7291190000    -1.0334480000
| 18>  N        6.9222720000     0.7153500000    -0.9414470000
| 19>  H        6.6199830000    -0.0235390000     1.0584550000
| 20>  H        6.2909930000    -1.2003500000    -1.8019140000
| 21>  H        7.8277680000    -1.2266870000    -0.7977370000
| 22>  H        6.2801950000     1.1312030000    -1.6086710000
| 23> *
| 24>
| 25>                          ****END OF INPUT****
 Total Charge           Charge          ....    0
 Multiplicity           Mult            ....    1
 Number of Electrons    NEL             ....   48
 Basis Dimension        Dim             ....  118

MULLIKEN ATOMIC CHARGES
-----------------------
   0 N :    0.101726
   1 C :   -0.167502
   2 C :    0.063077
   3 C :   -0.054491
   4 C :   -0.170023
   5 C :    0.069540
   6 N :   -0.154733
   7 H :    0.071650
   8 H :    0.057320
   9 H :    0.057983
  10 H :    0.125452
Sum of atomic charges:   -0.0000000

LOEWDIN ATOMIC CHARGES
----------------------
   0 N :   -0.025173
   1 C :   -0.049405
   2 C :   -0.079776
   3 C :    0.024983
   4 C :   -0.013570
   5 C :    0.033932
   6 N :   -0.065956
   7 H :    0.049628
   8 H :    0.027372
   9 H :    0.032646
  10 H :    0.065319

  Mayer bond orders larger than 0.1
B(  0-N ,  1-C ) :   2.8657 B(  0-N ,  2-C ) :   0.1165 B(  0-N ,  3-C ) :   0.1795
B(  1-C ,  2-C ) :   1.0033 B(  1-C ,  3-C ) :  -0.1013 B(  2-C ,  3-C ) :   2.2122
B(  3-C ,  4-C ) :   1.0129 B(  4-C ,  5-C ) :   1.0057 B(  4-C ,  6-N ) :   0.9967
B(  4-C ,  7-H ) :   0.9138 B(  5-C ,  6-N ) :   0.9976 B(  5-C ,  8-H ) :   0.9442
B(  5-C ,  9-H ) :   0.9355 B(  6-N , 10-H ) :   0.9444

FINAL SINGLE POINT ENERGY      -301.723039741577

DIPOLE MOMENT
-------------
                                X             Y             Z
Electronic contribution:     -6.71314       0.95546       1.58527
Nuclear contribution   :      8.18728      -1.31553      -1.89210
                        -----------------------------------------
Total Dipole Moment    :      1.47413      -0.36007      -0.30684
                        -----------------------------------------
Magnitude (a.u.)       :      1.54818
Magnitude (Debye)      :      3.93517

                             ****ORCA TERMINATED NORMALLY****
TOTAL RUN TIME: 0 days 0 hours 0 minutes 5 seconds 773 msec
