                         Program Version 3.0.3 - RELEASE   -
|  1> ! RI PBE def2-SVP def2-SVP/J NBO PAL2
|  2> % maxcore 2000
|  3> % output
|  4>     # printlevel mini
|  5>     print[ P_Basis ] 0
|  6>     print[ P_SCFInfo ] 1
|  7>     print[ P_SCFIterInfo ] 1
|  8>     print[ P_OrbEn ] 0
|  9>     print[ P_Cartesian ] 0
| 10> end
| 11> *xyz 0 1
| 12>  N        0.6460260000     0.0073920000    -0.5233420000
| 13>  C        2.0670730000    -0.2388380000    -0.3866110000
| 14>  C        2.4798910000    -1.6684760000    -0.1643540000
| 15>  C        1.6654640000    -2.6963550000     0.0241130000
| 16>  C        2.8333160000     0.3402990000    -1.5672680000
| 17>  C        2.2414180000     0.4061980000    -2.9132550000
| 18>  N        2.4326850000     1.6200900000    -2.1194780000
| 19>  H        0.1848410000    -0.0115110000     0.3755260000
| 20>  H        0.2106340000    -0.7004660000    -1.1022190000
| 21>  H        2.4004440000     0.3337470000     0.4914310000
| 22>  H        3.5547780000    -1.8411400000    -0.1649830000
| 23>  H        0.5865660000    -2.5804300000     0.0445630000
| 24>  H        2.0495440000    -3.6985810000     0.1713410000
| 25>  H        3.9098140000     0.2084520000    -1.4893100000
| 26>  H        1.2268480000     0.0449610000    -3.0463410000
| 27>  H        2.8753350000     0.3170300000    -3.7886440000
| 28>  H        1.5346330000     1.8578080000    -1.7016590000
| 29> *
| 30>
| 31>                          ****END OF INPUT****
 Total Charge           Charge          ....    0
 Multiplicity           Mult            ....    1
 Number of Electrons    NEL             ....   54
 Basis Dimension        Dim             ....  148

MULLIKEN ATOMIC CHARGES
-----------------------
   0 N :   -0.178989
   1 C :    0.092259
   2 C :   -0.038159
   3 C :   -0.047961
   4 C :   -0.103392
   5 C :    0.041629
   6 N :   -0.185681
   7 H :    0.103833
   8 H :    0.100977
   9 H :    0.022339
  10 H :    0.004164
  11 H :   -0.003939
  12 H :    0.026355
  13 H :    0.021175
  14 H :    0.013337
  15 H :    0.031008
  16 H :    0.101046
Sum of atomic charges:   -0.0000000

LOEWDIN ATOMIC CHARGES
----------------------
   0 N :   -0.070758
   1 C :   -0.009327
   2 C :   -0.036000
   3 C :   -0.075434
   4 C :   -0.016201
   5 C :   -0.000628
   6 N :   -0.101651
   7 H :    0.060820
   8 H :    0.052005
   9 H :    0.039295
  10 H :    0.028845
  11 H :    0.009859
  12 H :    0.027305
  13 H :    0.020346
  14 H :    0.009186
  15 H :    0.019562
  16 H :    0.042776

  Mayer bond orders larger than 0.1
B(  0-N ,  1-C ) :   1.1304 B(  0-N ,  7-H ) :   0.9605 B(  0-N ,  8-H ) :   0.9620
B(  1-C ,  2-C ) :   0.9932 B(  1-C ,  4-C ) :   0.9706 B(  1-C ,  9-H ) :   0.8797
B(  2-C ,  3-C ) :   2.0065 B(  2-C , 10-H ) :   0.9469 B(  3-C , 11-H ) :   0.9353
B(  3-C , 12-H ) :   0.9401 B(  4-C ,  5-C ) :   1.0698 B(  4-C ,  6-N ) :   1.0039
B(  4-C , 13-H ) :   0.9326 B(  5-C ,  6-N ) :   1.0149 B(  5-C , 14-H ) :   0.9331
B(  5-C , 15-H ) :   0.9411 B(  6-N , 16-H ) :   0.9324

FINAL SINGLE POINT ENERGY      -305.360649752342

DIPOLE MOMENT
-------------
                                X             Y             Z
Electronic contribution:      1.00185       2.09772      -0.18672
Nuclear contribution   :     -1.48407      -2.84831       0.68960
                        -----------------------------------------
Total Dipole Moment    :     -0.48222      -0.75059       0.50288
                        -----------------------------------------
Magnitude (a.u.)       :      1.02411
Magnitude (Debye)      :      2.60309

                             ****ORCA TERMINATED NORMALLY****
TOTAL RUN TIME: 0 days 0 hours 0 minutes 7 seconds 607 msec
