                         Program Version 3.0.3 - RELEASE   -
|  1> ! RI PBE def2-SVP def2-SVP/J NBO PAL2
|  2> % maxcore 2000
|  3> % output
|  4>     # printlevel mini
|  5>     print[ P_Basis ] 0
|  6>     print[ P_SCFInfo ] 1
|  7>     print[ P_SCFIterInfo ] 1
|  8>     print[ P_OrbEn ] 0
|  9>     print[ P_Cartesian ] 0
| 10> end
| 11> *xyz 0 1
| 12>  N        0.9014220000     0.0045580000     0.0703550000
| 13>  C        2.3498180000    -0.0257900000    -0.1069710000
| 14>  C        2.9904290000     1.2821650000     0.0678060000
| 15>  C        3.4772810000     2.3688410000     0.2317390000
| 16>  C        2.9326920000    -1.0713940000     0.8228830000
| 17>  C        4.3502720000    -1.0667800000     1.2130240000
| 18>  N        3.3121320000    -0.7361980000     2.1890790000
| 19>  H        0.4897000000     0.7034800000    -0.5361220000
| 20>  H        0.6795640000     0.2719500000     1.0229440000
| 21>  H        2.5412120000    -0.3581360000    -1.1347900000
| 22>  H        3.9058660000     3.3347250000     0.3626960000
| 23>  H        2.4151700000    -2.0215080000     0.7298290000
| 24>  H        4.9721280000    -0.2592150000     0.8398670000
| 25>  H        4.8615870000    -2.0076810000     1.3829810000
| 26>  H        3.2902360000     0.2736950000     2.3097890000
| 27> *
| 28>
| 29>                          ****END OF INPUT****
 Total Charge           Charge          ....    0
 Multiplicity           Mult            ....    1
 Number of Electrons    NEL             ....   52
 Basis Dimension        Dim             ....  138

MULLIKEN ATOMIC CHARGES
-----------------------
   0 N :   -0.159609
   1 C :    0.202480
   2 C :    0.290070
   3 C :   -0.504383
   4 C :   -0.117526
   5 C :    0.056300
   6 N :   -0.197806
   7 H :    0.096017
   8 H :    0.092756
   9 H :    0.032460
  10 H :    0.003935
  11 H :    0.029511
  12 H :    0.036598
  13 H :    0.033466
  14 H :    0.105732
Sum of atomic charges:   -0.0000000

LOEWDIN ATOMIC CHARGES
----------------------
   0 N :   -0.075312
   1 C :   -0.011239
   2 C :   -0.042157
   3 C :   -0.085744
   4 C :   -0.003060
   5 C :    0.001942
   6 N :   -0.100827
   7 H :    0.057260
   8 H :    0.056513
   9 H :    0.048410
  10 H :    0.037307
  11 H :    0.026537
  12 H :    0.018825
  13 H :    0.021929
  14 H :    0.049615

  Mayer bond orders larger than 0.1
B(  0-N ,  1-C ) :   1.1121 B(  0-N ,  7-H ) :   0.9674 B(  0-N ,  8-H ) :   0.9644
B(  1-C ,  2-C ) :   0.9124 B(  1-C ,  4-C ) :   0.9694 B(  1-C ,  9-H ) :   0.8702
B(  2-C ,  3-C ) :   2.3321 B(  2-C , 10-H ) :  -0.1161 B(  3-C , 10-H ) :   1.1051
B(  4-C ,  5-C ) :   1.0397 B(  4-C ,  6-N ) :   0.9687 B(  4-C , 11-H ) :   0.9314
B(  5-C ,  6-N ) :   1.0188 B(  5-C , 12-H ) :   0.9281 B(  5-C , 13-H ) :   0.9413
B(  6-N , 14-H ) :   0.9449

FINAL SINGLE POINT ENERGY      -304.114248584434

DIPOLE MOMENT
-------------
                                X             Y             Z
Electronic contribution:     -0.13690       1.36400      -0.15394
Nuclear contribution   :      0.18738      -0.65313      -0.27762
                        -----------------------------------------
Total Dipole Moment    :      0.05049       0.71088      -0.43155
                        -----------------------------------------
Magnitude (a.u.)       :      0.83314
Magnitude (Debye)      :      2.11768

                             ****ORCA TERMINATED NORMALLY****
TOTAL RUN TIME: 0 days 0 hours 0 minutes 7 seconds 55 msec
