                         Program Version 3.0.3 - RELEASE   -
|  1> ! RI PBE def2-SVP def2-SVP/J NBO PAL2
|  2> % maxcore 2000
|  3> % output
|  4>     # printlevel mini
|  5>     print[ P_Basis ] 0
|  6>     print[ P_SCFInfo ] 1
|  7>     print[ P_SCFIterInfo ] 1
|  8>     print[ P_OrbEn ] 0
|  9>     print[ P_Cartesian ] 0
| 10> end
| 11> *xyz 0 1
| 12>  N        1.6985240000     0.3130590000    -1.1183970000
| 13>  C        2.4803390000     0.0055360000     0.0719950000
| 14>  C        3.0667640000     1.2541730000     0.6421920000
| 15>  C        4.3635360000     1.4432820000     0.8590590000
| 16>  C        4.9881710000     2.6635900000     1.4072750000
| 17>  C        5.3047900000     3.8103010000     0.5209780000
| 18>  N        4.2651160000     3.9166520000     1.5383520000
| 19>  H        1.2145360000    -0.5101230000    -1.4535870000
| 20>  H        2.3058900000     0.6320420000    -1.8632350000
| 21>  H        3.2833580000    -0.7299290000    -0.0884900000
| 22>  H        1.7936110000    -0.4312910000     0.8067370000
| 23>  H        2.3452090000     2.0356670000     0.8730220000
| 24>  H        5.0557980000     0.6326520000     0.6333080000
| 25>  H        5.6788280000     2.4805990000     2.2281460000
| 26>  H        5.0035810000     3.7252180000    -0.5183210000
| 27>  H        6.1935000000     4.4057940000     0.7013880000
| 28>  H        3.3510280000     3.8406770000     1.1049700000
| 29> *
| 30>
| 31>                          ****END OF INPUT****
 Total Charge           Charge          ....    0
 Multiplicity           Mult            ....    1
 Number of Electrons    NEL             ....   54
 Basis Dimension        Dim             ....  148

MULLIKEN ATOMIC CHARGES
-----------------------
   0 N :   -0.224287
   1 C :    0.139082
   2 C :   -0.113274
   3 C :    0.011640
   4 C :   -0.060636
   5 C :    0.042287
   6 N :   -0.186101
   7 H :    0.089223
   8 H :    0.085914
   9 H :   -0.008424
  10 H :    0.018123
  11 H :    0.001044
  12 H :   -0.006355
  13 H :    0.034488
  14 H :    0.031524
  15 H :    0.039101
  16 H :    0.106653
Sum of atomic charges:    0.0000000

LOEWDIN ATOMIC CHARGES
----------------------
   0 N :   -0.110765
   1 C :    0.006102
   2 C :   -0.051248
   3 C :   -0.050302
   4 C :   -0.010876
   5 C :    0.009857
   6 N :   -0.093858
   7 H :    0.052105
   8 H :    0.049894
   9 H :    0.003400
  10 H :    0.031162
  11 H :    0.020770
  12 H :    0.026866
  13 H :    0.029877
  14 H :    0.015797
  15 H :    0.020479
  16 H :    0.050739

  Mayer bond orders larger than 0.1
B(  0-N ,  1-C ) :   1.0634 B(  0-N ,  7-H ) :   0.9648 B(  0-N ,  8-H ) :   0.9728
B(  1-C ,  2-C ) :   1.0714 B(  1-C ,  9-H ) :   0.9239 B(  1-C , 10-H ) :   0.9124
B(  2-C ,  3-C ) :   1.8580 B(  2-C , 11-H ) :   0.9454 B(  3-C ,  4-C ) :   1.0407
B(  3-C , 12-H ) :   0.9458 B(  4-C ,  5-C ) :   1.0352 B(  4-C ,  6-N ) :   1.0281
B(  4-C , 13-H ) :   0.9178 B(  5-C ,  6-N ) :   1.0019 B(  5-C , 14-H ) :   0.9429
B(  5-C , 15-H ) :   0.9422 B(  6-N , 16-H ) :   0.9465

FINAL SINGLE POINT ENERGY      -305.358782919360

DIPOLE MOMENT
-------------
                                X             Y             Z
Electronic contribution:      0.84710       1.92427       1.84204
Nuclear contribution   :     -0.69276      -2.65894      -2.54514
                        -----------------------------------------
Total Dipole Moment    :      0.15434      -0.73467      -0.70309
                        -----------------------------------------
Magnitude (a.u.)       :      1.02854
Magnitude (Debye)      :      2.61435

                             ****ORCA TERMINATED NORMALLY****
TOTAL RUN TIME: 0 days 0 hours 0 minutes 7 seconds 772 msec
