                         Program Version 3.0.3 - RELEASE   -
|  1> ! RI PBE def2-SVP def2-SVP/J NBO PAL2
|  2> % maxcore 2000
|  3> % output
|  4>     # printlevel mini
|  5>     print[ P_Basis ] 0
|  6>     print[ P_SCFInfo ] 1
|  7>     print[ P_SCFIterInfo ] 1
|  8>     print[ P_OrbEn ] 0
|  9>     print[ P_Cartesian ] 0
| 10> end
| 11> *xyz 0 1
| 12>  N        1.2485790000    -0.4688450000    -0.2297690000
| 13>  C        2.6600520000    -0.1553710000    -0.1492900000
| 14>  C        3.1125190000     0.8459890000    -1.1766150000
| 15>  C        2.2727000000     1.4598000000    -2.0035590000
| 16>  C        4.5796650000     1.0799590000    -1.1764500000
| 17>  C        5.1827580000     2.3329540000    -1.6558150000
| 18>  N        5.1583440000     2.0413980000    -0.2232760000
| 19>  H        0.9706050000    -1.0519520000     0.5481060000
| 20>  H        1.0476700000    -0.9833890000    -1.0788020000
| 21>  H        3.3197910000    -1.0359180000    -0.2373790000
| 22>  H        2.8646070000     0.2576230000     0.8461440000
| 23>  H        1.2050540000     1.2906270000    -1.9330080000
| 24>  H        2.6280160000     2.1510890000    -2.7580450000
| 25>  H        5.1798420000     0.1749040000    -1.2519250000
| 26>  H        4.5234510000     3.1065040000    -2.0336070000
| 27>  H        6.1676490000     2.3125230000    -2.1095740000
| 28>  H        4.4016990000     2.5682060000     0.2043530000
| 29> *
| 30>
| 31>                          ****END OF INPUT****
 Total Charge           Charge          ....    0
 Multiplicity           Mult            ....    1
 Number of Electrons    NEL             ....   54
 Basis Dimension        Dim             ....  148

MULLIKEN ATOMIC CHARGES
-----------------------
   0 N :   -0.200369
   1 C :    0.168622
   2 C :   -0.161313
   3 C :   -0.030471
   4 C :   -0.052601
   5 C :    0.043348
   6 N :   -0.193909
   7 H :    0.092991
   8 H :    0.094906
   9 H :   -0.000886
  10 H :    0.015619
  11 H :    0.017384
  12 H :    0.010586
  13 H :    0.024524
  14 H :    0.032334
  15 H :    0.031516
  16 H :    0.107719
Sum of atomic charges:    0.0000000

LOEWDIN ATOMIC CHARGES
----------------------
   0 N :   -0.100307
   1 C :    0.012104
   2 C :   -0.054598
   3 C :   -0.069156
   4 C :   -0.002300
   5 C :    0.004867
   6 N :   -0.100661
   7 H :    0.056474
   8 H :    0.053956
   9 H :    0.011364
  10 H :    0.033367
  11 H :    0.020986
  12 H :    0.019619
  13 H :    0.023501
  14 H :    0.016647
  15 H :    0.021970
  16 H :    0.052167

  Mayer bond orders larger than 0.1
B(  0-N ,  1-C ) :   1.1207 B(  0-N ,  7-H ) :   0.9627 B(  0-N ,  8-H ) :   0.9635
B(  1-C ,  2-C ) :   1.0021 B(  1-C ,  9-H ) :   0.9110 B(  1-C , 10-H ) :   0.9088
B(  2-C ,  3-C ) :   1.9849 B(  2-C ,  4-C ) :   1.0340 B(  3-C , 11-H ) :   0.9111
B(  3-C , 12-H ) :   0.9271 B(  4-C ,  5-C ) :   1.0691 B(  4-C ,  6-N ) :   0.9842
B(  4-C , 13-H ) :   0.9157 B(  5-C ,  6-N ) :   1.0004 B(  5-C , 14-H ) :   0.9394
B(  5-C , 15-H ) :   0.9308 B(  6-N , 16-H ) :   0.9478

FINAL SINGLE POINT ENERGY      -305.358428309240

DIPOLE MOMENT
-------------
                                X             Y             Z
Electronic contribution:      1.44789       0.61424       0.43086
Nuclear contribution   :     -1.82751      -1.09518      -0.56457
                        -----------------------------------------
Total Dipole Moment    :     -0.37962      -0.48094      -0.13371
                        -----------------------------------------
Magnitude (a.u.)       :      0.62713
Magnitude (Debye)      :      1.59405

                             ****ORCA TERMINATED NORMALLY****
TOTAL RUN TIME: 0 days 0 hours 0 minutes 7 seconds 222 msec
