                         Program Version 3.0.3 - RELEASE   -
|  1> ! RI PBE def2-SVP def2-SVP/J NBO PAL2
|  2> % maxcore 2000
|  3> % output
|  4>     # printlevel mini
|  5>     print[ P_Basis ] 0
|  6>     print[ P_SCFInfo ] 1
|  7>     print[ P_SCFIterInfo ] 1
|  8>     print[ P_OrbEn ] 0
|  9>     print[ P_Cartesian ] 0
| 10> end
| 11> *xyz 0 1
| 12>  N        0.9185420000    -0.0005490000    -0.0600640000
| 13>  C        2.3751730000     0.0663090000    -0.0656500000
| 14>  C        2.8886130000     0.6475340000     1.1657870000
| 15>  C        3.3137210000     1.1496790000     2.1742090000
| 16>  C        3.7942610000     1.7435230000     3.3873650000
| 17>  C        5.1584790000     2.3271690000     3.4297140000
| 18>  N        3.9952770000     3.1969450000     3.4651900000
| 19>  H        0.5863050000    -0.3410610000    -0.9539830000
| 20>  H        0.5300950000     0.9244210000     0.0764200000
| 21>  H        2.7966230000     0.6378170000    -0.9082600000
| 22>  H        2.7629950000    -0.9538330000    -0.1621670000
| 23>  H        3.3951120000     1.3143320000     4.3011920000
| 24>  H        5.7464450000     2.2705280000     2.5201570000
| 25>  H        5.7232330000     2.2741060000     4.3540660000
| 26>  H        3.8351270000     3.6004900000     2.5480230000
| 27> *
| 28>
| 29>                          ****END OF INPUT****
 Total Charge           Charge          ....    0
 Multiplicity           Mult            ....    1
 Number of Electrons    NEL             ....   52
 Basis Dimension        Dim             ....  138

MULLIKEN ATOMIC CHARGES
-----------------------
   0 N :   -0.214431
   1 C :    0.177139
   2 C :   -0.161642
   3 C :   -0.015240
   4 C :   -0.142714
   5 C :    0.060709
   6 N :   -0.170090
   7 H :    0.088944
   8 H :    0.093820
   9 H :    0.013500
  10 H :    0.025168
  11 H :    0.050504
  12 H :    0.040394
  13 H :    0.042288
  14 H :    0.111651
Sum of atomic charges:    0.0000000

LOEWDIN ATOMIC CHARGES
----------------------
   0 N :   -0.106322
   1 C :    0.001850
   2 C :   -0.056256
   3 C :   -0.069242
   4 C :   -0.013310
   5 C :    0.018141
   6 N :   -0.087264
   7 H :    0.053158
   8 H :    0.053374
   9 H :    0.021912
  10 H :    0.042926
  11 H :    0.038758
  12 H :    0.020712
  13 H :    0.024601
  14 H :    0.056961

  Mayer bond orders larger than 0.1
B(  0-N ,  1-C ) :   1.0810 B(  0-N ,  7-H ) :   0.9615 B(  0-N ,  8-H ) :   0.9675
B(  1-C ,  2-C ) :   1.0721 B(  1-C ,  9-H ) :   0.8991 B(  1-C , 10-H ) :   0.8868
B(  2-C ,  3-C ) :   2.5440 B(  3-C ,  4-C ) :   0.9865 B(  4-C ,  5-C ) :   1.0271
B(  4-C ,  6-N ) :   0.9940 B(  4-C , 11-H ) :   0.9170 B(  5-C ,  6-N ) :   1.0030
B(  5-C , 12-H ) :   0.9421 B(  5-C , 13-H ) :   0.9367 B(  6-N , 14-H ) :   0.9480

FINAL SINGLE POINT ENERGY      -304.118053456540

DIPOLE MOMENT
-------------
                                X             Y             Z
Electronic contribution:      0.22603       0.70601       2.11803
Nuclear contribution   :     -0.01018      -0.69706      -3.06807
                        -----------------------------------------
Total Dipole Moment    :      0.21585       0.00895      -0.95004
                        -----------------------------------------
Magnitude (a.u.)       :      0.97429
Magnitude (Debye)      :      2.47645

                             ****ORCA TERMINATED NORMALLY****
TOTAL RUN TIME: 0 days 0 hours 0 minutes 6 seconds 587 msec
