                         Program Version 3.0.3 - RELEASE   -
|  1> ! RI PBE def2-SVP def2-SVP/J NBO PAL2
|  2> % maxcore 2000
|  3> % output
|  4>     # printlevel mini
|  5>     print[ P_Basis ] 0
|  6>     print[ P_SCFInfo ] 1
|  7>     print[ P_SCFIterInfo ] 1
|  8>     print[ P_OrbEn ] 0
|  9>     print[ P_Cartesian ] 0
| 10> end
| 11> *xyz 0 1
| 12>  N        1.0433310000     0.4387080000    -0.7705340000
| 13>  C        2.3846200000    -0.1253480000    -0.6926780000
| 14>  C        2.4709260000    -1.4660180000     0.0512250000
| 15>  C        2.0366660000    -1.3454150000     1.4723190000
| 16>  C        0.9594480000    -1.9133140000     1.9983750000
| 17>  C        2.9475170000    -0.1627260000    -2.0826710000
| 18>  C        3.5046860000    -1.1984160000    -2.6939400000
| 19>  H        0.6251280000     0.4671970000     0.1526540000
| 20>  H        0.4548530000    -0.1581920000    -1.3417030000
| 21>  H        2.9892770000     0.6014390000    -0.1296380000
| 22>  H        3.5089430000    -1.8182910000     0.0231550000
| 23>  H        1.8577790000    -2.2092770000    -0.4694730000
| 24>  H        2.6604060000    -0.7176790000     2.1082320000
| 25>  H        0.3088810000    -2.5494310000     1.4056060000
| 26>  H        0.6955070000    -1.7754500000     3.0406800000
| 27>  H        2.8474680000     0.7806160000    -2.6147870000
| 28>  H        3.6186820000    -2.1660460000    -2.2179410000
| 29>  H        3.8752730000    -1.1115560000    -3.7087800000
| 30> *
| 31>
| 32>                          ****END OF INPUT****
 Total Charge           Charge          ....    0
 Multiplicity           Mult            ....    1
 Number of Electrons    NEL             ....   54
 Basis Dimension        Dim             ....  153

MULLIKEN ATOMIC CHARGES
-----------------------
   0 N :   -0.185498
   1 C :    0.013063
   2 C :    0.095054
   3 C :   -0.090449
   4 C :   -0.038076
   5 C :   -0.066001
   6 C :   -0.029372
   7 H :    0.083928
   8 H :    0.086963
   9 H :    0.015623
  10 H :    0.017597
  11 H :   -0.000516
  12 H :    0.006195
  13 H :    0.017880
  14 H :    0.025888
  15 H :    0.008508
  16 H :    0.016470
  17 H :    0.022744
Sum of atomic charges:   -0.0000000

LOEWDIN ATOMIC CHARGES
----------------------
   0 N :   -0.091994
   1 C :   -0.000973
   2 C :   -0.053299
   3 C :   -0.030435
   4 C :   -0.070100
   5 C :   -0.027910
   6 C :   -0.067716
   7 H :    0.049068
   8 H :    0.051065
   9 H :    0.033221
  10 H :    0.035387
  11 H :    0.024839
  12 H :    0.026226
  13 H :    0.021000
  14 H :    0.025130
  15 H :    0.029632
  16 H :    0.019826
  17 H :    0.027034

  Mayer bond orders larger than 0.1
B(  0-N ,  1-C ) :   1.0779 B(  0-N ,  7-H ) :   0.9607 B(  0-N ,  8-H ) :   0.9671
B(  1-C ,  2-C ) :   1.0312 B(  1-C ,  5-C ) :   1.0171 B(  1-C ,  9-H ) :   0.8876
B(  2-C ,  3-C ) :   1.0677 B(  2-C , 10-H ) :   0.8822 B(  2-C , 11-H ) :   0.9113
B(  3-C ,  4-C ) :   1.9929 B(  3-C , 12-H ) :   0.9526 B(  4-C , 13-H ) :   0.9485
B(  4-C , 14-H ) :   0.9440 B(  5-C ,  6-C ) :   2.0042 B(  5-C , 15-H ) :   0.9549
B(  6-C , 16-H ) :   0.9309 B(  6-C , 17-H ) :   0.9370

FINAL SINGLE POINT ENERGY      -289.349426273009

DIPOLE MOMENT
-------------
                                X             Y             Z
Electronic contribution:      0.26798       1.27316      -0.31535
Nuclear contribution   :     -0.32339      -1.57870       0.51029
                        -----------------------------------------
Total Dipole Moment    :     -0.05541      -0.30555       0.19495
                        -----------------------------------------
Magnitude (a.u.)       :      0.36665
Magnitude (Debye)      :      0.93196

                             ****ORCA TERMINATED NORMALLY****
TOTAL RUN TIME: 0 days 0 hours 0 minutes 7 seconds 851 msec
