                         Program Version 3.0.3 - RELEASE   -
|  1> ! RI PBE def2-SVP def2-SVP/J NBO PAL2
|  2> % maxcore 2000
|  3> % output
|  4>     # printlevel mini
|  5>     print[ P_Basis ] 0
|  6>     print[ P_SCFInfo ] 1
|  7>     print[ P_SCFIterInfo ] 1
|  8>     print[ P_OrbEn ] 0
|  9>     print[ P_Cartesian ] 0
| 10> end
| 11> *xyz 0 1
| 12>  N        0.9432510000     0.1687680000    -0.1673940000
| 13>  C        2.3579810000    -0.0237660000     0.1125230000
| 14>  C        2.7003370000    -0.2489890000     1.6053360000
| 15>  C        2.3310600000     0.9286710000     2.4404540000
| 16>  C        1.3719340000     0.9442260000     3.3567700000
| 17>  C        2.8752370000    -1.1305150000    -0.6852720000
| 18>  C        3.3026290000    -2.0629990000    -1.3081990000
| 19>  H        0.5595640000     0.8381630000     0.4911600000
| 20>  H        0.4447120000    -0.7037230000    -0.0361490000
| 21>  H        2.8794840000     0.8866170000    -0.2116930000
| 22>  H        3.7757620000    -0.4416750000     1.6845570000
| 23>  H        2.1793840000    -1.1464560000     1.9518530000
| 24>  H        2.8924040000     1.8432450000     2.2521570000
| 25>  H        0.7903060000     0.0552420000     3.5814940000
| 26>  H        1.1441890000     1.8378840000     3.9264690000
| 27>  H        3.6811770000    -2.8816920000    -1.8731680000
| 28> *
| 29>
| 30>                          ****END OF INPUT****
 Total Charge           Charge          ....    0
 Multiplicity           Mult            ....    1
 Number of Electrons    NEL             ....   52
 Basis Dimension        Dim             ....  143

MULLIKEN ATOMIC CHARGES
-----------------------
   0 N :   -0.165484
   1 C :    0.021126
   2 C :    0.092679
   3 C :   -0.088632
   4 C :   -0.029982
   5 C :    0.408200
   6 C :   -0.520472
   7 H :    0.086143
   8 H :    0.093578
   9 H :    0.023294
  10 H :    0.024160
  11 H :   -0.001160
  12 H :    0.008249
  13 H :    0.020034
  14 H :    0.029186
  15 H :   -0.000919
Sum of atomic charges:    0.0000000

LOEWDIN ATOMIC CHARGES
----------------------
   0 N :   -0.085065
   1 C :   -0.002888
   2 C :   -0.043598
   3 C :   -0.034118
   4 C :   -0.063097
   5 C :   -0.015152
   6 C :   -0.081172
   7 H :    0.050969
   8 H :    0.054285
   9 H :    0.041654
  10 H :    0.039729
  11 H :    0.027414
  12 H :    0.027145
  13 H :    0.022284
  14 H :    0.026459
  15 H :    0.035147

  Mayer bond orders larger than 0.1
B(  0-N ,  1-C ) :   1.0910 B(  0-N ,  7-H ) :   0.9582 B(  0-N ,  8-H ) :   0.9618
B(  1-C ,  2-C ) :   1.0027 B(  1-C ,  5-C ) :   1.0017 B(  1-C ,  9-H ) :   0.8675
B(  2-C ,  3-C ) :   1.0710 B(  2-C , 10-H ) :   0.8969 B(  2-C , 11-H ) :   0.9161
B(  3-C ,  4-C ) :   1.9920 B(  3-C , 12-H ) :   0.9504 B(  4-C , 13-H ) :   0.9475
B(  4-C , 14-H ) :   0.9436 B(  5-C ,  6-C ) :   2.3209 B(  5-C , 15-H ) :  -0.1151
B(  6-C , 15-H ) :   1.1049

FINAL SINGLE POINT ENERGY      -288.103919077435

DIPOLE MOMENT
-------------
                                X             Y             Z
Electronic contribution:      1.51122      -1.75539      -3.76572
Nuclear contribution   :     -1.53185       1.73458       4.30387
                        -----------------------------------------
Total Dipole Moment    :     -0.02063      -0.02080       0.53815
                        -----------------------------------------
Magnitude (a.u.)       :      0.53895
Magnitude (Debye)      :      1.36990

                             ****ORCA TERMINATED NORMALLY****
TOTAL RUN TIME: 0 days 0 hours 0 minutes 7 seconds 264 msec
