                         Program Version 3.0.3 - RELEASE   -
|  1> ! RI PBE def2-SVP def2-SVP/J NBO PAL2
|  2> % maxcore 2000
|  3> % output
|  4>     # printlevel mini
|  5>     print[ P_Basis ] 0
|  6>     print[ P_SCFInfo ] 1
|  7>     print[ P_SCFIterInfo ] 1
|  8>     print[ P_OrbEn ] 0
|  9>     print[ P_Cartesian ] 0
| 10> end
| 11> *xyz 0 1
| 12>  N        1.0250450000     0.0468250000     0.2895740000
| 13>  C        2.4113900000     0.0962690000    -0.1421430000
| 14>  C        2.8134980000    -1.0053960000    -1.1389960000
| 15>  C        2.5517530000    -2.3341710000    -0.6165200000
| 16>  C        2.3198610000    -3.4187820000    -0.1554340000
| 17>  C        2.6999290000     1.4782580000    -0.6471690000
| 18>  C        3.2626420000     1.8084230000    -1.8009230000
| 19>  H        0.8124820000    -0.8688570000     0.6688100000
| 20>  H        0.4071750000     0.1991160000    -0.4998400000
| 21>  H        3.0197950000    -0.0509880000     0.7605360000
| 22>  H        3.8778190000    -0.9176530000    -1.3819860000
| 23>  H        2.2593890000    -0.8670620000    -2.0745590000
| 24>  H        2.1257660000    -4.3872560000     0.2409380000
| 25>  H        2.3803710000     2.2608940000     0.0366800000
| 26>  H        3.5916050000     1.0711290000    -2.5251310000
| 27>  H        3.4213800000     2.8474520000    -2.0648480000
| 28> *
| 29>
| 30>                          ****END OF INPUT****
 Total Charge           Charge          ....    0
 Multiplicity           Mult            ....    1
 Number of Electrons    NEL             ....   52
 Basis Dimension        Dim             ....  143

MULLIKEN ATOMIC CHARGES
-----------------------
   0 N :   -0.184085
   1 C :    0.004738
   2 C :    0.109332
   3 C :    0.339621
   4 C :   -0.513894
   5 C :   -0.058215
   6 C :   -0.029012
   7 H :    0.093661
   8 H :    0.087200
   9 H :    0.027856
  10 H :    0.037532
  11 H :    0.029207
  12 H :   -0.000797
  13 H :    0.012970
  14 H :    0.020980
  15 H :    0.022908
Sum of atomic charges:   -0.0000000

LOEWDIN ATOMIC CHARGES
----------------------
   0 N :   -0.086821
   1 C :    0.004762
   2 C :   -0.060847
   3 C :   -0.023512
   4 C :   -0.094923
   5 C :   -0.027367
   6 C :   -0.066121
   7 H :    0.054103
   8 H :    0.051778
   9 H :    0.039179
  10 H :    0.049795
  11 H :    0.044623
  12 H :    0.034838
  13 H :    0.031923
  14 H :    0.020622
  15 H :    0.027968

  Mayer bond orders larger than 0.1
B(  0-N ,  1-C ) :   1.0868 B(  0-N ,  7-H ) :   0.9621 B(  0-N ,  8-H ) :   0.9680
B(  1-C ,  2-C ) :   1.0224 B(  1-C ,  5-C ) :   1.0166 B(  1-C ,  9-H ) :   0.8863
B(  2-C ,  3-C ) :   1.0523 B(  2-C , 10-H ) :   0.8728 B(  2-C , 11-H ) :   0.8743
B(  3-C ,  4-C ) :   2.3021 B(  3-C , 12-H ) :  -0.1131 B(  4-C , 12-H ) :   1.1036
B(  5-C ,  6-C ) :   1.9997 B(  5-C , 13-H ) :   0.9562 B(  6-C , 14-H ) :   0.9281
B(  6-C , 15-H ) :   0.9398

FINAL SINGLE POINT ENERGY      -288.107453412277

DIPOLE MOMENT
-------------
                                X             Y             Z
Electronic contribution:     -0.19604      -3.06583       1.08423
Nuclear contribution   :      0.18412       2.93694      -1.36196
                        -----------------------------------------
Total Dipole Moment    :     -0.01192      -0.12889      -0.27773
                        -----------------------------------------
Magnitude (a.u.)       :      0.30641
Magnitude (Debye)      :      0.77884

                             ****ORCA TERMINATED NORMALLY****
TOTAL RUN TIME: 0 days 0 hours 0 minutes 7 seconds 564 msec
