                         Program Version 3.0.3 - RELEASE   -
|  1> ! RI PBE def2-SVP def2-SVP/J NBO PAL2
|  2> % maxcore 2000
|  3> % output
|  4>     # printlevel mini
|  5>     print[ P_Basis ] 0
|  6>     print[ P_SCFInfo ] 1
|  7>     print[ P_SCFIterInfo ] 1
|  8>     print[ P_OrbEn ] 0
|  9>     print[ P_Cartesian ] 0
| 10> end
| 11> *xyz 0 1
| 12>  N        1.0495410000    -0.0441930000     0.1004500000
| 13>  C        2.4968390000    -0.1016280000    -0.0101260000
| 14>  C        2.9985100000    -0.9435450000    -1.2106440000
| 15>  C        4.4336720000    -1.1552880000    -1.2205260000
| 16>  C        5.6204450000    -1.3325810000    -1.1989240000
| 17>  C        3.0375180000     1.2521680000    -0.0732410000
| 18>  C        3.4741330000     2.3656840000    -0.1622510000
| 19>  H        0.6566420000    -0.9775790000     0.1022990000
| 20>  H        0.6513970000     0.4638710000    -0.6799240000
| 21>  H        2.8801780000    -0.5735450000     0.9019760000
| 22>  H        2.6853020000    -0.4536520000    -2.1384160000
| 23>  H        2.4915360000    -1.9138980000    -1.1711050000
| 24>  H        6.6738830000    -1.4829660000    -1.1859170000
| 25>  H        3.8668150000     3.3526630000    -0.2286600000
| 26> *
| 27>
| 28>                          ****END OF INPUT****
 Total Charge           Charge          ....    0
 Multiplicity           Mult            ....    1
 Number of Electrons    NEL             ....   50
 Basis Dimension        Dim             ....  133

MULLIKEN ATOMIC CHARGES
-----------------------
   0 N :   -0.153743
   1 C :    0.000297
   2 C :    0.110311
   3 C :    0.343492
   4 C :   -0.492259
   5 C :    0.410096
   6 C :   -0.497472
   7 H :    0.091074
   8 H :    0.096825
   9 H :    0.037327
  10 H :    0.030491
  11 H :    0.025096
  12 H :   -0.001918
  13 H :    0.000381
Sum of atomic charges:   -0.0000000

LOEWDIN ATOMIC CHARGES
----------------------
   0 N :   -0.076501
   1 C :    0.002446
   2 C :   -0.051954
   3 C :   -0.024299
   4 C :   -0.080828
   5 C :   -0.014853
   6 C :   -0.070505
   7 H :    0.053234
   8 H :    0.055720
   9 H :    0.046909
  10 H :    0.046521
  11 H :    0.043777
  12 H :    0.034319
  13 H :    0.036013

  Mayer bond orders larger than 0.1
B(  0-N ,  1-C ) :   1.1083 B(  0-N ,  7-H ) :   0.9636 B(  0-N ,  8-H ) :   0.9631
B(  1-C ,  2-C ) :   1.0152 B(  1-C ,  5-C ) :   0.9963 B(  1-C ,  9-H ) :   0.8751
B(  2-C ,  3-C ) :   1.0388 B(  2-C , 10-H ) :   0.8867 B(  2-C , 11-H ) :   0.8871
B(  3-C ,  4-C ) :   2.3344 B(  3-C , 12-H ) :  -0.1128 B(  4-C , 12-H ) :   1.1037
B(  5-C ,  6-C ) :   2.3378 B(  5-C , 13-H ) :  -0.1125 B(  6-C , 13-H ) :   1.1028

FINAL SINGLE POINT ENERGY      -286.858764806263

DIPOLE MOMENT
-------------
                                X             Y             Z
Electronic contribution:      2.17958       1.08581       0.26722
Nuclear contribution   :     -2.47393      -1.40279      -0.62805
                        -----------------------------------------
Total Dipole Moment    :     -0.29435      -0.31698      -0.36083
                        -----------------------------------------
Magnitude (a.u.)       :      0.56331
Magnitude (Debye)      :      1.43182

                             ****ORCA TERMINATED NORMALLY****
TOTAL RUN TIME: 0 days 0 hours 0 minutes 6 seconds 89 msec
