                         Program Version 3.0.3 - RELEASE   -
|  1> ! RI PBE def2-SVP def2-SVP/J NBO PAL2
|  2> % maxcore 2000
|  3> % output
|  4>     # printlevel mini
|  5>     print[ P_Basis ] 0
|  6>     print[ P_SCFInfo ] 1
|  7>     print[ P_SCFIterInfo ] 1
|  8>     print[ P_OrbEn ] 0
|  9>     print[ P_Cartesian ] 0
| 10> end
| 11> *xyz 0 1
| 12>  N        1.6547080000    -1.0818190000    -0.2275720000
| 13>  C        2.7051890000    -0.1461810000     0.1526340000
| 14>  C        2.9516530000     0.8301890000    -0.9486780000
| 15>  C        4.1339000000     1.0503710000    -1.5110630000
| 16>  C        4.3962150000     2.0389960000    -2.6058730000
| 17>  C        5.3442930000     3.1173690000    -2.1774480000
| 18>  C        6.5266540000     3.3529300000    -2.7282510000
| 19>  H        1.4300660000    -1.7015100000     0.5404190000
| 20>  H        1.9639440000    -1.6576480000    -1.0010800000
| 21>  H        3.6579760000    -0.6210480000     0.4329780000
| 22>  H        2.3510450000     0.3968990000     1.0372260000
| 23>  H        2.0740160000     1.3687030000    -1.3033380000
| 24>  H        5.0013470000     0.4971010000    -1.1521090000
| 25>  H        3.4451760000     2.4866420000    -2.9158920000
| 26>  H        4.8141470000     1.5263890000    -3.4798550000
| 27>  H        5.0152850000     3.7276510000    -1.3384610000
| 28>  H        6.8900190000     2.7607160000    -3.5629300000
| 29>  H        7.1724650000     4.1463400000    -2.3701190000
| 30> *
| 31>
| 32>                          ****END OF INPUT****
 Total Charge           Charge          ....    0
 Multiplicity           Mult            ....    1
 Number of Electrons    NEL             ....   54
 Basis Dimension        Dim             ....  153

MULLIKEN ATOMIC CHARGES
-----------------------
   0 N :   -0.229031
   1 C :    0.151373
   2 C :   -0.086733
   3 C :   -0.076797
   4 C :    0.135391
   5 C :   -0.093157
   6 C :   -0.036213
   7 H :    0.088517
   8 H :    0.087750
   9 H :   -0.014788
  10 H :    0.014111
  11 H :   -0.005048
  12 H :   -0.007202
  13 H :    0.013571
  14 H :    0.010437
  15 H :    0.006317
  16 H :    0.015558
  17 H :    0.025942
Sum of atomic charges:    0.0000000

LOEWDIN ATOMIC CHARGES
----------------------
   0 N :   -0.111999
   1 C :    0.006577
   2 C :   -0.047283
   3 C :   -0.038828
   4 C :   -0.038816
   5 C :   -0.025338
   6 C :   -0.067495
   7 H :    0.051529
   8 H :    0.050240
   9 H :    0.002256
  10 H :    0.029492
  11 H :    0.023545
  12 H :    0.021370
  13 H :    0.037802
  14 H :    0.035330
  15 H :    0.026188
  16 H :    0.020636
  17 H :    0.024794

  Mayer bond orders larger than 0.1
B(  0-N ,  1-C ) :   1.0600 B(  0-N ,  7-H ) :   0.9653 B(  0-N ,  8-H ) :   0.9722
B(  1-C ,  2-C ) :   1.0650 B(  1-C ,  9-H ) :   0.9222 B(  1-C , 10-H ) :   0.9134
B(  2-C ,  3-C ) :   1.8925 B(  2-C , 11-H ) :   0.9558 B(  3-C ,  4-C ) :   1.0409
B(  3-C , 12-H ) :   0.9502 B(  4-C ,  5-C ) :   1.0465 B(  4-C , 13-H ) :   0.9087
B(  4-C , 14-H ) :   0.9101 B(  5-C ,  6-C ) :   2.0051 B(  5-C , 15-H ) :   0.9570
B(  6-C , 16-H ) :   0.9482 B(  6-C , 17-H ) :   0.9459

FINAL SINGLE POINT ENERGY      -289.350799148212

DIPOLE MOMENT
-------------
                                X             Y             Z
Electronic contribution:     -0.50659       0.33404      -0.14923
Nuclear contribution   :      0.69805      -0.72519       0.31046
                        -----------------------------------------
Total Dipole Moment    :      0.19147      -0.39115       0.16124
                        -----------------------------------------
Magnitude (a.u.)       :      0.46439
Magnitude (Debye)      :      1.18038

                             ****ORCA TERMINATED NORMALLY****
TOTAL RUN TIME: 0 days 0 hours 0 minutes 7 seconds 494 msec
