                         Program Version 3.0.3 - RELEASE   -
|  1> ! RI PBE def2-SVP def2-SVP/J NBO PAL2
|  2> % maxcore 2000
|  3> % output
|  4>     # printlevel mini
|  5>     print[ P_Basis ] 0
|  6>     print[ P_SCFInfo ] 1
|  7>     print[ P_SCFIterInfo ] 1
|  8>     print[ P_OrbEn ] 0
|  9>     print[ P_Cartesian ] 0
| 10> end
| 11> *xyz 0 1
| 12>  N        1.7164470000    -1.1679930000    -0.4669080000
| 13>  C        2.6159570000    -0.1966410000     0.1406880000
| 14>  C        3.0273570000     0.8264250000    -0.8647010000
| 15>  C        4.2846010000     1.1261960000    -1.1598620000
| 16>  C        4.6928380000     2.1548250000    -2.1750740000
| 17>  C        5.5625530000     3.1818880000    -1.6180450000
| 18>  C        6.2827010000     4.0177770000    -1.1453630000
| 19>  H        1.3615980000    -1.8128470000     0.2276060000
| 20>  H        2.2090400000    -1.7137150000    -1.1633230000
| 21>  H        3.5154180000    -0.6332830000     0.6008760000
| 22>  H        2.0613030000     0.3025620000     0.9442150000
| 23>  H        2.2122370000     1.3321940000    -1.3796670000
| 24>  H        5.0965820000     0.6159530000    -0.6457300000
| 25>  H        3.8034440000     2.6235880000    -2.6072870000
| 26>  H        5.2229960000     1.6668510000    -3.0029850000
| 27>  H        6.9179290000     4.7627090000    -0.7283410000
| 28> *
| 29>
| 30>                          ****END OF INPUT****
 Total Charge           Charge          ....    0
 Multiplicity           Mult            ....    1
 Number of Electrons    NEL             ....   52
 Basis Dimension        Dim             ....  143

MULLIKEN ATOMIC CHARGES
-----------------------
   0 N :   -0.226627
   1 C :    0.147943
   2 C :   -0.086185
   3 C :   -0.062419
   4 C :    0.148712
   5 C :    0.296980
   6 C :   -0.473811
   7 H :    0.089834
   8 H :    0.086634
   9 H :   -0.013645
  10 H :    0.018508
  11 H :   -0.002445
  12 H :    0.000175
  13 H :    0.032201
  14 H :    0.047088
  15 H :   -0.002945
Sum of atomic charges:   -0.0000000

LOEWDIN ATOMIC CHARGES
----------------------
   0 N :   -0.110777
   1 C :    0.007581
   2 C :   -0.041392
   3 C :   -0.031920
   4 C :   -0.043543
   5 C :   -0.020277
   6 C :   -0.089693
   7 H :    0.052336
   8 H :    0.050329
   9 H :    0.003066
  10 H :    0.031402
  11 H :    0.025017
  12 H :    0.024971
  13 H :    0.052307
  14 H :    0.056958
  15 H :    0.033635

  Mayer bond orders larger than 0.1
B(  0-N ,  1-C ) :   1.0622 B(  0-N ,  7-H ) :   0.9657 B(  0-N ,  8-H ) :   0.9731
B(  1-C ,  2-C ) :   1.0700 B(  1-C ,  9-H ) :   0.9221 B(  1-C , 10-H ) :   0.9138
B(  2-C ,  3-C ) :   1.8975 B(  2-C , 11-H ) :   0.9561 B(  3-C ,  4-C ) :   1.0359
B(  3-C , 12-H ) :   0.9522 B(  4-C ,  5-C ) :   1.0499 B(  4-C , 13-H ) :   0.8944
B(  4-C , 14-H ) :   0.8882 B(  5-C ,  6-C ) :   2.3806 B(  5-C , 15-H ) :  -0.1089
B(  6-C , 15-H ) :   1.1003

FINAL SINGLE POINT ENERGY      -288.106407577058

DIPOLE MOMENT
-------------
                                X             Y             Z
Electronic contribution:      2.93565       3.77767      -1.14780
Nuclear contribution   :     -2.85715      -4.34123       1.27387
                        -----------------------------------------
Total Dipole Moment    :      0.07850      -0.56357       0.12607
                        -----------------------------------------
Magnitude (a.u.)       :      0.58281
Magnitude (Debye)      :      1.48137

                             ****ORCA TERMINATED NORMALLY****
TOTAL RUN TIME: 0 days 0 hours 0 minutes 6 seconds 780 msec
