                         Program Version 3.0.3 - RELEASE   -
|  1> ! RI PBE def2-SVP def2-SVP/J NBO PAL2
|  2> % maxcore 2000
|  3> % output
|  4>     # printlevel mini
|  5>     print[ P_Basis ] 0
|  6>     print[ P_SCFInfo ] 1
|  7>     print[ P_SCFIterInfo ] 1
|  8>     print[ P_OrbEn ] 0
|  9>     print[ P_Cartesian ] 0
| 10> end
| 11> *xyz 0 1
| 12>  N        0.5804250000     0.0330180000     0.0798870000
| 13>  C        2.0224250000     0.1226720000    -0.0470740000
| 14>  C        2.5551900000     1.5109240000     0.1607210000
| 15>  C        1.8014570000     2.5164430000     0.5902710000
| 16>  C        4.0163080000     1.6884790000    -0.1667290000
| 17>  C        4.2909170000     1.6687930000    -1.6400060000
| 18>  C        5.0937760000     0.8140910000    -2.2581120000
| 19>  H        0.2821990000    -0.9319550000     0.0264030000
| 20>  H        0.1311990000     0.5273980000    -0.6818000000
| 21>  H        2.4098300000    -0.2437180000    -1.0116120000
| 22>  H        2.4720910000    -0.5267760000     0.7156550000
| 23>  H        0.7551790000     2.3683670000     0.8280650000
| 24>  H        2.2201900000     3.5065590000     0.7350350000
| 25>  H        4.6067810000     0.9018180000     0.3179440000
| 26>  H        4.3510380000     2.6451500000     0.2474000000
| 27>  H        3.7736960000     2.4300420000    -2.2214470000
| 28>  H        5.6245250000     0.0395690000    -1.7123600000
| 29>  H        5.2549930000     0.8596170000    -3.3290410000
| 30> *
| 31>
| 32>                          ****END OF INPUT****
 Total Charge           Charge          ....    0
 Multiplicity           Mult            ....    1
 Number of Electrons    NEL             ....   54
 Basis Dimension        Dim             ....  153

MULLIKEN ATOMIC CHARGES
-----------------------
   0 N :   -0.201111
   1 C :    0.167659
   2 C :   -0.240115
   3 C :   -0.018389
   4 C :    0.138861
   5 C :   -0.083095
   6 C :   -0.033899
   7 H :    0.088585
   8 H :    0.093591
   9 H :   -0.004605
  10 H :    0.014904
  11 H :    0.012977
  12 H :    0.002445
  13 H :    0.004936
  14 H :    0.012381
  15 H :    0.001958
  16 H :    0.016673
  17 H :    0.026242
Sum of atomic charges:   -0.0000000

LOEWDIN ATOMIC CHARGES
----------------------
   0 N :   -0.100429
   1 C :    0.008509
   2 C :   -0.040445
   3 C :   -0.076024
   4 C :   -0.030972
   5 C :   -0.023367
   6 C :   -0.070595
   7 H :    0.054442
   8 H :    0.053202
   9 H :    0.009350
  10 H :    0.033577
  11 H :    0.019926
  12 H :    0.018148
  13 H :    0.032721
  14 H :    0.039525
  15 H :    0.026318
  16 H :    0.020845
  17 H :    0.025270

  Mayer bond orders larger than 0.1
B(  0-N ,  1-C ) :   1.1236 B(  0-N ,  7-H ) :   0.9630 B(  0-N ,  8-H ) :   0.9636
B(  1-C ,  2-C ) :   1.0108 B(  1-C ,  9-H ) :   0.9134 B(  1-C , 10-H ) :   0.9006
B(  2-C ,  3-C ) :   2.0037 B(  2-C ,  4-C ) :   1.0435 B(  3-C , 11-H ) :   0.9142
B(  3-C , 12-H ) :   0.9281 B(  4-C ,  5-C ) :   1.0656 B(  4-C , 13-H ) :   0.9118
B(  4-C , 14-H ) :   0.8975 B(  5-C ,  6-C ) :   1.9911 B(  5-C , 15-H ) :   0.9535
B(  6-C , 16-H ) :   0.9489 B(  6-C , 17-H ) :   0.9427

FINAL SINGLE POINT ENERGY      -289.351287988161

DIPOLE MOMENT
-------------
                                X             Y             Z
Electronic contribution:     -0.36935       0.68855       0.49877
Nuclear contribution   :      0.38684      -1.05028      -0.88609
                        -----------------------------------------
Total Dipole Moment    :      0.01749      -0.36174      -0.38732
                        -----------------------------------------
Magnitude (a.u.)       :      0.53026
Magnitude (Debye)      :      1.34781

                             ****ORCA TERMINATED NORMALLY****
TOTAL RUN TIME: 0 days 0 hours 0 minutes 7 seconds 769 msec
