                         Program Version 3.0.3 - RELEASE   -
|  1> ! RI PBE def2-SVP def2-SVP/J NBO PAL2
|  2> % maxcore 2000
|  3> % output
|  4>     # printlevel mini
|  5>     print[ P_Basis ] 0
|  6>     print[ P_SCFInfo ] 1
|  7>     print[ P_SCFIterInfo ] 1
|  8>     print[ P_OrbEn ] 0
|  9>     print[ P_Cartesian ] 0
| 10> end
| 11> *xyz 0 1
| 12>  N        3.1415790000    -0.0116040000     1.1014600000
| 13>  C        2.4733170000    -0.0600490000    -0.1927420000
| 14>  C        2.7960460000     1.1672810000    -0.9942490000
| 15>  C        1.8591540000     2.0212290000    -1.3866240000
| 16>  C        4.2561120000     1.3864760000    -1.3088910000
| 17>  C        4.7998130000     0.3652080000    -2.1931600000
| 18>  C        5.2366680000    -0.4815940000    -2.9237590000
| 19>  H        3.1097260000    -0.9123810000     1.5596770000
| 20>  H        2.6880690000     0.6582180000     1.7101430000
| 21>  H        1.3815890000    -0.1695540000    -0.1329860000
| 22>  H        2.8573660000    -0.9343570000    -0.7294630000
| 23>  H        0.8146440000     1.8589970000    -1.1420960000
| 24>  H        2.0985510000     2.9030730000    -1.9710100000
| 25>  H        4.8190620000     1.3673970000    -0.3690180000
| 26>  H        4.3968060000     2.3717810000    -1.7613330000
| 27>  H        5.6296990000    -1.2279010000    -3.5724380000
| 28> *
| 29>
| 30>                          ****END OF INPUT****
 Total Charge           Charge          ....    0
 Multiplicity           Mult            ....    1
 Number of Electrons    NEL             ....   52
 Basis Dimension        Dim             ....  143

MULLIKEN ATOMIC CHARGES
-----------------------
   0 N :   -0.220802
   1 C :    0.168029
   2 C :   -0.211722
   3 C :   -0.027002
   4 C :    0.208968
   5 C :    0.303015
   6 C :   -0.494783
   7 H :    0.093556
   8 H :    0.091035
   9 H :   -0.011104
  10 H :    0.017917
  11 H :    0.012179
  12 H :    0.011437
  13 H :    0.043337
  14 H :    0.021598
  15 H :   -0.005657
Sum of atomic charges:    0.0000000

LOEWDIN ATOMIC CHARGES
----------------------
   0 N :   -0.103382
   1 C :    0.014072
   2 C :   -0.025237
   3 C :   -0.067119
   4 C :   -0.036006
   5 C :   -0.014034
   6 C :   -0.096125
   7 H :    0.054778
   8 H :    0.053015
   9 H :    0.006115
  10 H :    0.033247
  11 H :    0.021479
  12 H :    0.021795
  13 H :    0.055824
  14 H :    0.048820
  15 H :    0.032758

  Mayer bond orders larger than 0.1
B(  0-N ,  1-C ) :   1.0798 B(  0-N ,  7-H ) :   0.9647 B(  0-N ,  8-H ) :   0.9678
B(  1-C ,  2-C ) :   1.0584 B(  1-C ,  9-H ) :   0.9127 B(  1-C , 10-H ) :   0.9069
B(  2-C ,  3-C ) :   1.9971 B(  2-C ,  4-C ) :   1.0245 B(  3-C , 11-H ) :   0.9317
B(  3-C , 12-H ) :   0.9314 B(  4-C ,  5-C ) :   1.0557 B(  4-C , 13-H ) :   0.8647
B(  4-C , 14-H ) :   0.8849 B(  5-C ,  6-C ) :   2.3544 B(  5-C , 15-H ) :  -0.1130
B(  6-C , 15-H ) :   1.1042

FINAL SINGLE POINT ENERGY      -288.107928266405

DIPOLE MOMENT
-------------
                                X             Y             Z
Electronic contribution:      2.69295      -0.44933      -2.31628
Nuclear contribution   :     -3.14917       0.34293       2.79615
                        -----------------------------------------
Total Dipole Moment    :     -0.45622      -0.10639       0.47988
                        -----------------------------------------
Magnitude (a.u.)       :      0.67063
Magnitude (Debye)      :      1.70460

                             ****ORCA TERMINATED NORMALLY****
TOTAL RUN TIME: 0 days 0 hours 0 minutes 7 seconds 491 msec
