                         Program Version 3.0.3 - RELEASE   -
|  1> ! RI PBE def2-SVP def2-SVP/J NBO PAL2
|  2> % maxcore 2000
|  3> % output
|  4>     # printlevel mini
|  5>     print[ P_Basis ] 0
|  6>     print[ P_SCFInfo ] 1
|  7>     print[ P_SCFIterInfo ] 1
|  8>     print[ P_OrbEn ] 0
|  9>     print[ P_Cartesian ] 0
| 10> end
| 11> *xyz 0 1
| 12>  N        2.9987250000     1.2990240000    -0.3679520000
| 13>  C        2.5737300000    -0.0873550000    -0.3801070000
| 14>  C        3.2532480000    -0.8650150000     0.7561990000
| 15>  C        2.6870030000    -2.2496740000     0.8505680000
| 16>  C        2.0337370000    -2.7332790000     1.8968720000
| 17>  C        4.7357800000    -0.9183940000     0.5305960000
| 18>  C        5.6428020000    -0.2800210000     1.2570580000
| 19>  H        2.5654680000     1.8160530000    -1.1218470000
| 20>  H        4.0027620000     1.3590400000    -0.4918000000
| 21>  H        2.7721800000    -0.6141220000    -1.3291140000
| 22>  H        1.4924130000    -0.1220180000    -0.2182820000
| 23>  H        3.0534980000    -0.3254140000     1.6874910000
| 24>  H        2.8336370000    -2.8839000000    -0.0232230000
| 25>  H        1.8711030000    -2.1361850000     2.7888780000
| 26>  H        1.6402650000    -3.7432550000     1.9022750000
| 27>  H        5.0617150000    -1.5265080000    -0.3134230000
| 28>  H        5.3571300000     0.3321920000     2.1065650000
| 29>  H        6.7012940000    -0.3534580000     1.0343270000
| 30> *
| 31>
| 32>                          ****END OF INPUT****
 Total Charge           Charge          ....    0
 Multiplicity           Mult            ....    1
 Number of Electrons    NEL             ....   54
 Basis Dimension        Dim             ....  153

MULLIKEN ATOMIC CHARGES
-----------------------
   0 N :   -0.198251
   1 C :    0.093871
   2 C :   -0.018125
   3 C :   -0.034982
   4 C :   -0.026092
   5 C :   -0.056511
   6 C :   -0.028552
   7 H :    0.090042
   8 H :    0.087612
   9 H :   -0.012722
  10 H :    0.014118
  11 H :   -0.003414
  12 H :    0.000755
  13 H :    0.019127
  14 H :    0.023248
  15 H :   -0.001019
  16 H :    0.024118
  17 H :    0.026778
Sum of atomic charges:    0.0000000

LOEWDIN ATOMIC CHARGES
----------------------
   0 N :   -0.109457
   1 C :    0.018814
   2 C :   -0.047025
   3 C :   -0.016781
   4 C :   -0.060218
   5 C :   -0.020834
   6 C :   -0.063302
   7 H :    0.053591
   8 H :    0.047518
   9 H :   -0.003773
  10 H :    0.022792
  11 H :    0.033370
  12 H :    0.023497
  13 H :    0.023098
  14 H :    0.024909
  15 H :    0.023794
  16 H :    0.024884
  17 H :    0.025124

  Mayer bond orders larger than 0.1
B(  0-N ,  1-C ) :   1.1094 B(  0-N ,  7-H ) :   0.9627 B(  0-N ,  8-H ) :   0.9606
B(  1-C ,  2-C ) :   1.0210 B(  1-C ,  9-H ) :   0.9230 B(  1-C , 10-H ) :   0.9301
B(  2-C ,  3-C ) :   1.0018 B(  2-C ,  5-C ) :   1.0018 B(  2-C , 11-H ) :   0.9052
B(  3-C ,  4-C ) :   2.0248 B(  3-C , 12-H ) :   0.9492 B(  4-C , 13-H ) :   0.9462
B(  4-C , 14-H ) :   0.9401 B(  5-C ,  6-C ) :   2.0014 B(  5-C , 15-H ) :   0.9523
B(  6-C , 16-H ) :   0.9444 B(  6-C , 17-H ) :   0.9436

FINAL SINGLE POINT ENERGY      -289.346302081297

DIPOLE MOMENT
-------------
                                X             Y             Z
Electronic contribution:      0.20961      -0.38452       0.21982
Nuclear contribution   :     -0.11701       0.36656      -0.71860
                        -----------------------------------------
Total Dipole Moment    :      0.09260      -0.01796      -0.49878
                        -----------------------------------------
Magnitude (a.u.)       :      0.50762
Magnitude (Debye)      :      1.29028

                             ****ORCA TERMINATED NORMALLY****
TOTAL RUN TIME: 0 days 0 hours 0 minutes 8 seconds 355 msec
