                         Program Version 3.0.3 - RELEASE   -
|  1> ! RI PBE def2-SVP def2-SVP/J NBO PAL2
|  2> % maxcore 2000
|  3> % output
|  4>     # printlevel mini
|  5>     print[ P_Basis ] 0
|  6>     print[ P_SCFInfo ] 1
|  7>     print[ P_SCFIterInfo ] 1
|  8>     print[ P_OrbEn ] 0
|  9>     print[ P_Cartesian ] 0
| 10> end
| 11> *xyz 0 1
| 12>  N        2.9014490000     1.4079690000     0.1885800000
| 13>  C        2.4967250000     0.0310740000    -0.0113540000
| 14>  C        3.0653640000    -0.8612120000     1.1035190000
| 15>  C        2.5783750000    -2.2767800000     0.9634230000
| 16>  C        1.7706880000    -2.8743130000     1.8254860000
| 17>  C        4.5249510000    -0.8155520000     1.0935310000
| 18>  C        5.7248760000    -0.7750140000     1.0538800000
| 19>  H        2.4993390000     2.0046720000    -0.5225230000
| 20>  H        3.9095370000     1.4868680000     0.1161350000
| 21>  H        2.7981570000    -0.3969850000    -0.9802000000
| 22>  H        1.4065360000    -0.0271840000     0.0460370000
| 23>  H        2.7160120000    -0.4521170000     2.0581340000
| 24>  H        2.9239030000    -2.8096650000     0.0806340000
| 25>  H        1.4208530000    -2.3686310000     2.7201680000
| 26>  H        1.4328950000    -3.8923390000     1.6708140000
| 27>  H        6.7886990000    -0.7479310000     1.0355080000
| 28> *
| 29>
| 30>                          ****END OF INPUT****
 Total Charge           Charge          ....    0
 Multiplicity           Mult            ....    1
 Number of Electrons    NEL             ....   52
 Basis Dimension        Dim             ....  143

MULLIKEN ATOMIC CHARGES
-----------------------
   0 N :   -0.202893
   1 C :    0.097123
   2 C :   -0.004294
   3 C :   -0.025676
   4 C :   -0.025422
   5 C :    0.391779
   6 C :   -0.512315
   7 H :    0.092877
   8 H :    0.094883
   9 H :   -0.005673
  10 H :    0.017581
  11 H :    0.023772
  12 H :    0.010936
  13 H :    0.022635
  14 H :    0.028385
  15 H :   -0.003696
Sum of atomic charges:   -0.0000000

LOEWDIN ATOMIC CHARGES
----------------------
   0 N :   -0.108556
   1 C :    0.024907
   2 C :   -0.052441
   3 C :   -0.010190
   4 C :   -0.054180
   5 C :   -0.009439
   6 C :   -0.090139
   7 H :    0.055320
   8 H :    0.052975
   9 H :    0.001063
  10 H :    0.024744
  11 H :    0.050762
  12 H :    0.028853
  13 H :    0.024439
  14 H :    0.027443
  15 H :    0.034441

  Mayer bond orders larger than 0.1
B(  0-N ,  1-C ) :   1.1097 B(  0-N ,  7-H ) :   0.9628 B(  0-N ,  8-H ) :   0.9614
B(  1-C ,  2-C ) :   1.0286 B(  1-C ,  9-H ) :   0.9185 B(  1-C , 10-H ) :   0.9314
B(  2-C ,  3-C ) :   1.0041 B(  2-C ,  5-C ) :   0.9902 B(  2-C , 11-H ) :   0.8664
B(  3-C ,  4-C ) :   2.0158 B(  3-C , 12-H ) :   0.9504 B(  4-C , 13-H ) :   0.9476
B(  4-C , 14-H ) :   0.9417 B(  5-C ,  6-C ) :   2.3150 B(  5-C , 15-H ) :  -0.1227
B(  6-C , 15-H ) :   1.1134

FINAL SINGLE POINT ENERGY      -288.102739892988

DIPOLE MOMENT
-------------
                                X             Y             Z
Electronic contribution:      3.07462      -0.18394       0.90124
Nuclear contribution   :     -3.11985       0.21937      -1.38085
                        -----------------------------------------
Total Dipole Moment    :     -0.04524       0.03543      -0.47961
                        -----------------------------------------
Magnitude (a.u.)       :      0.48304
Magnitude (Debye)      :      1.22780

                             ****ORCA TERMINATED NORMALLY****
TOTAL RUN TIME: 0 days 0 hours 0 minutes 7 seconds 222 msec
