                         Program Version 3.0.3 - RELEASE   -
|  1> ! RI PBE def2-SVP def2-SVP/J NBO PAL2
|  2> % maxcore 2000
|  3> % output
|  4>     # printlevel mini
|  5>     print[ P_Basis ] 0
|  6>     print[ P_SCFInfo ] 1
|  7>     print[ P_SCFIterInfo ] 1
|  8>     print[ P_OrbEn ] 0
|  9>     print[ P_Cartesian ] 0
| 10> end
| 11> *xyz 0 1
| 12>  N        2.7594470000     0.7787860000     1.1534880000
| 13>  C        2.3774980000     0.0802150000    -0.0546670000
| 14>  C        2.9334670000    -1.3568360000    -0.0210310000
| 15>  C        2.4361030000    -2.1366060000    -1.1507820000
| 16>  C        2.0001170000    -2.7551990000    -2.0809460000
| 17>  C        4.3949480000    -1.3488760000     0.0257100000
| 18>  C        5.5927030000    -1.3036980000     0.0755770000
| 19>  H        2.3182010000     1.6878020000     1.1948310000
| 20>  H        3.7620700000     0.9248130000     1.1738000000
| 21>  H        2.7124020000     0.5504610000    -0.9898640000
| 22>  H        1.2882350000     0.0081350000    -0.0933170000
| 23>  H        2.5711480000    -1.8138180000     0.9088010000
| 24>  H        1.6207500000    -3.3119400000    -2.9048750000
| 25>  H        6.6561900000    -1.2830570000     0.1145770000
| 26> *
| 27>
| 28>                          ****END OF INPUT****
 Total Charge           Charge          ....    0
 Multiplicity           Mult            ....    1
 Number of Electrons    NEL             ....   50
 Basis Dimension        Dim             ....  133

MULLIKEN ATOMIC CHARGES
-----------------------
   0 N :   -0.197779
   1 C :    0.076338
   2 C :    0.035581
   3 C :    0.428049
   4 C :   -0.517994
   5 C :    0.391784
   6 C :   -0.502008
   7 H :    0.095950
   8 H :    0.097910
   9 H :    0.011734
  10 H :    0.026726
  11 H :    0.053587
  12 H :   -0.000039
  13 H :    0.000160
Sum of atomic charges:   -0.0000000

LOEWDIN ATOMIC CHARGES
----------------------
   0 N :   -0.105740
   1 C :    0.031539
   2 C :   -0.056462
   3 C :   -0.005405
   4 C :   -0.073550
   5 C :   -0.005208
   6 C :   -0.076562
   7 H :    0.057879
   8 H :    0.055015
   9 H :    0.007676
  10 H :    0.029045
  11 H :    0.069067
  12 H :    0.036409
  13 H :    0.036297

  Mayer bond orders larger than 0.1
B(  0-N ,  1-C ) :   1.1182 B(  0-N ,  7-H ) :   0.9623 B(  0-N ,  8-H ) :   0.9618
B(  1-C ,  2-C ) :   1.0319 B(  1-C ,  9-H ) :   0.9193 B(  1-C , 10-H ) :   0.9334
B(  2-C ,  3-C ) :   0.9599 B(  2-C ,  5-C ) :   0.9847 B(  2-C , 11-H ) :   0.8372
B(  3-C ,  4-C ) :   2.3299 B(  3-C , 12-H ) :  -0.1187 B(  4-C , 12-H ) :   1.1084
B(  5-C ,  6-C ) :   2.3378 B(  5-C , 13-H ) :  -0.1209 B(  6-C , 13-H ) :   1.1117

FINAL SINGLE POINT ENERGY      -286.856124067408

DIPOLE MOMENT
-------------
                                X             Y             Z
Electronic contribution:      1.30445      -3.36684      -1.18166
Nuclear contribution   :     -1.29570       3.90483       1.06709
                        -----------------------------------------
Total Dipole Moment    :      0.00875       0.53798      -0.11457
                        -----------------------------------------
Magnitude (a.u.)       :      0.55012
Magnitude (Debye)      :      1.39829

                             ****ORCA TERMINATED NORMALLY****
TOTAL RUN TIME: 0 days 0 hours 0 minutes 6 seconds 506 msec
