                         Program Version 3.0.3 - RELEASE   -
|  1> ! RI PBE def2-SVP def2-SVP/J NBO PAL2
|  2> % maxcore 2000
|  3> % output
|  4>     # printlevel mini
|  5>     print[ P_Basis ] 0
|  6>     print[ P_SCFInfo ] 1
|  7>     print[ P_SCFIterInfo ] 1
|  8>     print[ P_OrbEn ] 0
|  9>     print[ P_Cartesian ] 0
| 10> end
| 11> *xyz 0 1
| 12>  N        0.9902430000    -0.2390950000    -0.2162940000
| 13>  C        2.2934710000     0.2929090000     0.1678860000
| 14>  C        2.8861740000     1.0764670000    -0.9065930000
| 15>  C        3.3808270000     1.7012040000    -1.8069540000
| 16>  C        3.9838460000     2.4532260000    -2.8992600000
| 17>  C        4.8842480000     1.6154680000    -3.7609490000
| 18>  C        4.7641420000     1.4993690000    -5.0741630000
| 19>  H        0.6411440000    -0.8502970000     0.5118860000
| 20>  H        1.0813030000    -0.7936300000    -1.0586560000
| 21>  H        3.0215930000    -0.4786090000     0.4653110000
| 22>  H        2.1540240000     0.9383640000     1.0420160000
| 23>  H        4.5610400000     3.2839500000    -2.4725130000
| 24>  H        3.1992120000     2.9058190000    -3.5139750000
| 25>  H        5.6765580000     1.0849970000    -3.2388270000
| 26>  H        3.9757160000     2.0088820000    -5.6197030000
| 27>  H        5.4483600000     0.8898740000    -5.6527110000
| 28> *
| 29>
| 30>                          ****END OF INPUT****
 Total Charge           Charge          ....    0
 Multiplicity           Mult            ....    1
 Number of Electrons    NEL             ....   52
 Basis Dimension        Dim             ....  143

MULLIKEN ATOMIC CHARGES
-----------------------
   0 N :   -0.218039
   1 C :    0.157633
   2 C :   -0.158336
   3 C :   -0.165526
   4 C :    0.141128
   5 C :   -0.083151
   6 C :   -0.036002
   7 H :    0.087933
   8 H :    0.095158
   9 H :    0.016256
  10 H :    0.024184
  11 H :    0.046739
  12 H :    0.030014
  13 H :    0.012487
  14 H :    0.020996
  15 H :    0.028526
Sum of atomic charges:   -0.0000000

LOEWDIN ATOMIC CHARGES
----------------------
   0 N :   -0.108132
   1 C :    0.000151
   2 C :   -0.065312
   3 C :   -0.055904
   4 C :   -0.044608
   5 C :   -0.019674
   6 C :   -0.062344
   7 H :    0.052373
   8 H :    0.053533
   9 H :    0.021533
  10 H :    0.041142
  11 H :    0.057449
  12 H :    0.050894
  13 H :    0.029013
  14 H :    0.023008
  15 H :    0.026879

  Mayer bond orders larger than 0.1
B(  0-N ,  1-C ) :   1.0804 B(  0-N ,  7-H ) :   0.9622 B(  0-N ,  8-H ) :   0.9681
B(  1-C ,  2-C ) :   1.0815 B(  1-C ,  9-H ) :   0.9003 B(  1-C , 10-H ) :   0.8889
B(  2-C ,  3-C ) :   2.6633 B(  3-C ,  4-C ) :   1.0418 B(  4-C ,  5-C ) :   1.0433
B(  4-C , 11-H ) :   0.8894 B(  4-C , 12-H ) :   0.8937 B(  5-C ,  6-C ) :   2.0233
B(  5-C , 13-H ) :   0.9568 B(  6-C , 14-H ) :   0.9468 B(  6-C , 15-H ) :   0.9450

FINAL SINGLE POINT ENERGY      -288.108439536993

DIPOLE MOMENT
-------------
                                X             Y             Z
Electronic contribution:     -0.11180       0.90555       1.19847
Nuclear contribution   :      0.35824      -1.28900      -1.08150
                        -----------------------------------------
Total Dipole Moment    :      0.24643      -0.38345       0.11697
                        -----------------------------------------
Magnitude (a.u.)       :      0.47058
Magnitude (Debye)      :      1.19611

                             ****ORCA TERMINATED NORMALLY****
TOTAL RUN TIME: 0 days 0 hours 0 minutes 7 seconds 72 msec
