                         Program Version 3.0.3 - RELEASE   -
|  1> ! RI PBE def2-SVP def2-SVP/J NBO PAL2
|  2> % maxcore 2000
|  3> % output
|  4>     # printlevel mini
|  5>     print[ P_Basis ] 0
|  6>     print[ P_SCFInfo ] 1
|  7>     print[ P_SCFIterInfo ] 1
|  8>     print[ P_OrbEn ] 0
|  9>     print[ P_Cartesian ] 0
| 10> end
| 11> *xyz 0 1
| 12>  N        1.0555590000     0.1078380000    -0.2229020000
| 13>  C        2.4803180000    -0.0395590000     0.0519710000
| 14>  C        3.0114740000    -1.2646810000    -0.5285750000
| 15>  C        3.4520140000    -2.2828120000    -0.9879870000
| 16>  C        3.9760650000    -3.5192640000    -1.5577870000
| 17>  C        5.2541390000    -3.3520730000    -2.2410380000
| 18>  C        6.3053440000    -3.2309000000    -2.8043160000
| 19>  H        0.7024850000     0.9380530000     0.2370210000
| 20>  H        0.5479820000    -0.6837780000     0.1525500000
| 21>  H        2.7340840000    -0.0330030000     1.1238560000
| 22>  H        3.0042250000     0.8122070000    -0.3949220000
| 23>  H        3.2449090000    -3.9291870000    -2.2645120000
| 24>  H        4.0897760000    -4.2713160000    -0.7681880000
| 25>  H        7.2378360000    -3.1164170000    -3.3041690000
| 26> *
| 27>
| 28>                          ****END OF INPUT****
 Total Charge           Charge          ....    0
 Multiplicity           Mult            ....    1
 Number of Electrons    NEL             ....   50
 Basis Dimension        Dim             ....  133

MULLIKEN ATOMIC CHARGES
-----------------------
   0 N :   -0.217804
   1 C :    0.166976
   2 C :   -0.151567
   3 C :   -0.158438
   4 C :    0.170697
   5 C :    0.297180
   6 C :   -0.458223
   7 H :    0.089417
   8 H :    0.094674
   9 H :    0.018487
  10 H :    0.025146
  11 H :    0.061878
  12 H :    0.060519
  13 H :    0.001059
Sum of atomic charges:   -0.0000000

LOEWDIN ATOMIC CHARGES
----------------------
   0 N :   -0.106477
   1 C :    0.002029
   2 C :   -0.052109
   3 C :   -0.053517
   4 C :   -0.047319
   5 C :   -0.015541
   6 C :   -0.075518
   7 H :    0.053362
   8 H :    0.053363
   9 H :    0.021743
  10 H :    0.043907
  11 H :    0.071521
  12 H :    0.068836
  13 H :    0.035720

  Mayer bond orders larger than 0.1
B(  0-N ,  1-C ) :   1.0847 B(  0-N ,  7-H ) :   0.9628 B(  0-N ,  8-H ) :   0.9681
B(  1-C ,  2-C ) :   1.0737 B(  1-C ,  9-H ) :   0.9040 B(  1-C , 10-H ) :   0.8827
B(  2-C ,  3-C ) :   2.6987 B(  3-C ,  4-C ) :   1.0364 B(  4-C ,  5-C ) :   1.0480
B(  4-C , 11-H ) :   0.8684 B(  4-C , 12-H ) :   0.8727 B(  5-C ,  6-C ) :   2.4008
B(  5-C , 13-H ) :  -0.1064 B(  6-C , 13-H ) :   1.0976

FINAL SINGLE POINT ENERGY      -286.861434016986

DIPOLE MOMENT
-------------
                                X             Y             Z
Electronic contribution:      2.85599      -2.58238      -1.91825
Nuclear contribution   :     -3.09436       2.58226       2.53362
                        -----------------------------------------
Total Dipole Moment    :     -0.23837      -0.00012       0.61536
                        -----------------------------------------
Magnitude (a.u.)       :      0.65992
Magnitude (Debye)      :      1.67738

                             ****ORCA TERMINATED NORMALLY****
TOTAL RUN TIME: 0 days 0 hours 0 minutes 6 seconds 160 msec
