                         Program Version 3.0.3 - RELEASE   -
|  1> ! RI PBE def2-SVP def2-SVP/J NBO PAL2
|  2> % maxcore 2000
|  3> % output
|  4>     # printlevel mini
|  5>     print[ P_Basis ] 0
|  6>     print[ P_SCFInfo ] 1
|  7>     print[ P_SCFIterInfo ] 1
|  8>     print[ P_OrbEn ] 0
|  9>     print[ P_Cartesian ] 0
| 10> end
| 11> *xyz 0 1
| 12>  N        0.6491900000    -0.3772270000     0.0386760000
| 13>  C        2.0861240000    -0.3283520000    -0.1799090000
| 14>  C        2.6750280000     0.9330990000     0.4411120000
| 15>  C        4.1600300000     0.9814660000     0.3486460000
| 16>  C        4.8654600000     1.9197680000    -0.2872360000
| 17>  C        6.3109970000     1.9380230000    -0.3622960000
| 18>  C        7.0215700000     2.8732060000    -0.9926490000
| 19>  H        0.2599800000    -1.2342530000    -0.3334190000
| 20>  H        0.1933150000     0.3859470000    -0.4476020000
| 21>  H        2.3814620000    -0.3713720000    -1.2397480000
| 22>  H        2.5309580000    -1.2038910000     0.3045860000
| 23>  H        2.3597520000     0.9613780000     1.4910440000
| 24>  H        2.2448010000     1.8165890000    -0.0438790000
| 25>  H        4.7011900000     0.1727590000     0.8402340000
| 26>  H        4.3398250000     2.7342510000    -0.7840700000
| 27>  H        6.8299090000     1.1223240000     0.1374580000
| 28>  H        6.5380610000     3.7014490000    -1.5009190000
| 29>  H        8.1037680000     2.8418480000    -1.0204190000
| 30> *
| 31>
| 32>                          ****END OF INPUT****
 Total Charge           Charge          ....    0
 Multiplicity           Mult            ....    1
 Number of Electrons    NEL             ....   54
 Basis Dimension        Dim             ....  153

MULLIKEN ATOMIC CHARGES
-----------------------
   0 N :   -0.206231
   1 C :    0.036606
   2 C :    0.064450
   3 C :   -0.080591
   4 C :    0.015476
   5 C :   -0.006525
   6 C :   -0.041860
   7 H :    0.088046
   8 H :    0.088358
   9 H :    0.000704
  10 H :    0.007036
  11 H :    0.025487
  12 H :   -0.002481
  13 H :   -0.005781
  14 H :   -0.017021
  15 H :   -0.009026
  16 H :    0.016073
  17 H :    0.027282
Sum of atomic charges:   -0.0000000

LOEWDIN ATOMIC CHARGES
----------------------
   0 N :   -0.113171
   1 C :    0.008834
   2 C :   -0.047317
   3 C :   -0.021779
   4 C :   -0.044423
   5 C :   -0.031716
   6 C :   -0.060052
   7 H :    0.053018
   8 H :    0.049962
   9 H :    0.000606
  10 H :    0.019518
  11 H :    0.037150
  12 H :    0.024380
  13 H :    0.023148
  14 H :    0.025758
  15 H :    0.028626
  16 H :    0.022078
  17 H :    0.025377

  Mayer bond orders larger than 0.1
B(  0-N ,  1-C ) :   1.0921 B(  0-N ,  7-H ) :   0.9647 B(  0-N ,  8-H ) :   0.9697
B(  1-C ,  2-C ) :   1.0738 B(  1-C ,  9-H ) :   0.9325 B(  1-C , 10-H ) :   0.9367
B(  2-C ,  3-C ) :   1.0533 B(  2-C , 11-H ) :   0.9016 B(  2-C , 12-H ) :   0.9286
B(  3-C ,  4-C ) :   1.7847 B(  3-C ,  6-C ) :   0.1377 B(  3-C , 13-H ) :   0.9557
B(  4-C ,  5-C ) :   1.1367 B(  4-C , 14-H ) :   0.9608 B(  5-C ,  6-C ) :   1.8867
B(  5-C , 15-H ) :   0.9609 B(  6-C , 16-H ) :   0.9473 B(  6-C , 17-H ) :   0.9429

FINAL SINGLE POINT ENERGY      -289.360452136041

DIPOLE MOMENT
-------------
                                X             Y             Z
Electronic contribution:      1.68682       0.78890       0.49030
Nuclear contribution   :     -1.93486      -0.97591      -0.89769
                        -----------------------------------------
Total Dipole Moment    :     -0.24804      -0.18701      -0.40739
                        -----------------------------------------
Magnitude (a.u.)       :      0.51231
Magnitude (Debye)      :      1.30220

                             ****ORCA TERMINATED NORMALLY****
TOTAL RUN TIME: 0 days 0 hours 0 minutes 7 seconds 728 msec
