                         Program Version 3.0.3 - RELEASE   -
|  1> ! RI PBE def2-SVP def2-SVP/J NBO PAL2
|  2> % maxcore 2000
|  3> % output
|  4>     # printlevel mini
|  5>     print[ P_Basis ] 0
|  6>     print[ P_SCFInfo ] 1
|  7>     print[ P_SCFIterInfo ] 1
|  8>     print[ P_OrbEn ] 0
|  9>     print[ P_Cartesian ] 0
| 10> end
| 11> *xyz 0 1
| 12>  N        0.7765800000    -0.1300210000     0.0252940000
| 13>  C        2.2245520000    -0.1051910000    -0.0998010000
| 14>  C        2.8235560000     0.8858510000     0.8922660000
| 15>  C        4.3107750000     0.8674530000     0.8933590000
| 16>  C        5.0839460000     1.9166520000     0.6019980000
| 17>  C        6.5008160000     1.8879360000     0.6034240000
| 18>  C        7.7045020000     1.8971820000     0.5951740000
| 19>  H        0.3767130000    -0.8287930000    -0.5879490000
| 20>  H        0.3825420000     0.7616880000    -0.2507010000
| 21>  H        2.5854070000     0.1431300000    -1.1098830000
| 22>  H        2.6004370000    -1.1077330000     0.1290900000
| 23>  H        2.4455620000     0.6249800000     1.8879190000
| 24>  H        2.4636800000     1.8962450000     0.6685800000
| 25>  H        4.7907410000    -0.0761320000     1.1447360000
| 26>  H        4.6217500000     2.8684200000     0.3474710000
| 27>  H        8.7685410000     1.8959330000     0.5907230000
| 28> *
| 29>
| 30>                          ****END OF INPUT****
 Total Charge           Charge          ....    0
 Multiplicity           Mult            ....    1
 Number of Electrons    NEL             ....   52
 Basis Dimension        Dim             ....  143

MULLIKEN ATOMIC CHARGES
-----------------------
   0 N :   -0.205094
   1 C :    0.041062
   2 C :    0.052508
   3 C :   -0.046485
   4 C :   -0.065820
   5 C :    0.381884
   6 C :   -0.409941
   7 H :    0.090459
   8 H :    0.087402
   9 H :    0.000350
  10 H :    0.010136
  11 H :    0.028637
  12 H :    0.002223
  13 H :    0.009242
  14 H :    0.020684
  15 H :    0.002753
Sum of atomic charges:   -0.0000000

LOEWDIN ATOMIC CHARGES
----------------------
   0 N :   -0.111672
   1 C :    0.010398
   2 C :   -0.046745
   3 C :    0.004929
   4 C :   -0.062251
   5 C :   -0.019359
   6 C :   -0.071662
   7 H :    0.054226
   8 H :    0.050162
   9 H :    0.001019
  10 H :    0.020837
  11 H :    0.039296
  12 H :    0.025406
  13 H :    0.030752
  14 H :    0.040403
  15 H :    0.034263

  Mayer bond orders larger than 0.1
B(  0-N ,  1-C ) :   1.0953 B(  0-N ,  7-H ) :   0.9656 B(  0-N ,  8-H ) :   0.9687
B(  1-C ,  2-C ) :   1.0685 B(  1-C ,  9-H ) :   0.9327 B(  1-C , 10-H ) :   0.9381
B(  2-C ,  3-C ) :   1.0574 B(  2-C , 11-H ) :   0.9023 B(  2-C , 12-H ) :   0.9297
B(  3-C ,  4-C ) :   1.8163 B(  3-C ,  6-C ) :   0.1302 B(  3-C , 13-H ) :   0.9569
B(  4-C ,  5-C ) :   1.0454 B(  4-C , 14-H ) :   0.9389 B(  5-C ,  6-C ) :   2.2811
B(  6-C , 15-H ) :   1.0889

FINAL SINGLE POINT ENERGY      -288.113935207433

DIPOLE MOMENT
-------------
                                X             Y             Z
Electronic contribution:      6.46656       2.36043       0.89126
Nuclear contribution   :     -6.87665      -2.43558      -1.35673
                        -----------------------------------------
Total Dipole Moment    :     -0.41009      -0.07516      -0.46547
                        -----------------------------------------
Magnitude (a.u.)       :      0.62489
Magnitude (Debye)      :      1.58834

                             ****ORCA TERMINATED NORMALLY****
TOTAL RUN TIME: 0 days 0 hours 0 minutes 7 seconds 217 msec
