                         Program Version 3.0.3 - RELEASE   -
|  1> ! RI PBE def2-SVP def2-SVP/J NBO PAL2
|  2> % maxcore 2000
|  3> % output
|  4>     # printlevel mini
|  5>     print[ P_Basis ] 0
|  6>     print[ P_SCFInfo ] 1
|  7>     print[ P_SCFIterInfo ] 1
|  8>     print[ P_OrbEn ] 0
|  9>     print[ P_Cartesian ] 0
| 10> end
| 11> *xyz 0 1
| 12>  N        0.6317440000     0.8201970000     0.6639360000
| 13>  C        1.7255580000     0.1192740000     0.0080480000
| 14>  C        3.0629730000     0.6939800000     0.4645890000
| 15>  C        4.2438540000     0.0197760000    -0.1732490000
| 16>  C        4.9422960000    -0.9126270000     0.4828810000
| 17>  C        4.6328080000     0.3729240000    -1.5366440000
| 18>  C        4.0801470000     1.3144280000    -2.2998580000
| 19>  H       -0.2565450000     0.3984420000     0.4239730000
| 20>  H        0.5916560000     1.7833480000     0.3515880000
| 21>  H        1.6743500000     0.1380660000    -1.0901860000
| 22>  H        1.6807450000    -0.9324870000     0.3053570000
| 23>  H        3.1222570000     0.5979790000     1.5508410000
| 24>  H        3.0841150000     1.7677310000     0.2437590000
| 25>  H        4.6976430000    -1.1929620000     1.5012320000
| 26>  H        5.7814290000    -1.4190090000     0.0180870000
| 27>  H        5.4665030000    -0.1983620000    -1.9391640000
| 28>  H        3.2489620000     1.9223500000    -1.9606230000
| 29>  H        4.4499060000     1.5108430000    -3.2988660000
| 30> *
| 31>
| 32>                          ****END OF INPUT****
 Total Charge           Charge          ....    0
 Multiplicity           Mult            ....    1
 Number of Electrons    NEL             ....   54
 Basis Dimension        Dim             ....  153

MULLIKEN ATOMIC CHARGES
-----------------------
   0 N :   -0.203700
   1 C :    0.062341
   2 C :    0.032165
   3 C :   -0.080622
   4 C :   -0.034534
   5 C :    0.001851
   6 C :   -0.036169
   7 H :    0.086111
   8 H :    0.086222
   9 H :    0.002396
  10 H :    0.004829
  11 H :    0.011974
  12 H :    0.010516
  13 H :    0.015348
  14 H :    0.012993
  15 H :   -0.015870
  16 H :    0.017813
  17 H :    0.026336
Sum of atomic charges:   -0.0000000

LOEWDIN ATOMIC CHARGES
----------------------
   0 N :   -0.113282
   1 C :    0.010904
   2 C :   -0.040154
   3 C :   -0.029740
   4 C :   -0.047233
   5 C :   -0.024293
   6 C :   -0.057687
   7 H :    0.052502
   8 H :    0.048925
   9 H :    0.000480
  10 H :    0.021816
  11 H :    0.033036
  12 H :    0.026012
  13 H :    0.022365
  14 H :    0.020861
  15 H :    0.028935
  16 H :    0.019712
  17 H :    0.026841

  Mayer bond orders larger than 0.1
B(  0-N ,  1-C ) :   1.0898 B(  0-N ,  7-H ) :   0.9649 B(  0-N ,  8-H ) :   0.9675
B(  1-C ,  2-C ) :   1.0864 B(  1-C ,  9-H ) :   0.9364 B(  1-C , 10-H ) :   0.9282
B(  2-C ,  3-C ) :   1.0524 B(  2-C , 11-H ) :   0.9114 B(  2-C , 12-H ) :   0.9019
B(  3-C ,  4-C ) :   1.8781 B(  3-C ,  5-C ) :   1.1149 B(  4-C ,  6-C ) :   0.1401
B(  4-C , 13-H ) :   0.9324 B(  4-C , 14-H ) :   0.9412 B(  5-C ,  6-C ) :   1.8976
B(  5-C , 15-H ) :   0.9552 B(  6-C , 16-H ) :   0.9340 B(  6-C , 17-H ) :   0.9400

FINAL SINGLE POINT ENERGY      -289.356372018818

DIPOLE MOMENT
-------------
                                X             Y             Z
Electronic contribution:      1.76140      -0.30437      -0.08012
Nuclear contribution   :     -2.02159       0.36808      -0.32227
                        -----------------------------------------
Total Dipole Moment    :     -0.26019       0.06371      -0.40239
                        -----------------------------------------
Magnitude (a.u.)       :      0.48340
Magnitude (Debye)      :      1.22870

                             ****ORCA TERMINATED NORMALLY****
TOTAL RUN TIME: 0 days 0 hours 0 minutes 7 seconds 803 msec
