                         Program Version 3.0.3 - RELEASE   -
|  1> ! RI PBE def2-SVP def2-SVP/J NBO PAL2
|  2> % maxcore 2000
|  3> % output
|  4>     # printlevel mini
|  5>     print[ P_Basis ] 0
|  6>     print[ P_SCFInfo ] 1
|  7>     print[ P_SCFIterInfo ] 1
|  8>     print[ P_OrbEn ] 0
|  9>     print[ P_Cartesian ] 0
| 10> end
| 11> *xyz 0 1
| 12>  N        0.9880120000    -0.2486820000    -0.0202210000
| 13>  C        2.4200590000    -0.0019020000     0.0498320000
| 14>  C        3.1649040000    -1.0261070000    -0.7962270000
| 15>  C        4.6582380000    -0.8484220000    -0.7598390000
| 16>  C        5.3676900000    -0.4847430000    -1.8311530000
| 17>  C        5.3025480000    -1.0843720000     0.4912440000
| 18>  C        5.8112790000    -1.3009660000     1.5602050000
| 19>  H        0.4782740000     0.4769370000     0.4676230000
| 20>  H        0.7593040000    -1.1236640000     0.4369830000
| 21>  H        2.8282450000    -0.0155420000     1.0710590000
| 22>  H        2.6135140000     0.9960670000    -0.3551230000
| 23>  H        2.8127500000    -0.9611090000    -1.8279690000
| 24>  H        2.9188370000    -2.0304670000    -0.4303980000
| 25>  H        4.8798350000    -0.3105030000    -2.7832690000
| 26>  H        6.4418280000    -0.3576990000    -1.7816630000
| 27>  H        6.2751820000    -1.4884070000     2.4994960000
| 28> *
| 29>
| 30>                          ****END OF INPUT****
 Total Charge           Charge          ....    0
 Multiplicity           Mult            ....    1
 Number of Electrons    NEL             ....   52
 Basis Dimension        Dim             ....  143

MULLIKEN ATOMIC CHARGES
-----------------------
   0 N :   -0.208703
   1 C :    0.057664
   2 C :    0.085871
   3 C :   -0.169882
   4 C :    0.013475
   5 C :    0.438016
   6 C :   -0.473977
   7 H :    0.090561
   8 H :    0.087601
   9 H :    0.007960
  10 H :    0.005187
  11 H :    0.004321
  12 H :    0.015117
  13 H :    0.019197
  14 H :    0.024595
  15 H :    0.002995
Sum of atomic charges:    0.0000000

LOEWDIN ATOMIC CHARGES
----------------------
   0 N :   -0.111892
   1 C :    0.011153
   2 C :   -0.027670
   3 C :   -0.046565
   4 C :   -0.028207
   5 C :   -0.009240
   6 C :   -0.072196
   7 H :    0.053946
   8 H :    0.049958
   9 H :    0.004191
  10 H :    0.022019
  11 H :    0.031169
  12 H :    0.032477
  13 H :    0.025589
  14 H :    0.029423
  15 H :    0.035845

  Mayer bond orders larger than 0.1
B(  0-N ,  1-C ) :   1.0970 B(  0-N ,  7-H ) :   0.9650 B(  0-N ,  8-H ) :   0.9698
B(  1-C ,  2-C ) :   1.0869 B(  1-C ,  9-H ) :   0.9356 B(  1-C , 10-H ) :   0.9280
B(  2-C ,  3-C ) :   1.0419 B(  2-C , 11-H ) :   0.9072 B(  2-C , 12-H ) :   0.9152
B(  3-C ,  4-C ) :   1.9185 B(  3-C ,  5-C ) :   0.9936 B(  4-C ,  6-C ) :   0.1264
B(  4-C , 13-H ) :   0.9303 B(  4-C , 14-H ) :   0.9383 B(  5-C ,  6-C ) :   2.2413
B(  5-C , 15-H ) :  -0.1069 B(  6-C , 15-H ) :   1.0969

FINAL SINGLE POINT ENERGY      -288.111674870990

DIPOLE MOMENT
-------------
                                X             Y             Z
Electronic contribution:      4.08203      -1.23593       1.31501
Nuclear contribution   :     -4.26170       1.28481      -0.89753
                        -----------------------------------------
Total Dipole Moment    :     -0.17967       0.04888       0.41747
                        -----------------------------------------
Magnitude (a.u.)       :      0.45711
Magnitude (Debye)      :      1.16189

                             ****ORCA TERMINATED NORMALLY****
TOTAL RUN TIME: 0 days 0 hours 0 minutes 6 seconds 980 msec
