                         Program Version 3.0.3 - RELEASE   -
|  1> ! RI PBE def2-SVP def2-SVP/J NBO PAL2
|  2> % maxcore 2000
|  3> % output
|  4>     # printlevel mini
|  5>     print[ P_Basis ] 0
|  6>     print[ P_SCFInfo ] 1
|  7>     print[ P_SCFIterInfo ] 1
|  8>     print[ P_OrbEn ] 0
|  9>     print[ P_Cartesian ] 0
| 10> end
| 11> *xyz 0 1
| 12>  N        1.0559770000     0.0364540000     0.0249340000
| 13>  C        2.4981650000     0.1006760000    -0.1355420000
| 14>  C        3.0291810000    -1.2616350000    -0.5767700000
| 15>  C        4.4652680000    -1.2699020000    -0.7851880000
| 16>  C        5.6591810000    -1.2430370000    -0.9561280000
| 17>  C        7.0626740000    -1.2677060000    -1.1540530000
| 18>  C        7.8190580000    -0.1931710000    -1.3783310000
| 19>  H        0.6730910000     0.9584270000     0.1887190000
| 20>  H        0.8104860000    -0.5309930000     0.8274840000
| 21>  H        3.0425360000     0.4165950000     0.7662390000
| 22>  H        2.7253360000     0.8326530000    -0.9147620000
| 23>  H        2.5125840000    -1.5566590000    -1.4961740000
| 24>  H        2.7684730000    -2.0152840000     0.1766120000
| 25>  H        7.5311800000    -2.2485980000    -1.1141680000
| 26>  H        7.3906390000     0.8008780000    -1.4259160000
| 27>  H        8.8885120000    -0.2886180000    -1.5195650000
| 28> *
| 29>
| 30>                          ****END OF INPUT****
 Total Charge           Charge          ....    0
 Multiplicity           Mult            ....    1
 Number of Electrons    NEL             ....   52
 Basis Dimension        Dim             ....  143

MULLIKEN ATOMIC CHARGES
-----------------------
   0 N :   -0.198232
   1 C :    0.022167
   2 C :    0.065839
   3 C :   -0.059390
   4 C :   -0.085525
   5 C :   -0.095784
   6 C :   -0.017656
   7 H :    0.091504
   8 H :    0.089115
   9 H :    0.008575
  10 H :    0.024361
  11 H :    0.037919
  12 H :    0.028645
  13 H :    0.027692
  14 H :    0.028025
  15 H :    0.032745
Sum of atomic charges:   -0.0000000

LOEWDIN ATOMIC CHARGES
----------------------
   0 N :   -0.110526
   1 C :    0.014931
   2 C :   -0.053940
   3 C :   -0.035225
   4 C :   -0.062524
   5 C :   -0.046355
   6 C :   -0.034732
   7 H :    0.055530
   8 H :    0.051129
   9 H :    0.004158
  10 H :    0.026110
  11 H :    0.050264
  12 H :    0.044245
  13 H :    0.042148
  14 H :    0.027629
  15 H :    0.027159

  Mayer bond orders larger than 0.1
B(  0-N ,  1-C ) :   1.1060 B(  0-N ,  7-H ) :   0.9634 B(  0-N ,  8-H ) :   0.9679
B(  1-C ,  2-C ) :   1.0716 B(  1-C ,  9-H ) :   0.9385 B(  1-C , 10-H ) :   0.9392
B(  2-C ,  3-C ) :   1.0429 B(  2-C , 11-H ) :   0.8866 B(  2-C , 12-H ) :   0.8975
B(  3-C ,  4-C ) :   2.4643 B(  3-C ,  6-C ) :   0.1288 B(  4-C ,  5-C ) :   1.0528
B(  5-C ,  6-C ) :   1.9142 B(  5-C , 13-H ) :   0.9493 B(  6-C , 14-H ) :   0.9539
B(  6-C , 15-H ) :   0.9428

FINAL SINGLE POINT ENERGY      -288.119893384978

DIPOLE MOMENT
-------------
                                X             Y             Z
Electronic contribution:      2.79162      -2.10575      -0.97626
Nuclear contribution   :     -3.03201       2.34962       1.45845
                        -----------------------------------------
Total Dipole Moment    :     -0.24039       0.24387       0.48220
                        -----------------------------------------
Magnitude (a.u.)       :      0.59142
Magnitude (Debye)      :      1.50326

                             ****ORCA TERMINATED NORMALLY****
TOTAL RUN TIME: 0 days 0 hours 0 minutes 7 seconds 64 msec
