                         Program Version 3.0.3 - RELEASE   -
|  1> ! RI PBE def2-SVP def2-SVP/J NBO PAL2
|  2> % maxcore 2000
|  3> % output
|  4>     # printlevel mini
|  5>     print[ P_Basis ] 0
|  6>     print[ P_SCFInfo ] 1
|  7>     print[ P_SCFIterInfo ] 1
|  8>     print[ P_OrbEn ] 0
|  9>     print[ P_Cartesian ] 0
| 10> end
| 11> *xyz 0 1
| 12>  N        1.0559970000    -0.0199930000    -0.0075880000
| 13>  C        2.5061070000    -0.0135280000    -0.0713230000
| 14>  C        3.0735790000     0.4957510000     1.2542000000
| 15>  C        4.5210720000     0.5062980000     1.2817050000
| 16>  C        5.7294540000     0.5037620000     1.2820480000
| 17>  C        7.0928690000     0.5034590000     1.2899470000
| 18>  C        8.2987300000     0.5025680000     1.2966980000
| 19>  H        0.6647450000    -0.4975410000    -0.8089070000
| 20>  H        0.6912190000     0.9249680000    -0.0196870000
| 21>  H        2.9240520000     0.5896710000    -0.8900210000
| 22>  H        2.8491990000    -1.0392970000    -0.2263400000
| 23>  H        2.6874790000    -0.1300360000     2.0654340000
| 24>  H        2.7036810000     1.5110300000     1.4432840000
| 25>  H        9.3627070000     0.5020370000     1.3036300000
| 26> *
| 27>
| 28>                          ****END OF INPUT****
 Total Charge           Charge          ....    0
 Multiplicity           Mult            ....    1
 Number of Electrons    NEL             ....   50
 Basis Dimension        Dim             ....  133

MULLIKEN ATOMIC CHARGES
-----------------------
   0 N :   -0.197883
   1 C :    0.022672
   2 C :    0.067564
   3 C :   -0.084837
   4 C :   -0.036181
   5 C :    0.355218
   6 C :   -0.436631
   7 H :    0.093993
   8 H :    0.090856
   9 H :    0.014142
  10 H :    0.025704
  11 H :    0.044328
  12 H :    0.032088
  13 H :    0.008967
Sum of atomic charges:   -0.0000000

LOEWDIN ATOMIC CHARGES
----------------------
   0 N :   -0.108567
   1 C :    0.017556
   2 C :   -0.052604
   3 C :    0.003760
   4 C :   -0.073728
   5 C :   -0.030547
   6 C :   -0.038941
   7 H :    0.057002
   8 H :    0.052153
   9 H :    0.006236
  10 H :    0.027442
  11 H :    0.053965
  12 H :    0.048328
  13 H :    0.037946

  Mayer bond orders larger than 0.1
B(  0-N ,  1-C ) :   1.1114 B(  0-N ,  7-H ) :   0.9633 B(  0-N ,  8-H ) :   0.9683
B(  1-C ,  2-C ) :   1.0676 B(  1-C ,  9-H ) :   0.9387 B(  1-C , 10-H ) :   0.9392
B(  2-C ,  3-C ) :   1.0516 B(  2-C , 11-H ) :   0.8850 B(  2-C , 12-H ) :   0.8920
B(  3-C ,  4-C ) :   2.3499 B(  3-C ,  6-C ) :   0.2623 B(  4-C ,  5-C ) :   0.9382
B(  5-C ,  6-C ) :   2.1431 B(  5-C , 13-H ) :  -0.1094 B(  6-C , 13-H ) :   1.0987

FINAL SINGLE POINT ENERGY      -286.882300048957

DIPOLE MOMENT
-------------
                                X             Y             Z
Electronic contribution:      7.96473       0.66597       2.35789
Nuclear contribution   :     -8.53135      -0.48475      -2.87511
                        -----------------------------------------
Total Dipole Moment    :     -0.56662       0.18122      -0.51722
                        -----------------------------------------
Magnitude (a.u.)       :      0.78830
Magnitude (Debye)      :      2.00370

                             ****ORCA TERMINATED NORMALLY****
TOTAL RUN TIME: 0 days 0 hours 0 minutes 6 seconds 194 msec
