                         Program Version 3.0.3 - RELEASE   -
|  1> ! RI PBE def2-SVP def2-SVP/J NBO PAL2
|  2> % maxcore 2000
|  3> % output
|  4>     # printlevel mini
|  5>     print[ P_Basis ] 0
|  6>     print[ P_SCFInfo ] 1
|  7>     print[ P_SCFIterInfo ] 1
|  8>     print[ P_OrbEn ] 0
|  9>     print[ P_Cartesian ] 0
| 10> end
| 11> *xyz 0 1
| 12>  N        0.9627260000     0.1468450000     0.1939850000
| 13>  C        2.4094840000    -0.0031230000     0.2456400000
| 14>  C        2.8175600000    -1.4152340000    -0.1280850000
| 15>  C        4.3229080000    -1.6202810000    -0.1345620000
| 16>  C        4.7300350000    -3.0456350000    -0.4988870000
| 17>  C        6.2093860000    -3.2283350000    -0.5638190000
| 18>  C        6.9124440000    -4.0706230000     0.1803620000
| 19>  H        0.6930210000     1.0976460000     0.4125280000
| 20>  H        0.5237690000    -0.4479990000     0.8870350000
| 21>  H        2.8463320000     0.2476850000     1.2263820000
| 22>  H        2.8444260000     0.6977420000    -0.4753050000
| 23>  H        2.3985560000    -1.6507920000    -1.1121770000
| 24>  H        2.3577280000    -2.1200270000     0.5775320000
| 25>  H        4.7388800000    -1.3707860000     0.8482020000
| 26>  H        4.7827400000    -0.9218090000    -0.8446500000
| 27>  H        4.2927640000    -3.2939650000    -1.4749030000
| 28>  H        4.3035600000    -3.7506800000     0.2226190000
| 29>  H        6.7344100000    -2.5988310000    -1.2817870000
| 30>  H        6.4332480000    -4.7165030000     0.9102820000
| 31>  H        7.9894340000    -4.1500040000     0.0870970000
| 32> *
| 33>
| 34>                          ****END OF INPUT****
 Total Charge           Charge          ....    0
 Multiplicity           Mult            ....    1
 Number of Electrons    NEL             ....   56
 Basis Dimension        Dim             ....  163

MULLIKEN ATOMIC CHARGES
-----------------------
   0 N :   -0.202714
   1 C :    0.074585
   2 C :   -0.024021
   3 C :   -0.045975
   4 C :    0.075724
   5 C :   -0.070715
   6 C :   -0.047101
   7 H :    0.084808
   8 H :    0.085523
   9 H :   -0.014841
  10 H :    0.003648
  11 H :    0.008436
  12 H :   -0.000886
  13 H :    0.009002
  14 H :    0.008460
  15 H :    0.013273
  16 H :    0.003191
  17 H :   -0.000435
  18 H :    0.014964
  19 H :    0.025076
Sum of atomic charges:    0.0000000

LOEWDIN ATOMIC CHARGES
----------------------
   0 N :   -0.113001
   1 C :    0.005533
   2 C :   -0.048977
   3 C :   -0.036946
   4 C :   -0.040476
   5 C :   -0.026224
   6 C :   -0.072151
   7 H :    0.051377
   8 H :    0.048634
   9 H :   -0.003323
  10 H :    0.019135
  11 H :    0.024167
  12 H :    0.019097
  13 H :    0.022441
  14 H :    0.022475
  15 H :    0.033264
  16 H :    0.026969
  17 H :    0.023699
  18 H :    0.020329
  19 H :    0.023979

  Mayer bond orders larger than 0.1
B(  0-N ,  1-C ) :   1.0963 B(  0-N ,  7-H ) :   0.9642 B(  0-N ,  8-H ) :   0.9693
B(  1-C ,  2-C ) :   1.0944 B(  1-C ,  9-H ) :   0.9283 B(  1-C , 10-H ) :   0.9302
B(  2-C ,  3-C ) :   1.0841 B(  2-C , 11-H ) :   0.9284 B(  2-C , 12-H ) :   0.9307
B(  3-C ,  4-C ) :   1.0773 B(  3-C , 13-H ) :   0.9343 B(  3-C , 14-H ) :   0.9344
B(  4-C ,  5-C ) :   1.0619 B(  4-C , 15-H ) :   0.9083 B(  4-C , 16-H ) :   0.9288
B(  5-C ,  6-C ) :   2.0142 B(  5-C , 17-H ) :   0.9523 B(  6-C , 18-H ) :   0.9490
B(  6-C , 19-H ) :   0.9438

FINAL SINGLE POINT ENERGY      -290.570161779423

DIPOLE MOMENT
-------------
                                X             Y             Z
Electronic contribution:      0.57472      -0.56553      -0.58483
Nuclear contribution   :     -0.67349       0.81635       0.98181
                        -----------------------------------------
Total Dipole Moment    :     -0.09877       0.25082       0.39698
                        -----------------------------------------
Magnitude (a.u.)       :      0.47985
Magnitude (Debye)      :      1.21969

                             ****ORCA TERMINATED NORMALLY****
TOTAL RUN TIME: 0 days 0 hours 0 minutes 8 seconds 316 msec
