                         Program Version 3.0.3 - RELEASE   -
|  1> ! RI PBE def2-SVP def2-SVP/J NBO PAL2
|  2> % maxcore 2000
|  3> % output
|  4>     # printlevel mini
|  5>     print[ P_Basis ] 0
|  6>     print[ P_SCFInfo ] 1
|  7>     print[ P_SCFIterInfo ] 1
|  8>     print[ P_OrbEn ] 0
|  9>     print[ P_Cartesian ] 0
| 10> end
| 11> *xyz 0 1
| 12>  N        1.0013070000    -0.0462610000    -0.0309040000
| 13>  C        2.4552990000    -0.0609660000     0.0116240000
| 14>  C        3.0174130000    -0.8741200000    -1.1391960000
| 15>  C        4.5356950000    -0.8871270000    -1.1694690000
| 16>  C        5.0858890000    -1.7127620000    -2.3327630000
| 17>  C        6.5379070000    -1.7375790000    -2.3823020000
| 18>  C        7.7384420000    -1.7457650000    -2.4060170000
| 19>  H        0.6267800000     0.5341660000     0.7088040000
| 20>  H        0.6355720000    -0.9797010000     0.1159770000
| 21>  H        2.8679630000    -0.4474830000     0.9581640000
| 22>  H        2.8038980000     0.9734370000    -0.0786150000
| 23>  H        2.6210270000    -0.4696740000    -2.0766500000
| 24>  H        2.6448510000    -1.9045770000    -1.0664980000
| 25>  H        4.9297800000    -1.2900680000    -0.2310320000
| 26>  H        4.9169240000     0.1359580000    -1.2493370000
| 27>  H        4.7033010000    -1.3148670000    -3.2794990000
| 28>  H        4.7140980000    -2.7414300000    -2.2623140000
| 29>  H        8.8021420000    -1.7556730000    -2.4318620000
| 30> *
| 31>
| 32>                          ****END OF INPUT****
 Total Charge           Charge          ....    0
 Multiplicity           Mult            ....    1
 Number of Electrons    NEL             ....   54
 Basis Dimension        Dim             ....  153

MULLIKEN ATOMIC CHARGES
-----------------------
   0 N :   -0.202691
   1 C :    0.077605
   2 C :   -0.021021
   3 C :   -0.053743
   4 C :    0.087028
   5 C :    0.352214
   6 C :   -0.509676
   7 H :    0.087406
   8 H :    0.085160
   9 H :   -0.012386
  10 H :    0.004249
  11 H :    0.009827
  12 H :   -0.000555
  13 H :    0.017688
  14 H :    0.022609
  15 H :    0.031296
  16 H :    0.030832
  17 H :   -0.005842
Sum of atomic charges:   -0.0000000

LOEWDIN ATOMIC CHARGES
----------------------
   0 N :   -0.112288
   1 C :    0.006686
   2 C :   -0.049131
   3 C :   -0.029010
   4 C :   -0.045532
   5 C :   -0.020161
   6 C :   -0.095304
   7 H :    0.052592
   8 H :    0.048750
   9 H :   -0.002492
  10 H :    0.019902
  11 H :    0.024946
  12 H :    0.019329
  13 H :    0.026430
  14 H :    0.028677
  15 H :    0.047517
  16 H :    0.046851
  17 H :    0.032237

  Mayer bond orders larger than 0.1
B(  0-N ,  1-C ) :   1.0984 B(  0-N ,  7-H ) :   0.9639 B(  0-N ,  8-H ) :   0.9691
B(  1-C ,  2-C ) :   1.0923 B(  1-C ,  9-H ) :   0.9288 B(  1-C , 10-H ) :   0.9303
B(  2-C ,  3-C ) :   1.0857 B(  2-C , 11-H ) :   0.9273 B(  2-C , 12-H ) :   0.9310
B(  3-C ,  4-C ) :   1.0767 B(  3-C , 13-H ) :   0.9353 B(  3-C , 14-H ) :   0.9375
B(  4-C ,  5-C ) :   1.0598 B(  4-C , 15-H ) :   0.8946 B(  4-C , 16-H ) :   0.8925
B(  5-C ,  6-C ) :   2.3262 B(  5-C , 17-H ) :  -0.1144 B(  6-C , 17-H ) :   1.1055

FINAL SINGLE POINT ENERGY      -289.327823156905

DIPOLE MOMENT
-------------
                                X             Y             Z
Electronic contribution:      5.18743      -1.43759      -2.50163
Nuclear contribution   :     -5.51094       1.33149       3.01482
                        -----------------------------------------
Total Dipole Moment    :     -0.32351      -0.10610       0.51319
                        -----------------------------------------
Magnitude (a.u.)       :      0.61585
Magnitude (Debye)      :      1.56538

                             ****ORCA TERMINATED NORMALLY****
TOTAL RUN TIME: 0 days 0 hours 0 minutes 7 seconds 576 msec
