                         Program Version 3.0.3 - RELEASE   -
|  1> ! RI PBE def2-SVP def2-SVP/J NBO PAL2
|  2> % maxcore 2000
|  3> % output
|  4>     # printlevel mini
|  5>     print[ P_Basis ] 0
|  6>     print[ P_SCFInfo ] 1
|  7>     print[ P_SCFIterInfo ] 1
|  8>     print[ P_OrbEn ] 0
|  9>     print[ P_Cartesian ] 0
| 10> end
| 11> *xyz 0 1
| 12>  N        0.9648150000     0.0446710000    -0.0742190000
| 13>  C        2.4200000000     0.0387500000    -0.0485490000
| 14>  C        2.9724330000    -0.9588280000    -1.0485000000
| 15>  C        4.4912230000    -0.9818420000    -1.0953210000
| 16>  C        5.0459370000    -1.9855140000    -2.0925080000
| 17>  C        6.5617950000    -2.0125100000    -2.1334840000
| 18>  N        7.0351980000    -2.9612200000    -3.1305310000
| 19>  H        0.5972380000     0.7277510000     0.5759870000
| 20>  H        0.6060700000    -0.8576230000     0.2154280000
| 21>  H        2.8445410000    -0.1796420000     0.9455790000
| 22>  H        2.7638900000     1.0433290000    -0.3179770000
| 23>  H        2.5666010000    -0.7232210000    -2.0378540000
| 24>  H        2.6022190000    -1.9614930000    -0.7963350000
| 25>  H        4.8847020000    -1.2040490000    -0.0953270000
| 26>  H        4.8598240000     0.0201870000    -1.3486400000
| 27>  H        4.6729880000    -1.7656920000    -3.0983020000
| 28>  H        4.6762680000    -2.9885730000    -1.8410990000
| 29>  H        6.9430780000    -2.2102930000    -1.1177470000
| 30>  H        6.9299180000    -1.0197100000    -2.4143260000
| 31>  H        6.7523090000    -3.9016030000    -2.8807510000
| 32>  H        8.0464530000    -2.9619450000    -3.1735040000
| 33> *
| 34>
| 35>                          ****END OF INPUT****
 Total Charge           Charge          ....    0
 Multiplicity           Mult            ....    1
 Number of Electrons    NEL             ....   58
 Basis Dimension        Dim             ....  168

MULLIKEN ATOMIC CHARGES
-----------------------
   0 N :   -0.201421
   1 C :    0.073280
   2 C :   -0.020941
   3 C :   -0.023726
   4 C :   -0.026508
   5 C :    0.083969
   6 N :   -0.208256
   7 H :    0.085323
   8 H :    0.083774
   9 H :   -0.015551
  10 H :    0.000105
  11 H :    0.010225
  12 H :   -0.004205
  13 H :   -0.000616
  14 H :    0.003682
  15 H :    0.012101
  16 H :   -0.003772
  17 H :   -0.016917
  18 H :   -0.001362
  19 H :    0.083936
  20 H :    0.086881
Sum of atomic charges:   -0.0000000

LOEWDIN ATOMIC CHARGES
----------------------
   0 N :   -0.113023
   1 C :    0.005016
   2 C :   -0.046961
   3 C :   -0.040038
   4 C :   -0.047349
   5 C :    0.006029
   6 N :   -0.114073
   7 H :    0.051188
   8 H :    0.047809
   9 H :   -0.004370
  10 H :    0.018002
  11 H :    0.024768
  12 H :    0.017715
  13 H :    0.018136
  14 H :    0.021653
  15 H :    0.025111
  16 H :    0.017785
  17 H :   -0.004429
  18 H :    0.017824
  19 H :    0.047811
  20 H :    0.051394

  Mayer bond orders larger than 0.1
B(  0-N ,  1-C ) :   1.0988 B(  0-N ,  7-H ) :   0.9647 B(  0-N ,  8-H ) :   0.9689
B(  1-C ,  2-C ) :   1.0888 B(  1-C ,  9-H ) :   0.9285 B(  1-C , 10-H ) :   0.9306
B(  2-C ,  3-C ) :   1.0912 B(  2-C , 11-H ) :   0.9290 B(  2-C , 12-H ) :   0.9333
B(  3-C ,  4-C ) :   1.0855 B(  3-C , 13-H ) :   0.9280 B(  3-C , 14-H ) :   0.9329
B(  4-C ,  5-C ) :   1.0947 B(  4-C , 15-H ) :   0.9294 B(  4-C , 16-H ) :   0.9333
B(  5-C ,  6-N ) :   1.0925 B(  5-C , 17-H ) :   0.9285 B(  5-C , 18-H ) :   0.9300
B(  6-N , 19-H ) :   0.9688 B(  6-N , 20-H ) :   0.9655

FINAL SINGLE POINT ENERGY      -307.806879672401

DIPOLE MOMENT
-------------
                                X             Y             Z
Electronic contribution:     -0.44839      -0.08646      -0.80358
Nuclear contribution   :      0.72419      -0.18275       1.61931
                        -----------------------------------------
Total Dipole Moment    :      0.27580      -0.26921       0.81573
                        -----------------------------------------
Magnitude (a.u.)       :      0.90219
Magnitude (Debye)      :      2.29320

                             ****ORCA TERMINATED NORMALLY****
TOTAL RUN TIME: 0 days 0 hours 0 minutes 8 seconds 77 msec
