                         Program Version 3.0.3 - RELEASE   -
|  1> ! RI PBE def2-SVP def2-SVP/J NBO PAL2
|  2> % maxcore 2000
|  3> % output
|  4>     # printlevel mini
|  5>     print[ P_Basis ] 0
|  6>     print[ P_SCFInfo ] 1
|  7>     print[ P_SCFIterInfo ] 1
|  8>     print[ P_OrbEn ] 0
|  9>     print[ P_Cartesian ] 0
| 10> end
| 11> *xyz 0 1
| 12>  N        2.5412920000    -2.6687950000     0.2112560000
| 13>  C        3.0295570000    -1.6341050000     0.1075480000
| 14>  C        3.6460610000    -0.3187290000    -0.0114540000
| 15>  C        4.1750530000     0.1786080000     1.2979260000
| 16>  C        5.4305360000     0.5869770000     1.4635760000
| 17>  C        5.9143290000     1.0894960000     2.7023370000
| 18>  N        6.3287850000     1.5035310000     3.6939720000
| 19>  H        2.8825900000     0.3727810000    -0.3881010000
| 20>  H        4.4389900000    -0.3646420000    -0.7622210000
| 21>  H        3.4796550000     0.2084150000     2.1305390000
| 22>  H        6.1474410000     0.5559630000     0.6484220000
| 23> *
| 24>
| 25>                          ****END OF INPUT****
 Total Charge           Charge          ....    0
 Multiplicity           Mult            ....    1
 Number of Electrons    NEL             ....   48
 Basis Dimension        Dim             ....  118

MULLIKEN ATOMIC CHARGES
-----------------------
   0 N :    0.062892
   1 C :   -0.278540
   2 C :    0.126938
   3 C :   -0.033631
   4 C :   -0.090910
   5 C :   -0.102753
   6 N :    0.057405
   7 H :    0.084619
   8 H :    0.065284
   9 H :    0.053398
  10 H :    0.055298
Sum of atomic charges:    0.0000000

LOEWDIN ATOMIC CHARGES
----------------------
   0 N :   -0.045661
   1 C :   -0.043802
   2 C :   -0.051991
   3 C :    0.033918
   4 C :   -0.060149
   5 C :   -0.040878
   6 N :   -0.037203
   7 H :    0.077022
   8 H :    0.066216
   9 H :    0.048347
  10 H :    0.054181

  Mayer bond orders larger than 0.1
B(  0-N ,  1-C ) :   3.0599 B(  1-C ,  2-C ) :   1.0909 B(  2-C ,  3-C ) :   1.0472
B(  2-C ,  7-H ) :   0.8790 B(  2-C ,  8-H ) :   0.8896 B(  3-C ,  4-C ) :   1.8525
B(  3-C ,  6-N ) :   0.1091 B(  3-C ,  9-H ) :   0.9586 B(  4-C ,  5-C ) :   1.1294
B(  4-C , 10-H ) :   0.9379 B(  5-C ,  6-N ) :   2.9659

FINAL SINGLE POINT ENERGY      -301.783361029226

DIPOLE MOMENT
-------------
                                X             Y             Z
Electronic contribution:      0.63662      -0.70447       2.19649
Nuclear contribution   :     -0.71993       1.40149      -3.48196
                        -----------------------------------------
Total Dipole Moment    :     -0.08331       0.69702      -1.28547
                        -----------------------------------------
Magnitude (a.u.)       :      1.46466
Magnitude (Debye)      :      3.72286

                             ****ORCA TERMINATED NORMALLY****
TOTAL RUN TIME: 0 days 0 hours 0 minutes 4 seconds 932 msec
