                         Program Version 3.0.3 - RELEASE   -
|  1> ! RI PBE def2-SVP def2-SVP/J NBO PAL2
|  2> % maxcore 2000
|  3> % output
|  4>     # printlevel mini
|  5>     print[ P_Basis ] 0
|  6>     print[ P_SCFInfo ] 1
|  7>     print[ P_SCFIterInfo ] 1
|  8>     print[ P_OrbEn ] 0
|  9>     print[ P_Cartesian ] 0
| 10> end
| 11> *xyz 0 1
| 12>  N        1.0488840000    -0.0064860000    -0.1292220000
| 13>  C        2.1934360000    -0.0550430000    -0.0583030000
| 14>  C        3.6512550000    -0.1017200000     0.0098510000
| 15>  C        4.1407110000    -0.8741730000     1.1378070000
| 16>  C        4.5626940000    -1.5102530000     2.0666200000
| 17>  C        5.0460530000    -2.2333990000     3.1225860000
| 18>  N        5.4573890000    -2.8428630000     4.0125460000
| 19>  H        4.0326420000     0.9238710000     0.0694560000
| 20>  H        4.0326370000    -0.5280340000    -0.9248410000
| 21> *
| 22>
| 23>                          ****END OF INPUT****
 Total Charge           Charge          ....    0
 Multiplicity           Mult            ....    1
 Number of Electrons    NEL             ....   46
 Basis Dimension        Dim             ....  108

MULLIKEN ATOMIC CHARGES
-----------------------
   0 N :    0.068440
   1 C :   -0.266311
   2 C :    0.185734
   3 C :   -0.190897
   4 C :    0.063303
   5 C :   -0.166429
   6 N :    0.118142
   7 H :    0.095313
   8 H :    0.092704
Sum of atomic charges:   -0.0000000

LOEWDIN ATOMIC CHARGES
----------------------
   0 N :   -0.030592
   1 C :   -0.035733
   2 C :   -0.048353
   3 C :    0.039469
   4 C :   -0.054327
   5 C :   -0.043147
   6 N :   -0.006714
   7 H :    0.089862
   8 H :    0.089536

  Mayer bond orders larger than 0.1
B(  0-N ,  1-C ) :   3.0668 B(  1-C ,  2-C ) :   1.0609 B(  2-C ,  3-C ) :   1.0568
B(  2-C ,  7-H ) :   0.8669 B(  2-C ,  8-H ) :   0.8654 B(  3-C ,  4-C ) :   2.4263
B(  3-C ,  6-N ) :   0.1864 B(  4-C ,  5-C ) :   1.0123 B(  4-C ,  6-N ) :   0.1180
B(  5-C ,  6-N ) :   2.8738

FINAL SINGLE POINT ENERGY      -300.539704629634

DIPOLE MOMENT
-------------
                                X             Y             Z
Electronic contribution:      0.15177      -1.57861       2.30452
Nuclear contribution   :      0.59212       2.38497      -3.48260
                        -----------------------------------------
Total Dipole Moment    :      0.74389       0.80636      -1.17809
                        -----------------------------------------
Magnitude (a.u.)       :      1.60980
Magnitude (Debye)      :      4.09180

                             ****ORCA TERMINATED NORMALLY****
TOTAL RUN TIME: 0 days 0 hours 0 minutes 5 seconds 253 msec
