                         Program Version 3.0.3 - RELEASE   -
|  1> ! RI PBE def2-SVP def2-SVP/J NBO PAL2
|  2> % maxcore 2000
|  3> % output
|  4>     # printlevel mini
|  5>     print[ P_Basis ] 0
|  6>     print[ P_SCFInfo ] 1
|  7>     print[ P_SCFIterInfo ] 1
|  8>     print[ P_OrbEn ] 0
|  9>     print[ P_Cartesian ] 0
| 10> end
| 11> *xyz 0 1
| 12>  N        4.4083960000     0.6590390000    -2.4705600000
| 13>  C        4.0858330000     0.2978580000    -1.4279390000
| 14>  C        3.7054890000    -0.1209130000    -0.0873380000
| 15>  C        4.3022820000     0.7867080000     0.9889070000
| 16>  C        5.8309220000     0.7632880000     1.0216000000
| 17>  C        6.3502700000    -0.5545400000     1.3544990000
| 18>  N        6.7226470000    -1.6094440000     1.6192060000
| 19>  H        4.0306720000    -1.1559000000     0.0587470000
| 20>  H        2.6145500000    -0.1150570000    -0.0209500000
| 21>  H        3.9105750000     0.4734980000     1.9589730000
| 22>  H        3.9775630000     1.8157900000     0.8212410000
| 23>  H        6.2017220000     1.4769530000     1.7617130000
| 24>  H        6.2409680000     1.0636290000     0.0521010000
| 25> *
| 26>
| 27>                          ****END OF INPUT****
 Total Charge           Charge          ....    0
 Multiplicity           Mult            ....    1
 Number of Electrons    NEL             ....   50
 Basis Dimension        Dim             ....  128

MULLIKEN ATOMIC CHARGES
-----------------------
   0 N :    0.053208
   1 C :   -0.286798
   2 C :    0.053144
   3 C :   -0.033243
   4 C :    0.065815
   5 C :   -0.286473
   6 N :    0.050971
   7 H :    0.078865
   8 H :    0.068897
   9 H :    0.045312
  10 H :    0.048781
  11 H :    0.064548
  12 H :    0.076973
Sum of atomic charges:   -0.0000000

LOEWDIN ATOMIC CHARGES
----------------------
   0 N :   -0.059516
   1 C :   -0.047893
   2 C :   -0.057535
   3 C :   -0.012212
   4 C :   -0.055251
   5 C :   -0.047684
   6 N :   -0.059928
   7 H :    0.065075
   8 H :    0.065089
   9 H :    0.040303
  10 H :    0.040792
  11 H :    0.064254
  12 H :    0.064505

  Mayer bond orders larger than 0.1
B(  0-N ,  1-C ) :   3.0433 B(  1-C ,  2-C ) :   1.1112 B(  2-C ,  3-C ) :   1.0962
B(  2-C ,  7-H ) :   0.8911 B(  2-C ,  8-H ) :   0.8887 B(  3-C ,  4-C ) :   1.0976
B(  3-C ,  9-H ) :   0.9325 B(  3-C , 10-H ) :   0.9334 B(  4-C ,  5-C ) :   1.1038
B(  4-C , 11-H ) :   0.8900 B(  4-C , 12-H ) :   0.8937 B(  5-C ,  6-N ) :   3.0448

FINAL SINGLE POINT ENERGY      -303.006238828806

DIPOLE MOMENT
-------------
                                X             Y             Z
Electronic contribution:      2.18651      -2.18139      -2.44924
Nuclear contribution   :     -3.07551       3.07257       3.44422
                        -----------------------------------------
Total Dipole Moment    :     -0.88900       0.89118       0.99498
                        -----------------------------------------
Magnitude (a.u.)       :      1.60453
Magnitude (Debye)      :      4.07838

                             ****ORCA TERMINATED NORMALLY****
TOTAL RUN TIME: 0 days 0 hours 0 minutes 6 seconds 46 msec
