                         Program Version 3.0.3 - RELEASE   -
|  1> ! RI PBE def2-SVP def2-SVP/J NBO PAL2
|  2> % maxcore 2000
|  3> % output
|  4>     # printlevel mini
|  5>     print[ P_Basis ] 0
|  6>     print[ P_SCFInfo ] 1
|  7>     print[ P_SCFIterInfo ] 1
|  8>     print[ P_OrbEn ] 0
|  9>     print[ P_Cartesian ] 0
| 10> end
| 11> *xyz 0 1
| 12>  N        1.0212840000     0.0142440000    -0.4210690000
| 13>  C        2.3518150000    -0.0974680000    -0.2452740000
| 14>  C        2.9934340000    -0.7382010000     0.7689040000
| 15>  C        2.3265060000    -1.4277940000     1.8614130000
| 16>  C        2.9325210000    -2.0612810000     2.8648490000
| 17>  C        4.4140210000    -0.7226370000     0.7433480000
| 18>  N        5.5680850000    -0.7250730000     0.7459460000
| 19>  H        0.6553190000     0.5123090000    -1.2084950000
| 20>  H        0.3643500000    -0.3892190000     0.2197880000
| 21>  H        2.9490080000     0.3852850000    -1.0103500000
| 22>  H        1.2394560000    -1.4184290000     1.8465440000
| 23>  H        4.0138080000    -2.1062860000     2.9360610000
| 24>  H        2.3580820000    -2.5509390000     3.6405050000
| 25> *
| 26>
| 27>                          ****END OF INPUT****
 Total Charge           Charge          ....    0
 Multiplicity           Mult            ....    1
 Number of Electrons    NEL             ....   50
 Basis Dimension        Dim             ....  128

MULLIKEN ATOMIC CHARGES
-----------------------
   0 N :   -0.046355
   1 C :    0.023391
   2 C :   -0.101007
   3 C :   -0.001582
   4 C :   -0.025399
   5 C :   -0.177628
   6 N :    0.032902
   7 H :    0.132377
   8 H :    0.120301
   9 H :    0.019803
  10 H :   -0.035686
  11 H :    0.038830
  12 H :    0.020052
Sum of atomic charges:    0.0000000

LOEWDIN ATOMIC CHARGES
----------------------
   0 N :    0.043628
   1 C :    0.046142
   2 C :   -0.152897
   3 C :   -0.034442
   4 C :   -0.054215
   5 C :   -0.040220
   6 N :   -0.087259
   7 H :    0.083229
   8 H :    0.076225
   9 H :    0.041076
  10 H :    0.020797
  11 H :    0.031756
  12 H :    0.026180

  Mayer bond orders larger than 0.1
B(  0-N ,  1-C ) :   1.3344 B(  0-N ,  7-H ) :   0.9521 B(  0-N ,  8-H ) :   0.9520
B(  1-C ,  2-C ) :   1.5679 B(  1-C ,  9-H ) :   0.9425 B(  2-C ,  3-C ) :   1.1219
B(  2-C ,  5-C ) :   1.1393 B(  3-C ,  4-C ) :   1.9166 B(  3-C , 10-H ) :   0.9460
B(  4-C , 11-H ) :   0.9336 B(  4-C , 12-H ) :   0.9342 B(  5-C ,  6-N ) :   2.9610

FINAL SINGLE POINT ENERGY      -302.996816003015

DIPOLE MOMENT
-------------
                                X             Y             Z
Electronic contribution:      3.69180       1.09652      -1.74449
Nuclear contribution   :     -6.13990      -0.66108       1.05416
                        -----------------------------------------
Total Dipole Moment    :     -2.44810       0.43544      -0.69032
                        -----------------------------------------
Magnitude (a.u.)       :      2.58057
Magnitude (Debye)      :      6.55929

                             ****ORCA TERMINATED NORMALLY****
TOTAL RUN TIME: 0 days 0 hours 0 minutes 5 seconds 791 msec
