                         Program Version 3.0.3 - RELEASE   -
|  1> ! RI PBE def2-SVP def2-SVP/J NBO PAL2
|  2> % maxcore 2000
|  3> % output
|  4>     # printlevel mini
|  5>     print[ P_Basis ] 0
|  6>     print[ P_SCFInfo ] 1
|  7>     print[ P_SCFIterInfo ] 1
|  8>     print[ P_OrbEn ] 0
|  9>     print[ P_Cartesian ] 0
| 10> end
| 11> *xyz 0 1
| 12>  N        1.0579310000     0.1430440000    -0.0644540000
| 13>  C        2.3930250000     0.0890190000    -0.0211320000
| 14>  C        3.1060640000    -0.8156780000     0.7100740000
| 15>  C        2.4426180000    -1.7889840000     1.4969620000
| 16>  C        1.8211530000    -2.5910670000     2.1455490000
| 17>  C        4.5244330000    -0.7726320000     0.6750070000
| 18>  N        5.6769260000    -0.7326220000     0.6424170000
| 19>  H        0.5840250000     0.8288740000    -0.6192300000
| 20>  H        0.5121960000    -0.5149900000     0.4673740000
| 21>  H        2.9228470000     0.8241390000    -0.6155130000
| 22>  H        1.3012130000    -3.3132640000     2.7295460000
| 23> *
| 24>
| 25>                          ****END OF INPUT****
 Total Charge           Charge          ....    0
 Multiplicity           Mult            ....    1
 Number of Electrons    NEL             ....   48
 Basis Dimension        Dim             ....  118

MULLIKEN ATOMIC CHARGES
-----------------------
   0 N :   -0.020893
   1 C :    0.067564
   2 C :   -0.216781
   3 C :    0.462834
   4 C :   -0.504569
   5 C :   -0.134390
   6 N :    0.056366
   7 H :    0.133449
   8 H :    0.130613
   9 H :    0.018848
  10 H :    0.006959
Sum of atomic charges:   -0.0000000

LOEWDIN ATOMIC CHARGES
----------------------
   0 N :    0.063288
   1 C :    0.065371
   2 C :   -0.173525
   3 C :   -0.011870
   4 C :   -0.076617
   5 C :   -0.038044
   6 N :   -0.079194
   7 H :    0.085266
   8 H :    0.084469
   9 H :    0.043103
  10 H :    0.037752

  Mayer bond orders larger than 0.1
B(  0-N ,  1-C ) :   1.3715 B(  0-N ,  7-H ) :   0.9490 B(  0-N ,  8-H ) :   0.9375
B(  1-C ,  2-C ) :   1.5564 B(  1-C ,  9-H ) :   0.9445 B(  2-C ,  3-C ) :   0.9853
B(  2-C ,  5-C ) :   1.1679 B(  3-C ,  4-C ) :   2.1959 B(  3-C , 10-H ) :  -0.1125
B(  4-C , 10-H ) :   1.1025 B(  5-C ,  6-N ) :   2.9882

FINAL SINGLE POINT ENERGY      -301.752991599569

DIPOLE MOMENT
-------------
                                X             Y             Z
Electronic contribution:      3.54007      -0.62606       0.50566
Nuclear contribution   :     -6.05837       1.26883      -1.02493
                        -----------------------------------------
Total Dipole Moment    :     -2.51829       0.64277      -0.51926
                        -----------------------------------------
Magnitude (a.u.)       :      2.65039
Magnitude (Debye)      :      6.73677

                             ****ORCA TERMINATED NORMALLY****
TOTAL RUN TIME: 0 days 0 hours 0 minutes 5 seconds 335 msec
