                         Program Version 3.0.3 - RELEASE   -
|  1> ! RI PBE def2-SVP def2-SVP/J NBO PAL2
|  2> % maxcore 2000
|  3> % output
|  4>     # printlevel mini
|  5>     print[ P_Basis ] 0
|  6>     print[ P_SCFInfo ] 1
|  7>     print[ P_SCFIterInfo ] 1
|  8>     print[ P_OrbEn ] 0
|  9>     print[ P_Cartesian ] 0
| 10> end
| 11> *xyz 0 1
| 12>  N        0.8737870000     0.2144180000     0.0399720000
| 13>  C        2.2250400000     0.1839250000    -0.0239120000
| 14>  C        2.8521140000    -0.3833020000    -1.2161480000
| 15>  C        2.2170560000    -0.8848270000    -2.2710980000
| 16>  C        2.9941930000     0.6669620000     0.9914950000
| 17>  C        4.4007540000     0.6535260000     0.9633170000
| 18>  N        5.5567580000     0.6544410000     0.9653180000
| 19>  H        0.3119380000    -0.1413190000    -0.7070570000
| 20>  H        0.4058450000     0.5950520000     0.8401950000
| 21>  H        3.9363580000    -0.3761980000    -1.2005230000
| 22>  H        1.1364370000    -0.9270180000    -2.3606420000
| 23>  H        2.7734230000    -1.2838990000    -3.1098150000
| 24>  H        2.5325460000     1.0885190000     1.8775670000
| 25> *
| 26>
| 27>                          ****END OF INPUT****
 Total Charge           Charge          ....    0
 Multiplicity           Mult            ....    1
 Number of Electrons    NEL             ....   50
 Basis Dimension        Dim             ....  128

MULLIKEN ATOMIC CHARGES
-----------------------
   0 N :   -0.030081
   1 C :    0.002379
   2 C :    0.026457
   3 C :   -0.037123
   4 C :   -0.157920
   5 C :   -0.127801
   6 N :    0.008379
   7 H :    0.109530
   8 H :    0.116622
   9 H :    0.029400
  10 H :    0.012667
  11 H :    0.039863
  12 H :    0.007627
Sum of atomic charges:   -0.0000000

LOEWDIN ATOMIC CHARGES
----------------------
   0 N :    0.033065
   1 C :    0.032204
   2 C :   -0.024104
   3 C :   -0.037495
   4 C :   -0.147553
   5 C :   -0.056923
   6 N :   -0.094001
   7 H :    0.072022
   8 H :    0.078472
   9 H :    0.048449
  10 H :    0.017565
  11 H :    0.036560
  12 H :    0.041738

  Mayer bond orders larger than 0.1
B(  0-N ,  1-C ) :   1.3271 B(  0-N ,  7-H ) :   0.9416 B(  0-N ,  8-H ) :   0.9440
B(  1-C ,  2-C ) :   1.1327 B(  1-C ,  4-C ) :   1.5393 B(  2-C ,  3-C ) :   1.8995
B(  2-C ,  9-H ) :   0.9264 B(  3-C ,  4-C ) :   0.1055 B(  3-C , 10-H ) :   0.9526
B(  3-C , 11-H ) :   0.9284 B(  4-C ,  5-C ) :   1.1797 B(  4-C , 12-H ) :   0.9394
B(  5-C ,  6-N ) :   2.8891

FINAL SINGLE POINT ENERGY      -302.997420910987

DIPOLE MOMENT
-------------
                                X             Y             Z
Electronic contribution:      3.76474       1.57179       3.30860
Nuclear contribution   :     -6.19494      -1.81174      -3.80873
                        -----------------------------------------
Total Dipole Moment    :     -2.43020      -0.23995      -0.50012
                        -----------------------------------------
Magnitude (a.u.)       :      2.49270
Magnitude (Debye)      :      6.33594

                             ****ORCA TERMINATED NORMALLY****
TOTAL RUN TIME: 0 days 0 hours 0 minutes 5 seconds 931 msec
