                         Program Version 3.0.3 - RELEASE   -
|  1> ! RI PBE def2-SVP def2-SVP/J NBO PAL2
|  2> % maxcore 2000
|  3> % output
|  4>     # printlevel mini
|  5>     print[ P_Basis ] 0
|  6>     print[ P_SCFInfo ] 1
|  7>     print[ P_SCFIterInfo ] 1
|  8>     print[ P_OrbEn ] 0
|  9>     print[ P_Cartesian ] 0
| 10> end
| 11> *xyz 0 1
| 12>  N        0.6713890000    -1.9016540000    -0.6693610000
| 13>  C        2.1127630000    -2.0312610000    -0.5229820000
| 14>  C        2.8322180000    -1.0638090000    -1.4536020000
| 15>  C        4.3109520000    -1.0685010000    -1.2588420000
| 16>  C        5.2094220000    -1.3834950000    -2.1843280000
| 17>  C        6.6861890000    -1.3756770000    -1.9700610000
| 18>  N        7.2535620000    -2.6755250000    -2.3060920000
| 19>  H        0.1897170000    -2.5200440000    -0.0289860000
| 20>  H        0.3878000000    -2.1709040000    -1.6042070000
| 21>  H        2.4929760000    -3.0480240000    -0.7088840000
| 22>  H        2.3693240000    -1.7859170000     0.5131950000
| 23>  H        2.4286620000    -0.0617090000    -1.2666550000
| 24>  H        2.5968910000    -1.3116830000    -2.4947610000
| 25>  H        4.6652970000    -0.7875340000    -0.2660270000
| 26>  H        4.8805770000    -1.6829420000    -3.1783800000
| 27>  H        6.8987240000    -1.0389050000    -0.9435630000
| 28>  H        7.1413750000    -0.6396800000    -2.6438710000
| 29>  H        6.9140470000    -3.3798250000    -1.6624440000
| 30>  H        8.2627040000    -2.6575100000    -2.2303490000
| 31> *
| 32>
| 33>                          ****END OF INPUT****
 Total Charge           Charge          ....    0
 Multiplicity           Mult            ....    1
 Number of Electrons    NEL             ....   56
 Basis Dimension        Dim             ....  158

MULLIKEN ATOMIC CHARGES
-----------------------
   0 N :   -0.207721
   1 C :    0.043031
   2 C :    0.060209
   3 C :   -0.067730
   4 C :   -0.086301
   5 C :    0.147393
   6 N :   -0.231172
   7 H :    0.088507
   8 H :    0.086130
   9 H :   -0.005560
  10 H :    0.004075
  11 H :    0.019290
  12 H :   -0.000699
  13 H :   -0.013106
  14 H :   -0.010508
  15 H :   -0.016745
  16 H :    0.015191
  17 H :    0.087251
  18 H :    0.088464
Sum of atomic charges:   -0.0000000

LOEWDIN ATOMIC CHARGES
----------------------
   0 N :   -0.113765
   1 C :    0.008115
   2 C :   -0.047062
   3 C :   -0.040073
   4 C :   -0.049114
   5 C :    0.005519
   6 N :   -0.113298
   7 H :    0.052655
   8 H :    0.049329
   9 H :   -0.001429
  10 H :    0.018100
  11 H :    0.033953
  12 H :    0.024186
  13 H :    0.019076
  14 H :    0.022355
  15 H :    0.001213
  16 H :    0.029373
  17 H :    0.049787
  18 H :    0.051080

  Mayer bond orders larger than 0.1
B(  0-N ,  1-C ) :   1.0929 B(  0-N ,  7-H ) :   0.9658 B(  0-N ,  8-H ) :   0.9693
B(  1-C ,  2-C ) :   1.0742 B(  1-C ,  9-H ) :   0.9322 B(  1-C , 10-H ) :   0.9369
B(  2-C ,  3-C ) :   1.0524 B(  2-C , 11-H ) :   0.9055 B(  2-C , 12-H ) :   0.9317
B(  3-C ,  4-C ) :   1.8953 B(  3-C , 13-H ) :   0.9467 B(  4-C ,  5-C ) :   1.0642
B(  4-C , 14-H ) :   0.9579 B(  5-C ,  6-N ) :   1.0628 B(  5-C , 15-H ) :   0.9225
B(  5-C , 16-H ) :   0.9125 B(  6-N , 17-H ) :   0.9726 B(  6-N , 18-H ) :   0.9665

FINAL SINGLE POINT ENERGY      -306.588066692367

DIPOLE MOMENT
-------------
                                X             Y             Z
Electronic contribution:      0.58917       0.40148      -0.68228
Nuclear contribution   :     -0.42534      -0.84746       1.03740
                        -----------------------------------------
Total Dipole Moment    :      0.16383      -0.44598       0.35512
                        -----------------------------------------
Magnitude (a.u.)       :      0.59317
Magnitude (Debye)      :      1.50773

                             ****ORCA TERMINATED NORMALLY****
TOTAL RUN TIME: 0 days 0 hours 0 minutes 7 seconds 887 msec
