                         Program Version 3.0.3 - RELEASE   -
|  1> ! RI PBE def2-SVP def2-SVP/J NBO PAL2
|  2> % maxcore 2000
|  3> % output
|  4>     # printlevel mini
|  5>     print[ P_Basis ] 0
|  6>     print[ P_SCFInfo ] 1
|  7>     print[ P_SCFIterInfo ] 1
|  8>     print[ P_OrbEn ] 0
|  9>     print[ P_Cartesian ] 0
| 10> end
| 11> *xyz 0 1
| 12>  N        1.1519450000     0.0010660000    -2.0643670000
| 13>  C        2.5946990000     0.1801320000    -2.0161410000
| 14>  C        3.2341190000    -0.9009010000    -1.1504310000
| 15>  C        4.7351710000    -0.8539210000    -1.1593440000
| 16>  C        5.4337570000    -0.2220670000    -0.2223670000
| 17>  C        5.3872110000    -1.5638490000    -2.3125470000
| 18>  N        6.8087460000    -1.3068870000    -2.4230530000
| 19>  H        0.7249010000     0.6968440000    -2.6628020000
| 20>  H        0.7520770000     0.1241150000    -1.1413630000
| 21>  H        2.9137560000     1.1625680000    -1.6359840000
| 22>  H        2.9752410000     0.1013890000    -3.0394490000
| 23>  H        2.8799520000    -1.8733740000    -1.5106480000
| 24>  H        2.8712440000    -0.7906270000    -0.1232210000
| 25>  H        4.9367220000     0.2695990000     0.6072800000
| 26>  H        6.5163220000    -0.1995730000    -0.2489600000
| 27>  H        4.8185440000    -1.3222460000    -3.2266990000
| 28>  H        5.2464210000    -2.6419800000    -2.1615240000
| 29>  H        6.9740830000    -0.3366500000    -2.6622930000
| 30>  H        7.2162080000    -1.8728280000    -3.1553760000
| 31> *
| 32>
| 33>                          ****END OF INPUT****
 Total Charge           Charge          ....    0
 Multiplicity           Mult            ....    1
 Number of Electrons    NEL             ....   56
 Basis Dimension        Dim             ....  158

MULLIKEN ATOMIC CHARGES
-----------------------
   0 N :   -0.205994
   1 C :    0.073581
   2 C :    0.053444
   3 C :   -0.218597
   4 C :   -0.025425
   5 C :    0.153641
   6 N :   -0.201053
   7 H :    0.087504
   8 H :    0.085864
   9 H :   -0.011390
  10 H :   -0.001925
  11 H :    0.002292
  12 H :    0.000791
  13 H :   -0.001386
  14 H :    0.012889
  15 H :   -0.007435
  16 H :    0.021172
  17 H :    0.091438
  18 H :    0.090589
Sum of atomic charges:    0.0000000

LOEWDIN ATOMIC CHARGES
----------------------
   0 N :   -0.113367
   1 C :    0.011695
   2 C :   -0.039153
   3 C :   -0.040322
   4 C :   -0.080729
   5 C :    0.008449
   6 N :   -0.099931
   7 H :    0.052542
   8 H :    0.049135
   9 H :   -0.000888
  10 H :    0.015214
  11 H :    0.027320
  12 H :    0.026224
  13 H :    0.017132
  14 H :    0.018912
  15 H :    0.005309
  16 H :    0.035105
  17 H :    0.052463
  18 H :    0.054887

  Mayer bond orders larger than 0.1
B(  0-N ,  1-C ) :   1.0915 B(  0-N ,  7-H ) :   0.9648 B(  0-N ,  8-H ) :   0.9684
B(  1-C ,  2-C ) :   1.0895 B(  1-C ,  9-H ) :   0.9268 B(  1-C , 10-H ) :   0.9287
B(  2-C ,  3-C ) :   1.0467 B(  2-C , 11-H ) :   0.9097 B(  2-C , 12-H ) :   0.9182
B(  3-C ,  4-C ) :   2.0036 B(  3-C ,  5-C ) :   1.0194 B(  4-C , 13-H ) :   0.9278
B(  4-C , 14-H ) :   0.9163 B(  5-C ,  6-N ) :   1.1187 B(  5-C , 15-H ) :   0.9138
B(  5-C , 16-H ) :   0.9000 B(  6-N , 17-H ) :   0.9645 B(  6-N , 18-H ) :   0.9616

FINAL SINGLE POINT ENERGY      -306.587599342839

DIPOLE MOMENT
-------------
                                X             Y             Z
Electronic contribution:      0.95045      -0.63580       0.48863
Nuclear contribution   :     -1.12895       1.08007      -0.97011
                        -----------------------------------------
Total Dipole Moment    :     -0.17850       0.44427      -0.48148
                        -----------------------------------------
Magnitude (a.u.)       :      0.67902
Magnitude (Debye)      :      1.72593

                             ****ORCA TERMINATED NORMALLY****
TOTAL RUN TIME: 0 days 0 hours 0 minutes 8 seconds 193 msec
