                         Program Version 3.0.3 - RELEASE   -
|  1> ! RI PBE def2-SVP def2-SVP/J NBO PAL2
|  2> % maxcore 2000
|  3> % output
|  4>     # printlevel mini
|  5>     print[ P_Basis ] 0
|  6>     print[ P_SCFInfo ] 1
|  7>     print[ P_SCFIterInfo ] 1
|  8>     print[ P_OrbEn ] 0
|  9>     print[ P_Cartesian ] 0
| 10> end
| 11> *xyz 0 1
| 12>  N        0.9306740000    -0.0463500000     0.0520040000
| 13>  C        2.3827190000     0.0064300000     0.0497570000
| 14>  C        2.9490100000    -1.3156320000     0.5621520000
| 15>  C        4.4021000000    -1.3418400000     0.5671820000
| 16>  C        5.6048270000    -1.3436770000     0.5732700000
| 17>  C        7.0609660000    -1.3468420000     0.5528130000
| 18>  N        7.6035030000    -0.0418150000     0.9178490000
| 19>  H        0.5427360000     0.7759550000    -0.3918260000
| 20>  H        0.5768660000    -0.0619450000     1.0012400000
| 21>  H        2.8078370000     0.8267160000     0.6464070000
| 22>  H        2.7195770000     0.1558170000    -0.9794020000
| 23>  H        2.5579210000    -2.1268500000    -0.0599190000
| 24>  H        2.5777580000    -1.4976160000     1.5780650000
| 25>  H        7.3882890000    -1.7045420000    -0.4363930000
| 26>  H        7.4222790000    -2.0809040000     1.2813930000
| 27>  H        7.2421310000     0.6661730000     0.2904840000
| 28>  H        8.6110490000    -0.0492380000     0.8146260000
| 29> *
| 30>
| 31>                          ****END OF INPUT****
 Total Charge           Charge          ....    0
 Multiplicity           Mult            ....    1
 Number of Electrons    NEL             ....   54
 Basis Dimension        Dim             ....  148

MULLIKEN ATOMIC CHARGES
-----------------------
   0 N :   -0.199375
   1 C :    0.024633
   2 C :    0.070115
   3 C :   -0.119315
   4 C :   -0.196224
   5 C :    0.163429
   6 N :   -0.219852
   7 H :    0.089809
   8 H :    0.088261
   9 H :    0.009047
  10 H :    0.016758
  11 H :    0.033131
  12 H :    0.021944
  13 H :    0.011239
  14 H :    0.024873
  15 H :    0.093064
  16 H :    0.088464
Sum of atomic charges:    0.0000000

LOEWDIN ATOMIC CHARGES
----------------------
   0 N :   -0.111378
   1 C :    0.014543
   2 C :   -0.053371
   3 C :   -0.054645
   4 C :   -0.073529
   5 C :    0.000879
   6 N :   -0.108907
   7 H :    0.054498
   8 H :    0.050540
   9 H :    0.004147
  10 H :    0.023763
  11 H :    0.047080
  12 H :    0.041440
  13 H :    0.019184
  14 H :    0.041189
  15 H :    0.052348
  16 H :    0.052220

  Mayer bond orders larger than 0.1
B(  0-N ,  1-C ) :   1.1043 B(  0-N ,  7-H ) :   0.9636 B(  0-N ,  8-H ) :   0.9684
B(  1-C ,  2-C ) :   1.0744 B(  1-C ,  9-H ) :   0.9384 B(  1-C , 10-H ) :   0.9378
B(  2-C ,  3-C ) :   1.0436 B(  2-C , 11-H ) :   0.8927 B(  2-C , 12-H ) :   0.8972
B(  3-C ,  4-C ) :   2.6334 B(  4-C ,  5-C ) :   1.0730 B(  5-C ,  6-N ) :   1.0820
B(  5-C , 13-H ) :   0.9029 B(  5-C , 14-H ) :   0.8901 B(  6-N , 15-H ) :   0.9689
B(  6-N , 16-H ) :   0.9637

FINAL SINGLE POINT ENERGY      -305.347758159405

DIPOLE MOMENT
-------------
                                X             Y             Z
Electronic contribution:      1.49334      -1.52972       0.54177
Nuclear contribution   :     -1.41213       1.96779      -0.79244
                        -----------------------------------------
Total Dipole Moment    :      0.08122       0.43807      -0.25067
                        -----------------------------------------
Magnitude (a.u.)       :      0.51121
Magnitude (Debye)      :      1.29939

                             ****ORCA TERMINATED NORMALLY****
TOTAL RUN TIME: 0 days 0 hours 0 minutes 6 seconds 735 msec
