                         Program Version 3.0.3 - RELEASE   -
|  1> ! RI PBE def2-SVP def2-SVP/J NBO PAL2
|  2> % maxcore 2000
|  3> % output
|  4>     # printlevel mini
|  5>     print[ P_Basis ] 0
|  6>     print[ P_SCFInfo ] 1
|  7>     print[ P_SCFIterInfo ] 1
|  8>     print[ P_OrbEn ] 0
|  9>     print[ P_Cartesian ] 0
| 10> end
| 11> *xyz 0 1
| 12>  N        2.3103340000    -0.5027310000    -3.5119710000
| 13>  C        3.4082800000     0.2159430000    -2.8784070000
| 14>  C        2.9091410000     0.9488950000    -1.6469460000
| 15>  C        3.9907620000     1.6326770000    -0.8311420000
| 16>  N        4.6288590000     2.7181030000    -1.5530690000
| 17>  C        5.8542390000     3.2213040000    -0.9721690000
| 18>  C        5.8828830000     2.4139090000    -2.2104990000
| 19>  H        2.6343110000    -0.9930600000    -4.3363460000
| 20>  H        1.6030300000     0.1525870000    -3.8243770000
| 21>  H        3.9104300000     0.9282190000    -3.5488790000
| 22>  H        4.1608140000    -0.5219710000    -2.5768180000
| 23>  H        2.3850970000     0.2297320000    -1.0092620000
| 24>  H        2.1732640000     1.7036900000    -1.9476800000
| 25>  H        4.7326270000     0.8876050000    -0.4899180000
| 26>  H        3.5371300000     2.0620770000     0.0676780000
| 27>  H        6.2155380000     2.7438830000    -0.0638020000
| 28>  H        5.9932950000     4.2962940000    -1.0122720000
| 29>  H        6.2623370000     1.3979170000    -2.1273530000
| 30>  H        6.0442490000     2.8874280000    -3.1730370000
| 31> *
| 32>
| 33>                          ****END OF INPUT****
 Total Charge           Charge          ....    0
 Multiplicity           Mult            ....    1
 Number of Electrons    NEL             ....   56
 Basis Dimension        Dim             ....  158

MULLIKEN ATOMIC CHARGES
-----------------------
   0 N :   -0.205932
   1 C :    0.039278
   2 C :   -0.002390
   3 C :    0.109804
   4 N :   -0.303571
   5 C :    0.038279
   6 C :    0.030740
   7 H :    0.085368
   8 H :    0.085524
   9 H :    0.010080
  10 H :   -0.002671
  11 H :    0.014214
  12 H :    0.007321
  13 H :   -0.025763
  14 H :    0.007893
  15 H :    0.016907
  16 H :    0.037667
  17 H :    0.024417
  18 H :    0.032838
Sum of atomic charges:    0.0000000

LOEWDIN ATOMIC CHARGES
----------------------
   0 N :   -0.113498
   1 C :    0.001379
   2 C :   -0.053054
   3 C :    0.016829
   4 N :   -0.112734
   5 C :    0.002807
   6 C :   -0.000558
   7 H :    0.051329
   8 H :    0.049299
   9 H :    0.002935
  10 H :    0.016158
  11 H :    0.028763
  12 H :    0.024069
  13 H :   -0.001090
  14 H :    0.023727
  15 H :    0.012297
  16 H :    0.021005
  17 H :    0.011155
  18 H :    0.019179

  Mayer bond orders larger than 0.1
B(  0-N ,  1-C ) :   1.0881 B(  0-N ,  7-H ) :   0.9640 B(  0-N ,  8-H ) :   0.9699
B(  1-C ,  2-C ) :   1.1029 B(  1-C ,  9-H ) :   0.9294 B(  1-C , 10-H ) :   0.9305
B(  2-C ,  3-C ) :   1.0977 B(  2-C , 11-H ) :   0.9216 B(  2-C , 12-H ) :   0.9201
B(  3-C ,  4-N ) :   1.0029 B(  3-C , 13-H ) :   0.8996 B(  3-C , 14-H ) :   0.9315
B(  4-N ,  5-C ) :   0.9657 B(  4-N ,  6-C ) :   0.9671 B(  5-C ,  6-C ) :   1.1021
B(  5-C , 15-H ) :   0.9258 B(  5-C , 16-H ) :   0.9497 B(  6-C , 17-H ) :   0.9268
B(  6-C , 18-H ) :   0.9483

FINAL SINGLE POINT ENERGY      -306.569821257837

DIPOLE MOMENT
-------------
                                X             Y             Z
Electronic contribution:      0.11564       1.88871       0.11671
Nuclear contribution   :      0.26464      -1.86386      -0.33624
                        -----------------------------------------
Total Dipole Moment    :      0.38027       0.02485      -0.21953
                        -----------------------------------------
Magnitude (a.u.)       :      0.43979
Magnitude (Debye)      :      1.11786

                             ****ORCA TERMINATED NORMALLY****
TOTAL RUN TIME: 0 days 0 hours 0 minutes 8 seconds 235 msec
