                         Program Version 3.0.3 - RELEASE   -
|  1> ! RI PBE def2-SVP def2-SVP/J NBO PAL2
|  2> % maxcore 2000
|  3> % output
|  4>     # printlevel mini
|  5>     print[ P_Basis ] 0
|  6>     print[ P_SCFInfo ] 1
|  7>     print[ P_SCFIterInfo ] 1
|  8>     print[ P_OrbEn ] 0
|  9>     print[ P_Cartesian ] 0
| 10> end
| 11> *xyz 0 1
| 12>  N        2.4784740000    -0.3787370000    -0.9714950000
| 13>  C        2.4991630000     0.2489000000     0.1282200000
| 14>  C        1.5185740000     0.0465120000     1.1692140000
| 15>  C        0.7022390000    -0.1213260000     2.0361940000
| 16>  N        3.5331910000     1.1888620000     0.3432120000
| 17>  C        4.0398140000     1.3385300000     1.7067360000
| 18>  C        3.2057140000     2.3904620000     1.1099540000
| 19>  H        1.6869660000    -1.0196070000    -0.9925480000
| 20>  H       -0.0295570000    -0.2831910000     2.7931310000
| 21>  H        5.1160340000     1.4514420000     1.7647740000
| 22>  H        3.5869260000     0.7319080000     2.4852060000
| 23>  H        3.6527760000     3.2964580000     0.7179690000
| 24>  H        2.1923840000     2.4900970000     1.4873310000
| 25> *
| 26>
| 27>                          ****END OF INPUT****
 Total Charge           Charge          ....    0
 Multiplicity           Mult            ....    1
 Number of Electrons    NEL             ....   50
 Basis Dimension        Dim             ....  128

MULLIKEN ATOMIC CHARGES
-----------------------
   0 N :   -0.001573
   1 C :   -0.084381
   2 C :    0.383993
   3 C :   -0.447167
   4 N :   -0.208354
   5 C :    0.016199
   6 C :    0.027739
   7 H :    0.093547
   8 H :    0.014678
   9 H :    0.053869
  10 H :    0.051613
  11 H :    0.048870
  12 H :    0.050966
Sum of atomic charges:   -0.0000000

LOEWDIN ATOMIC CHARGES
----------------------
   0 N :   -0.055534
   1 C :   -0.004104
   2 C :   -0.054577
   3 C :   -0.042731
   4 N :   -0.082730
   5 C :    0.020079
   6 C :    0.022278
   7 H :    0.058177
   8 H :    0.041336
   9 H :    0.028764
  10 H :    0.020588
  11 H :    0.027899
  12 H :    0.020556

  Mayer bond orders larger than 0.1
B(  0-N ,  1-C ) :   2.0408 B(  0-N ,  3-C ) :   0.1280 B(  0-N ,  7-H ) :   0.9197
B(  1-C ,  2-C ) :   0.8803 B(  1-C ,  4-N ) :   1.1154 B(  2-C ,  3-C ) :   2.2630
B(  2-C ,  8-H ) :  -0.1088 B(  3-C ,  8-H ) :   1.0979 B(  4-N ,  5-C ) :   0.9339
B(  4-N ,  6-C ) :   0.9283 B(  5-C ,  6-C ) :   1.0818 B(  5-C ,  9-H ) :   0.9486
B(  5-C , 10-H ) :   0.9391 B(  6-C , 11-H ) :   0.9491 B(  6-C , 12-H ) :   0.9397

FINAL SINGLE POINT ENERGY      -302.903478421738

DIPOLE MOMENT
-------------
                                X             Y             Z
Electronic contribution:     -1.22402      -2.23856      -2.23596
Nuclear contribution   :      0.59929       2.36731       3.34383
                        -----------------------------------------
Total Dipole Moment    :     -0.62473       0.12875       1.10787
                        -----------------------------------------
Magnitude (a.u.)       :      1.27838
Magnitude (Debye)      :      3.24938

                             ****ORCA TERMINATED NORMALLY****
TOTAL RUN TIME: 0 days 0 hours 0 minutes 6 seconds 98 msec
