                         Program Version 3.0.3 - RELEASE   -
|  1> ! RI PBE def2-SVP def2-SVP/J NBO PAL2
|  2> % maxcore 2000
|  3> % output
|  4>     # printlevel mini
|  5>     print[ P_Basis ] 0
|  6>     print[ P_SCFInfo ] 1
|  7>     print[ P_SCFIterInfo ] 1
|  8>     print[ P_OrbEn ] 0
|  9>     print[ P_Cartesian ] 0
| 10> end
| 11> *xyz 0 1
| 12>  N        1.0516500000    -0.3922310000    -0.2098150000
| 13>  C        2.1994450000    -0.3580570000    -0.1546160000
| 14>  C        3.6479570000    -0.3074850000    -0.0574600000
| 15>  C        4.1172680000     0.1345520000     1.3266400000
| 16>  N        5.5603030000     0.1834330000     1.3474700000
| 17>  C        6.1721560000     0.1281680000     2.6578140000
| 18>  C        6.2303300000    -1.0386440000     1.7513340000
| 19>  H        4.0345720000     0.3824670000    -0.8119330000
| 20>  H        4.0484820000    -1.2983600000    -0.2913510000
| 21>  H        3.7070670000    -0.5462170000     2.0902420000
| 22>  H        3.7313630000     1.1349330000     1.5395760000
| 23>  H        5.5134300000     0.0520840000     3.5196140000
| 24>  H        7.0427120000     0.7588090000     2.7984200000
| 25>  H        5.6096640000    -1.8943800000     2.0084880000
| 26>  H        7.1444980000    -1.2757710000     1.2190780000
| 27> *
| 28>
| 29>                          ****END OF INPUT****
 Total Charge           Charge          ....    0
 Multiplicity           Mult            ....    1
 Number of Electrons    NEL             ....   52
 Basis Dimension        Dim             ....  138

MULLIKEN ATOMIC CHARGES
-----------------------
   0 N :    0.052189
   1 C :   -0.280167
   2 C :    0.088605
   3 C :    0.067013
   4 N :   -0.287105
   5 C :    0.031398
   6 C :    0.025796
   7 H :    0.060284
   8 H :    0.047341
   9 H :    0.007347
  10 H :    0.035394
  11 H :    0.032270
  12 H :    0.044387
  13 H :    0.031283
  14 H :    0.043965
Sum of atomic charges:    0.0000000

LOEWDIN ATOMIC CHARGES
----------------------
   0 N :   -0.067087
   1 C :   -0.045218
   2 C :   -0.060132
   3 C :    0.027969
   4 N :   -0.110004
   5 C :    0.010128
   6 C :    0.003659
   7 H :    0.062061
   8 H :    0.056965
   9 H :    0.009231
  10 H :    0.031957
  11 H :    0.016843
  12 H :    0.024778
  13 H :    0.014705
  14 H :    0.024143

  Mayer bond orders larger than 0.1
B(  0-N ,  1-C ) :   3.0551 B(  1-C ,  2-C ) :   1.1116 B(  2-C ,  3-C ) :   1.0917
B(  2-C ,  7-H ) :   0.8779 B(  2-C ,  8-H ) :   0.8867 B(  3-C ,  4-N ) :   1.0388
B(  3-C ,  9-H ) :   0.9113 B(  3-C , 10-H ) :   0.9359 B(  4-N ,  5-C ) :   0.9647
B(  4-N ,  6-C ) :   0.9529 B(  5-C ,  6-C ) :   1.0890 B(  5-C , 11-H ) :   0.9339
B(  5-C , 12-H ) :   0.9509 B(  6-C , 13-H ) :   0.9327 B(  6-C , 14-H ) :   0.9514

FINAL SINGLE POINT ENERGY      -304.170722300124

DIPOLE MOMENT
-------------
                                X             Y             Z
Electronic contribution:     -5.48694       0.54274      -3.40930
Nuclear contribution   :      6.87920      -0.72740       3.94729
                        -----------------------------------------
Total Dipole Moment    :      1.39226      -0.18466       0.53799
                        -----------------------------------------
Magnitude (a.u.)       :      1.50397
Magnitude (Debye)      :      3.82278

                             ****ORCA TERMINATED NORMALLY****
TOTAL RUN TIME: 0 days 0 hours 0 minutes 6 seconds 668 msec
