                         Program Version 3.0.3 - RELEASE   -
|  1> ! RI PBE def2-SVP def2-SVP/J NBO PAL2
|  2> % maxcore 2000
|  3> % output
|  4>     # printlevel mini
|  5>     print[ P_Basis ] 0
|  6>     print[ P_SCFInfo ] 1
|  7>     print[ P_SCFIterInfo ] 1
|  8>     print[ P_OrbEn ] 0
|  9>     print[ P_Cartesian ] 0
| 10> end
| 11> *xyz 0 1
| 12>  N        0.9327380000     0.6612860000    -0.3680520000
| 13>  C        1.9693650000     1.0825760000    -0.0907440000
| 14>  C        3.2337950000     1.6226440000     0.2571370000
| 15>  C        4.3559900000     0.9085060000     0.1601820000
| 16>  N        5.5965930000     1.4538740000     0.5065200000
| 17>  C        6.5466080000     0.4972600000     1.0844800000
| 18>  C        6.7249790000     0.9669230000    -0.2943730000
| 19>  H        3.2675580000     2.6472330000     0.6097330000
| 20>  H        4.3215080000    -0.1253160000    -0.1956250000
| 21>  H        6.2014140000    -0.5221600000     1.2309830000
| 22>  H        7.1513910000     0.9014450000     1.8874620000
| 23>  H        6.5027180000     0.2713260000    -1.0984790000
| 24>  H        7.4638320000     1.7241930000    -0.5279230000
| 25> *
| 26>
| 27>                          ****END OF INPUT****
 Total Charge           Charge          ....    0
 Multiplicity           Mult            ....    1
 Number of Electrons    NEL             ....   50
 Basis Dimension        Dim             ....  128

MULLIKEN ATOMIC CHARGES
-----------------------
   0 N :    0.030409
   1 C :   -0.108574
   2 C :   -0.066953
   3 C :    0.064960
   4 N :   -0.245970
   5 C :    0.034070
   6 C :    0.027615
   7 H :    0.048055
   8 H :    0.006739
   9 H :    0.047504
  10 H :    0.056196
  11 H :    0.049236
  12 H :    0.056714
Sum of atomic charges:   -0.0000000

LOEWDIN ATOMIC CHARGES
----------------------
   0 N :   -0.060034
   1 C :   -0.045220
   2 C :   -0.080674
   3 C :    0.051536
   4 N :   -0.094245
   5 C :    0.024794
   6 C :    0.023467
   7 H :    0.056142
   8 H :    0.017028
   9 H :    0.021840
  10 H :    0.031625
  11 H :    0.022036
  12 H :    0.031704

  Mayer bond orders larger than 0.1
B(  0-N ,  1-C ) :   2.9586 B(  0-N ,  3-C ) :   0.1069 B(  1-C ,  2-C ) :   1.0967
B(  2-C ,  3-C ) :   1.8138 B(  2-C ,  7-H ) :   0.9430 B(  3-C ,  4-N ) :   1.1098
B(  3-C ,  8-H ) :   0.9297 B(  4-N ,  5-C ) :   0.9160 B(  4-N ,  6-C ) :   0.9205
B(  5-C ,  6-C ) :   1.0846 B(  5-C ,  9-H ) :   0.9442 B(  5-C , 10-H ) :   0.9491
B(  6-C , 11-H ) :   0.9440 B(  6-C , 12-H ) :   0.9494

FINAL SINGLE POINT ENERGY      -302.954847783261

DIPOLE MOMENT
-------------
                                X             Y             Z
Electronic contribution:     -6.89253       1.03624      -0.53826
Nuclear contribution   :      8.76397      -1.12053       0.75394
                        -----------------------------------------
Total Dipole Moment    :      1.87144      -0.08430       0.21568
                        -----------------------------------------
Magnitude (a.u.)       :      1.88571
Magnitude (Debye)      :      4.79309

                             ****ORCA TERMINATED NORMALLY****
TOTAL RUN TIME: 0 days 0 hours 0 minutes 6 seconds 305 msec
