                         Program Version 3.0.3 - RELEASE   -
|  1> ! RI PBE def2-SVP def2-SVP/J NBO PAL2
|  2> % maxcore 2000
|  3> % output
|  4>     # printlevel mini
|  5>     print[ P_Basis ] 0
|  6>     print[ P_SCFInfo ] 1
|  7>     print[ P_SCFIterInfo ] 1
|  8>     print[ P_OrbEn ] 0
|  9>     print[ P_Cartesian ] 0
| 10> end
| 11> *xyz 0 1
| 12>  N        0.9803050000    -0.1529550000    -0.1629040000
| 13>  C        2.3280770000    -0.0909870000    -0.0634550000
| 14>  C        2.9896790000     0.5383610000     0.9467380000
| 15>  C        2.2673930000     1.1765150000     1.9710340000
| 16>  N        1.6214200000     1.6846990000     2.7844970000
| 17>  C        3.0640010000    -0.7368060000    -1.0998080000
| 18>  C        3.6649170000    -1.2865200000    -1.9821490000
| 19>  H        0.4030930000     0.2826010000     0.5358850000
| 20>  H        0.5486370000    -0.6304730000    -0.9296760000
| 21>  H        4.0684500000     0.5503500000     0.9660280000
| 22>  H        4.2089290000    -1.7701750000    -2.7595800000
| 23> *
| 24>
| 25>                          ****END OF INPUT****
 Total Charge           Charge          ....    0
 Multiplicity           Mult            ....    1
 Number of Electrons    NEL             ....   48
 Basis Dimension        Dim             ....  118

MULLIKEN ATOMIC CHARGES
-----------------------
   0 N :   -0.010926
   1 C :   -0.061510
   2 C :   -0.119776
   3 C :   -0.126509
   4 N :    0.026540
   5 C :    0.416810
   6 C :   -0.430736
   7 H :    0.133390
   8 H :    0.121953
   9 H :    0.031204
  10 H :    0.019562
Sum of atomic charges:   -0.0000000

LOEWDIN ATOMIC CHARGES
----------------------
   0 N :    0.048967
   1 C :    0.021104
   2 C :   -0.145185
   3 C :   -0.056622
   4 N :   -0.086344
   5 C :   -0.018264
   6 C :   -0.029257
   7 H :    0.084738
   8 H :    0.083955
   9 H :    0.053559
  10 H :    0.043348

  Mayer bond orders larger than 0.1
B(  0-N ,  1-C ) :   1.3749 B(  0-N ,  7-H ) :   0.9267 B(  0-N ,  8-H ) :   0.9373
B(  1-C ,  2-C ) :   1.5890 B(  1-C ,  5-C ) :   0.9603 B(  2-C ,  3-C ) :   1.1409
B(  2-C ,  9-H ) :   0.9351 B(  3-C ,  4-N ) :   2.9161 B(  5-C ,  6-C ) :   2.2733
B(  5-C , 10-H ) :  -0.1006 B(  6-C , 10-H ) :   1.0904

FINAL SINGLE POINT ENERGY      -301.751739787260

DIPOLE MOMENT
-------------
                                X             Y             Z
Electronic contribution:      0.14458       1.06221       1.70085
Nuclear contribution   :     -0.22232      -2.07848      -3.33644
                        -----------------------------------------
Total Dipole Moment    :     -0.07774      -1.01626      -1.63559
                        -----------------------------------------
Magnitude (a.u.)       :      1.92717
Magnitude (Debye)      :      4.89848

                             ****ORCA TERMINATED NORMALLY****
TOTAL RUN TIME: 0 days 0 hours 0 minutes 5 seconds 358 msec
