                         Program Version 3.0.3 - RELEASE   -
|  1> ! RI PBE def2-SVP def2-SVP/J NBO PAL2
|  2> % maxcore 2000
|  3> % output
|  4>     # printlevel mini
|  5>     print[ P_Basis ] 0
|  6>     print[ P_SCFInfo ] 1
|  7>     print[ P_SCFIterInfo ] 1
|  8>     print[ P_OrbEn ] 0
|  9>     print[ P_Cartesian ] 0
| 10> end
| 11> *xyz 0 1
| 12>  N        2.9369780000    -0.3508130000    -1.3685060000
| 13>  C        2.5074630000    -0.0641930000    -0.0110200000
| 14>  C        3.0240160000     1.3013770000     0.4394640000
| 15>  C        2.3829300000     1.7291010000     1.7599260000
| 16>  N        0.9403210000     1.8633470000     1.6286750000
| 17>  C        4.5138000000     1.2835120000     0.5687050000
| 18>  C        5.3645100000     1.9390140000    -0.2096060000
| 19>  H        2.5731350000    -1.2420010000    -1.6794420000
| 20>  H        3.9478900000    -0.4021820000    -1.4161830000
| 21>  H        2.8308090000    -0.8153320000     0.7309610000
| 22>  H        1.4163200000    -0.0398890000     0.0166710000
| 23>  H        2.7503860000     2.0263880000    -0.3376470000
| 24>  H        2.8836790000     2.6460250000     2.1050780000
| 25>  H        2.5824060000     0.9604290000     2.5156620000
| 26>  H        0.7131360000     2.6475790000     1.0288650000
| 27>  H        0.5152920000     2.0473700000     2.5281270000
| 28>  H        4.9081160000     0.6559770000     1.3693750000
| 29>  H        5.0150990000     2.5700070000    -1.0210250000
| 30>  H        6.4368130000     1.8707820000    -0.0642680000
| 31> *
| 32>
| 33>                          ****END OF INPUT****
 Total Charge           Charge          ....    0
 Multiplicity           Mult            ....    1
 Number of Electrons    NEL             ....   56
 Basis Dimension        Dim             ....  158

MULLIKEN ATOMIC CHARGES
-----------------------
   0 N :   -0.200467
   1 C :    0.105563
   2 C :   -0.085953
   3 C :    0.088962
   4 N :   -0.191582
   5 C :   -0.055231
   6 C :   -0.035438
   7 H :    0.086459
   8 H :    0.084815
   9 H :   -0.024487
  10 H :    0.011790
  11 H :   -0.003819
  12 H :   -0.001564
  13 H :   -0.000926
  14 H :    0.089248
  15 H :    0.089990
  16 H :   -0.005247
  17 H :    0.022917
  18 H :    0.024971
Sum of atomic charges:    0.0000000

LOEWDIN ATOMIC CHARGES
----------------------
   0 N :   -0.111232
   1 C :    0.014241
   2 C :   -0.056029
   3 C :    0.013466
   4 N :   -0.104193
   5 C :   -0.022566
   6 C :   -0.068092
   7 H :    0.051566
   8 H :    0.045964
   9 H :   -0.005170
  10 H :    0.018878
  11 H :    0.026572
  12 H :    0.002102
  13 H :    0.017909
  14 H :    0.052168
  15 H :    0.054164
  16 H :    0.022863
  17 H :    0.023613
  18 H :    0.023776

  Mayer bond orders larger than 0.1
B(  0-N ,  1-C ) :   1.1001 B(  0-N ,  7-H ) :   0.9632 B(  0-N ,  8-H ) :   0.9643
B(  1-C ,  2-C ) :   1.0299 B(  1-C ,  9-H ) :   0.9174 B(  1-C , 10-H ) :   0.9170
B(  2-C ,  3-C ) :   1.0326 B(  2-C ,  5-C ) :   1.0229 B(  2-C , 11-H ) :   0.8984
B(  3-C ,  4-N ) :   1.1053 B(  3-C , 12-H ) :   0.9365 B(  3-C , 13-H ) :   0.9221
B(  4-N , 14-H ) :   0.9673 B(  4-N , 15-H ) :   0.9625 B(  5-C ,  6-C ) :   1.9895
B(  5-C , 16-H ) :   0.9494 B(  6-C , 17-H ) :   0.9466 B(  6-C , 18-H ) :   0.9421

FINAL SINGLE POINT ENERGY      -306.585356271114

DIPOLE MOMENT
-------------
                                X             Y             Z
Electronic contribution:      0.02738       0.14334      -0.46232
Nuclear contribution   :      0.03225      -0.07791       0.91305
                        -----------------------------------------
Total Dipole Moment    :      0.05963       0.06543       0.45073
                        -----------------------------------------
Magnitude (a.u.)       :      0.45935
Magnitude (Debye)      :      1.16756

                             ****ORCA TERMINATED NORMALLY****
TOTAL RUN TIME: 0 days 0 hours 0 minutes 8 seconds 282 msec
