                         Program Version 3.0.3 - RELEASE   -
|  1> ! RI PBE def2-SVP def2-SVP/J NBO PAL2
|  2> % maxcore 2000
|  3> % output
|  4>     # printlevel mini
|  5>     print[ P_Basis ] 0
|  6>     print[ P_SCFInfo ] 1
|  7>     print[ P_SCFIterInfo ] 1
|  8>     print[ P_OrbEn ] 0
|  9>     print[ P_Cartesian ] 0
| 10> end
| 11> *xyz 0 1
| 12>  N        2.8218840000    -0.6997430000     1.1319200000
| 13>  C        2.4677220000     0.1189300000    -0.0119540000
| 14>  C        2.9905690000    -0.5099570000    -1.3048160000
| 15>  C        2.4688110000     0.2178830000    -2.5496970000
| 16>  N        1.0221580000     0.1140710000    -2.6335930000
| 17>  C        4.4468980000    -0.5489080000    -1.3120750000
| 18>  C        5.6485290000    -0.5534790000    -1.3087540000
| 19>  H        2.4138410000    -0.3251460000     1.9782920000
| 20>  H        3.8273290000    -0.7070740000     1.2597200000
| 21>  H        2.8434860000     1.1536430000     0.0380410000
| 22>  H        1.3803640000     0.1692340000    -0.0919790000
| 23>  H        2.6281800000    -1.5464560000    -1.3282250000
| 24>  H        2.9991920000    -0.1757620000    -3.4276610000
| 25>  H        2.7343870000     1.2763560000    -2.4700200000
| 26>  H        0.7455910000    -0.8234180000    -2.8989070000
| 27>  H        0.6583730000     0.7417490000    -3.3380310000
| 28>  H        6.7126760000    -0.5673130000    -1.3121400000
| 29> *
| 30>
| 31>                          ****END OF INPUT****
 Total Charge           Charge          ....    0
 Multiplicity           Mult            ....    1
 Number of Electrons    NEL             ....   54
 Basis Dimension        Dim             ....  148

MULLIKEN ATOMIC CHARGES
-----------------------
   0 N :   -0.201253
   1 C :    0.100653
   2 C :   -0.053729
   3 C :    0.085145
   4 N :   -0.188555
   5 C :    0.409475
   6 C :   -0.543368
   7 H :    0.088714
   8 H :    0.090936
   9 H :   -0.014376
  10 H :    0.014607
  11 H :    0.018935
  12 H :    0.007315
  13 H :    0.008687
  14 H :    0.090157
  15 H :    0.093573
  16 H :   -0.006916
Sum of atomic charges:    0.0000000

LOEWDIN ATOMIC CHARGES
----------------------
   0 N :   -0.109415
   1 C :    0.020681
   2 C :   -0.062634
   3 C :    0.021422
   4 N :   -0.102258
   5 C :   -0.009737
   6 C :   -0.098965
   7 H :    0.052903
   8 H :    0.050921
   9 H :   -0.000228
  10 H :    0.020777
  11 H :    0.044435
  12 H :    0.006465
  13 H :    0.023156
  14 H :    0.053290
  15 H :    0.056371
  16 H :    0.032817

  Mayer bond orders larger than 0.1
B(  0-N ,  1-C ) :   1.1052 B(  0-N ,  7-H ) :   0.9637 B(  0-N ,  8-H ) :   0.9652
B(  1-C ,  2-C ) :   1.0294 B(  1-C ,  9-H ) :   0.9170 B(  1-C , 10-H ) :   0.9198
B(  2-C ,  3-C ) :   1.0324 B(  2-C ,  5-C ) :   0.9950 B(  2-C , 11-H ) :   0.8559
B(  3-C ,  4-N ) :   1.1173 B(  3-C , 12-H ) :   0.9392 B(  3-C , 13-H ) :   0.9238
B(  4-N , 14-H ) :   0.9674 B(  4-N , 15-H ) :   0.9639 B(  5-C ,  6-C ) :   2.2871
B(  5-C , 16-H ) :  -0.1240 B(  6-C , 16-H ) :   1.1144

FINAL SINGLE POINT ENERGY      -305.343229352492

DIPOLE MOMENT
-------------
                                X             Y             Z
Electronic contribution:      3.05336      -1.25336      -0.05626
Nuclear contribution   :     -3.16888       1.57110      -0.29477
                        -----------------------------------------
Total Dipole Moment    :     -0.11552       0.31774      -0.35103
                        -----------------------------------------
Magnitude (a.u.)       :      0.48737
Magnitude (Debye)      :      1.23878

                             ****ORCA TERMINATED NORMALLY****
TOTAL RUN TIME: 0 days 0 hours 0 minutes 7 seconds 160 msec
