                         Program Version 3.0.3 - RELEASE   -
|  1> ! RI PBE def2-SVP def2-SVP/J NBO PAL2
|  2> % maxcore 2000
|  3> % output
|  4>     # printlevel mini
|  5>     print[ P_Basis ] 0
|  6>     print[ P_SCFInfo ] 1
|  7>     print[ P_SCFIterInfo ] 1
|  8>     print[ P_OrbEn ] 0
|  9>     print[ P_Cartesian ] 0
| 10> end
| 11> *xyz 0 1
| 12>  N        0.7308720000    -0.7549320000     2.1890930000
| 13>  C        2.1792600000    -0.8718520000     2.2718880000
| 14>  C        2.8469350000     0.2232540000     1.4614340000
| 15>  C        4.3795120000     0.1791340000     1.4697090000
| 16>  N        4.9933620000     1.1424310000     0.5570830000
| 17>  C        4.9186040000     0.4126640000     2.8473060000
| 18>  C        5.5793990000    -0.4751750000     3.5737100000
| 19>  H        0.2822150000    -1.4526990000     2.7689950000
| 20>  H        0.4168000000    -0.9173470000     1.2395710000
| 21>  H        2.5652700000    -1.8492120000     1.9365760000
| 22>  H        2.4677390000    -0.7710580000     3.3218390000
| 23>  H        2.5048030000     1.1982390000     1.8276070000
| 24>  H        2.5134750000     0.1498730000     0.4175640000
| 25>  H        4.7003970000    -0.8187440000     1.1467880000
| 26>  H        4.7749410000     2.0868720000     0.8568710000
| 27>  H        4.5970950000     1.0388660000    -0.3706100000
| 28>  H        4.7234670000     1.4025050000     3.2619230000
| 29>  H        5.7949550000    -1.4689630000     3.1933750000
| 30>  H        5.9349930000    -0.2427580000     4.5709790000
| 31> *
| 32>
| 33>                          ****END OF INPUT****
 Total Charge           Charge          ....    0
 Multiplicity           Mult            ....    1
 Number of Electrons    NEL             ....   56
 Basis Dimension        Dim             ....  158

MULLIKEN ATOMIC CHARGES
-----------------------
   0 N :   -0.205801
   1 C :    0.072541
   2 C :    0.003454
   3 C :    0.020423
   4 N :   -0.168159
   5 C :   -0.042787
   6 C :   -0.019399
   7 H :    0.086546
   8 H :    0.083308
   9 H :   -0.015645
  10 H :    0.011024
  11 H :   -0.003066
  12 H :   -0.010667
  13 H :   -0.012098
  14 H :    0.081220
  15 H :    0.083702
  16 H :   -0.002695
  17 H :    0.017355
  18 H :    0.020745
Sum of atomic charges:   -0.0000000

LOEWDIN ATOMIC CHARGES
----------------------
   0 N :   -0.112892
   1 C :    0.004369
   2 C :   -0.058431
   3 C :   -0.000198
   4 N :   -0.092971
   5 C :   -0.021811
   6 C :   -0.057438
   7 H :    0.052022
   8 H :    0.047620
   9 H :   -0.003029
  10 H :    0.020741
  11 H :    0.020029
  12 H :    0.015102
  13 H :    0.020342
  14 H :    0.047308
  15 H :    0.048692
  16 H :    0.023668
  17 H :    0.022341
  18 H :    0.024537

  Mayer bond orders larger than 0.1
B(  0-N ,  1-C ) :   1.0871 B(  0-N ,  7-H ) :   0.9637 B(  0-N ,  8-H ) :   0.9700
B(  1-C ,  2-C ) :   1.0698 B(  1-C ,  9-H ) :   0.9258 B(  1-C , 10-H ) :   0.9277
B(  2-C ,  3-C ) :   1.0198 B(  2-C , 11-H ) :   0.9190 B(  2-C , 12-H ) :   0.9255
B(  3-C ,  4-N ) :   1.0651 B(  3-C ,  5-C ) :   1.0090 B(  3-C , 13-H ) :   0.9073
B(  4-N , 14-H ) :   0.9678 B(  4-N , 15-H ) :   0.9649 B(  5-C ,  6-C ) :   2.0291
B(  5-C , 16-H ) :   0.9434 B(  6-C , 17-H ) :   0.9451 B(  6-C , 18-H ) :   0.9381

FINAL SINGLE POINT ENERGY      -306.583236162743

DIPOLE MOMENT
-------------
                                X             Y             Z
Electronic contribution:      1.35152       0.92603      -0.13213
Nuclear contribution   :     -1.84174      -1.24593      -0.08420
                        -----------------------------------------
Total Dipole Moment    :     -0.49022      -0.31990      -0.21632
                        -----------------------------------------
Magnitude (a.u.)       :      0.62406
Magnitude (Debye)      :      1.58623

                             ****ORCA TERMINATED NORMALLY****
TOTAL RUN TIME: 0 days 0 hours 0 minutes 7 seconds 930 msec
