                         Program Version 3.0.3 - RELEASE   -
|  1> ! RI PBE def2-SVP def2-SVP/J NBO PAL2
|  2> % maxcore 2000
|  3> % output
|  4>     # printlevel mini
|  5>     print[ P_Basis ] 0
|  6>     print[ P_SCFInfo ] 1
|  7>     print[ P_SCFIterInfo ] 1
|  8>     print[ P_OrbEn ] 0
|  9>     print[ P_Cartesian ] 0
| 10> end
| 11> *xyz 0 1
| 12>  N        0.9891460000    -0.0747760000     0.0479510000
| 13>  C        2.4329840000     0.0767200000     0.1422230000
| 14>  C        3.1043760000    -0.4859650000    -1.0963070000
| 15>  C        4.6367600000    -0.3990730000    -1.0775460000
| 16>  N        5.2936490000    -1.0459440000    -2.2094130000
| 17>  C        5.0808490000     0.9906610000    -0.9941290000
| 18>  C        5.4170000000     2.1416520000    -0.9402530000
| 19>  H        0.5307780000     0.3765600000     0.8291490000
| 20>  H        0.7313950000    -1.0539080000     0.0821160000
| 21>  H        2.8716880000    -0.3983430000     1.0357650000
| 22>  H        2.6587160000     1.1440740000     0.2145820000
| 23>  H        2.7206290000     0.0301240000    -1.9815890000
| 24>  H        2.8402250000    -1.5458990000    -1.2027540000
| 25>  H        4.9939050000    -0.9066610000    -0.1713980000
| 26>  H        5.0567770000    -0.5593100000    -3.0663660000
| 27>  H        4.9525780000    -1.9960600000    -2.3001950000
| 28>  H        5.7287570000     3.1580370000    -0.8904250000
| 29> *
| 30>
| 31>                          ****END OF INPUT****
 Total Charge           Charge          ....    0
 Multiplicity           Mult            ....    1
 Number of Electrons    NEL             ....   54
 Basis Dimension        Dim             ....  148

MULLIKEN ATOMIC CHARGES
-----------------------
   0 N :   -0.203894
   1 C :    0.061676
   2 C :    0.002458
   3 C :    0.052215
   4 N :   -0.170526
   5 C :    0.387437
   6 C :   -0.510205
   7 H :    0.087881
   8 H :    0.084347
   9 H :   -0.012586
  10 H :    0.020127
  11 H :    0.010593
  12 H :   -0.007561
  13 H :    0.018676
  14 H :    0.092972
  15 H :    0.088786
  16 H :   -0.002397
Sum of atomic charges:    0.0000000

LOEWDIN ATOMIC CHARGES
----------------------
   0 N :   -0.111289
   1 C :    0.004753
   2 C :   -0.052184
   3 C :   -0.006706
   4 N :   -0.085159
   5 C :   -0.013037
   6 C :   -0.083720
   7 H :    0.052908
   8 H :    0.048212
   9 H :   -0.001752
  10 H :    0.025456
  11 H :    0.025721
  12 H :    0.016692
  13 H :    0.040250
  14 H :    0.053783
  15 H :    0.051374
  16 H :    0.034698

  Mayer bond orders larger than 0.1
B(  0-N ,  1-C ) :   1.0896 B(  0-N ,  7-H ) :   0.9628 B(  0-N ,  8-H ) :   0.9709
B(  1-C ,  2-C ) :   1.0714 B(  1-C ,  9-H ) :   0.9267 B(  1-C , 10-H ) :   0.9284
B(  2-C ,  3-C ) :   1.0277 B(  2-C , 11-H ) :   0.9184 B(  2-C , 12-H ) :   0.9259
B(  3-C ,  4-N ) :   1.0891 B(  3-C ,  5-C ) :   1.0010 B(  3-C , 13-H ) :   0.8644
B(  4-N , 14-H ) :   0.9656 B(  4-N , 15-H ) :   0.9649 B(  5-C ,  6-C ) :   2.3287
B(  5-C , 16-H ) :  -0.1157 B(  6-C , 16-H ) :   1.1060

FINAL SINGLE POINT ENERGY      -305.339465960322

DIPOLE MOMENT
-------------
                                X             Y             Z
Electronic contribution:      3.76795       2.24441      -0.86474
Nuclear contribution   :     -4.30006      -2.64935       1.17246
                        -----------------------------------------
Total Dipole Moment    :     -0.53211      -0.40494       0.30772
                        -----------------------------------------
Magnitude (a.u.)       :      0.73608
Magnitude (Debye)      :      1.87097

                             ****ORCA TERMINATED NORMALLY****
TOTAL RUN TIME: 0 days 0 hours 0 minutes 7 seconds 623 msec
