                         Program Version 3.0.3 - RELEASE   -
|  1> ! RI PBE def2-SVP def2-SVP/J NBO PAL2
|  2> % maxcore 2000
|  3> % output
|  4>     # printlevel mini
|  5>     print[ P_Basis ] 0
|  6>     print[ P_SCFInfo ] 1
|  7>     print[ P_SCFIterInfo ] 1
|  8>     print[ P_OrbEn ] 0
|  9>     print[ P_Cartesian ] 0
| 10> end
| 11> *xyz 0 1
| 12>  N        1.0644070000     0.1350250000    -0.1023300000
| 13>  C        2.3925240000     0.0828700000    -0.0375630000
| 14>  C        3.1065400000    -0.6479040000     0.8706210000
| 15>  C        2.4047720000    -1.4200010000     1.8302640000
| 16>  N        1.7397500000    -2.0113410000     2.5648620000
| 17>  C        4.5232540000    -0.6337230000     0.8529120000
| 18>  N        5.6757340000    -0.6137800000     0.8280790000
| 19>  H        0.6032760000     0.6929620000    -0.7956990000
| 20>  H        0.4963960000    -0.3870660000     0.5465400000
| 21>  H        2.9335380000     0.6718470000    -0.7695660000
| 22> *
| 23>
| 24>                          ****END OF INPUT****
 Total Charge           Charge          ....    0
 Multiplicity           Mult            ....    1
 Number of Electrons    NEL             ....   48
 Basis Dimension        Dim             ....  113

MULLIKEN ATOMIC CHARGES
-----------------------
   0 N :   -0.004436
   1 C :    0.100115
   2 C :   -0.327326
   3 C :   -0.130837
   4 N :    0.077408
   5 C :   -0.104937
   6 N :    0.080735
   7 H :    0.142956
   8 H :    0.143808
   9 H :    0.022514
Sum of atomic charges:   -0.0000000

LOEWDIN ATOMIC CHARGES
----------------------
   0 N :    0.078115
   1 C :    0.082105
   2 C :   -0.194067
   3 C :   -0.036482
   4 N :   -0.062739
   5 C :   -0.038495
   6 N :   -0.060920
   7 H :    0.091711
   8 H :    0.091631
   9 H :    0.049142

  Mayer bond orders larger than 0.1
B(  0-N ,  1-C ) :   1.4081 B(  0-N ,  7-H ) :   0.9427 B(  0-N ,  8-H ) :   0.9369
B(  1-C ,  2-C ) :   1.5582 B(  1-C ,  9-H ) :   0.9380 B(  2-C ,  3-C ) :   1.1258
B(  2-C ,  5-C ) :   1.1607 B(  3-C ,  4-N ) :   2.9643 B(  5-C ,  6-N ) :   2.9920

FINAL SINGLE POINT ENERGY      -317.829030718625

DIPOLE MOMENT
-------------
                                X             Y             Z
Electronic contribution:      2.51883      -1.63074       2.02480
Nuclear contribution   :     -4.44478       2.89094      -3.59256
                        -----------------------------------------
Total Dipole Moment    :     -1.92595       1.26020      -1.56776
                        -----------------------------------------
Magnitude (a.u.)       :      2.78482
Magnitude (Debye)      :      7.07846

                             ****ORCA TERMINATED NORMALLY****
TOTAL RUN TIME: 0 days 0 hours 0 minutes 5 seconds 461 msec
