                         Program Version 3.0.3 - RELEASE   -
|  1> ! RI PBE def2-SVP def2-SVP/J NBO PAL2
|  2> % maxcore 2000
|  3> % output
|  4>     # printlevel mini
|  5>     print[ P_Basis ] 0
|  6>     print[ P_SCFInfo ] 1
|  7>     print[ P_SCFIterInfo ] 1
|  8>     print[ P_OrbEn ] 0
|  9>     print[ P_Cartesian ] 0
| 10> end
| 11> *xyz 0 1
| 12>  N        1.5049150000    -0.1757020000    -0.4942320000
| 13>  C        2.6713200000     0.3793410000    -0.0908570000
| 14>  C        2.8609210000     1.6873980000     0.2148190000
| 15>  C        1.7751100000     2.5829390000     0.1674310000
| 16>  N        0.8477950000     3.2696460000     0.1145940000
| 17>  C        3.7905150000    -0.5131010000    -0.0186520000
| 18>  N        4.6742960000    -1.2470010000     0.0411150000
| 19>  H        0.6667300000     0.3813790000    -0.4673230000
| 20>  H        1.4088320000    -1.1736340000    -0.5262610000
| 21>  H        3.8403660000     2.0484760000     0.4903960000
| 22> *
| 23>
| 24>                          ****END OF INPUT****
 Total Charge           Charge          ....    0
 Multiplicity           Mult            ....    1
 Number of Electrons    NEL             ....   48
 Basis Dimension        Dim             ....  113

MULLIKEN ATOMIC CHARGES
-----------------------
   0 N :    0.003694
   1 C :   -0.136399
   2 C :   -0.086065
   3 C :   -0.119611
   4 N :    0.046727
   5 C :   -0.117274
   6 N :    0.094850
   7 H :    0.139923
   8 H :    0.132703
   9 H :    0.041451
Sum of atomic charges:   -0.0000000

LOEWDIN ATOMIC CHARGES
----------------------
   0 N :    0.054839
   1 C :    0.000301
   2 C :   -0.121712
   3 C :   -0.052482
   4 N :   -0.065276
   5 C :   -0.034421
   6 N :   -0.021093
   7 H :    0.089457
   8 H :    0.090131
   9 H :    0.060257

  Mayer bond orders larger than 0.1
B(  0-N ,  1-C ) :   1.3738 B(  0-N ,  2-C ) :   0.1105 B(  0-N ,  7-H ) :   0.9255
B(  0-N ,  8-H ) :   0.9355 B(  1-C ,  2-C ) :   1.6306 B(  1-C ,  5-C ) :   1.0722
B(  2-C ,  3-C ) :   1.1458 B(  2-C ,  9-H ) :   0.9216 B(  3-C ,  4-N ) :   2.9232
B(  5-C ,  6-N ) :   3.0171

FINAL SINGLE POINT ENERGY      -317.823545977349

DIPOLE MOMENT
-------------
                                X             Y             Z
Electronic contribution:      1.15667       0.29071       0.27004
Nuclear contribution   :     -1.63973      -1.14757      -0.41394
                        -----------------------------------------
Total Dipole Moment    :     -0.48305      -0.85686      -0.14390
                        -----------------------------------------
Magnitude (a.u.)       :      0.99411
Magnitude (Debye)      :      2.52683

                             ****ORCA TERMINATED NORMALLY****
TOTAL RUN TIME: 0 days 0 hours 0 minutes 5 seconds 121 msec
