                         Program Version 3.0.3 - RELEASE   -
|  1> ! RI PBE def2-SVP def2-SVP/J NBO PAL2
|  2> % maxcore 2000
|  3> % output
|  4>     # printlevel mini
|  5>     print[ P_Basis ] 0
|  6>     print[ P_SCFInfo ] 1
|  7>     print[ P_SCFIterInfo ] 1
|  8>     print[ P_OrbEn ] 0
|  9>     print[ P_Cartesian ] 0
| 10> end
| 11> *xyz 0 1
| 12>  N        2.1198080000    -0.5563630000     4.2350300000
| 13>  C        2.7404670000    -0.1054720000     2.9992400000
| 14>  C        4.1266370000     0.4437430000     3.2796780000
| 15>  N        4.7790400000     0.8867530000     2.0775490000
| 16>  C        6.1240560000     1.4570120000     2.1908460000
| 17>  C        6.4892570000     0.7788870000     0.8627140000
| 18>  C        5.2747940000    -0.1207050000     1.1316250000
| 19>  H        1.2347560000    -1.0085700000     4.0464000000
| 20>  H        1.9217320000     0.2331330000     4.8382450000
| 21>  H        2.1686060000     0.6593540000     2.4531870000
| 22>  H        2.8288910000    -0.9700570000     2.3329470000
| 23>  H        4.7135300000    -0.3273600000     3.8126310000
| 24>  H        4.0438660000     1.3041960000     3.9555090000
| 25>  H        6.6937910000     1.0314330000     3.0327120000
| 26>  H        6.1641270000     2.5481770000     2.2509180000
| 27>  H        7.4646580000     0.3009750000     0.7921020000
| 28>  H        6.3372700000     1.4353920000     0.0062630000
| 29>  H        5.5648940000    -1.0594870000     1.6316780000
| 30>  H        4.6065180000    -0.3543300000     0.2988140000
| 31> *
| 32>
| 33>                          ****END OF INPUT****
 Total Charge           Charge          ....    0
 Multiplicity           Mult            ....    1
 Number of Electrons    NEL             ....   56
 Basis Dimension        Dim             ....  158

MULLIKEN ATOMIC CHARGES
-----------------------
   0 N :   -0.214111
   1 C :    0.052748
   2 C :    0.084833
   3 N :   -0.357211
   4 C :    0.125625
   5 C :   -0.061175
   6 C :    0.128202
   7 H :    0.089338
   8 H :    0.089162
   9 H :   -0.000745
  10 H :    0.009679
  11 H :   -0.009211
  12 H :    0.002831
  13 H :   -0.009681
  14 H :    0.018694
  15 H :    0.021356
  16 H :    0.024336
  17 H :   -0.011077
  18 H :    0.016407
Sum of atomic charges:    0.0000000

LOEWDIN ATOMIC CHARGES
----------------------
   0 N :   -0.111866
   1 C :   -0.001932
   2 C :   -0.000669
   3 N :   -0.119840
   4 C :    0.031809
   5 C :   -0.039938
   6 C :    0.030424
   7 H :    0.053128
   8 H :    0.050257
   9 H :    0.000724
  10 H :    0.019906
  11 H :   -0.002223
  12 H :    0.018407
  13 H :    0.001919
  14 H :    0.010910
  15 H :    0.019838
  16 H :    0.027863
  17 H :    0.001737
  18 H :    0.009546

  Mayer bond orders larger than 0.1
B(  0-N ,  1-C ) :   1.0913 B(  0-N ,  7-H ) :   0.9645 B(  0-N ,  8-H ) :   0.9701
B(  1-C ,  2-C ) :   1.0875 B(  1-C ,  9-H ) :   0.9248 B(  1-C , 10-H ) :   0.9314
B(  2-C ,  3-N ) :   1.0306 B(  2-C , 11-H ) :   0.9093 B(  2-C , 12-H ) :   0.9340
B(  3-N ,  4-C ) :   1.0124 B(  3-N ,  6-C ) :   1.0079 B(  4-C ,  5-C ) :   1.1024
B(  4-C , 13-H ) :   0.9131 B(  4-C , 14-H ) :   0.9436 B(  5-C ,  6-C ) :   1.0981
B(  5-C , 15-H ) :   0.9505 B(  5-C , 16-H ) :   0.9269 B(  6-C , 17-H ) :   0.9116
B(  6-C , 18-H ) :   0.9437

FINAL SINGLE POINT ENERGY      -306.577029928993

DIPOLE MOMENT
-------------
                                X             Y             Z
Electronic contribution:     -0.23342       0.82818      -0.31136
Nuclear contribution   :      0.03982      -0.70598       0.23743
                        -----------------------------------------
Total Dipole Moment    :     -0.19360       0.12221      -0.07393
                        -----------------------------------------
Magnitude (a.u.)       :      0.24058
Magnitude (Debye)      :      0.61152

                             ****ORCA TERMINATED NORMALLY****
TOTAL RUN TIME: 0 days 0 hours 0 minutes 8 seconds 269 msec
