                         Program Version 3.0.3 - RELEASE   -
|  1> ! RI PBE def2-SVP def2-SVP/J NBO PAL2
|  2> % maxcore 2000
|  3> % output
|  4>     # printlevel mini
|  5>     print[ P_Basis ] 0
|  6>     print[ P_SCFInfo ] 1
|  7>     print[ P_SCFIterInfo ] 1
|  8>     print[ P_OrbEn ] 0
|  9>     print[ P_Cartesian ] 0
| 10> end
| 11> *xyz 0 1
| 12>  N        3.4404680000    -2.6086400000     0.2271640000
| 13>  C        3.4811810000    -1.4651330000     0.1234240000
| 14>  C        3.5551590000    -0.0111670000     0.0073230000
| 15>  N        4.1166150000     0.3896650000    -1.2524250000
| 16>  C        4.2991230000     1.8271260000    -1.4863580000
| 17>  C        5.5974880000     1.4978290000    -2.2370470000
| 18>  C        5.5455720000     0.1512820000    -1.5003090000
| 19>  H        4.1278150000     0.3654230000     0.8760140000
| 20>  H        2.5391920000     0.3878040000     0.0931390000
| 21>  H        4.4980870000     2.3861470000    -0.5581860000
| 22>  H        3.4853880000     2.3133800000    -2.0294900000
| 23>  H        6.4580780000     2.1371000000    -2.0518740000
| 24>  H        5.4396880000     1.3898400000    -3.3093180000
| 25>  H        6.1429770000     0.1686560000    -0.5754560000
| 26>  H        5.7710590000    -0.7617120000    -2.0539810000
| 27> *
| 28>
| 29>                          ****END OF INPUT****
 Total Charge           Charge          ....    0
 Multiplicity           Mult            ....    1
 Number of Electrons    NEL             ....   52
 Basis Dimension        Dim             ....  138

MULLIKEN ATOMIC CHARGES
-----------------------
   0 N :    0.057794
   1 C :   -0.266564
   2 C :    0.190831
   3 N :   -0.376453
   4 C :    0.129135
   5 C :   -0.086634
   6 C :    0.143586
   7 H :    0.025025
   8 H :    0.045494
   9 H :   -0.002479
  10 H :    0.029438
  11 H :    0.035467
  12 H :    0.043454
  13 H :   -0.002226
  14 H :    0.034131
Sum of atomic charges:   -0.0000000

LOEWDIN ATOMIC CHARGES
----------------------
   0 N :   -0.056551
   1 C :   -0.045417
   2 C :   -0.006556
   3 N :   -0.113451
   4 C :    0.035267
   5 C :   -0.039737
   6 C :    0.038153
   7 H :    0.026214
   8 H :    0.055378
   9 H :    0.004934
  10 H :    0.016229
  11 H :    0.025078
  12 H :    0.034032
  13 H :    0.006792
  14 H :    0.019636

  Mayer bond orders larger than 0.1
B(  0-N ,  1-C ) :   3.0656 B(  1-C ,  2-C ) :   1.1153 B(  2-C ,  3-N ) :   1.0652
B(  2-C ,  7-H ) :   0.8853 B(  2-C ,  8-H ) :   0.8838 B(  3-N ,  4-C ) :   0.9983
B(  3-N ,  6-C ) :   0.9858 B(  4-C ,  5-C ) :   1.0957 B(  4-C ,  9-H ) :   0.9144
B(  4-C , 10-H ) :   0.9458 B(  5-C ,  6-C ) :   1.1016 B(  5-C , 11-H ) :   0.9506
B(  5-C , 12-H ) :   0.9276 B(  6-C , 13-H ) :   0.9145 B(  6-C , 14-H ) :   0.9455

FINAL SINGLE POINT ENERGY      -304.172588523822

DIPOLE MOMENT
-------------
                                X             Y             Z
Electronic contribution:     -3.34908      -6.17087       2.25544
Nuclear contribution   :      3.70847       7.74695      -2.35768
                        -----------------------------------------
Total Dipole Moment    :      0.35939       1.57608      -0.10224
                        -----------------------------------------
Magnitude (a.u.)       :      1.61977
Magnitude (Debye)      :      4.11712

                             ****ORCA TERMINATED NORMALLY****
TOTAL RUN TIME: 0 days 0 hours 0 minutes 7 seconds 40 msec
