                         Program Version 3.0.3 - RELEASE   -
|  1> ! RI PBE def2-SVP def2-SVP/J NBO PAL2
|  2> % maxcore 2000
|  3> % output
|  4>     # printlevel mini
|  5>     print[ P_Basis ] 0
|  6>     print[ P_SCFInfo ] 1
|  7>     print[ P_SCFIterInfo ] 1
|  8>     print[ P_OrbEn ] 0
|  9>     print[ P_Cartesian ] 0
| 10> end
| 11> *xyz 0 1
| 12>  N        2.5343290000    -0.0888180000     0.2770110000
| 13>  C        1.9920350000     1.2151940000    -0.0890220000
| 14>  C        3.0485460000     2.2948750000     0.0403750000
| 15>  N        3.6037350000     2.3174440000     1.3814390000
| 16>  C        4.4675950000     3.4282220000     1.6284650000
| 17>  C        3.8477680000     4.6865390000     2.1494850000
| 18>  C        4.6918550000     3.8316920000     3.0489120000
| 19>  H        1.9681750000    -0.8332610000    -0.1072220000
| 20>  H        2.5122250000    -0.2021690000     1.2829550000
| 21>  H        1.1180550000     1.5003850000     0.5138160000
| 22>  H        1.6682130000     1.1730960000    -1.1327000000
| 23>  H        2.5909610000     3.2699510000    -0.1537720000
| 24>  H        3.8229450000     2.1356010000    -0.7283720000
| 25>  H        4.1138740000     1.4547750000     1.5342460000
| 26>  H        5.3139920000     3.5621470000     0.9500180000
| 27>  H        2.7775430000     4.6651050000     2.3125680000
| 28>  H        4.2463900000     5.6356960000     1.8140180000
| 29>  H        4.1758340000     3.2505880000     3.8027640000
| 30>  H        5.6730290000     4.1898290000     3.3340850000
| 31> *
| 32>
| 33>                          ****END OF INPUT****
 Total Charge           Charge          ....    0
 Multiplicity           Mult            ....    1
 Number of Electrons    NEL             ....   56
 Basis Dimension        Dim             ....  158

MULLIKEN ATOMIC CHARGES
-----------------------
   0 N :   -0.232973
   1 C :    0.077573
   2 C :    0.114773
   3 N :   -0.229379
   4 C :   -0.062882
   5 C :   -0.024782
   6 C :   -0.017418
   7 H :    0.092151
   8 H :    0.091161
   9 H :   -0.006609
  10 H :   -0.000314
  11 H :   -0.000519
  12 H :   -0.013905
  13 H :    0.098849
  14 H :    0.002239
  15 H :    0.032443
  16 H :    0.026938
  17 H :    0.026264
  18 H :    0.026391
Sum of atomic charges:    0.0000000

LOEWDIN ATOMIC CHARGES
----------------------
   0 N :   -0.114904
   1 C :    0.000765
   2 C :    0.006989
   3 N :   -0.090781
   4 C :   -0.006286
   5 C :   -0.052650
   6 C :   -0.049495
   7 H :    0.053958
   8 H :    0.049640
   9 H :    0.002309
  10 H :    0.021382
  11 H :    0.020061
  12 H :    0.000443
  13 H :    0.052379
  14 H :    0.003594
  15 H :    0.027837
  16 H :    0.023774
  17 H :    0.026515
  18 H :    0.024467

  Mayer bond orders larger than 0.1
B(  0-N ,  1-C ) :   1.0983 B(  0-N ,  7-H ) :   0.9696 B(  0-N ,  8-H ) :   0.9651
B(  1-C ,  2-C ) :   1.0812 B(  1-C ,  9-H ) :   0.9278 B(  1-C , 10-H ) :   0.9326
B(  2-C ,  3-N ) :   1.0232 B(  2-C , 11-H ) :   0.9295 B(  2-C , 12-H ) :   0.9152
B(  3-N ,  4-C ) :   1.1087 B(  3-N , 13-H ) :   0.9272 B(  4-C ,  5-C ) :   0.9982
B(  4-C ,  6-C ) :   0.9964 B(  4-C , 14-H ) :   0.9210 B(  5-C ,  6-C ) :   1.0569
B(  5-C , 15-H ) :   0.9394 B(  5-C , 16-H ) :   0.9479 B(  6-C , 17-H ) :   0.9428
B(  6-C , 18-H ) :   0.9446

FINAL SINGLE POINT ENERGY      -306.580044180459

DIPOLE MOMENT
-------------
                                X             Y             Z
Electronic contribution:      0.82013      -0.46895       0.64559
Nuclear contribution   :     -1.05171       0.19337      -0.69340
                        -----------------------------------------
Total Dipole Moment    :     -0.23158      -0.27558      -0.04781
                        -----------------------------------------
Magnitude (a.u.)       :      0.36313
Magnitude (Debye)      :      0.92299

                             ****ORCA TERMINATED NORMALLY****
TOTAL RUN TIME: 0 days 0 hours 0 minutes 7 seconds 579 msec
