                         Program Version 3.0.3 - RELEASE   -
|  1> ! RI PBE def2-SVP def2-SVP/J NBO PAL2
|  2> % maxcore 2000
|  3> % output
|  4>     # printlevel mini
|  5>     print[ P_Basis ] 0
|  6>     print[ P_SCFInfo ] 1
|  7>     print[ P_SCFIterInfo ] 1
|  8>     print[ P_OrbEn ] 0
|  9>     print[ P_Cartesian ] 0
| 10> end
| 11> *xyz 0 1
| 12>  N        1.4273460000    -0.9735430000    -1.8207560000
| 13>  C        2.4965130000    -1.3526250000    -1.6381750000
| 14>  C        3.8427750000    -1.8541830000    -1.3857790000
| 15>  N        4.5350890000    -1.0357990000    -0.4120050000
| 16>  C        5.8617370000    -1.4965010000    -0.1464150000
| 17>  C        6.9528380000    -0.9970830000    -1.0425710000
| 18>  C        6.8440980000    -0.4960180000     0.3658320000
| 19>  H        4.4004350000    -1.8263630000    -2.3273060000
| 20>  H        3.7548830000    -2.9165700000    -1.1026220000
| 21>  H        3.9949650000    -0.9688630000     0.4419650000
| 22>  H        5.9707540000    -2.5199600000     0.2194830000
| 23>  H        6.6591820000    -0.3150060000    -1.8306360000
| 24>  H        7.7607330000    -1.6729410000    -1.2919510000
| 25>  H        6.4782660000     0.5132910000     0.5034930000
| 26>  H        7.5753840000    -0.8265250000     1.0921330000
| 27> *
| 28>
| 29>                          ****END OF INPUT****
 Total Charge           Charge          ....    0
 Multiplicity           Mult            ....    1
 Number of Electrons    NEL             ....   52
 Basis Dimension        Dim             ....  138

MULLIKEN ATOMIC CHARGES
-----------------------
   0 N :    0.060488
   1 C :   -0.272657
   2 C :    0.181988
   3 N :   -0.219232
   4 C :   -0.070853
   5 C :   -0.035939
   6 C :   -0.016844
   7 H :    0.047086
   8 H :    0.033372
   9 H :    0.119138
  10 H :    0.008532
  11 H :    0.043240
  12 H :    0.039943
  13 H :    0.042761
  14 H :    0.038978
Sum of atomic charges:   -0.0000000

LOEWDIN ATOMIC CHARGES
----------------------
   0 N :   -0.056781
   1 C :   -0.048435
   2 C :    0.000051
   3 N :   -0.073587
   4 C :   -0.010533
   5 C :   -0.048786
   6 C :   -0.043360
   7 H :    0.053974
   8 H :    0.032259
   9 H :    0.065833
  10 H :    0.006116
  11 H :    0.032187
  12 H :    0.028471
  13 H :    0.032806
  14 H :    0.029784

  Mayer bond orders larger than 0.1
B(  0-N ,  1-C ) :   3.0618 B(  1-C ,  2-C ) :   1.1045 B(  2-C ,  3-N ) :   1.0395
B(  2-C ,  7-H ) :   0.8866 B(  2-C ,  8-H ) :   0.8927 B(  3-N ,  4-C ) :   1.1019
B(  3-N ,  9-H ) :   0.9358 B(  4-C ,  5-C ) :   1.0055 B(  4-C ,  6-C ) :   0.9954
B(  4-C , 10-H ) :   0.9196 B(  5-C ,  6-C ) :   1.0576 B(  5-C , 11-H ) :   0.9384
B(  5-C , 12-H ) :   0.9476 B(  6-C , 13-H ) :   0.9435 B(  6-C , 14-H ) :   0.9428

FINAL SINGLE POINT ENERGY      -304.174214989642

DIPOLE MOMENT
-------------
                                X             Y             Z
Electronic contribution:     -7.83156       0.38515      -1.86693
Nuclear contribution   :      9.12957      -1.04297       2.35450
                        -----------------------------------------
Total Dipole Moment    :      1.29801      -0.65781       0.48757
                        -----------------------------------------
Magnitude (a.u.)       :      1.53469
Magnitude (Debye)      :      3.90088

                             ****ORCA TERMINATED NORMALLY****
TOTAL RUN TIME: 0 days 0 hours 0 minutes 6 seconds 658 msec
