                         Program Version 3.0.3 - RELEASE   -
|  1> ! RI PBE def2-SVP def2-SVP/J NBO PAL2
|  2> % maxcore 2000
|  3> % output
|  4>     # printlevel mini
|  5>     print[ P_Basis ] 0
|  6>     print[ P_SCFInfo ] 1
|  7>     print[ P_SCFIterInfo ] 1
|  8>     print[ P_OrbEn ] 0
|  9>     print[ P_Cartesian ] 0
| 10> end
| 11> *xyz 0 1
| 12>  N        1.1017790000     0.2358870000     0.0797060000
| 13>  C        2.5245850000    -0.0005180000    -0.1222290000
| 14>  C        3.1233380000    -0.7001950000     1.0981200000
| 15>  N        2.4451730000    -1.9426420000     1.4363000000
| 16>  C        4.5966200000    -0.9314220000     0.9125950000
| 17>  C        5.5805750000     0.1355530000     1.2855530000
| 18>  C        5.4773490000    -1.1140560000     2.1062190000
| 19>  H        0.6502380000     0.5080760000    -0.7831250000
| 20>  H        0.9570600000     0.9902070000     0.7402940000
| 21>  H        3.1024130000     0.9118810000    -0.3341600000
| 22>  H        2.6372940000    -0.6617330000    -0.9888650000
| 23>  H        3.0025940000    -0.0205910000     1.9563100000
| 24>  H        2.7507870000    -2.6783400000     0.8083460000
| 25>  H        1.4510120000    -1.8114320000     1.2725190000
| 26>  H        4.8474240000    -1.5250270000     0.0355510000
| 27>  H        5.1884370000     1.0528510000     1.7099050000
| 28>  H        6.4550130000     0.2717610000     0.6614570000
| 29>  H        5.0032620000    -1.0489370000     3.0778770000
| 30>  H        6.2843570000    -1.8335210000     2.0478360000
| 31> *
| 32>
| 33>                          ****END OF INPUT****
 Total Charge           Charge          ....    0
 Multiplicity           Mult            ....    1
 Number of Electrons    NEL             ....   56
 Basis Dimension        Dim             ....  158

MULLIKEN ATOMIC CHARGES
-----------------------
   0 N :   -0.197472
   1 C :    0.105451
   2 C :    0.019862
   3 N :   -0.159078
   4 C :   -0.144136
   5 C :   -0.026653
   6 C :    0.001001
   7 H :    0.092649
   8 H :    0.088883
   9 H :   -0.017508
  10 H :   -0.013877
  11 H :   -0.027200
  12 H :    0.075684
  13 H :    0.077686
  14 H :    0.009195
  15 H :    0.024490
  16 H :    0.026947
  17 H :    0.034338
  18 H :    0.029738
Sum of atomic charges:   -0.0000000

LOEWDIN ATOMIC CHARGES
----------------------
   0 N :   -0.106124
   1 C :   -0.006801
   2 C :   -0.005744
   3 N :   -0.099679
   4 C :   -0.046042
   5 C :   -0.046269
   6 C :   -0.039732
   7 H :    0.054728
   8 H :    0.052272
   9 H :    0.000065
  10 H :    0.013785
  11 H :    0.015301
  12 H :    0.046193
  13 H :    0.040928
  14 H :    0.021836
  15 H :    0.023264
  16 H :    0.025437
  17 H :    0.029926
  18 H :    0.026656

  Mayer bond orders larger than 0.1
B(  0-N ,  1-C ) :   1.0961 B(  0-N ,  7-H ) :   0.9625 B(  0-N ,  8-H ) :   0.9684
B(  1-C ,  2-C ) :   1.0159 B(  1-C ,  9-H ) :   0.9208 B(  1-C , 10-H ) :   0.9184
B(  2-C ,  3-N ) :   1.1022 B(  2-C ,  4-C ) :   1.0555 B(  2-C , 11-H ) :   0.8853
B(  3-N , 12-H ) :   0.9664 B(  3-N , 13-H ) :   0.9464 B(  4-C ,  5-C ) :   0.9956
B(  4-C ,  6-C ) :   0.9818 B(  4-C , 14-H ) :   0.9321 B(  5-C ,  6-C ) :   1.0645
B(  5-C , 15-H ) :   0.9414 B(  5-C , 16-H ) :   0.9420 B(  6-C , 17-H ) :   0.9404
B(  6-C , 18-H ) :   0.9444

FINAL SINGLE POINT ENERGY      -306.586880341674

DIPOLE MOMENT
-------------
                                X             Y             Z
Electronic contribution:     -0.64562      -0.85957       0.43970
Nuclear contribution   :      0.55632       1.38737      -1.10000
                        -----------------------------------------
Total Dipole Moment    :     -0.08930       0.52780      -0.66031
                        -----------------------------------------
Magnitude (a.u.)       :      0.85003
Magnitude (Debye)      :      2.16061

                             ****ORCA TERMINATED NORMALLY****
TOTAL RUN TIME: 0 days 0 hours 0 minutes 8 seconds 43 msec
