                         Program Version 3.0.3 - RELEASE   -
|  1> ! RI PBE def2-SVP def2-SVP/J NBO PAL2
|  2> % maxcore 2000
|  3> % output
|  4>     # printlevel mini
|  5>     print[ P_Basis ] 0
|  6>     print[ P_SCFInfo ] 1
|  7>     print[ P_SCFIterInfo ] 1
|  8>     print[ P_OrbEn ] 0
|  9>     print[ P_Cartesian ] 0
| 10> end
| 11> *xyz 0 1
| 12>  N        1.0741670000     0.3177080000     0.0742700000
| 13>  C        2.5104230000     0.1541790000    -0.0996960000
| 14>  C        3.0284430000    -0.9341400000     0.8394230000
| 15>  N        2.3760560000    -2.2204480000     0.6533360000
| 16>  C        4.5510210000    -1.0792460000     0.7619130000
| 17>  C        5.0627570000    -1.5862770000    -0.5469410000
| 18>  C        5.8386350000    -0.9042590000    -1.3790130000
| 19>  H        0.6747910000     0.8660960000    -0.6754510000
| 20>  H        0.8728730000     0.8067380000     0.9382850000
| 21>  H        3.0835640000     1.0807110000     0.0647880000
| 22>  H        2.6988820000    -0.1545380000    -1.1327490000
| 23>  H        2.7980880000    -0.6127420000     1.8649110000
| 24>  H        2.6037420000    -2.5850990000    -0.2659560000
| 25>  H        1.3739290000    -2.0568570000     0.6375350000
| 26>  H        4.8512120000    -1.7742590000     1.5533260000
| 27>  H        5.0124680000    -0.1113900000     0.9809020000
| 28>  H        4.7845490000    -2.6041230000    -0.8153910000
| 29>  H        6.1603200000     0.1079080000    -1.1515190000
| 30>  H        6.1882820000    -1.3323820000    -2.3115650000
| 31> *
| 32>
| 33>                          ****END OF INPUT****
 Total Charge           Charge          ....    0
 Multiplicity           Mult            ....    1
 Number of Electrons    NEL             ....   56
 Basis Dimension        Dim             ....  158

MULLIKEN ATOMIC CHARGES
-----------------------
   0 N :   -0.200601
   1 C :    0.094344
   2 C :   -0.061860
   3 N :   -0.177975
   4 C :    0.122720
   5 C :   -0.115396
   6 C :   -0.026155
   7 H :    0.092563
   8 H :    0.086472
   9 H :   -0.018719
  10 H :   -0.000890
  11 H :   -0.011739
  12 H :    0.075900
  13 H :    0.084015
  14 H :    0.023544
  15 H :   -0.007429
  16 H :    0.007352
  17 H :    0.013440
  18 H :    0.020414
Sum of atomic charges:   -0.0000000

LOEWDIN ATOMIC CHARGES
----------------------
   0 N :   -0.105788
   1 C :   -0.009118
   2 C :   -0.007371
   3 N :   -0.100556
   4 C :   -0.038464
   5 C :   -0.032777
   6 C :   -0.065751
   7 H :    0.054278
   8 H :    0.051234
   9 H :   -0.001580
  10 H :    0.016546
  11 H :    0.017078
  12 H :    0.044100
  13 H :    0.045264
  14 H :    0.038842
  15 H :    0.026633
  16 H :    0.024509
  17 H :    0.019817
  18 H :    0.023104

  Mayer bond orders larger than 0.1
B(  0-N ,  1-C ) :   1.1025 B(  0-N ,  7-H ) :   0.9654 B(  0-N ,  8-H ) :   0.9698
B(  1-C ,  2-C ) :   1.0130 B(  1-C ,  9-H ) :   0.9209 B(  1-C , 10-H ) :   0.9213
B(  2-C ,  3-N ) :   1.0952 B(  2-C ,  4-C ) :   1.0580 B(  2-C , 11-H ) :   0.9035
B(  3-N , 12-H ) :   0.9642 B(  3-N , 13-H ) :   0.9509 B(  4-C ,  5-C ) :   1.0625
B(  4-C , 14-H ) :   0.9025 B(  4-C , 15-H ) :   0.9183 B(  5-C ,  6-C ) :   2.0055
B(  5-C , 16-H ) :   0.9506 B(  6-C , 17-H ) :   0.9450 B(  6-C , 18-H ) :   0.9430

FINAL SINGLE POINT ENERGY      -306.589216777998

DIPOLE MOMENT
-------------
                                X             Y             Z
Electronic contribution:     -0.34001      -1.21548       0.53618
Nuclear contribution   :      0.11658       1.96254      -0.82728
                        -----------------------------------------
Total Dipole Moment    :     -0.22344       0.74706      -0.29111
                        -----------------------------------------
Magnitude (a.u.)       :      0.83233
Magnitude (Debye)      :      2.11561

                             ****ORCA TERMINATED NORMALLY****
TOTAL RUN TIME: 0 days 0 hours 0 minutes 8 seconds 373 msec
