                         Program Version 3.0.3 - RELEASE   -
|  1> ! RI PBE def2-SVP def2-SVP/J NBO PAL2
|  2> % maxcore 2000
|  3> % output
|  4>     # printlevel mini
|  5>     print[ P_Basis ] 0
|  6>     print[ P_SCFInfo ] 1
|  7>     print[ P_SCFIterInfo ] 1
|  8>     print[ P_OrbEn ] 0
|  9>     print[ P_Cartesian ] 0
| 10> end
| 11> *xyz 0 1
| 12>  N        1.3753650000    -0.5507670000     0.4131390000
| 13>  C        2.7552810000    -0.0836720000     0.3945980000
| 14>  C        3.1652290000     0.2520720000    -1.0369260000
| 15>  N        2.3279490000     1.2621630000    -1.6603670000
| 16>  C        4.6226930000     0.7058920000    -1.1235800000
| 17>  C        5.5871580000    -0.3032570000    -0.7232660000
| 18>  C        6.3818320000    -1.1448070000    -0.4032560000
| 19>  H        1.0075720000    -0.5582110000     1.3550980000
| 20>  H        1.3207020000    -1.5023110000     0.0696180000
| 21>  H        3.4726200000    -0.7963620000     0.8249500000
| 22>  H        2.8114490000     0.8337560000     0.9923160000
| 23>  H        3.0690600000    -0.6637210000    -1.6351360000
| 24>  H        2.4898500000     2.1595480000    -1.2127590000
| 25>  H        1.3600390000     1.0231420000    -1.4660640000
| 26>  H        4.7590060000     1.6011490000    -0.5027340000
| 27>  H        4.8197740000     1.0099260000    -2.1559660000
| 28>  H        7.0905100000    -1.8871500000    -0.1220750000
| 29> *
| 30>
| 31>                          ****END OF INPUT****
 Total Charge           Charge          ....    0
 Multiplicity           Mult            ....    1
 Number of Electrons    NEL             ....   54
 Basis Dimension        Dim             ....  148

MULLIKEN ATOMIC CHARGES
-----------------------
   0 N :   -0.203653
   1 C :    0.095144
   2 C :   -0.075257
   3 N :   -0.158423
   4 C :    0.116324
   5 C :    0.341949
   6 C :   -0.511939
   7 H :    0.093915
   8 H :    0.090865
   9 H :    0.005368
  10 H :   -0.016059
  11 H :    0.004041
  12 H :    0.078592
  13 H :    0.081940
  14 H :    0.020644
  15 H :    0.041229
  16 H :   -0.004678
Sum of atomic charges:   -0.0000000

LOEWDIN ATOMIC CHARGES
----------------------
   0 N :   -0.105209
   1 C :   -0.008355
   2 C :   -0.001458
   3 N :   -0.097491
   4 C :   -0.045840
   5 C :   -0.020227
   6 C :   -0.096900
   7 H :    0.055375
   8 H :    0.053789
   9 H :    0.007291
  10 H :    0.014254
  11 H :    0.022293
  12 H :    0.046903
  13 H :    0.046178
  14 H :    0.043506
  15 H :    0.052961
  16 H :    0.032932

  Mayer bond orders larger than 0.1
B(  0-N ,  1-C ) :   1.0991 B(  0-N ,  7-H ) :   0.9644 B(  0-N ,  8-H ) :   0.9695
B(  1-C ,  2-C ) :   1.0134 B(  1-C ,  9-H ) :   0.9235 B(  1-C , 10-H ) :   0.9174
B(  2-C ,  3-N ) :   1.1098 B(  2-C ,  4-C ) :   1.0494 B(  2-C , 11-H ) :   0.9056
B(  3-N , 12-H ) :   0.9622 B(  3-N , 13-H ) :   0.9473 B(  4-C ,  5-C ) :   1.0653
B(  4-C , 14-H ) :   0.8791 B(  4-C , 15-H ) :   0.8872 B(  5-C ,  6-C ) :   2.3111
B(  5-C , 16-H ) :  -0.1144 B(  6-C , 16-H ) :   1.1052

FINAL SINGLE POINT ENERGY      -305.348186349472

DIPOLE MOMENT
-------------
                                X             Y             Z
Electronic contribution:      3.44338      -0.92887      -0.99356
Nuclear contribution   :     -3.71662       0.73653       1.74677
                        -----------------------------------------
Total Dipole Moment    :     -0.27324      -0.19234       0.75320
                        -----------------------------------------
Magnitude (a.u.)       :      0.82399
Magnitude (Debye)      :      2.09443

                             ****ORCA TERMINATED NORMALLY****
TOTAL RUN TIME: 0 days 0 hours 0 minutes 7 seconds 700 msec
