                         Program Version 3.0.3 - RELEASE   -
|  1> ! RI PBE def2-SVP def2-SVP/J NBO PAL2
|  2> % maxcore 2000
|  3> % output
|  4>     # printlevel mini
|  5>     print[ P_Basis ] 0
|  6>     print[ P_SCFInfo ] 1
|  7>     print[ P_SCFIterInfo ] 1
|  8>     print[ P_OrbEn ] 0
|  9>     print[ P_Cartesian ] 0
| 10> end
| 11> *xyz 0 1
| 12>  N        2.4572430000     0.3432240000    -1.2353600000
| 13>  C        2.1860080000     0.1623550000     0.1860480000
| 14>  C        2.7962360000     1.2879350000     0.9984460000
| 15>  N        4.2208860000     1.3899560000     0.7527180000
| 16>  C        4.8884830000     2.3470350000     1.6152810000
| 17>  C        6.3494440000     2.4041420000     1.3171120000
| 18>  C        7.0128880000     3.5108780000     1.0145670000
| 19>  H        1.8026510000    -0.1859820000    -1.7954500000
| 20>  H        3.3787630000    -0.0113590000    -1.4596230000
| 21>  H        2.5564930000    -0.7965980000     0.5753640000
| 22>  H        1.1027860000     0.1781340000     0.3353240000
| 23>  H        2.6456080000     1.0791600000     2.0633790000
| 24>  H        2.2642870000     2.2276030000     0.7712100000
| 25>  H        4.3594280000     1.6748310000    -0.2107600000
| 26>  H        4.7469230000     2.0102760000     2.6506400000
| 27>  H        4.4589220000     3.3620660000     1.5536300000
| 28>  H        6.8699710000     1.4494690000     1.3502090000
| 29>  H        6.5123230000     4.4732340000     0.9626820000
| 30>  H        8.0780570000     3.4993410000     0.8140040000
| 31> *
| 32>
| 33>                          ****END OF INPUT****
 Total Charge           Charge          ....    0
 Multiplicity           Mult            ....    1
 Number of Electrons    NEL             ....   56
 Basis Dimension        Dim             ....  158

MULLIKEN ATOMIC CHARGES
-----------------------
   0 N :   -0.230021
   1 C :    0.069674
   2 C :    0.102364
   3 N :   -0.301193
   4 C :    0.186877
   5 C :   -0.107367
   6 C :   -0.033279
   7 H :    0.093898
   8 H :    0.092679
   9 H :   -0.008091
  10 H :    0.005306
  11 H :   -0.001249
  12 H :   -0.015414
  13 H :    0.097786
  14 H :    0.012368
  15 H :   -0.017548
  16 H :    0.007466
  17 H :    0.018093
  18 H :    0.027651
Sum of atomic charges:   -0.0000000

LOEWDIN ATOMIC CHARGES
----------------------
   0 N :   -0.113919
   1 C :   -0.000104
   2 C :    0.003926
   3 N :   -0.105975
   4 C :    0.013339
   5 C :   -0.036662
   6 C :   -0.062844
   7 H :    0.054537
   8 H :    0.050505
   9 H :    0.002376
  10 H :    0.022210
  11 H :    0.018923
  12 H :   -0.000935
  13 H :    0.050400
  14 H :    0.028582
  15 H :    0.003132
  16 H :    0.026276
  17 H :    0.021220
  18 H :    0.025013

  Mayer bond orders larger than 0.1
B(  0-N ,  1-C ) :   1.1043 B(  0-N ,  7-H ) :   0.9693 B(  0-N ,  8-H ) :   0.9644
B(  1-C ,  2-C ) :   1.0804 B(  1-C ,  9-H ) :   0.9265 B(  1-C , 10-H ) :   0.9335
B(  2-C ,  3-N ) :   1.0312 B(  2-C , 11-H ) :   0.9296 B(  2-C , 12-H ) :   0.9127
B(  3-N ,  4-C ) :   1.0029 B(  3-N , 13-H ) :   0.9302 B(  4-C ,  5-C ) :   1.0578
B(  4-C , 14-H ) :   0.9130 B(  4-C , 15-H ) :   0.9138 B(  5-C ,  6-C ) :   1.9975
B(  5-C , 16-H ) :   0.9583 B(  6-C , 17-H ) :   0.9467 B(  6-C , 18-H ) :   0.9456

FINAL SINGLE POINT ENERGY      -306.579979632361

DIPOLE MOMENT
-------------
                                X             Y             Z
Electronic contribution:      1.44547      -0.09906      -0.25184
Nuclear contribution   :     -1.65284      -0.20827       0.10077
                        -----------------------------------------
Total Dipole Moment    :     -0.20737      -0.30733      -0.15108
                        -----------------------------------------
Magnitude (a.u.)       :      0.40035
Magnitude (Debye)      :      1.01760

                             ****ORCA TERMINATED NORMALLY****
TOTAL RUN TIME: 0 days 0 hours 0 minutes 8 seconds 68 msec
