                         Program Version 3.0.3 - RELEASE   -
|  1> ! RI PBE def2-SVP def2-SVP/J NBO PAL2
|  2> % maxcore 2000
|  3> % output
|  4>     # printlevel mini
|  5>     print[ P_Basis ] 0
|  6>     print[ P_SCFInfo ] 1
|  7>     print[ P_SCFIterInfo ] 1
|  8>     print[ P_OrbEn ] 0
|  9>     print[ P_Cartesian ] 0
| 10> end
| 11> *xyz 0 1
| 12>  N        2.7852600000    -0.8215480000     1.3120750000
| 13>  C        2.3485380000     0.0184380000     0.2031180000
| 14>  C        2.8448590000    -0.5352630000    -1.1183920000
| 15>  N        4.2867140000    -0.6803150000    -1.1013040000
| 16>  C        4.8182540000    -1.0887430000    -2.3890890000
| 17>  C        6.2390850000    -1.3940180000    -2.3186090000
| 18>  C        7.4059310000    -1.6666930000    -2.2557350000
| 19>  H        2.1838120000    -0.6996870000     2.1152700000
| 20>  H        3.7166320000    -0.5553690000     1.6062770000
| 21>  H        2.6815650000     1.0612240000     0.2978140000
| 22>  H        1.2553490000     0.0261510000     0.1829090000
| 23>  H        2.5769390000     0.1622210000    -1.9199960000
| 24>  H        2.3315840000    -1.4894130000    -1.3289080000
| 25>  H        4.5326850000    -1.3822390000    -0.4122060000
| 26>  H        4.6648160000    -0.2716390000    -3.1037610000
| 27>  H        4.2954660000    -1.9670490000    -2.8092110000
| 28>  H        8.4426210000    -1.9008470000    -2.2013620000
| 29> *
| 30>
| 31>                          ****END OF INPUT****
 Total Charge           Charge          ....    0
 Multiplicity           Mult            ....    1
 Number of Electrons    NEL             ....   54
 Basis Dimension        Dim             ....  148

MULLIKEN ATOMIC CHARGES
-----------------------
   0 N :   -0.224069
   1 C :    0.046952
   2 C :    0.106755
   3 N :   -0.293372
   4 C :    0.195909
   5 C :    0.312428
   6 C :   -0.482900
   7 H :    0.093768
   8 H :    0.095704
   9 H :    0.003384
  10 H :    0.012428
  11 H :    0.000934
  12 H :   -0.014458
  13 H :    0.104258
  14 H :    0.030949
  15 H :    0.011778
  16 H :   -0.000449
Sum of atomic charges:   -0.0000000

LOEWDIN ATOMIC CHARGES
----------------------
   0 N :   -0.112194
   1 C :   -0.001509
   2 C :    0.003157
   3 N :   -0.099385
   4 C :    0.007650
   5 C :   -0.025364
   6 C :   -0.081529
   7 H :    0.055059
   8 H :    0.052347
   9 H :    0.006127
  10 H :    0.023977
  11 H :    0.019611
  12 H :   -0.000625
  13 H :    0.053282
  14 H :    0.042397
  15 H :    0.022687
  16 H :    0.034312

  Mayer bond orders larger than 0.1
B(  0-N ,  1-C ) :   1.1144 B(  0-N ,  7-H ) :   0.9691 B(  0-N ,  8-H ) :   0.9640
B(  1-C ,  2-C ) :   1.0799 B(  1-C ,  9-H ) :   0.9291 B(  1-C , 10-H ) :   0.9354
B(  2-C ,  3-N ) :   1.0286 B(  2-C , 11-H ) :   0.9271 B(  2-C , 12-H ) :   0.9092
B(  3-N ,  4-C ) :   1.0221 B(  3-N , 13-H ) :   0.9276 B(  4-C ,  5-C ) :   1.0383
B(  4-C , 14-H ) :   0.8940 B(  4-C , 15-H ) :   0.8866 B(  5-C ,  6-C ) :   2.3582
B(  5-C , 16-H ) :  -0.1077 B(  6-C , 16-H ) :   1.0986

FINAL SINGLE POINT ENERGY      -305.334001341210

DIPOLE MOMENT
-------------
                                X             Y             Z
Electronic contribution:      5.39457      -1.29952      -2.07292
Nuclear contribution   :     -5.75751       1.46254       2.40032
                        -----------------------------------------
Total Dipole Moment    :     -0.36293       0.16302       0.32740
                        -----------------------------------------
Magnitude (a.u.)       :      0.51526
Magnitude (Debye)      :      1.30967

                             ****ORCA TERMINATED NORMALLY****
TOTAL RUN TIME: 0 days 0 hours 0 minutes 7 seconds 479 msec
