                         Program Version 3.0.3 - RELEASE   -
|  1> ! RI PBE def2-SVP def2-SVP/J NBO PAL2
|  2> % maxcore 2000
|  3> % output
|  4>     # printlevel mini
|  5>     print[ P_Basis ] 0
|  6>     print[ P_SCFInfo ] 1
|  7>     print[ P_SCFIterInfo ] 1
|  8>     print[ P_OrbEn ] 0
|  9>     print[ P_Cartesian ] 0
| 10> end
| 11> *xyz 0 1
| 12>  N        1.7671150000    -1.2279550000    -0.9620770000
| 13>  C        2.7993940000    -0.7525000000    -0.7961950000
| 14>  C        4.1209260000    -0.1738830000    -0.5902510000
| 15>  N        4.4500600000    -0.1409230000     0.8229500000
| 16>  C        5.7393610000     0.4464130000     1.1017220000
| 17>  C        6.8735790000    -0.2321110000     0.4537970000
| 18>  N        7.7185100000    -0.7994600000    -0.0813120000
| 19>  H        4.1067700000     0.8518530000    -0.9739310000
| 20>  H        4.8395450000    -0.7377280000    -1.2057380000
| 21>  H        4.3856480000    -1.0696370000     1.2210650000
| 22>  H        5.9052890000     0.4466560000     2.1811490000
| 23>  H        5.7405930000     1.4928150000     0.7812300000
| 24> *
| 25>
| 26>                          ****END OF INPUT****
 Total Charge           Charge          ....    0
 Multiplicity           Mult            ....    1
 Number of Electrons    NEL             ....   50
 Basis Dimension        Dim             ....  123

MULLIKEN ATOMIC CHARGES
-----------------------
   0 N :    0.072946
   1 C :   -0.289729
   2 C :    0.186727
   3 N :   -0.263235
   4 C :    0.199994
   5 C :   -0.318763
   6 N :    0.043564
   7 H :    0.048798
   8 H :    0.061281
   9 H :    0.129098
  10 H :    0.073031
  11 H :    0.056287
Sum of atomic charges:   -0.0000000

LOEWDIN ATOMIC CHARGES
----------------------
   0 N :   -0.043576
   1 C :   -0.047918
   2 C :   -0.000151
   3 N :   -0.065569
   4 C :   -0.003202
   5 C :   -0.075339
   6 N :   -0.051562
   7 H :    0.056711
   8 H :    0.042056
   9 H :    0.071422
  10 H :    0.061228
  11 H :    0.055899

  Mayer bond orders larger than 0.1
B(  0-N ,  1-C ) :   3.0598 B(  1-C ,  2-C ) :   1.1272 B(  2-C ,  3-N ) :   1.0314
B(  2-C ,  7-H ) :   0.8839 B(  2-C ,  8-H ) :   0.8809 B(  3-N ,  4-C ) :   1.1141
B(  3-N ,  9-H ) :   0.9370 B(  4-C ,  5-C ) :   1.0121 B(  4-C , 10-H ) :   0.9112
B(  4-C , 11-H ) :   0.9041 B(  5-C ,  6-N ) :   3.0483

FINAL SINGLE POINT ENERGY      -319.006576817858

DIPOLE MOMENT
-------------
                                X             Y             Z
Electronic contribution:     -0.60846      -1.90947      -1.13183
Nuclear contribution   :      0.98983       2.78875       1.83102
                        -----------------------------------------
Total Dipole Moment    :      0.38137       0.87927       0.69920
                        -----------------------------------------
Magnitude (a.u.)       :      1.18636
Magnitude (Debye)      :      3.01548

                             ****ORCA TERMINATED NORMALLY****
TOTAL RUN TIME: 0 days 0 hours 0 minutes 5 seconds 835 msec
