                         Program Version 3.0.3 - RELEASE   -
|  1> ! RI PBE def2-SVP def2-SVP/J NBO PAL2
|  2> % maxcore 2000
|  3> % output
|  4>     # printlevel mini
|  5>     print[ P_Basis ] 0
|  6>     print[ P_SCFInfo ] 1
|  7>     print[ P_SCFIterInfo ] 1
|  8>     print[ P_OrbEn ] 0
|  9>     print[ P_Cartesian ] 0
| 10> end
| 11> *xyz 0 1
| 12>  N        2.4593570000    -0.3811490000    -0.9374950000
| 13>  C        2.4366690000     0.0586290000     0.2448350000
| 14>  C        1.3138320000    -0.1985230000     1.1420390000
| 15>  N        0.4312900000    -0.3977930000     1.8542120000
| 16>  N        3.5080090000     0.8195800000     0.7368980000
| 17>  C        3.8504380000     0.6703790000     2.1544530000
| 18>  C        3.1960800000     1.8964470000     1.6815260000
| 19>  H        1.6155400000    -0.9119990000    -1.1465270000
| 20>  H        4.9168250000     0.6484990000     2.3430670000
| 21>  H        3.2536250000    -0.0104920000     2.7544740000
| 22>  H        3.7681140000     2.8006490000     1.5129210000
| 23>  H        2.1571010000     2.0437840000     1.9618880000
| 24> *
| 25>
| 26>                          ****END OF INPUT****
 Total Charge           Charge          ....    0
 Multiplicity           Mult            ....    1
 Number of Electrons    NEL             ....   50
 Basis Dimension        Dim             ....  123

MULLIKEN ATOMIC CHARGES
-----------------------
   0 N :    0.026389
   1 C :   -0.101995
   2 C :   -0.183279
   3 N :    0.062583
   4 N :   -0.198946
   5 C :    0.014868
   6 C :    0.014672
   7 H :    0.106484
   8 H :    0.061882
   9 H :    0.068452
  10 H :    0.061402
  11 H :    0.067487
Sum of atomic charges:    0.0000000

LOEWDIN ATOMIC CHARGES
----------------------
   0 N :   -0.031893
   1 C :   -0.015647
   2 C :   -0.081655
   3 N :   -0.033303
   4 N :   -0.077574
   5 C :    0.026798
   6 C :    0.027565
   7 H :    0.067231
   8 H :    0.033502
   9 H :    0.025912
  10 H :    0.033382
  11 H :    0.025683

  Mayer bond orders larger than 0.1
B(  0-N ,  1-C ) :   2.0710 B(  0-N ,  3-N ) :   0.1135 B(  0-N ,  7-H ) :   0.9115
B(  1-C ,  2-C ) :   0.9300 B(  1-C ,  4-N ) :   1.1353 B(  2-C ,  3-N ) :   2.9886
B(  4-N ,  5-C ) :   0.9221 B(  4-N ,  6-C ) :   0.9209 B(  5-C ,  6-C ) :   1.0741
B(  5-C ,  8-H ) :   0.9479 B(  5-C ,  9-H ) :   0.9393 B(  6-C , 10-H ) :   0.9496
B(  6-C , 11-H ) :   0.9391

FINAL SINGLE POINT ENERGY      -318.976947403227

DIPOLE MOMENT
-------------
                                X             Y             Z
Electronic contribution:     -2.81621      -2.28496      -2.02579
Nuclear contribution   :      3.13613       2.58907       2.35386
                        -----------------------------------------
Total Dipole Moment    :      0.31992       0.30411       0.32807
                        -----------------------------------------
Magnitude (a.u.)       :      0.54997
Magnitude (Debye)      :      1.39790

                             ****ORCA TERMINATED NORMALLY****
TOTAL RUN TIME: 0 days 0 hours 0 minutes 5 seconds 988 msec
