                         Program Version 3.0.3 - RELEASE   -
|  1> ! RI PBE def2-SVP def2-SVP/J NBO PAL2
|  2> % maxcore 2000
|  3> % output
|  4>     # printlevel mini
|  5>     print[ P_Basis ] 0
|  6>     print[ P_SCFInfo ] 1
|  7>     print[ P_SCFIterInfo ] 1
|  8>     print[ P_OrbEn ] 0
|  9>     print[ P_Cartesian ] 0
| 10> end
| 11> *xyz 0 1
| 12>  N        1.8022310000     2.7689690000    -0.4235440000
| 13>  C        2.7513520000     2.1652040000    -0.1810040000
| 14>  C        3.8885190000     1.3747130000     0.1743060000
| 15>  N        4.9955940000     1.5746450000    -0.4119220000
| 16>  N        5.9985990000     0.7096070000     0.0636160000
| 17>  C        6.9437570000     0.4100600000    -1.0275930000
| 18>  C        7.3045110000     1.3909480000    -0.0040080000
| 19>  H        3.7626060000     0.6164200000     0.9481690000
| 20>  H        6.6700900000     0.7847440000    -2.0066080000
| 21>  H        7.3358120000    -0.5987770000    -0.9927610000
| 22>  H        7.2781130000     2.4378570000    -0.2815780000
| 23>  H        7.9704150000     1.1270100000     0.8081370000
| 24> *
| 25>
| 26>                          ****END OF INPUT****
 Total Charge           Charge          ....    0
 Multiplicity           Mult            ....    1
 Number of Electrons    NEL             ....   50
 Basis Dimension        Dim             ....  123

MULLIKEN ATOMIC CHARGES
-----------------------
   0 N :    0.053115
   1 C :   -0.032448
   2 C :   -0.083389
   3 N :   -0.055925
   4 N :   -0.239314
   5 C :    0.046836
   6 C :    0.040165
   7 H :    0.052753
   8 H :    0.051017
   9 H :    0.056673
  10 H :    0.050932
  11 H :    0.059585
Sum of atomic charges:   -0.0000000

LOEWDIN ATOMIC CHARGES
----------------------
   0 N :   -0.025826
   1 C :   -0.043200
   2 C :   -0.026689
   3 N :    0.001499
   4 N :   -0.073711
   5 C :    0.012992
   6 C :    0.011210
   7 H :    0.029067
   8 H :    0.026032
   9 H :    0.031145
  10 H :    0.025940
  11 H :    0.031542

  Mayer bond orders larger than 0.1
B(  0-N ,  1-C ) :   2.9835 B(  1-C ,  2-C ) :   1.0330 B(  2-C ,  3-N ) :   1.8978
B(  2-C ,  7-H ) :   0.9536 B(  3-N ,  4-N ) :   0.9734 B(  4-N ,  5-C ) :   0.9092
B(  4-N ,  6-C ) :   0.9124 B(  5-C ,  6-C ) :   1.1008 B(  5-C ,  8-H ) :   0.9375
B(  5-C ,  9-H ) :   0.9492 B(  6-C , 10-H ) :   0.9369 B(  6-C , 11-H ) :   0.9502

FINAL SINGLE POINT ENERGY      -318.952107875010

DIPOLE MOMENT
-------------
                                X             Y             Z
Electronic contribution:     -6.73434       2.04385       0.41581
Nuclear contribution   :      8.10901      -2.77145      -0.20616
                        -----------------------------------------
Total Dipole Moment    :      1.37467      -0.72760       0.20965
                        -----------------------------------------
Magnitude (a.u.)       :      1.56942
Magnitude (Debye)      :      3.98914

                             ****ORCA TERMINATED NORMALLY****
TOTAL RUN TIME: 0 days 0 hours 0 minutes 5 seconds 574 msec
