                         Program Version 3.0.3 - RELEASE   -
|  1> ! RI PBE def2-SVP def2-SVP/J NBO PAL2
|  2> % maxcore 2000
|  3> % output
|  4>     # printlevel mini
|  5>     print[ P_Basis ] 0
|  6>     print[ P_SCFInfo ] 1
|  7>     print[ P_SCFIterInfo ] 1
|  8>     print[ P_OrbEn ] 0
|  9>     print[ P_Cartesian ] 0
| 10> end
| 11> *xyz 0 1
| 12>  N        1.4823280000    -0.5045340000    -0.3357910000
| 13>  C        2.1784920000     0.5309300000    -0.4755180000
| 14>  N        2.5765220000     1.2819030000     0.6517890000
| 15>  C        3.9307030000     1.8143510000     0.5736090000
| 16>  C        2.7772970000     2.7137390000     0.3676780000
| 17>  C        2.3379470000     3.6498740000     1.3598520000
| 18>  C        1.9839450000     4.4583880000     2.1725790000
| 19>  H        1.2917690000    -0.9251590000    -1.2432140000
| 20>  H        2.5256160000     0.9193480000    -1.4502520000
| 21>  H        4.5275420000     1.5718730000    -0.3022590000
| 22>  H        4.4612380000     1.8304430000     1.5175190000
| 23>  H        2.6043070000     3.0264020000    -0.6608780000
| 24>  H        1.6636050000     5.1658410000     2.9003960000
| 25> *
| 26>
| 27>                          ****END OF INPUT****
 Total Charge           Charge          ....    0
 Multiplicity           Mult            ....    1
 Number of Electrons    NEL             ....   50
 Basis Dimension        Dim             ....  128

MULLIKEN ATOMIC CHARGES
-----------------------
   0 N :   -0.046587
   1 C :   -0.031965
   2 N :   -0.191873
   3 C :    0.107594
   4 C :   -0.097189
   5 C :    0.485600
   6 C :   -0.460781
   7 H :    0.103818
   8 H :   -0.018744
   9 H :    0.038359
  10 H :    0.054203
  11 H :    0.049045
  12 H :    0.008519
Sum of atomic charges:   -0.0000000

LOEWDIN ATOMIC CHARGES
----------------------
   0 N :   -0.081273
   1 C :    0.035315
   2 N :   -0.080355
   3 C :    0.040566
   4 C :    0.000303
   5 C :   -0.017812
   6 C :   -0.057802
   7 H :    0.058586
   8 H :   -0.021200
   9 H :    0.019397
  10 H :    0.034741
  11 H :    0.031920
  12 H :    0.037613

  Mayer bond orders larger than 0.1
B(  0-N ,  1-C ) :   2.0641 B(  0-N ,  7-H ) :   0.9230 B(  1-C ,  2-N ) :   1.0379
B(  1-C ,  8-H ) :   0.9100 B(  2-N ,  3-C ) :   0.9339 B(  2-N ,  4-C ) :   0.8756
B(  3-C ,  4-C ) :   1.0288 B(  3-C ,  9-H ) :   0.9309 B(  3-C , 10-H ) :   0.9394
B(  4-C ,  5-C ) :   0.9910 B(  4-C , 11-H ) :   0.9104 B(  5-C ,  6-C ) :   2.2971
B(  5-C , 12-H ) :  -0.1019 B(  6-C , 12-H ) :   1.0919

FINAL SINGLE POINT ENERGY      -302.899536452772

DIPOLE MOMENT
-------------
                                X             Y             Z
Electronic contribution:     -1.49181       0.41021       1.56478
Nuclear contribution   :      2.09549       0.04658      -2.47304
                        -----------------------------------------
Total Dipole Moment    :      0.60369       0.45678      -0.90827
                        -----------------------------------------
Magnitude (a.u.)       :      1.18239
Magnitude (Debye)      :      3.00538

                             ****ORCA TERMINATED NORMALLY****
TOTAL RUN TIME: 0 days 0 hours 0 minutes 5 seconds 978 msec
