                         Program Version 3.0.3 - RELEASE   -
|  1> ! RI PBE def2-SVP def2-SVP/J NBO PAL2
|  2> % maxcore 2000
|  3> % output
|  4>     # printlevel mini
|  5>     print[ P_Basis ] 0
|  6>     print[ P_SCFInfo ] 1
|  7>     print[ P_SCFIterInfo ] 1
|  8>     print[ P_OrbEn ] 0
|  9>     print[ P_Cartesian ] 0
| 10> end
| 11> *xyz 0 1
| 12>  N        1.2576640000     0.2536470000    -0.3217350000
| 13>  C        2.3697400000     0.0699490000     0.2413970000
| 14>  N        3.3240450000     1.0758330000     0.3162710000
| 15>  C        3.8859410000     1.5629710000     1.5417330000
| 16>  C        3.0288390000     2.4378110000     0.6745240000
| 17>  C        1.7318240000     2.8165990000     1.1770310000
| 18>  N        0.7311350000     3.1822710000     1.6089050000
| 19>  H        0.7151860000    -0.6045790000    -0.3434480000
| 20>  H        2.7349600000    -0.8747700000     0.6585070000
| 21>  H        4.9587100000     1.7217860000     1.5502870000
| 22>  H        3.4433660000     1.2382560000     2.4791100000
| 23>  H        3.4964110000     3.1947170000     0.0532380000
| 24> *
| 25>
| 26>                          ****END OF INPUT****
 Total Charge           Charge          ....    0
 Multiplicity           Mult            ....    1
 Number of Electrons    NEL             ....   50
 Basis Dimension        Dim             ....  123

MULLIKEN ATOMIC CHARGES
-----------------------
   0 N :   -0.113841
   1 C :    0.021050
   2 N :   -0.182302
   3 C :    0.102840
   4 C :   -0.104906
   5 C :   -0.099618
   6 N :    0.073151
   7 H :    0.107607
   8 H :    0.003530
   9 H :    0.060731
  10 H :    0.055519
  11 H :    0.076239
Sum of atomic charges:   -0.0000000

LOEWDIN ATOMIC CHARGES
----------------------
   0 N :   -0.117552
   1 C :    0.024990
   2 N :   -0.042581
   3 C :    0.051954
   4 C :   -0.001171
   5 C :   -0.047637
   6 N :   -0.043781
   7 H :    0.060874
   8 H :    0.000625
   9 H :    0.031969
  10 H :    0.029435
  11 H :    0.052874

  Mayer bond orders larger than 0.1
B(  0-N ,  1-C ) :   1.9627 B(  0-N ,  7-H ) :   0.9311 B(  1-C ,  2-N ) :   1.0749
B(  1-C ,  8-H ) :   0.9411 B(  2-N ,  3-C ) :   0.9630 B(  2-N ,  4-C ) :   0.9434
B(  3-C ,  4-C ) :   1.0263 B(  3-C ,  9-H ) :   0.9401 B(  3-C , 10-H ) :   0.9336
B(  4-C ,  5-C ) :   1.1031 B(  4-C , 11-H ) :   0.9126 B(  5-C ,  6-N ) :   3.0235

FINAL SINGLE POINT ENERGY      -318.985342097749

DIPOLE MOMENT
-------------
                                X             Y             Z
Electronic contribution:     -2.02479       2.20588      -0.39242
Nuclear contribution   :      3.43049      -3.04464       0.64271
                        -----------------------------------------
Total Dipole Moment    :      1.40570      -0.83876       0.25029
                        -----------------------------------------
Magnitude (a.u.)       :      1.65594
Magnitude (Debye)      :      4.20907

                             ****ORCA TERMINATED NORMALLY****
TOTAL RUN TIME: 0 days 0 hours 0 minutes 5 seconds 971 msec
