                         Program Version 3.0.3 - RELEASE   -
|  1> ! RI PBE def2-SVP def2-SVP/J NBO PAL2
|  2> % maxcore 2000
|  3> % output
|  4>     # printlevel mini
|  5>     print[ P_Basis ] 0
|  6>     print[ P_SCFInfo ] 1
|  7>     print[ P_SCFIterInfo ] 1
|  8>     print[ P_OrbEn ] 0
|  9>     print[ P_Cartesian ] 0
| 10> end
| 11> *xyz 0 1
| 12>  N        2.7408150000    -1.1642700000     0.1137830000
| 13>  C        2.1937720000    -0.0277530000     0.1203660000
| 14>  N        2.9215970000     1.1358900000    -0.0610250000
| 15>  C        2.3778730000     2.4031170000    -0.0633580000
| 16>  C        3.3858580000     3.2950320000    -0.2681420000
| 17>  C        4.5922320000     2.5464980000    -0.3960700000
| 18>  C        4.2785230000     1.2265510000    -0.2650880000
| 19>  H        2.0507830000    -1.8936640000     0.2616390000
| 20>  H        1.1279880000     0.1730690000     0.2630950000
| 21>  H        1.3190140000     2.5470540000     0.0820280000
| 22>  H        3.2785900000     4.3670200000    -0.3216340000
| 23>  H        5.5814410000     2.9421530000    -0.5660950000
| 24>  H        4.8780010000     0.3327020000    -0.2949880000
| 25> *
| 26>
| 27>                          ****END OF INPUT****
 Total Charge           Charge          ....    0
 Multiplicity           Mult            ....    1
 Number of Electrons    NEL             ....   50
 Basis Dimension        Dim             ....  128

MULLIKEN ATOMIC CHARGES
-----------------------
   0 N :   -0.113512
   1 C :    0.031707
   2 N :   -0.124471
   3 C :    0.060716
   4 C :   -0.025371
   5 C :   -0.016531
   6 C :    0.080164
   7 H :    0.106734
   8 H :    0.006030
   9 H :   -0.000159
  10 H :   -0.008385
  11 H :   -0.010015
  12 H :    0.013093
Sum of atomic charges:   -0.0000000

LOEWDIN ATOMIC CHARGES
----------------------
   0 N :   -0.122029
   1 C :    0.050204
   2 N :    0.076848
   3 C :   -0.026281
   4 C :   -0.072103
   5 C :   -0.064225
   6 C :   -0.007706
   7 H :    0.060912
   8 H :    0.003260
   9 H :    0.020011
  10 H :    0.027012
  11 H :    0.026813
  12 H :    0.027283

  Mayer bond orders larger than 0.1
B(  0-N ,  1-C ) :   1.9532 B(  0-N ,  7-H ) :   0.9303 B(  1-C ,  2-N ) :   1.0563
B(  1-C ,  8-H ) :   0.9414 B(  2-N ,  3-C ) :   1.1329 B(  2-N ,  6-C ) :   1.1496
B(  3-C ,  4-C ) :   1.5154 B(  3-C ,  9-H ) :   0.9842 B(  4-C ,  5-C ) :   1.2532
B(  4-C , 10-H ) :   1.0052 B(  5-C ,  6-C ) :   1.5042 B(  5-C , 11-H ) :   1.0061
B(  6-C , 12-H ) :   0.9939

FINAL SINGLE POINT ENERGY      -303.026536009948

DIPOLE MOMENT
-------------
                                X             Y             Z
Electronic contribution:      0.04754      -0.68282       0.04088
Nuclear contribution   :     -0.82743       0.65978       0.07830
                        -----------------------------------------
Total Dipole Moment    :     -0.77989      -0.02303       0.11918
                        -----------------------------------------
Magnitude (a.u.)       :      0.78928
Magnitude (Debye)      :      2.00620

                             ****ORCA TERMINATED NORMALLY****
TOTAL RUN TIME: 0 days 0 hours 0 minutes 6 seconds 221 msec
