                         Program Version 3.0.3 - RELEASE   -
|  1> ! RI PBE def2-SVP def2-SVP/J NBO PAL2
|  2> % maxcore 2000
|  3> % output
|  4>     # printlevel mini
|  5>     print[ P_Basis ] 0
|  6>     print[ P_SCFInfo ] 1
|  7>     print[ P_SCFIterInfo ] 1
|  8>     print[ P_OrbEn ] 0
|  9>     print[ P_Cartesian ] 0
| 10> end
| 11> *xyz 0 1
| 12>  N        2.5118000000    -1.0951010000    -0.1715480000
| 13>  C        2.1368640000     0.0517980000     0.2487510000
| 14>  N        2.9334370000     0.8413290000     0.9955210000
| 15>  C        2.5651520000     2.1475440000     1.5027540000
| 16>  C        3.9108460000     2.7610490000     1.8679470000
| 17>  C        4.7202660000     1.5492440000     2.3234490000
| 18>  C        4.2804360000     0.4473500000     1.3643800000
| 19>  H        1.7737990000    -1.5241700000    -0.7185670000
| 20>  H        1.1565360000     0.5008210000     0.0473490000
| 21>  H        1.9225210000     2.0694160000     2.3912310000
| 22>  H        2.0243460000     2.7277430000     0.7501100000
| 23>  H        3.8255310000     3.5386020000     2.6282400000
| 24>  H        4.3677210000     3.2050720000     0.9788100000
| 25>  H        4.4475750000     1.2844420000     3.3492760000
| 26>  H        5.7974630000     1.7179650000     2.3002940000
| 27>  H        4.2810120000    -0.5491600000     1.8126560000
| 28>  H        4.9154940000     0.3940670000     0.4721260000
| 29> *
| 30>
| 31>                          ****END OF INPUT****
 Total Charge           Charge          ....    0
 Multiplicity           Mult            ....    1
 Number of Electrons    NEL             ....   54
 Basis Dimension        Dim             ....  148

MULLIKEN ATOMIC CHARGES
-----------------------
   0 N :   -0.189955
   1 C :    0.020749
   2 N :   -0.305084
   3 C :    0.161162
   4 C :   -0.060646
   5 C :   -0.066622
   6 C :    0.195054
   7 H :    0.086192
   8 H :   -0.019441
   9 H :    0.017954
  10 H :    0.019527
  11 H :    0.025492
  12 H :    0.027244
  13 H :    0.022903
  14 H :    0.027568
  15 H :    0.019407
  16 H :    0.018495
Sum of atomic charges:    0.0000000

LOEWDIN ATOMIC CHARGES
----------------------
   0 N :   -0.197895
   1 C :    0.013394
   2 N :   -0.037209
   3 C :    0.033303
   4 C :   -0.043943
   5 C :   -0.046068
   6 C :    0.040727
   7 H :    0.045754
   8 H :   -0.008573
   9 H :    0.014594
  10 H :    0.022266
  11 H :    0.028799
  12 H :    0.029116
  13 H :    0.028062
  14 H :    0.030430
  15 H :    0.025656
  16 H :    0.021587

  Mayer bond orders larger than 0.1
B(  0-N ,  1-C ) :   1.8457 B(  0-N ,  7-H ) :   0.9361 B(  1-C ,  2-N ) :   1.1997
B(  1-C ,  8-H ) :   0.9398 B(  2-N ,  3-C ) :   0.9852 B(  2-N ,  6-C ) :   0.9773
B(  3-C ,  4-C ) :   1.0811 B(  3-C ,  9-H ) :   0.9372 B(  3-C , 10-H ) :   0.9355
B(  4-C ,  5-C ) :   1.1095 B(  4-C , 11-H ) :   0.9388 B(  4-C , 12-H ) :   0.9359
B(  5-C ,  6-C ) :   1.0733 B(  5-C , 13-H ) :   0.9335 B(  5-C , 14-H ) :   0.9397
B(  6-C , 15-H ) :   0.9349 B(  6-C , 16-H ) :   0.9394

FINAL SINGLE POINT ENERGY      -305.425155351063

DIPOLE MOMENT
-------------
                                X             Y             Z
Electronic contribution:     -1.74861      -2.64317      -1.93936
Nuclear contribution   :      1.53424       3.59142       2.29440
                        -----------------------------------------
Total Dipole Moment    :     -0.21437       0.94825       0.35504
                        -----------------------------------------
Magnitude (a.u.)       :      1.03498
Magnitude (Debye)      :      2.63071

                             ****ORCA TERMINATED NORMALLY****
TOTAL RUN TIME: 0 days 0 hours 0 minutes 7 seconds 718 msec
