                         Program Version 3.0.3 - RELEASE   -
|  1> ! RI PBE def2-SVP def2-SVP/J NBO PAL2
|  2> % maxcore 2000
|  3> % output
|  4>     # printlevel mini
|  5>     print[ P_Basis ] 0
|  6>     print[ P_SCFInfo ] 1
|  7>     print[ P_SCFIterInfo ] 1
|  8>     print[ P_OrbEn ] 0
|  9>     print[ P_Cartesian ] 0
| 10> end
| 11> *xyz 0 1
| 12>  N        2.5991500000     1.2586630000    -0.0812620000
| 13>  C        2.5404000000    -0.0155910000    -0.0295770000
| 14>  N        2.9324910000    -0.7947440000    -1.0573100000
| 15>  C        2.8903160000    -2.2434790000    -1.0603660000
| 16>  C        3.4287950000    -2.5683980000    -2.4172580000
| 17>  C        3.7338700000    -1.4680490000    -3.0907300000
| 18>  C        3.4481970000    -0.2381030000    -2.2924200000
| 19>  H        2.2605080000     1.6603930000     0.7858920000
| 20>  H        2.1757390000    -0.5916620000     0.8298730000
| 21>  H        1.8697740000    -2.6293680000    -0.9240680000
| 22>  H        3.5086230000    -2.6784690000    -0.2619460000
| 23>  H        3.5406190000    -3.5852970000    -2.7694450000
| 24>  H        4.1399350000    -1.4319750000    -4.0930940000
| 25>  H        2.7133120000     0.4247260000    -2.7676800000
| 26>  H        4.3398820000     0.3759640000    -2.1105100000
| 27> *
| 28>
| 29>                          ****END OF INPUT****
 Total Charge           Charge          ....    0
 Multiplicity           Mult            ....    1
 Number of Electrons    NEL             ....   52
 Basis Dimension        Dim             ....  138

MULLIKEN ATOMIC CHARGES
-----------------------
   0 N :   -0.182449
   1 C :    0.016401
   2 N :   -0.307750
   3 C :    0.235563
   4 C :   -0.114164
   5 C :   -0.081788
   6 C :    0.231029
   7 H :    0.087860
   8 H :   -0.017726
   9 H :    0.025959
  10 H :    0.029237
  11 H :    0.002983
  12 H :    0.004883
  13 H :    0.035625
  14 H :    0.034336
Sum of atomic charges:   -0.0000000

LOEWDIN ATOMIC CHARGES
----------------------
   0 N :   -0.195780
   1 C :    0.015299
   2 N :   -0.033121
   3 C :    0.038334
   4 C :   -0.043485
   5 C :   -0.030126
   6 C :    0.042441
   7 H :    0.047146
   8 H :   -0.007507
   9 H :    0.024144
  10 H :    0.024806
  11 H :    0.027256
  12 H :    0.028919
  13 H :    0.030851
  14 H :    0.030822

  Mayer bond orders larger than 0.1
B(  0-N ,  1-C ) :   1.8550 B(  0-N ,  7-H ) :   0.9320 B(  1-C ,  2-N ) :   1.1944
B(  1-C ,  8-H ) :   0.9395 B(  2-N ,  3-C ) :   0.9811 B(  2-N ,  6-C ) :   0.9775
B(  3-C ,  4-C ) :   1.0271 B(  3-C ,  9-H ) :   0.9161 B(  3-C , 10-H ) :   0.9166
B(  4-C ,  5-C ) :   1.8890 B(  4-C , 11-H ) :   0.9904 B(  5-C ,  6-C ) :   1.0162
B(  5-C , 12-H ) :   0.9850 B(  6-C , 13-H ) :   0.9190 B(  6-C , 14-H ) :   0.9179

FINAL SINGLE POINT ENERGY      -304.205162908678

DIPOLE MOMENT
-------------
                                X             Y             Z
Electronic contribution:     -0.03694       0.67344       0.14476
Nuclear contribution   :      0.00346      -1.63622      -0.13052
                        -----------------------------------------
Total Dipole Moment    :     -0.03348      -0.96278       0.01424
                        -----------------------------------------
Magnitude (a.u.)       :      0.96347
Magnitude (Debye)      :      2.44894

                             ****ORCA TERMINATED NORMALLY****
TOTAL RUN TIME: 0 days 0 hours 0 minutes 6 seconds 847 msec
