                         Program Version 3.0.3 - RELEASE   -
|  1> ! RI PBE def2-SVP def2-SVP/J NBO PAL2
|  2> % maxcore 2000
|  3> % output
|  4>     # printlevel mini
|  5>     print[ P_Basis ] 0
|  6>     print[ P_SCFInfo ] 1
|  7>     print[ P_SCFIterInfo ] 1
|  8>     print[ P_OrbEn ] 0
|  9>     print[ P_Cartesian ] 0
| 10> end
| 11> *xyz 0 1
| 12>  N        1.5159300000     0.0616070000    -0.9613380000
| 13>  C        2.4652640000     0.1144310000    -0.1128920000
| 14>  N        3.0338320000     1.2816030000     0.2828550000
| 15>  C        4.1231690000     1.3878950000     1.2511260000
| 16>  C        4.3993780000     2.9050400000     1.3510000000
| 17>  C        3.4038350000     3.5031770000     0.3951790000
| 18>  C        2.6728820000     2.5446620000    -0.1674270000
| 19>  H        1.2374200000    -0.9006200000    -1.1161870000
| 20>  H        2.9161940000    -0.7550080000     0.3790450000
| 21>  H        5.0002720000     0.8365090000     0.9013340000
| 22>  H        3.8218630000     0.9644810000     2.2131910000
| 23>  H        5.4302820000     3.1443820000     1.0730040000
| 24>  H        4.2592650000     3.2721270000     2.3722730000
| 25>  H        3.3032810000     4.5599890000     0.1998820000
| 26>  H        1.8755230000     2.6153350000    -0.8919440000
| 27> *
| 28>
| 29>                          ****END OF INPUT****
 Total Charge           Charge          ....    0
 Multiplicity           Mult            ....    1
 Number of Electrons    NEL             ....   52
 Basis Dimension        Dim             ....  138

MULLIKEN ATOMIC CHARGES
-----------------------
   0 N :   -0.169441
   1 C :    0.025942
   2 N :   -0.238949
   3 C :    0.147529
   4 C :    0.027975
   5 C :   -0.131547
   6 C :    0.127315
   7 H :    0.091952
   8 H :   -0.017339
   9 H :    0.027729
  10 H :    0.027322
  11 H :    0.027935
  12 H :    0.029867
  13 H :    0.001747
  14 H :    0.021962
Sum of atomic charges:   -0.0000000

LOEWDIN ATOMIC CHARGES
----------------------
   0 N :   -0.181631
   1 C :    0.017160
   2 N :   -0.002133
   3 C :    0.047437
   4 C :   -0.036692
   5 C :   -0.086610
   6 C :    0.028509
   7 H :    0.050036
   8 H :   -0.005956
   9 H :    0.024160
  10 H :    0.024039
  11 H :    0.031610
  12 H :    0.031869
  13 H :    0.025382
  14 H :    0.032819

  Mayer bond orders larger than 0.1
B(  0-N ,  1-C ) :   1.8740 B(  0-N ,  7-H ) :   0.9326 B(  1-C ,  2-N ) :   1.1503
B(  1-C ,  8-H ) :   0.9378 B(  2-N ,  3-C ) :   0.9740 B(  2-N ,  6-C ) :   1.0605
B(  3-C ,  4-C ) :   1.1007 B(  3-C ,  9-H ) :   0.9411 B(  3-C , 10-H ) :   0.9421
B(  4-C ,  5-C ) :   1.0698 B(  4-C , 11-H ) :   0.9248 B(  4-C , 12-H ) :   0.9251
B(  5-C ,  6-C ) :   1.7265 B(  5-C , 13-H ) :   0.9939 B(  6-C , 14-H ) :   0.9886

FINAL SINGLE POINT ENERGY      -304.210090913349

DIPOLE MOMENT
-------------
                                X             Y             Z
Electronic contribution:     -2.20840      -0.73978      -1.91333
Nuclear contribution   :      2.94493       0.52296       2.59681
                        -----------------------------------------
Total Dipole Moment    :      0.73653      -0.21682       0.68348
                        -----------------------------------------
Magnitude (a.u.)       :      1.02793
Magnitude (Debye)      :      2.61279

                             ****ORCA TERMINATED NORMALLY****
TOTAL RUN TIME: 0 days 0 hours 0 minutes 7 seconds 306 msec
