                         Program Version 3.0.3 - RELEASE   -
|  1> ! RI PBE def2-SVP def2-SVP/J NBO PAL2
|  2> % maxcore 2000
|  3> % output
|  4>     # printlevel mini
|  5>     print[ P_Basis ] 0
|  6>     print[ P_SCFInfo ] 1
|  7>     print[ P_SCFIterInfo ] 1
|  8>     print[ P_OrbEn ] 0
|  9>     print[ P_Cartesian ] 0
| 10> end
| 11> *xyz 0 1
| 12>  N        0.9438630000    -1.1056870000    -0.9139030000
| 13>  C        2.1513550000    -0.8308720000    -0.6219030000
| 14>  N        3.1932480000    -1.2136400000    -1.3996790000
| 15>  C        4.5662620000    -0.9411800000    -1.1339150000
| 16>  C        5.5923270000    -2.0934290000    -1.1010690000
| 17>  C        6.6189170000    -1.1227330000    -1.7147630000
| 18>  C        5.4420380000    -0.2586210000    -2.2056870000
| 19>  H        0.3157400000    -0.7338670000    -0.2107550000
| 20>  H        2.4710960000    -0.2703820000     0.2655220000
| 21>  H        2.9507430000    -1.7332390000    -2.2295960000
| 22>  H        4.6163530000    -0.3747220000    -0.1998040000
| 23>  H        5.3107880000    -2.8711710000    -1.8162470000
| 24>  H        5.8116530000    -2.5617750000    -0.1402740000
| 25>  H        7.3053760000    -1.5171620000    -2.4633370000
| 26>  H        7.1989430000    -0.6111570000    -0.9439400000
| 27>  H        5.1217310000    -0.5629250000    -3.2059020000
| 28>  H        5.5339670000     0.8283620000    -2.1812680000
| 29> *
| 30>
| 31>                          ****END OF INPUT****
 Total Charge           Charge          ....    0
 Multiplicity           Mult            ....    1
 Number of Electrons    NEL             ....   54
 Basis Dimension        Dim             ....  148

MULLIKEN ATOMIC CHARGES
-----------------------
   0 N :   -0.172155
   1 C :   -0.031290
   2 N :   -0.051111
   3 C :   -0.103626
   4 C :    0.070097
   5 C :   -0.046014
   6 C :    0.054941
   7 H :    0.090191
   8 H :   -0.014959
   9 H :    0.102598
  10 H :    0.010552
  11 H :    0.005222
  12 H :    0.015206
  13 H :    0.017216
  14 H :    0.023906
  15 H :    0.003932
  16 H :    0.025294
Sum of atomic charges:   -0.0000000

LOEWDIN ATOMIC CHARGES
----------------------
   0 N :   -0.194695
   1 C :    0.016638
   2 N :    0.010119
   3 C :    0.015532
   4 C :   -0.038063
   5 C :   -0.036229
   6 C :   -0.041084
   7 H :    0.047633
   8 H :   -0.008309
   9 H :    0.071558
  10 H :    0.026350
  11 H :    0.024167
  12 H :    0.017149
  13 H :    0.020028
  14 H :    0.025983
  15 H :    0.024110
  16 H :    0.019115

  Mayer bond orders larger than 0.1
B(  0-N ,  1-C ) :   1.8968 B(  0-N ,  7-H ) :   0.9379 B(  1-C ,  2-N ) :   1.1940
B(  1-C ,  8-H ) :   0.9302 B(  2-N ,  3-C ) :   1.0672 B(  2-N ,  9-H ) :   0.9135
B(  3-C ,  4-C ) :   1.0570 B(  3-C ,  6-C ) :   1.0580 B(  3-C , 10-H ) :   0.9037
B(  4-C ,  5-C ) :   1.1075 B(  4-C , 11-H ) :   0.9139 B(  4-C , 12-H ) :   0.9341
B(  5-C ,  6-C ) :   1.1087 B(  5-C , 13-H ) :   0.9324 B(  5-C , 14-H ) :   0.9409
B(  6-C , 15-H ) :   0.9115 B(  6-C , 16-H ) :   0.9340

FINAL SINGLE POINT ENERGY      -305.401733039268

DIPOLE MOMENT
-------------
                                X             Y             Z
Electronic contribution:     -4.81001      -0.14034       0.41947
Nuclear contribution   :      5.71860       0.36656      -0.16929
                        -----------------------------------------
Total Dipole Moment    :      0.90859       0.22622       0.25018
                        -----------------------------------------
Magnitude (a.u.)       :      0.96918
Magnitude (Debye)      :      2.46345

                             ****ORCA TERMINATED NORMALLY****
TOTAL RUN TIME: 0 days 0 hours 0 minutes 7 seconds 736 msec
