                         Program Version 3.0.3 - RELEASE   -
|  1> ! RI PBE def2-SVP def2-SVP/J NBO PAL2
|  2> % maxcore 2000
|  3> % output
|  4>     # printlevel mini
|  5>     print[ P_Basis ] 0
|  6>     print[ P_SCFInfo ] 1
|  7>     print[ P_SCFIterInfo ] 1
|  8>     print[ P_OrbEn ] 0
|  9>     print[ P_Cartesian ] 0
| 10> end
| 11> *xyz 0 1
| 12>  N        2.6139640000     1.4050040000     0.0570200000
| 13>  C        2.2481650000     0.0780290000     0.0152400000
| 14>  N        1.3902630000    -0.4399550000    -0.7694620000
| 15>  C        2.9867280000    -0.7790840000     0.9985110000
| 16>  C        2.5400510000    -0.7201170000     2.4842690000
| 17>  C        2.7819870000    -2.2387000000     2.5633720000
| 18>  C        2.7181660000    -2.2888520000     1.0249050000
| 19>  H        2.0010320000     2.0747170000    -0.3770380000
| 20>  H        3.0830520000     1.7353440000     0.8833060000
| 21>  H        0.9562440000     0.2620020000    -1.3680650000
| 22>  H        4.0590550000    -0.5693980000     0.9225200000
| 23>  H        1.4768420000    -0.4794750000     2.5556680000
| 24>  H        3.0980970000    -0.0737360000     3.1648030000
| 25>  H        2.0605560000    -2.8353030000     3.1229560000
| 26>  H        3.7838500000    -2.4633910000     2.9360810000
| 27>  H        1.7126210000    -2.4887640000     0.6542040000
| 28>  H        3.4238470000    -2.9335110000     0.5003400000
| 29> *
| 30>
| 31>                          ****END OF INPUT****
 Total Charge           Charge          ....    0
 Multiplicity           Mult            ....    1
 Number of Electrons    NEL             ....   54
 Basis Dimension        Dim             ....  148

MULLIKEN ATOMIC CHARGES
-----------------------
   0 N :   -0.047744
   1 C :   -0.142873
   2 N :   -0.095837
   3 C :   -0.193288
   4 C :    0.049169
   5 C :   -0.019425
   6 C :    0.094787
   7 H :    0.098044
   8 H :    0.101038
   9 H :    0.067502
  10 H :    0.019992
  11 H :    0.008497
  12 H :    0.008257
  13 H :    0.013178
  14 H :    0.007518
  15 H :    0.017836
  16 H :    0.013350
Sum of atomic charges:    0.0000000

LOEWDIN ATOMIC CHARGES
----------------------
   0 N :   -0.018129
   1 C :    0.000293
   2 N :   -0.171514
   3 C :   -0.049973
   4 C :   -0.026698
   5 C :   -0.034452
   6 C :   -0.018789
   7 H :    0.062501
   8 H :    0.067991
   9 H :    0.035919
  10 H :    0.029910
  11 H :    0.025723
  12 H :    0.011497
  13 H :    0.017198
  14 H :    0.021470
  15 H :    0.029004
  16 H :    0.018054

  Mayer bond orders larger than 0.1
B(  0-N ,  1-C ) :   1.2252 B(  0-N ,  7-H ) :   0.9466 B(  0-N ,  8-H ) :   0.9392
B(  1-C ,  2-N ) :   2.0463 B(  1-C ,  3-C ) :   0.9360 B(  2-N ,  9-H ) :   0.9261
B(  3-C ,  4-C ) :   1.0856 B(  3-C ,  6-C ) :   1.1050 B(  3-C , 10-H ) :   0.8977
B(  4-C ,  5-C ) :   1.1317 B(  4-C , 11-H ) :   0.9178 B(  4-C , 12-H ) :   0.9320
B(  5-C ,  6-C ) :   1.1159 B(  5-C , 13-H ) :   0.9355 B(  5-C , 14-H ) :   0.9339
B(  6-C , 15-H ) :   0.9031 B(  6-C , 16-H ) :   0.9332

FINAL SINGLE POINT ENERGY      -305.408230423979

DIPOLE MOMENT
-------------
                                X             Y             Z
Electronic contribution:     -0.71407       2.08576      -3.26733
Nuclear contribution   :      0.98987      -0.99195       3.74364
                        -----------------------------------------
Total Dipole Moment    :      0.27580       1.09381       0.47630
                        -----------------------------------------
Magnitude (a.u.)       :      1.22448
Magnitude (Debye)      :      3.11238

                             ****ORCA TERMINATED NORMALLY****
TOTAL RUN TIME: 0 days 0 hours 0 minutes 7 seconds 338 msec
