                         Program Version 3.0.3 - RELEASE   -
|  1> ! RI PBE def2-SVP def2-SVP/J NBO PAL2
|  2> % maxcore 2000
|  3> % output
|  4>     # printlevel mini
|  5>     print[ P_Basis ] 0
|  6>     print[ P_SCFInfo ] 1
|  7>     print[ P_SCFIterInfo ] 1
|  8>     print[ P_OrbEn ] 0
|  9>     print[ P_Cartesian ] 0
| 10> end
| 11> *xyz 0 1
| 12>  N        2.5125800000    -0.0832720000    -0.4757390000
| 13>  C        2.1311930000     0.1313580000     0.7206600000
| 14>  N        2.7838430000    -0.3751180000     1.7945170000
| 15>  C        3.8826150000    -1.3011680000     1.6518310000
| 16>  C        4.5680090000    -1.5134080000     2.9677150000
| 17>  C        3.9874870000    -2.4824140000     3.9584570000
| 18>  C        5.2602710000    -2.8096720000     3.2384730000
| 19>  H        1.9196950000     0.4163810000    -1.1289870000
| 20>  H        1.2699020000     0.7492320000     1.0015140000
| 21>  H        2.3204050000    -0.3443270000     2.6853500000
| 22>  H        4.5714490000    -0.8935050000     0.9075690000
| 23>  H        3.5334980000    -2.2633650000     1.2509400000
| 24>  H        5.0328860000    -0.6248360000     3.3839130000
| 25>  H        3.0952000000    -3.0253980000     3.6675740000
| 26>  H        4.0427030000    -2.2406120000     5.0125000000
| 27>  H        5.2216360000    -3.5697660000     2.4672680000
| 28>  H        6.1862370000    -2.7874120000     3.7986420000
| 29> *
| 30>
| 31>                          ****END OF INPUT****
 Total Charge           Charge          ....    0
 Multiplicity           Mult            ....    1
 Number of Electrons    NEL             ....   54
 Basis Dimension        Dim             ....  148

MULLIKEN ATOMIC CHARGES
-----------------------
   0 N :   -0.195282
   1 C :    0.004464
   2 N :   -0.156864
   3 C :    0.244747
   4 C :   -0.204052
   5 C :   -0.045756
   6 C :   -0.029495
   7 H :    0.087943
   8 H :   -0.016482
   9 H :    0.110850
  10 H :    0.029389
  11 H :   -0.004907
  12 H :    0.025838
  13 H :    0.033882
  14 H :    0.039927
  15 H :    0.039797
  16 H :    0.036002
Sum of atomic charges:   -0.0000000

LOEWDIN ATOMIC CHARGES
----------------------
   0 N :   -0.195540
   1 C :    0.013891
   2 N :   -0.007937
   3 C :    0.037354
   4 C :   -0.053765
   5 C :   -0.053403
   6 C :   -0.039422
   7 H :    0.047473
   8 H :   -0.009053
   9 H :    0.069588
  10 H :    0.033979
  11 H :    0.018321
  12 H :    0.027164
  13 H :    0.025619
  14 H :    0.028068
  15 H :    0.028692
  16 H :    0.028971

  Mayer bond orders larger than 0.1
B(  0-N ,  1-C ) :   1.8577 B(  0-N ,  2-N ) :   0.1022 B(  0-N ,  7-H ) :   0.9381
B(  1-C ,  2-N ) :   1.2195 B(  1-C ,  8-H ) :   0.9400 B(  2-N ,  3-C ) :   0.9954
B(  2-N ,  9-H ) :   0.9363 B(  3-C ,  4-C ) :   1.0699 B(  3-C , 10-H ) :   0.9223
B(  3-C , 11-H ) :   0.9195 B(  4-C ,  5-C ) :   0.9776 B(  4-C ,  6-C ) :   0.9926
B(  4-C , 12-H ) :   0.9456 B(  5-C ,  6-C ) :   1.0485 B(  5-C , 13-H ) :   0.9486
B(  5-C , 14-H ) :   0.9479 B(  6-C , 15-H ) :   0.9476 B(  6-C , 16-H ) :   0.9461

FINAL SINGLE POINT ENERGY      -305.395950262039

DIPOLE MOMENT
-------------
                                X             Y             Z
Electronic contribution:     -1.78237       2.58122      -2.32943
Nuclear contribution   :      1.44287      -2.49611       3.22710
                        -----------------------------------------
Total Dipole Moment    :     -0.33950       0.08511       0.89767
                        -----------------------------------------
Magnitude (a.u.)       :      0.96349
Magnitude (Debye)      :      2.44900

                             ****ORCA TERMINATED NORMALLY****
TOTAL RUN TIME: 0 days 0 hours 0 minutes 7 seconds 391 msec
