                         Program Version 3.0.3 - RELEASE   -
|  1> ! RI PBE def2-SVP def2-SVP/J NBO PAL2
|  2> % maxcore 2000
|  3> % output
|  4>     # printlevel mini
|  5>     print[ P_Basis ] 0
|  6>     print[ P_SCFInfo ] 1
|  7>     print[ P_SCFIterInfo ] 1
|  8>     print[ P_OrbEn ] 0
|  9>     print[ P_Cartesian ] 0
| 10> end
| 11> *xyz 0 1
| 12>  N        2.7584350000     0.9292040000     1.1216190000
| 13>  C        2.4359300000     0.2296930000    -0.0166430000
| 14>  N        1.5052560000     0.5095150000    -0.8395360000
| 15>  C        3.2456100000    -1.0250020000    -0.2298070000
| 16>  C        4.7363680000    -0.8386600000    -0.1146970000
| 17>  C        5.4365690000    -1.0123140000     1.2070520000
| 18>  C        5.6128370000    -2.0264510000     0.1179890000
| 19>  H        2.3934630000     1.8622320000     1.2135980000
| 20>  H        3.6810310000     0.7881930000     1.4984330000
| 21>  H        1.0152400000     1.3637040000    -0.5727920000
| 22>  H        2.9753920000    -1.4047500000    -1.2158730000
| 23>  H        2.9211200000    -1.7705450000     0.5064840000
| 24>  H        5.1467280000    -0.0735830000    -0.7673350000
| 25>  H        4.8378910000    -1.3021480000     2.0637380000
| 26>  H        6.2735530000    -0.3657470000     1.4417550000
| 27>  H        5.1289650000    -2.9879030000     0.2434980000
| 28>  H        6.5678110000    -2.0687290000    -0.3900850000
| 29> *
| 30>
| 31>                          ****END OF INPUT****
 Total Charge           Charge          ....    0
 Multiplicity           Mult            ....    1
 Number of Electrons    NEL             ....   54
 Basis Dimension        Dim             ....  148

MULLIKEN ATOMIC CHARGES
-----------------------
   0 N :   -0.045226
   1 C :   -0.260856
   2 N :   -0.092796
   3 C :    0.216888
   4 C :   -0.217829
   5 C :   -0.053667
   6 C :   -0.007632
   7 H :    0.099247
   8 H :    0.102633
   9 H :    0.065311
  10 H :    0.010271
  11 H :    0.012648
  12 H :    0.027485
  13 H :    0.037574
  14 H :    0.036439
  15 H :    0.035073
  16 H :    0.034435
Sum of atomic charges:   -0.0000000

LOEWDIN ATOMIC CHARGES
----------------------
   0 N :   -0.017333
   1 C :    0.000088
   2 N :   -0.178298
   3 C :   -0.035237
   4 C :   -0.051238
   5 C :   -0.059098
   6 C :   -0.038707
   7 H :    0.062513
   8 H :    0.065894
   9 H :    0.034179
  10 H :    0.040519
  11 H :    0.038104
  12 H :    0.029940
  13 H :    0.024560
  14 H :    0.026641
  15 H :    0.028333
  16 H :    0.029140

  Mayer bond orders larger than 0.1
B(  0-N ,  1-C ) :   1.2208 B(  0-N ,  7-H ) :   0.9481 B(  0-N ,  8-H ) :   0.9277
B(  1-C ,  2-N ) :   2.0389 B(  1-C ,  3-C ) :   0.9883 B(  2-N ,  9-H ) :   0.9302
B(  3-C ,  4-C ) :   1.0607 B(  3-C , 10-H ) :   0.9023 B(  3-C , 11-H ) :   0.9003
B(  4-C ,  5-C ) :   0.9624 B(  4-C ,  6-C ) :   0.9840 B(  4-C , 12-H ) :   0.9552
B(  5-C ,  6-C ) :   1.0494 B(  5-C , 13-H ) :   0.9451 B(  5-C , 14-H ) :   0.9482
B(  6-C , 15-H ) :   0.9475 B(  6-C , 16-H ) :   0.9432

FINAL SINGLE POINT ENERGY      -305.404568778677

DIPOLE MOMENT
-------------
                                X             Y             Z
Electronic contribution:     -3.29488       2.03748      -1.05998
Nuclear contribution   :      4.09341      -1.56557       1.90037
                        -----------------------------------------
Total Dipole Moment    :      0.79853       0.47191       0.84039
                        -----------------------------------------
Magnitude (a.u.)       :      1.25164
Magnitude (Debye)      :      3.18142

                             ****ORCA TERMINATED NORMALLY****
TOTAL RUN TIME: 0 days 0 hours 0 minutes 7 seconds 525 msec
