                         Program Version 3.0.3 - RELEASE   -
|  1> ! RI PBE def2-SVP def2-SVP/J NBO PAL2
|  2> % maxcore 2000
|  3> % output
|  4>     # printlevel mini
|  5>     print[ P_Basis ] 0
|  6>     print[ P_SCFInfo ] 1
|  7>     print[ P_SCFIterInfo ] 1
|  8>     print[ P_OrbEn ] 0
|  9>     print[ P_Cartesian ] 0
| 10> end
| 11> *xyz 0 1
| 12>  N        0.9719390000    -0.0999240000    -0.0504800000
| 13>  C        2.2379750000    -0.0715680000    -0.0244420000
| 14>  N        2.9784960000    -0.9187790000    -0.8023910000
| 15>  C        4.3444620000    -0.9547490000    -0.8354230000
| 16>  C        5.0756260000    -1.7844460000    -1.5972910000
| 17>  C        6.4861220000    -1.7787200000    -1.5920350000
| 18>  C        7.6907390000    -1.7982590000    -1.6099790000
| 19>  H        0.5824160000     0.5896490000     0.5827180000
| 20>  H        2.8546670000     0.5949640000     0.5875980000
| 21>  H        2.4483230000    -1.5520560000    -1.3838950000
| 22>  H        4.8320620000    -0.2410020000    -0.1800270000
| 23>  H        4.5813050000    -2.4975830000    -2.2521260000
| 24>  H        8.7544060000    -1.8115070000    -1.6221460000
| 25> *
| 26>
| 27>                          ****END OF INPUT****
 Total Charge           Charge          ....    0
 Multiplicity           Mult            ....    1
 Number of Electrons    NEL             ....   50
 Basis Dimension        Dim             ....  128

MULLIKEN ATOMIC CHARGES
-----------------------
   0 N :   -0.133274
   1 C :   -0.024964
   2 N :   -0.025231
   3 C :    0.067492
   4 C :   -0.101411
   5 C :    0.363725
   6 C :   -0.417351
   7 H :    0.103241
   8 H :    0.006975
   9 H :    0.121399
  10 H :    0.019404
  11 H :    0.021038
  12 H :   -0.001043
Sum of atomic charges:    0.0000000

LOEWDIN ATOMIC CHARGES
----------------------
   0 N :   -0.153363
   1 C :    0.027672
   2 N :    0.064391
   3 C :    0.030828
   4 C :   -0.112231
   5 C :   -0.025023
   6 C :   -0.087265
   7 H :    0.056879
   8 H :    0.001923
   9 H :    0.088971
  10 H :    0.034889
  11 H :    0.039761
  12 H :    0.032568

  Mayer bond orders larger than 0.1
B(  0-N ,  1-C ) :   1.9279 B(  0-N ,  7-H ) :   0.9321 B(  1-C ,  2-N ) :   1.1356
B(  1-C ,  8-H ) :   0.9373 B(  2-N ,  3-C ) :   1.1798 B(  2-N ,  9-H ) :   0.9165
B(  3-C ,  4-C ) :   1.6680 B(  3-C ,  6-C ) :   0.1101 B(  3-C , 10-H ) :   0.9557
B(  4-C ,  5-C ) :   1.1026 B(  4-C , 11-H ) :   0.9380 B(  5-C ,  6-C ) :   2.2625
B(  6-C , 12-H ) :   1.0903

FINAL SINGLE POINT ENERGY      -302.954304097171

DIPOLE MOMENT
-------------
                                X             Y             Z
Electronic contribution:      0.70158      -0.75503      -0.69319
Nuclear contribution   :     -0.77630       1.13073       1.03829
                        -----------------------------------------
Total Dipole Moment    :     -0.07472       0.37570       0.34510
                        -----------------------------------------
Magnitude (a.u.)       :      0.51559
Magnitude (Debye)      :      1.31052

                             ****ORCA TERMINATED NORMALLY****
TOTAL RUN TIME: 0 days 0 hours 0 minutes 5 seconds 236 msec
