                         Program Version 3.0.3 - RELEASE   -
|  1> ! RI PBE def2-SVP def2-SVP/J NBO PAL2
|  2> % maxcore 2000
|  3> % output
|  4>     # printlevel mini
|  5>     print[ P_Basis ] 0
|  6>     print[ P_SCFInfo ] 1
|  7>     print[ P_SCFIterInfo ] 1
|  8>     print[ P_OrbEn ] 0
|  9>     print[ P_Cartesian ] 0
| 10> end
| 11> *xyz 0 1
| 12>  N        2.8864260000     1.9525020000    -2.6080940000
| 13>  C        2.2694170000     2.0248070000    -1.4968240000
| 14>  N        2.8719930000     1.7631550000    -0.3074410000
| 15>  C        4.2934390000     1.5523980000    -0.2246670000
| 16>  C        5.1094070000     2.8491070000    -0.2970990000
| 17>  C        4.8154560000     3.7526630000     0.8015020000
| 18>  C        4.5452270000     4.4741090000     1.7233930000
| 19>  H        2.2517800000     2.1290810000    -3.3784290000
| 20>  H        1.2079740000     2.2737890000    -1.3863040000
| 21>  H        2.4029720000     2.0844220000     0.5213690000
| 22>  H        4.5830960000     0.9140320000    -1.0604800000
| 23>  H        4.5115640000     1.0264770000     0.7070490000
| 24>  H        4.8974150000     3.3385060000    -1.2521140000
| 25>  H        6.1761140000     2.6019590000    -0.2923690000
| 26>  H        4.3227210000     5.1270130000     2.5338110000
| 27> *
| 28>
| 29>                          ****END OF INPUT****
 Total Charge           Charge          ....    0
 Multiplicity           Mult            ....    1
 Number of Electrons    NEL             ....   52
 Basis Dimension        Dim             ....  138

MULLIKEN ATOMIC CHARGES
-----------------------
   0 N :   -0.193550
   1 C :    0.011409
   2 N :   -0.140133
   3 C :    0.088490
   4 C :    0.078068
   5 C :    0.293361
   6 C :   -0.486016
   7 H :    0.090560
   8 H :   -0.006302
   9 H :    0.118747
  10 H :    0.034323
  11 H :    0.023275
  12 H :    0.051046
  13 H :    0.039985
  14 H :   -0.003264
Sum of atomic charges:    0.0000000

LOEWDIN ATOMIC CHARGES
----------------------
   0 N :   -0.193768
   1 C :    0.021927
   2 N :    0.001050
   3 C :    0.032844
   4 C :   -0.056237
   5 C :   -0.025445
   6 C :   -0.100389
   7 H :    0.049778
   8 H :   -0.004092
   9 H :    0.073696
  10 H :    0.035208
  11 H :    0.026222
  12 H :    0.054033
  13 H :    0.051872
  14 H :    0.033300

  Mayer bond orders larger than 0.1
B(  0-N ,  1-C ) :   1.8473 B(  0-N ,  7-H ) :   0.9378 B(  1-C ,  2-N ) :   1.2165
B(  1-C ,  8-H ) :   0.9386 B(  2-N ,  3-C ) :   1.0431 B(  2-N ,  9-H ) :   0.9351
B(  3-C ,  4-C ) :   1.0664 B(  3-C , 10-H ) :   0.9165 B(  3-C , 11-H ) :   0.9453
B(  4-C ,  5-C ) :   1.0649 B(  4-C , 12-H ) :   0.8887 B(  4-C , 13-H ) :   0.8930
B(  5-C ,  6-C ) :   2.3498 B(  5-C , 14-H ) :  -0.1106 B(  6-C , 14-H ) :   1.1021

FINAL SINGLE POINT ENERGY      -304.157859746538

DIPOLE MOMENT
-------------
                                X             Y             Z
Electronic contribution:     -0.56059       1.07748       0.89834
Nuclear contribution   :      0.05770      -1.05622      -0.39863
                        -----------------------------------------
Total Dipole Moment    :     -0.50288       0.02126       0.49971
                        -----------------------------------------
Magnitude (a.u.)       :      0.70926
Magnitude (Debye)      :      1.80280

                             ****ORCA TERMINATED NORMALLY****
TOTAL RUN TIME: 0 days 0 hours 0 minutes 6 seconds 773 msec
