                         Program Version 3.0.3 - RELEASE   -
|  1> ! RI PBE def2-SVP def2-SVP/J NBO PAL2
|  2> % maxcore 2000
|  3> % output
|  4>     # printlevel mini
|  5>     print[ P_Basis ] 0
|  6>     print[ P_SCFInfo ] 1
|  7>     print[ P_SCFIterInfo ] 1
|  8>     print[ P_OrbEn ] 0
|  9>     print[ P_Cartesian ] 0
| 10> end
| 11> *xyz 0 1
| 12>  N        3.6851860000    -0.8261640000     1.1690710000
| 13>  C        2.7230180000    -0.1666930000     0.4320360000
| 14>  N        1.5395660000     0.1166110000     0.8255200000
| 15>  C        3.1139270000     0.3015700000    -0.9020410000
| 16>  C        4.3512920000     0.3017880000    -1.4116670000
| 17>  C        4.6709680000     0.7887630000    -2.7343550000
| 18>  C        5.9029030000     0.8055840000    -3.2441850000
| 19>  H        3.3572990000    -1.3023710000     1.9930060000
| 20>  H        4.3781400000    -1.3425230000     0.6533910000
| 21>  H        1.3593990000    -0.2452430000     1.7616120000
| 22>  H        2.2839590000     0.6975090000    -1.4773400000
| 23>  H        5.1912160000    -0.0536820000    -0.8179510000
| 24>  H        3.8390690000     1.1591960000    -3.3287800000
| 25>  H        6.7540210000     0.4447090000    -2.6754690000
| 26>  H        6.0996350000     1.1803450000    -4.2409490000
| 27> *
| 28>
| 29>                          ****END OF INPUT****
 Total Charge           Charge          ....    0
 Multiplicity           Mult            ....    1
 Number of Electrons    NEL             ....   52
 Basis Dimension        Dim             ....  138

MULLIKEN ATOMIC CHARGES
-----------------------
   0 N :   -0.059349
   1 C :   -0.178951
   2 N :   -0.094477
   3 C :    0.060854
   4 C :    0.000961
   5 C :   -0.000903
   6 C :   -0.027961
   7 H :    0.099074
   8 H :    0.109258
   9 H :    0.070095
  10 H :   -0.007174
  11 H :   -0.018933
  12 H :   -0.000756
  13 H :    0.018692
  14 H :    0.029569
Sum of atomic charges:   -0.0000000

LOEWDIN ATOMIC CHARGES
----------------------
   0 N :   -0.021711
   1 C :   -0.005605
   2 N :   -0.156148
   3 C :   -0.025166
   4 C :   -0.031123
   5 C :   -0.027065
   6 C :   -0.044971
   7 H :    0.064620
   8 H :    0.065961
   9 H :    0.036903
  10 H :    0.038295
  11 H :    0.022458
  12 H :    0.032789
  13 H :    0.023135
  14 H :    0.027627

  Mayer bond orders larger than 0.1
B(  0-N ,  1-C ) :   1.2200 B(  0-N ,  7-H ) :   0.9473 B(  0-N ,  8-H ) :   0.9278
B(  1-C ,  2-N ) :   1.9528 B(  1-C ,  3-C ) :   1.0212 B(  2-N ,  9-H ) :   0.9301
B(  3-C ,  4-C ) :   1.6605 B(  3-C ,  6-C ) :   0.1299 B(  3-C , 10-H ) :   0.9632
B(  4-C ,  5-C ) :   1.1532 B(  4-C , 11-H ) :   0.9475 B(  5-C ,  6-C ) :   1.8716
B(  5-C , 12-H ) :   0.9639 B(  6-C , 13-H ) :   0.9470 B(  6-C , 14-H ) :   0.9419

FINAL SINGLE POINT ENERGY      -304.199014256587

DIPOLE MOMENT
-------------
                                X             Y             Z
Electronic contribution:     -2.55233      -0.13134       2.02040
Nuclear contribution   :      3.39355      -0.67189      -1.78057
                        -----------------------------------------
Total Dipole Moment    :      0.84122      -0.80323       0.23984
                        -----------------------------------------
Magnitude (a.u.)       :      1.18758
Magnitude (Debye)      :      3.01859

                             ****ORCA TERMINATED NORMALLY****
TOTAL RUN TIME: 0 days 0 hours 0 minutes 7 seconds 177 msec
