                         Program Version 3.0.3 - RELEASE   -
|  1> ! RI PBE def2-SVP def2-SVP/J NBO PAL2
|  2> % maxcore 2000
|  3> % output
|  4>     # printlevel mini
|  5>     print[ P_Basis ] 0
|  6>     print[ P_SCFInfo ] 1
|  7>     print[ P_SCFIterInfo ] 1
|  8>     print[ P_OrbEn ] 0
|  9>     print[ P_Cartesian ] 0
| 10> end
| 11> *xyz 0 1
| 12>  N        0.9813880000     0.2205660000     0.5524120000
| 13>  C        2.3304290000     0.2532300000     0.2837800000
| 14>  N        2.9919190000     1.2542480000    -0.1487460000
| 15>  C        3.0238880000    -1.0112130000     0.5967960000
| 16>  C        4.3287610000    -1.1778520000     0.3661460000
| 17>  C        5.0368610000    -2.3670550000     0.6449250000
| 18>  C        5.6718250000    -3.3651550000     0.8689100000
| 19>  H        0.4131110000     0.9653240000     0.1868960000
| 20>  H        0.5277050000    -0.6745770000     0.6114450000
| 21>  H        2.3939000000     2.0573750000    -0.3297280000
| 22>  H        2.4415090000    -1.8192570000     1.0284030000
| 23>  H        4.8787450000    -0.3426870000    -0.0612930000
| 24>  H        6.2282710000    -4.2497470000     1.0701520000
| 25> *
| 26>
| 27>                          ****END OF INPUT****
 Total Charge           Charge          ....    0
 Multiplicity           Mult            ....    1
 Number of Electrons    NEL             ....   50
 Basis Dimension        Dim             ....  128

MULLIKEN ATOMIC CHARGES
-----------------------
   0 N :   -0.047288
   1 C :   -0.167606
   2 N :   -0.091321
   3 C :    0.026918
   4 C :   -0.037715
   5 C :    0.403472
   6 C :   -0.410499
   7 H :    0.103695
   8 H :    0.104790
   9 H :    0.073082
  10 H :   -0.012539
  11 H :    0.046788
  12 H :    0.008222
Sum of atomic charges:   -0.0000000

LOEWDIN ATOMIC CHARGES
----------------------
   0 N :   -0.010850
   1 C :   -0.005041
   2 N :   -0.166154
   3 C :   -0.025487
   4 C :   -0.008992
   5 C :   -0.015840
   6 C :   -0.060170
   7 H :    0.066185
   8 H :    0.069144
   9 H :    0.040159
  10 H :    0.027583
  11 H :    0.052706
  12 H :    0.036757

  Mayer bond orders larger than 0.1
B(  0-N ,  1-C ) :   1.2119 B(  0-N ,  2-N ) :   0.1064 B(  0-N ,  7-H ) :   0.9463
B(  0-N ,  8-H ) :   0.9326 B(  1-C ,  2-N ) :   1.9859 B(  1-C ,  3-C ) :   0.9890
B(  2-N ,  9-H ) :   0.9251 B(  3-C ,  4-C ) :   1.7815 B(  3-C ,  6-C ) :   0.1336
B(  3-C , 10-H ) :   0.9525 B(  4-C ,  5-C ) :   1.0186 B(  4-C , 11-H ) :   0.9324
B(  5-C ,  6-C ) :   2.2536 B(  6-C , 12-H ) :   1.0857

FINAL SINGLE POINT ENERGY      -302.952152668368

DIPOLE MOMENT
-------------
                                X             Y             Z
Electronic contribution:      1.90153      -0.98615       0.12203
Nuclear contribution   :     -3.17109       0.72255      -0.12400
                        -----------------------------------------
Total Dipole Moment    :     -1.26955      -0.26360      -0.00196
                        -----------------------------------------
Magnitude (a.u.)       :      1.29663
Magnitude (Debye)      :      3.29578

                             ****ORCA TERMINATED NORMALLY****
TOTAL RUN TIME: 0 days 0 hours 0 minutes 6 seconds 40 msec
