                         Program Version 3.0.3 - RELEASE   -
|  1> ! RI PBE def2-SVP def2-SVP/J NBO PAL2
|  2> % maxcore 2000
|  3> % output
|  4>     # printlevel mini
|  5>     print[ P_Basis ] 0
|  6>     print[ P_SCFInfo ] 1
|  7>     print[ P_SCFIterInfo ] 1
|  8>     print[ P_OrbEn ] 0
|  9>     print[ P_Cartesian ] 0
| 10> end
| 11> *xyz 0 1
| 12>  N        2.6779330000     0.8554500000    -0.8002510000
| 13>  C        2.0204200000    -0.0503320000     0.0008980000
| 14>  N        0.7634260000    -0.2591080000     0.0276090000
| 15>  C        2.9286610000    -0.8589290000     0.8695630000
| 16>  C        2.4445600000    -1.4228030000     1.9757540000
| 17>  C        4.3315730000    -1.0065590000     0.4549410000
| 18>  C        5.3771470000    -0.9212550000     1.2721740000
| 19>  H        2.1198970000     1.5509060000    -1.2658360000
| 20>  H        3.5919880000     1.1614540000    -0.5098050000
| 21>  H        0.2635090000     0.3910020000    -0.5767700000
| 22>  H        1.4057320000    -1.2794710000     2.2454180000
| 23>  H        3.0673270000    -2.0527830000     2.5992470000
| 24>  H        4.5019290000    -1.1917300000    -0.6038500000
| 25>  H        5.2529890000    -0.6900710000     2.3249880000
| 26>  H        6.3873890000    -1.0784720000     0.9127090000
| 27> *
| 28>
| 29>                          ****END OF INPUT****
 Total Charge           Charge          ....    0
 Multiplicity           Mult            ....    1
 Number of Electrons    NEL             ....   52
 Basis Dimension        Dim             ....  138

MULLIKEN ATOMIC CHARGES
-----------------------
   0 N :   -0.056451
   1 C :   -0.162269
   2 N :   -0.088636
   3 C :   -0.017313
   4 C :   -0.004975
   5 C :   -0.053513
   6 C :   -0.028649
   7 H :    0.101085
   8 H :    0.111869
   9 H :    0.069261
  10 H :    0.036779
  11 H :    0.016889
  12 H :    0.018376
  13 H :    0.028872
  14 H :    0.028675
Sum of atomic charges:   -0.0000000

LOEWDIN ATOMIC CHARGES
----------------------
   0 N :   -0.012487
   1 C :    0.002823
   2 N :   -0.164965
   3 C :   -0.054410
   4 C :   -0.002324
   5 C :   -0.034247
   6 C :   -0.045404
   7 H :    0.065091
   8 H :    0.069307
   9 H :    0.037091
  10 H :    0.031909
  11 H :    0.024231
  12 H :    0.031974
  13 H :    0.025354
  14 H :    0.026056

  Mayer bond orders larger than 0.1
B(  0-N ,  1-C ) :   1.2328 B(  0-N ,  2-N ) :   0.1005 B(  0-N ,  7-H ) :   0.9481
B(  0-N ,  8-H ) :   0.9226 B(  1-C ,  2-N ) :   2.0008 B(  1-C ,  3-C ) :   0.9318
B(  2-N ,  9-H ) :   0.9263 B(  3-C ,  4-C ) :   1.9556 B(  3-C ,  5-C ) :   1.0451
B(  4-C , 10-H ) :   0.9202 B(  4-C , 11-H ) :   0.9291 B(  5-C ,  6-C ) :   1.9405
B(  5-C , 12-H ) :   0.9468 B(  6-C , 13-H ) :   0.9491 B(  6-C , 14-H ) :   0.9432

FINAL SINGLE POINT ENERGY      -304.188601636712

DIPOLE MOMENT
-------------
                                X             Y             Z
Electronic contribution:     -2.29743       0.29139      -1.28365
Nuclear contribution   :      3.04012       0.61004       0.95223
                        -----------------------------------------
Total Dipole Moment    :      0.74269       0.90143      -0.33142
                        -----------------------------------------
Magnitude (a.u.)       :      1.21408
Magnitude (Debye)      :      3.08596

                             ****ORCA TERMINATED NORMALLY****
TOTAL RUN TIME: 0 days 0 hours 0 minutes 7 seconds 387 msec
