                         Program Version 3.0.3 - RELEASE   -
|  1> ! RI PBE def2-SVP def2-SVP/J NBO PAL2
|  2> % maxcore 2000
|  3> % output
|  4>     # printlevel mini
|  5>     print[ P_Basis ] 0
|  6>     print[ P_SCFInfo ] 1
|  7>     print[ P_SCFIterInfo ] 1
|  8>     print[ P_OrbEn ] 0
|  9>     print[ P_Cartesian ] 0
| 10> end
| 11> *xyz 0 1
| 12>  N        3.0123200000    -0.3769650000     1.0843670000
| 13>  C        2.2317620000     0.1139060000     0.0849390000
| 14>  N        0.9581000000     0.1366680000     0.0416490000
| 15>  C        3.0001740000     0.6817420000    -1.0749320000
| 16>  C        2.3505220000     1.1951250000    -2.1215800000
| 17>  C        4.4237300000     0.6566070000    -1.0258590000
| 18>  C        5.6249360000     0.6205620000    -0.9543760000
| 19>  H        2.5962520000    -0.7783070000     1.9033360000
| 20>  H        4.0137630000    -0.3430090000     1.0122590000
| 21>  H        0.5443240000    -0.2719890000     0.8760190000
| 22>  H        1.2677010000     1.1939220000    -2.1174180000
| 23>  H        2.8867740000     1.6083450000    -2.9656330000
| 24>  H        6.6885420000     0.5997430000    -0.9150100000
| 25> *
| 26>
| 27>                          ****END OF INPUT****
 Total Charge           Charge          ....    0
 Multiplicity           Mult            ....    1
 Number of Electrons    NEL             ....   50
 Basis Dimension        Dim             ....  128

MULLIKEN ATOMIC CHARGES
-----------------------
   0 N :   -0.022104
   1 C :   -0.169421
   2 N :   -0.089377
   3 C :   -0.018372
   4 C :    0.012238
   5 C :    0.383901
   6 C :   -0.465341
   7 H :    0.103067
   8 H :    0.110167
   9 H :    0.073494
  10 H :    0.049910
  11 H :    0.024065
  12 H :    0.007773
Sum of atomic charges:    0.0000000

LOEWDIN ATOMIC CHARGES
----------------------
   0 N :    0.005776
   1 C :    0.009777
   2 N :   -0.175691
   3 C :   -0.065225
   4 C :    0.026701
   5 C :   -0.014457
   6 C :   -0.072418
   7 H :    0.068127
   8 H :    0.071713
   9 H :    0.040070
  10 H :    0.036876
  11 H :    0.031208
  12 H :    0.037542

  Mayer bond orders larger than 0.1
B(  0-N ,  1-C ) :   1.2847 B(  0-N ,  2-N ) :   0.1151 B(  0-N ,  7-H ) :   0.9433
B(  0-N ,  8-H ) :   0.9091 B(  1-C ,  2-N ) :   2.0170 B(  1-C ,  3-C ) :   0.9037
B(  2-N ,  9-H ) :   0.9230 B(  3-C ,  4-C ) :   1.9426 B(  3-C ,  5-C ) :   0.9744
B(  4-C ,  6-C ) :   0.1311 B(  4-C , 10-H ) :   0.9080 B(  4-C , 11-H ) :   0.9298
B(  5-C ,  6-C ) :   2.2497 B(  5-C , 12-H ) :  -0.1112 B(  6-C , 12-H ) :   1.1017

FINAL SINGLE POINT ENERGY      -302.949460001104

DIPOLE MOMENT
-------------
                                X             Y             Z
Electronic contribution:      1.00548       0.02966      -0.06082
Nuclear contribution   :     -0.20371      -0.38862       0.78923
                        -----------------------------------------
Total Dipole Moment    :      0.80177      -0.35895       0.72841
                        -----------------------------------------
Magnitude (a.u.)       :      1.14117
Magnitude (Debye)      :      2.90062

                             ****ORCA TERMINATED NORMALLY****
TOTAL RUN TIME: 0 days 0 hours 0 minutes 6 seconds 244 msec
