                         Program Version 3.0.3 - RELEASE   -
|  1> ! RI PBE def2-SVP def2-SVP/J NBO PAL2
|  2> % maxcore 2000
|  3> % output
|  4>     # printlevel mini
|  5>     print[ P_Basis ] 0
|  6>     print[ P_SCFInfo ] 1
|  7>     print[ P_SCFIterInfo ] 1
|  8>     print[ P_OrbEn ] 0
|  9>     print[ P_Cartesian ] 0
| 10> end
| 11> *xyz 0 1
| 12>  N        1.0240610000    -0.2662790000    -0.1223360000
| 13>  C        2.3458090000     0.0262880000     0.1348210000
| 14>  N        2.9787430000    -0.1548390000     1.2275180000
| 15>  C        3.0531830000     0.5471870000    -1.0038680000
| 16>  C        3.6219470000     0.9915120000    -1.9703490000
| 17>  C        4.3510760000     1.5150910000    -3.0642870000
| 18>  C        3.8443930000     1.7110840000    -4.2818300000
| 19>  H        0.4194360000    -0.3997440000     0.6707290000
| 20>  H        0.6001020000     0.1685320000    -0.9235910000
| 21>  H        2.3628310000    -0.5282590000     1.9493860000
| 22>  H        5.3909160000     1.7623460000    -2.8657720000
| 23>  H        2.8127110000     1.4729260000    -4.5114780000
| 24>  H        4.4571920000     2.1147560000    -5.0781320000
| 25> *
| 26>
| 27>                          ****END OF INPUT****
 Total Charge           Charge          ....    0
 Multiplicity           Mult            ....    1
 Number of Electrons    NEL             ....   50
 Basis Dimension        Dim             ....  128

MULLIKEN ATOMIC CHARGES
-----------------------
   0 N :   -0.049283
   1 C :   -0.192571
   2 N :   -0.082738
   3 C :    0.061187
   4 C :   -0.050622
   5 C :   -0.080167
   6 C :   -0.009187
   7 H :    0.106940
   8 H :    0.110245
   9 H :    0.076846
  10 H :    0.040041
  11 H :    0.031129
  12 H :    0.038180
Sum of atomic charges:    0.0000000

LOEWDIN ATOMIC CHARGES
----------------------
   0 N :   -0.009505
   1 C :   -0.017066
   2 N :   -0.142868
   3 C :   -0.033467
   4 C :   -0.024479
   5 C :   -0.043989
   6 C :   -0.018335
   7 H :    0.066823
   8 H :    0.074164
   9 H :    0.040267
  10 H :    0.048810
  11 H :    0.029161
  12 H :    0.030482

  Mayer bond orders larger than 0.1
B(  0-N ,  1-C ) :   1.2352 B(  0-N ,  2-N ) :   0.1130 B(  0-N ,  7-H ) :   0.9450
B(  0-N ,  8-H ) :   0.9322 B(  1-C ,  2-N ) :   1.9833 B(  1-C ,  3-C ) :   0.9105
B(  2-N ,  9-H ) :   0.9227 B(  3-C ,  4-C ) :   2.4609 B(  3-C ,  6-C ) :   0.1248
B(  4-C ,  5-C ) :   1.0774 B(  5-C ,  6-C ) :   1.8973 B(  5-C , 10-H ) :   0.9427
B(  6-C , 11-H ) :   0.9546 B(  6-C , 12-H ) :   0.9423

FINAL SINGLE POINT ENERGY      -302.950960639649

DIPOLE MOMENT
-------------
                                X             Y             Z
Electronic contribution:      0.49243      -0.75095       2.51091
Nuclear contribution   :     -1.64752       0.93207      -3.03414
                        -----------------------------------------
Total Dipole Moment    :     -1.15509       0.18112      -0.52323
                        -----------------------------------------
Magnitude (a.u.)       :      1.28094
Magnitude (Debye)      :      3.25590

                             ****ORCA TERMINATED NORMALLY****
TOTAL RUN TIME: 0 days 0 hours 0 minutes 5 seconds 894 msec
