                         Program Version 3.0.3 - RELEASE   -
|  1> ! RI PBE def2-SVP def2-SVP/J NBO PAL2
|  2> % maxcore 2000
|  3> % output
|  4>     # printlevel mini
|  5>     print[ P_Basis ] 0
|  6>     print[ P_SCFInfo ] 1
|  7>     print[ P_SCFIterInfo ] 1
|  8>     print[ P_OrbEn ] 0
|  9>     print[ P_Cartesian ] 0
| 10> end
| 11> *xyz 0 1
| 12>  N        1.1133240000    -0.1134790000    -0.0057110000
| 13>  C        2.4733080000     0.0206610000    -0.0399940000
| 14>  N        3.1543520000     1.0657840000    -0.3074520000
| 15>  C        3.1781720000    -1.1957160000     0.2713170000
| 16>  C        3.7538380000    -2.2244490000     0.5346080000
| 17>  C        4.4112040000    -3.3794800000     0.8302340000
| 18>  C        4.9903680000    -4.4035940000     1.0923520000
| 19>  H        0.5212910000     0.6711960000    -0.2064370000
| 20>  H        0.6901850000    -0.9938840000     0.2197050000
| 21>  H        2.5480150000     1.8598040000    -0.5106730000
| 22>  H        5.5059430000    -5.3057430000     1.3232530000
| 23> *
| 24>
| 25>                          ****END OF INPUT****
 Total Charge           Charge          ....    0
 Multiplicity           Mult            ....    1
 Number of Electrons    NEL             ....   48
 Basis Dimension        Dim             ....  118

MULLIKEN ATOMIC CHARGES
-----------------------
   0 N :   -0.036326
   1 C :   -0.194007
   2 N :   -0.074078
   3 C :    0.033157
   4 C :    0.001854
   5 C :    0.360555
   6 C :   -0.413868
   7 H :    0.110968
   8 H :    0.113209
   9 H :    0.079744
  10 H :    0.018793
Sum of atomic charges:   -0.0000000

LOEWDIN ATOMIC CHARGES
----------------------
   0 N :    0.002630
   1 C :   -0.017064
   2 N :   -0.141375
   3 C :    0.006179
   4 C :   -0.037533
   5 C :   -0.028363
   6 C :   -0.016965
   7 H :    0.070143
   8 H :    0.077844
   9 H :    0.042203
  10 H :    0.042301

  Mayer bond orders larger than 0.1
B(  0-N ,  1-C ) :   1.2627 B(  0-N ,  2-N ) :   0.1239 B(  0-N ,  7-H ) :   0.9436
B(  0-N ,  8-H ) :   0.9293 B(  1-C ,  2-N ) :   1.9794 B(  1-C ,  3-C ) :   0.9036
B(  2-N ,  9-H ) :   0.9195 B(  3-C ,  4-C ) :   2.3784 B(  3-C ,  6-C ) :   0.2568
B(  4-C ,  5-C ) :   0.9488 B(  5-C ,  6-C ) :   2.1421 B(  5-C , 10-H ) :  -0.1016
B(  6-C , 10-H ) :   1.0904

FINAL SINGLE POINT ENERGY      -301.711297883278

DIPOLE MOMENT
-------------
                                X             Y             Z
Electronic contribution:      1.98643      -1.88429       0.48174
Nuclear contribution   :     -3.33936       1.56850      -0.40131
                        -----------------------------------------
Total Dipole Moment    :     -1.35293      -0.31578       0.08043
                        -----------------------------------------
Magnitude (a.u.)       :      1.39162
Magnitude (Debye)      :      3.53722

                             ****ORCA TERMINATED NORMALLY****
TOTAL RUN TIME: 0 days 0 hours 0 minutes 5 seconds 341 msec
