                         Program Version 3.0.3 - RELEASE   -
|  1> ! RI PBE def2-SVP def2-SVP/J NBO PAL2
|  2> % maxcore 2000
|  3> % output
|  4>     # printlevel mini
|  5>     print[ P_Basis ] 0
|  6>     print[ P_SCFInfo ] 1
|  7>     print[ P_SCFIterInfo ] 1
|  8>     print[ P_OrbEn ] 0
|  9>     print[ P_Cartesian ] 0
| 10> end
| 11> *xyz 0 1
| 12>  N        1.1438820000    -0.2637230000     0.9799770000
| 13>  C        2.3619430000    -0.5726640000     0.4183510000
| 14>  N        2.8805800000    -1.7316230000     0.3450210000
| 15>  C        3.1087390000     0.6301860000    -0.0975480000
| 16>  C        4.5469460000     0.3437550000    -0.5013720000
| 17>  C        5.2029690000     1.5344930000    -1.1157590000
| 18>  C        6.2889230000     2.1360460000    -0.6502060000
| 19>  H        0.4918600000    -1.0149390000     1.1302940000
| 20>  H        0.7274600000     0.6228380000     0.7520010000
| 21>  H        2.2615830000    -2.4464360000     0.7254750000
| 22>  H        3.0814290000     1.4147490000     0.6670160000
| 23>  H        2.5516750000     1.0288490000    -0.9559650000
| 24>  H        4.5441520000    -0.4928950000    -1.2068790000
| 25>  H        5.1124090000     0.0038810000     0.3692980000
| 26>  H        4.7354460000     1.9257770000    -2.0193930000
| 27>  H        6.7905560000     1.7820020000     0.2455270000
| 28>  H        6.7208600000     2.9965150000    -1.1482380000
| 29> *
| 30>
| 31>                          ****END OF INPUT****
 Total Charge           Charge          ....    0
 Multiplicity           Mult            ....    1
 Number of Electrons    NEL             ....   54
 Basis Dimension        Dim             ....  148

MULLIKEN ATOMIC CHARGES
-----------------------
   0 N :   -0.050232
   1 C :   -0.190562
   2 N :   -0.106879
   3 C :   -0.013330
   4 C :    0.089731
   5 C :   -0.087384
   6 C :   -0.035316
   7 H :    0.100167
   8 H :    0.100519
   9 H :    0.066716
  10 H :    0.031450
  11 H :    0.021002
  12 H :    0.035513
  13 H :    0.008551
  14 H :   -0.003075
  15 H :    0.013882
  16 H :    0.019247
Sum of atomic charges:   -0.0000000

LOEWDIN ATOMIC CHARGES
----------------------
   0 N :   -0.019665
   1 C :    0.002565
   2 N :   -0.173360
   3 C :   -0.050288
   4 C :   -0.034003
   5 C :   -0.028870
   6 C :   -0.071077
   7 H :    0.063299
   8 H :    0.067420
   9 H :    0.037557
  10 H :    0.033827
  11 H :    0.033182
  12 H :    0.041781
  13 H :    0.033407
  14 H :    0.021793
  15 H :    0.020459
  16 H :    0.021971

  Mayer bond orders larger than 0.1
B(  0-N ,  1-C ) :   1.2313 B(  0-N ,  7-H ) :   0.9465 B(  0-N ,  8-H ) :   0.9387
B(  1-C ,  2-N ) :   2.0010 B(  1-C ,  3-C ) :   0.9549 B(  2-N ,  9-H ) :   0.9245
B(  3-C ,  4-C ) :   1.1035 B(  3-C , 10-H ) :   0.9313 B(  3-C , 11-H ) :   0.9128
B(  4-C ,  5-C ) :   1.0528 B(  4-C , 12-H ) :   0.9018 B(  4-C , 13-H ) :   0.9290
B(  5-C ,  6-C ) :   2.0126 B(  5-C , 14-H ) :   0.9515 B(  6-C , 15-H ) :   0.9480
B(  6-C , 16-H ) :   0.9442

FINAL SINGLE POINT ENERGY      -305.407032216114

DIPOLE MOMENT
-------------
                                X             Y             Z
Electronic contribution:     -2.34831      -2.49281       0.89311
Nuclear contribution   :      1.06158       2.88242      -0.74417
                        -----------------------------------------
Total Dipole Moment    :     -1.28673       0.38961       0.14893
                        -----------------------------------------
Magnitude (a.u.)       :      1.35265
Magnitude (Debye)      :      3.43816

                             ****ORCA TERMINATED NORMALLY****
TOTAL RUN TIME: 0 days 0 hours 0 minutes 7 seconds 876 msec
