                         Program Version 3.0.3 - RELEASE   -
|  1> ! RI PBE def2-SVP def2-SVP/J NBO PAL2
|  2> % maxcore 2000
|  3> % output
|  4>     # printlevel mini
|  5>     print[ P_Basis ] 0
|  6>     print[ P_SCFInfo ] 1
|  7>     print[ P_SCFIterInfo ] 1
|  8>     print[ P_OrbEn ] 0
|  9>     print[ P_Cartesian ] 0
| 10> end
| 11> *xyz 0 1
| 12>  N        2.6018180000     1.4837590000    -0.1210890000
| 13>  C        2.6270160000     0.2205600000     0.4153140000
| 14>  N        2.1240670000    -0.1449170000     1.5277140000
| 15>  C        3.2816430000    -0.8236770000    -0.4504160000
| 16>  C        4.8111950000    -0.6973770000    -0.5327330000
| 17>  C        5.2824960000     0.4377540000    -1.3103780000
| 18>  C        5.6551690000     1.3718790000    -1.9683740000
| 19>  H        2.3766110000     2.2429680000     0.5002470000
| 20>  H        3.2866140000     1.7019970000    -0.8287550000
| 21>  H        1.7128400000     0.6428590000     2.0287110000
| 22>  H        2.8608790000    -0.7869090000    -1.4595200000
| 23>  H        3.0359690000    -1.7888530000    -0.0101870000
| 24>  H        5.2118370000    -1.6098970000    -0.9851460000
| 25>  H        5.2264880000    -0.6437620000     0.4788160000
| 26>  H        6.0049690000     2.1906870000    -2.5519030000
| 27> *
| 28>
| 29>                          ****END OF INPUT****
 Total Charge           Charge          ....    0
 Multiplicity           Mult            ....    1
 Number of Electrons    NEL             ....   52
 Basis Dimension        Dim             ....  138

MULLIKEN ATOMIC CHARGES
-----------------------
   0 N :   -0.038164
   1 C :   -0.237100
   2 N :   -0.104654
   3 C :    0.074564
   4 C :    0.082686
   5 C :    0.288218
   6 C :   -0.477305
   7 H :    0.098991
   8 H :    0.102271
   9 H :    0.066757
  10 H :    0.032607
  11 H :    0.015270
  12 H :    0.044983
  13 H :    0.048000
  14 H :    0.002877
Sum of atomic charges:   -0.0000000

LOEWDIN ATOMIC CHARGES
----------------------
   0 N :   -0.013269
   1 C :   -0.002733
   2 N :   -0.178661
   3 C :   -0.031734
   4 C :   -0.039361
   5 C :   -0.023669
   6 C :   -0.096350
   7 H :    0.063694
   8 H :    0.065151
   9 H :    0.035080
  10 H :    0.034754
  11 H :    0.040988
  12 H :    0.055156
  13 H :    0.054713
  14 H :    0.036242

  Mayer bond orders larger than 0.1
B(  0-N ,  1-C ) :   1.2299 B(  0-N ,  2-N ) :   0.1031 B(  0-N ,  7-H ) :   0.9482
B(  0-N ,  8-H ) :   0.9230 B(  1-C ,  2-N ) :   2.0331 B(  1-C ,  3-C ) :   0.9886
B(  2-N ,  9-H ) :   0.9324 B(  3-C ,  4-C ) :   1.0829 B(  3-C , 10-H ) :   0.9303
B(  3-C , 11-H ) :   0.9028 B(  4-C ,  5-C ) :   1.0677 B(  4-C , 12-H ) :   0.8964
B(  4-C , 13-H ) :   0.8921 B(  5-C ,  6-C ) :   2.3128 B(  5-C , 14-H ) :  -0.1122
B(  6-C , 14-H ) :   1.1039

FINAL SINGLE POINT ENERGY      -304.165397480025

DIPOLE MOMENT
-------------
                                X             Y             Z
Electronic contribution:      0.36820       1.05454      -0.12936
Nuclear contribution   :      0.04850      -0.26206      -0.35043
                        -----------------------------------------
Total Dipole Moment    :      0.41669       0.79248      -0.47979
                        -----------------------------------------
Magnitude (a.u.)       :      1.01580
Magnitude (Debye)      :      2.58197

                             ****ORCA TERMINATED NORMALLY****
TOTAL RUN TIME: 0 days 0 hours 0 minutes 7 seconds 390 msec
