                         Program Version 3.0.3 - RELEASE   -
|  1> ! RI PBE def2-SVP def2-SVP/J NBO PAL2
|  2> % maxcore 2000
|  3> % output
|  4>     # printlevel mini
|  5>     print[ P_Basis ] 0
|  6>     print[ P_SCFInfo ] 1
|  7>     print[ P_SCFIterInfo ] 1
|  8>     print[ P_OrbEn ] 0
|  9>     print[ P_Cartesian ] 0
| 10> end
| 11> *xyz 0 1
| 12>  N        0.9002190000    -0.1559240000     0.0247940000
| 13>  C        2.1630910000    -0.1673060000    -0.0094640000
| 14>  N        2.8944770000     0.1837540000     1.0996830000
| 15>  C        4.2512210000     0.2008600000     1.1559540000
| 16>  C        4.9781450000     0.5421700000     2.2341430000
| 17>  C        6.3895920000     0.5297980000     2.1974310000
| 18>  N        7.5436950000     0.5249240000     2.1839740000
| 19>  H        0.5079450000    -0.4384270000    -0.8667700000
| 20>  H        2.7873750000    -0.4393420000    -0.8664540000
| 21>  H        2.3527260000     0.4417340000     1.9127980000
| 22>  H        4.7476470000    -0.0908460000     0.2363130000
| 23>  H        4.5085470000     0.8377630000     3.1660680000
| 24> *
| 25>
| 26>                          ****END OF INPUT****
 Total Charge           Charge          ....    0
 Multiplicity           Mult            ....    1
 Number of Electrons    NEL             ....   50
 Basis Dimension        Dim             ....  123

MULLIKEN ATOMIC CHARGES
-----------------------
   0 N :   -0.123417
   1 C :   -0.022525
   2 N :   -0.020360
   3 C :    0.078624
   4 C :   -0.131039
   5 C :   -0.131722
   6 N :    0.026982
   7 H :    0.110053
   8 H :    0.015844
   9 H :    0.127139
  10 H :    0.033135
  11 H :    0.037286
Sum of atomic charges:   -0.0000000

LOEWDIN ATOMIC CHARGES
----------------------
   0 N :   -0.139529
   1 C :    0.034813
   2 N :    0.069198
   3 C :    0.050721
   4 C :   -0.135066
   5 C :   -0.052211
   6 N :   -0.075725
   7 H :    0.061291
   8 H :    0.005466
   9 H :    0.092586
  10 H :    0.041132
  11 H :    0.047323

  Mayer bond orders larger than 0.1
B(  0-N ,  1-C ) :   1.9497 B(  0-N ,  7-H ) :   0.9301 B(  1-C ,  2-N ) :   1.1155
B(  1-C ,  8-H ) :   0.9370 B(  2-N ,  3-C ) :   1.2133 B(  2-N ,  9-H ) :   0.9149
B(  3-C ,  4-C ) :   1.6762 B(  3-C , 10-H ) :   0.9522 B(  4-C ,  5-C ) :   1.1828
B(  4-C , 11-H ) :   0.9323 B(  5-C ,  6-N ) :   2.9438

FINAL SINGLE POINT ENERGY      -319.032424802053

DIPOLE MOMENT
-------------
                                X             Y             Z
Electronic contribution:      3.60881       0.55131       1.74431
Nuclear contribution   :     -5.13087      -0.76127      -2.40995
                        -----------------------------------------
Total Dipole Moment    :     -1.52206      -0.20996      -0.66564
                        -----------------------------------------
Magnitude (a.u.)       :      1.67446
Magnitude (Debye)      :      4.25615

                             ****ORCA TERMINATED NORMALLY****
TOTAL RUN TIME: 0 days 0 hours 0 minutes 5 seconds 733 msec
