                         Program Version 3.0.3 - RELEASE   -
|  1> ! RI PBE def2-SVP def2-SVP/J NBO PAL2
|  2> % maxcore 2000
|  3> % output
|  4>     # printlevel mini
|  5>     print[ P_Basis ] 0
|  6>     print[ P_SCFInfo ] 1
|  7>     print[ P_SCFIterInfo ] 1
|  8>     print[ P_OrbEn ] 0
|  9>     print[ P_Cartesian ] 0
| 10> end
| 11> *xyz 0 1
| 12>  N        3.0709480000    -0.4750070000    -3.2902110000
| 13>  C        2.3735990000    -0.7748140000    -2.2690680000
| 14>  N        2.9435600000    -1.1480190000    -1.0957360000
| 15>  C        4.3692840000    -1.2003710000    -0.9238080000
| 16>  C        4.9967280000    -2.4054370000    -1.6391760000
| 17>  C        6.4276320000    -2.4816770000    -1.4067280000
| 18>  N        7.5573250000    -2.5238020000    -1.1964770000
| 19>  H        2.4771050000    -0.1986030000    -4.0633550000
| 20>  H        1.2790090000    -0.7599630000    -2.2259720000
| 21>  H        2.3460570000    -1.4168780000    -0.3371770000
| 22>  H        4.5902600000    -1.2407540000     0.1436640000
| 23>  H        4.8100320000    -0.2861000000    -1.3283630000
| 24>  H        4.8074930000    -2.3122500000    -2.7113440000
| 25>  H        4.5359870000    -3.3348340000    -1.2929480000
| 26> *
| 27>
| 28>                          ****END OF INPUT****
 Total Charge           Charge          ....    0
 Multiplicity           Mult            ....    1
 Number of Electrons    NEL             ....   52
 Basis Dimension        Dim             ....  133

MULLIKEN ATOMIC CHARGES
-----------------------
   0 N :   -0.182772
   1 C :    0.001972
   2 N :   -0.132787
   3 C :    0.073352
   4 C :    0.080131
   5 C :   -0.289000
   6 N :    0.049478
   7 H :    0.095832
   8 H :    0.000699
   9 H :    0.118595
  10 H :    0.033308
  11 H :    0.044836
  12 H :    0.067001
  13 H :    0.039356
Sum of atomic charges:   -0.0000000

LOEWDIN ATOMIC CHARGES
----------------------
   0 N :   -0.186772
   1 C :    0.020864
   2 N :    0.001267
   3 C :    0.038163
   4 C :   -0.066183
   5 C :   -0.045239
   6 N :   -0.070538
   7 H :    0.052885
   8 H :   -0.001630
   9 H :    0.075456
  10 H :    0.031454
  11 H :    0.037110
  12 H :    0.061572
  13 H :    0.051591

  Mayer bond orders larger than 0.1
B(  0-N ,  1-C ) :   1.8570 B(  0-N ,  7-H ) :   0.9355 B(  1-C ,  2-N ) :   1.2072
B(  1-C ,  8-H ) :   0.9404 B(  2-N ,  3-C ) :   1.0494 B(  2-N ,  9-H ) :   0.9408
B(  3-C ,  4-C ) :   1.0788 B(  3-C , 10-H ) :   0.9454 B(  3-C , 11-H ) :   0.9237
B(  4-C ,  5-C ) :   1.1404 B(  4-C , 12-H ) :   0.8664 B(  4-C , 13-H ) :   0.8875
B(  5-C ,  6-N ) :   3.0482

FINAL SINGLE POINT ENERGY      -320.236086129130

DIPOLE MOMENT
-------------
                                X             Y             Z
Electronic contribution:      3.79579      -1.18940       0.38439
Nuclear contribution   :     -5.99198       1.19559       0.07197
                        -----------------------------------------
Total Dipole Moment    :     -2.19619       0.00619       0.45636
                        -----------------------------------------
Magnitude (a.u.)       :      2.24311
Magnitude (Debye)      :      5.70153

                             ****ORCA TERMINATED NORMALLY****
TOTAL RUN TIME: 0 days 0 hours 0 minutes 6 seconds 542 msec
