                         Program Version 3.0.3 - RELEASE   -
|  1> ! RI PBE def2-SVP def2-SVP/J NBO PAL2
|  2> % maxcore 2000
|  3> % output
|  4>     # printlevel mini
|  5>     print[ P_Basis ] 0
|  6>     print[ P_SCFInfo ] 1
|  7>     print[ P_SCFIterInfo ] 1
|  8>     print[ P_OrbEn ] 0
|  9>     print[ P_Cartesian ] 0
| 10> end
| 11> *xyz 0 1
| 12>  N        0.9926160000    -0.2955170000    -0.1114750000
| 13>  C        2.3225560000     0.0110810000    -0.2437870000
| 14>  N        2.9982230000     0.0554060000    -1.3228670000
| 15>  C        3.0035220000     0.2616780000     1.0453880000
| 16>  C        4.2895450000     0.6051310000     1.1010020000
| 17>  C        4.9615180000     0.8528670000     2.3249070000
| 18>  N        5.5248330000     1.0602740000     3.3089420000
| 19>  H        0.4221520000    -0.3157110000    -0.9389040000
| 20>  H        0.5168140000    -0.0570420000     0.7408070000
| 21>  H        2.4276740000    -0.1277650000    -2.1449780000
| 22>  H        2.4282680000     0.1575770000     1.9598720000
| 23>  H        4.8544910000     0.6995110000     0.1783930000
| 24> *
| 25>
| 26>                          ****END OF INPUT****
 Total Charge           Charge          ....    0
 Multiplicity           Mult            ....    1
 Number of Electrons    NEL             ....   50
 Basis Dimension        Dim             ....  123

MULLIKEN ATOMIC CHARGES
-----------------------
   0 N :   -0.041887
   1 C :   -0.156063
   2 N :   -0.087814
   3 C :    0.038726
   4 C :   -0.077245
   5 C :   -0.084992
   6 N :    0.043367
   7 H :    0.108843
   8 H :    0.110198
   9 H :    0.079298
  10 H :    0.004467
  11 H :    0.063104
Sum of atomic charges:   -0.0000000

LOEWDIN ATOMIC CHARGES
----------------------
   0 N :   -0.001801
   1 C :   -0.004102
   2 N :   -0.156829
   3 C :    0.001874
   4 C :   -0.026748
   5 C :   -0.041403
   6 N :   -0.051383
   7 H :    0.070192
   8 H :    0.072472
   9 H :    0.044264
  10 H :    0.034113
  11 H :    0.059350

  Mayer bond orders larger than 0.1
B(  0-N ,  1-C ) :   1.2248 B(  0-N ,  2-N ) :   0.1162 B(  0-N ,  7-H ) :   0.9455
B(  0-N ,  8-H ) :   0.9321 B(  1-C ,  2-N ) :   1.9947 B(  1-C ,  3-C ) :   0.9813
B(  2-N ,  9-H ) :   0.9259 B(  3-C ,  4-C ) :   1.8207 B(  3-C ,  6-N ) :   0.1129
B(  3-C , 10-H ) :   0.9562 B(  4-C ,  5-C ) :   1.0758 B(  4-C , 11-H ) :   0.9418
B(  5-C ,  6-N ) :   2.9560

FINAL SINGLE POINT ENERGY      -319.027722778422

DIPOLE MOMENT
-------------
                                X             Y             Z
Electronic contribution:      3.64126       0.98754       3.05375
Nuclear contribution   :     -5.75137      -1.27632      -3.98456
                        -----------------------------------------
Total Dipole Moment    :     -2.11011      -0.28877      -0.93081
                        -----------------------------------------
Magnitude (a.u.)       :      2.32430
Magnitude (Debye)      :      5.90790

                             ****ORCA TERMINATED NORMALLY****
TOTAL RUN TIME: 0 days 0 hours 0 minutes 6 seconds 136 msec
