                         Program Version 3.0.3 - RELEASE   -
|  1> ! RI PBE def2-SVP def2-SVP/J NBO PAL2
|  2> % maxcore 2000
|  3> % output
|  4>     # printlevel mini
|  5>     print[ P_Basis ] 0
|  6>     print[ P_SCFInfo ] 1
|  7>     print[ P_SCFIterInfo ] 1
|  8>     print[ P_OrbEn ] 0
|  9>     print[ P_Cartesian ] 0
| 10> end
| 11> *xyz 0 1
| 12>  N        1.0238460000    -0.0753690000    -0.1813050000
| 13>  C        2.3723520000     0.0471790000     0.0642060000
| 14>  N        3.1282380000     1.0241530000    -0.2341950000
| 15>  C        3.0094940000    -1.1465040000     0.6852790000
| 16>  C        2.4785050000    -2.3713750000     0.6750850000
| 17>  C        4.2867660000    -0.9379980000     1.2969630000
| 18>  N        5.3044900000    -0.8253950000     1.8216250000
| 19>  H        0.5551650000     0.7622090000    -0.4853090000
| 20>  H        0.4877180000    -0.6301860000     0.4655060000
| 21>  H        2.6128910000     1.7937080000    -0.6580840000
| 22>  H        1.5327070000    -2.5679810000     0.1860610000
| 23>  H        2.9967190000    -3.2067420000     1.1272570000
| 24> *
| 25>
| 26>                          ****END OF INPUT****
 Total Charge           Charge          ....    0
 Multiplicity           Mult            ....    1
 Number of Electrons    NEL             ....   50
 Basis Dimension        Dim             ....  123

MULLIKEN ATOMIC CHARGES
-----------------------
   0 N :   -0.062325
   1 C :   -0.144596
   2 N :   -0.037109
   3 C :   -0.138566
   4 C :    0.026235
   5 C :   -0.103462
   6 N :    0.072028
   7 H :    0.109912
   8 H :    0.117933
   9 H :    0.083026
  10 H :    0.028138
  11 H :    0.048786
Sum of atomic charges:   -0.0000000

LOEWDIN ATOMIC CHARGES
----------------------
   0 N :   -0.013025
   1 C :    0.004231
   2 N :   -0.126796
   3 C :   -0.069904
   4 C :    0.007623
   5 C :   -0.020463
   6 N :   -0.043093
   7 H :    0.071473
   8 H :    0.072197
   9 H :    0.046366
  10 H :    0.029104
  11 H :    0.042289

  Mayer bond orders larger than 0.1
B(  0-N ,  1-C ) :   1.2239 B(  0-N ,  7-H ) :   0.9442 B(  0-N ,  8-H ) :   0.9275
B(  1-C ,  2-N ) :   2.0387 B(  1-C ,  3-C ) :   0.9278 B(  2-N ,  9-H ) :   0.9191
B(  3-C ,  4-C ) :   1.9327 B(  3-C ,  5-C ) :   1.0991 B(  4-C ,  6-N ) :   0.1041
B(  4-C , 10-H ) :   0.9178 B(  4-C , 11-H ) :   0.9344 B(  5-C ,  6-N ) :   2.9919

FINAL SINGLE POINT ENERGY      -319.020752190310

DIPOLE MOMENT
-------------
                                X             Y             Z
Electronic contribution:      4.01403       0.63438       1.54575
Nuclear contribution   :     -6.45497      -0.88286      -2.02066
                        -----------------------------------------
Total Dipole Moment    :     -2.44093      -0.24848      -0.47491
                        -----------------------------------------
Magnitude (a.u.)       :      2.49909
Magnitude (Debye)      :      6.35218

                             ****ORCA TERMINATED NORMALLY****
TOTAL RUN TIME: 0 days 0 hours 0 minutes 6 seconds 289 msec
