                         Program Version 3.0.3 - RELEASE   -
|  1> ! RI PBE def2-SVP def2-SVP/J NBO PAL2
|  2> % maxcore 2000
|  3> % output
|  4>     # printlevel mini
|  5>     print[ P_Basis ] 0
|  6>     print[ P_SCFInfo ] 1
|  7>     print[ P_SCFIterInfo ] 1
|  8>     print[ P_OrbEn ] 0
|  9>     print[ P_Cartesian ] 0
| 10> end
| 11> *xyz 0 1
| 12>  N        1.1060140000     0.0074590000    -0.0389990000
| 13>  C        2.4638230000     0.1116970000    -0.1157690000
| 14>  N        3.1683710000     0.9663180000    -0.7447550000
| 15>  C        3.1650720000    -0.9045280000     0.6321130000
| 16>  C        3.7401720000    -1.7571800000     1.2596100000
| 17>  C        4.3977990000    -2.7220200000     1.9696680000
| 18>  N        4.9452520000    -3.5411320000     2.5724790000
| 19>  H        0.5202490000     0.6637080000    -0.5220300000
| 20>  H        0.6726500000    -0.7209630000     0.4970000000
| 21>  H        2.5869890000     1.6406310000    -1.2410080000
| 22> *
| 23>
| 24>                          ****END OF INPUT****
 Total Charge           Charge          ....    0
 Multiplicity           Mult            ....    1
 Number of Electrons    NEL             ....   48
 Basis Dimension        Dim             ....  113

MULLIKEN ATOMIC CHARGES
-----------------------
   0 N :   -0.027264
   1 C :   -0.210262
   2 N :   -0.061522
   3 C :   -0.030660
   4 C :    0.051862
   5 C :   -0.154114
   6 N :    0.105788
   7 H :    0.118278
   8 H :    0.119273
   9 H :    0.088621
Sum of atomic charges:   -0.0000000

LOEWDIN ATOMIC CHARGES
----------------------
   0 N :    0.010246
   1 C :   -0.018802
   2 N :   -0.126981
   3 C :    0.047874
   4 C :   -0.057306
   5 C :   -0.044463
   6 N :   -0.015298
   7 H :    0.075135
   8 H :    0.081624
   9 H :    0.047969

  Mayer bond orders larger than 0.1
B(  0-N ,  1-C ) :   1.2716 B(  0-N ,  2-N ) :   0.1332 B(  0-N ,  7-H ) :   0.9421
B(  0-N ,  8-H ) :   0.9278 B(  1-C ,  2-N ) :   1.9844 B(  1-C ,  3-C ) :   0.9136
B(  2-N ,  9-H ) :   0.9176 B(  3-C ,  4-C ) :   2.3829 B(  3-C ,  5-C ) :  -0.1061
B(  3-C ,  6-N ) :   0.1875 B(  4-C ,  5-C ) :   1.0059 B(  4-C ,  6-N ) :   0.1097
B(  5-C ,  6-N ) :   2.8674

FINAL SINGLE POINT ENERGY      -317.781213574970

DIPOLE MOMENT
-------------
                                X             Y             Z
Electronic contribution:      3.35353      -3.55778       2.62002
Nuclear contribution   :     -5.47512       4.44224      -3.26928
                        -----------------------------------------
Total Dipole Moment    :     -2.12159       0.88446      -0.64927
                        -----------------------------------------
Magnitude (a.u.)       :      2.38850
Magnitude (Debye)      :      6.07110

                             ****ORCA TERMINATED NORMALLY****
TOTAL RUN TIME: 0 days 0 hours 0 minutes 5 seconds 432 msec
