                         Program Version 3.0.3 - RELEASE   -
|  1> ! RI PBE def2-SVP def2-SVP/J NBO PAL2
|  2> % maxcore 2000
|  3> % output
|  4>     # printlevel mini
|  5>     print[ P_Basis ] 0
|  6>     print[ P_SCFInfo ] 1
|  7>     print[ P_SCFIterInfo ] 1
|  8>     print[ P_OrbEn ] 0
|  9>     print[ P_Cartesian ] 0
| 10> end
| 11> *xyz 0 1
| 12>  N        2.1796120000    -0.7581460000     1.2195360000
| 13>  C        2.3976750000    -0.5173410000    -0.1119820000
| 14>  N        1.9406680000    -1.1831890000    -1.0966190000
| 15>  C        3.2445790000     0.6936510000    -0.4126880000
| 16>  C        4.7504390000     0.4207610000    -0.2836180000
| 17>  C        5.1650870000     0.1855530000     1.0903070000
| 18>  N        5.4456360000     0.0122270000     2.1923970000
| 19>  H        1.8045580000    -1.6563890000     1.4751640000
| 20>  H        2.8114450000    -0.3583380000     1.8945200000
| 21>  H        1.3979650000    -1.9895120000    -0.7884960000
| 22>  H        2.9653970000     1.5280990000     0.2360780000
| 23>  H        3.0399760000     0.9739880000    -1.4445710000
| 24>  H        5.3163250000     1.2754330000    -0.6638160000
| 25>  H        5.0250280000    -0.4475060000    -0.8889010000
| 26> *
| 27>
| 28>                          ****END OF INPUT****
 Total Charge           Charge          ....    0
 Multiplicity           Mult            ....    1
 Number of Electrons    NEL             ....   52
 Basis Dimension        Dim             ....  133

MULLIKEN ATOMIC CHARGES
-----------------------
   0 N :   -0.034250
   1 C :   -0.238257
   2 N :   -0.098971
   3 C :    0.068312
   4 C :    0.073681
   5 C :   -0.284710
   6 N :    0.030634
   7 H :    0.106616
   8 H :    0.110302
   9 H :    0.070362
  10 H :    0.036371
  11 H :    0.029296
  12 H :    0.063213
  13 H :    0.067400
Sum of atomic charges:   -0.0000000

LOEWDIN ATOMIC CHARGES
----------------------
   0 N :   -0.005747
   1 C :   -0.004874
   2 N :   -0.173853
   3 C :   -0.027792
   4 C :   -0.049057
   5 C :   -0.047004
   6 N :   -0.075796
   7 H :    0.068535
   8 H :    0.069265
   9 H :    0.037978
  10 H :    0.035269
  11 H :    0.046112
  12 H :    0.062790
  13 H :    0.064174

  Mayer bond orders larger than 0.1
B(  0-N ,  1-C ) :   1.2320 B(  0-N ,  2-N ) :   0.1071 B(  0-N ,  7-H ) :   0.9470
B(  0-N ,  8-H ) :   0.9297 B(  1-C ,  2-N ) :   2.0352 B(  1-C ,  3-C ) :   0.9872
B(  2-N ,  9-H ) :   0.9310 B(  3-C ,  4-C ) :   1.1003 B(  3-C , 10-H ) :   0.9303
B(  3-C , 11-H ) :   0.9031 B(  4-C ,  5-C ) :   1.1110 B(  4-C , 12-H ) :   0.8914
B(  4-C , 13-H ) :   0.8877 B(  5-C ,  6-N ) :   2.9949

FINAL SINGLE POINT ENERGY      -320.244996937842

DIPOLE MOMENT
-------------
                                X             Y             Z
Electronic contribution:      2.03827      -0.52899       2.46397
Nuclear contribution   :     -2.24744       0.59741      -2.57191
                        -----------------------------------------
Total Dipole Moment    :     -0.20917       0.06843      -0.10794
                        -----------------------------------------
Magnitude (a.u.)       :      0.24513
Magnitude (Debye)      :      0.62306

                             ****ORCA TERMINATED NORMALLY****
TOTAL RUN TIME: 0 days 0 hours 0 minutes 7 seconds 88 msec
