                         Program Version 3.0.3 - RELEASE   -
|  1> ! RI PBE def2-SVP def2-SVP/J NBO PAL2
|  2> % maxcore 2000
|  3> % output
|  4>     # printlevel mini
|  5>     print[ P_Basis ] 0
|  6>     print[ P_SCFInfo ] 1
|  7>     print[ P_SCFIterInfo ] 1
|  8>     print[ P_OrbEn ] 0
|  9>     print[ P_Cartesian ] 0
| 10> end
| 11> *xyz 0 1
| 12>  N        1.0909050000    -0.0405340000    -0.2001380000
| 13>  N        2.4580830000    -0.0691920000    -0.1065330000
| 14>  C        2.9855340000    -1.0429640000     0.5115420000
| 15>  C        2.2852960000    -2.2426550000     1.1029690000
| 16>  C        3.4020200000    -3.0268060000     1.7980890000
| 17>  C        4.6662020000    -2.6456480000     1.0253390000
| 18>  C        4.4699140000    -1.1595240000     0.7312120000
| 19>  H        0.8207780000     0.5342320000    -0.9833130000
| 20>  H        0.6471480000    -0.9531600000    -0.2482780000
| 21>  H        1.8267830000    -2.8397990000     0.3017190000
| 22>  H        1.4743960000    -1.9492490000     1.7771460000
| 23>  H        3.2192880000    -4.1025990000     1.8211210000
| 24>  H        3.4935380000    -2.6910730000     2.8358480000
| 25>  H        4.7082640000    -3.2067960000     0.0857530000
| 26>  H        5.5835480000    -2.8595260000     1.5766980000
| 27>  H        5.0418460000    -0.7864350000    -0.1189420000
| 28>  H        4.7598550000    -0.5638530000     1.6060590000
| 29> *
| 30>
| 31>                          ****END OF INPUT****
 Total Charge           Charge          ....    0
 Multiplicity           Mult            ....    1
 Number of Electrons    NEL             ....   54
 Basis Dimension        Dim             ....  148

MULLIKEN ATOMIC CHARGES
-----------------------
   0 N :   -0.063081
   1 N :   -0.105889
   2 C :   -0.293599
   3 C :    0.057582
   4 C :   -0.038085
   5 C :   -0.024539
   6 C :    0.122773
   7 H :    0.110096
   8 H :    0.084850
   9 H :    0.022131
  10 H :    0.028229
  11 H :    0.014456
  12 H :    0.021287
  13 H :    0.016876
  14 H :    0.007114
  15 H :    0.015583
  16 H :    0.024217
Sum of atomic charges:    0.0000000

LOEWDIN ATOMIC CHARGES
----------------------
   0 N :   -0.007009
   1 N :   -0.062114
   2 C :   -0.072279
   3 C :   -0.064300
   4 C :   -0.039174
   5 C :   -0.038945
   6 C :   -0.039254
   7 H :    0.056938
   8 H :    0.038679
   9 H :    0.030492
  10 H :    0.031942
  11 H :    0.024149
  12 H :    0.027357
  13 H :    0.023965
  14 H :    0.022747
  15 H :    0.032184
  16 H :    0.034622

  Mayer bond orders larger than 0.1
B(  0-N ,  1-N ) :   1.0951 B(  0-N ,  7-H ) :   0.9651 B(  0-N ,  8-H ) :   0.9384
B(  1-N ,  2-C ) :   1.9311 B(  2-C ,  3-C ) :   1.0305 B(  2-C ,  6-C ) :   1.0598
B(  3-C ,  4-C ) :   1.0962 B(  3-C ,  9-H ) :   0.8980 B(  3-C , 10-H ) :   0.9115
B(  4-C ,  5-C ) :   1.0954 B(  4-C , 11-H ) :   0.9331 B(  4-C , 12-H ) :   0.9339
B(  5-C ,  6-C ) :   1.0709 B(  5-C , 13-H ) :   0.9391 B(  5-C , 14-H ) :   0.9342
B(  6-C , 15-H ) :   0.9255 B(  6-C , 16-H ) :   0.9123

FINAL SINGLE POINT ENERGY      -305.402749828587

DIPOLE MOMENT
-------------
                                X             Y             Z
Electronic contribution:     -1.69440       3.93082      -1.90525
Nuclear contribution   :      1.36931      -4.56850       1.75176
                        -----------------------------------------
Total Dipole Moment    :     -0.32509      -0.63767      -0.15349
                        -----------------------------------------
Magnitude (a.u.)       :      0.73203
Magnitude (Debye)      :      1.86067

                             ****ORCA TERMINATED NORMALLY****
TOTAL RUN TIME: 0 days 0 hours 0 minutes 8 seconds 167 msec
