                         Program Version 3.0.3 - RELEASE   -
|  1> ! RI PBE def2-SVP def2-SVP/J NBO PAL2
|  2> % maxcore 2000
|  3> % output
|  4>     # printlevel mini
|  5>     print[ P_Basis ] 0
|  6>     print[ P_SCFInfo ] 1
|  7>     print[ P_SCFIterInfo ] 1
|  8>     print[ P_OrbEn ] 0
|  9>     print[ P_Cartesian ] 0
| 10> end
| 11> *xyz 0 1
| 12>  N        1.0402190000     0.0271390000     0.1634760000
| 13>  N        2.3455350000     0.0367620000     0.1098370000
| 14>  C        2.9486050000     0.3318190000    -0.9983110000
| 15>  C        4.4006080000     0.3521930000    -1.0930860000
| 16>  C        4.7236800000     0.6907740000    -2.3597910000
| 17>  C        3.4937260000     0.8972190000    -3.1145020000
| 18>  C        2.4244840000     0.6853660000    -2.3114220000
| 19>  H        0.6251120000    -0.2110190000     1.0435140000
| 20>  H        0.4568500000     0.2390720000    -0.6329300000
| 21>  H        5.0597620000     0.1285980000    -0.2674610000
| 22>  H        5.7201890000     0.7961200000    -2.7652190000
| 23>  H        3.4534000000     1.1774420000    -4.1590150000
| 24>  H        1.3872200000     0.7673950000    -2.6040690000
| 25> *
| 26>
| 27>                          ****END OF INPUT****
 Total Charge           Charge          ....    0
 Multiplicity           Mult            ....    1
 Number of Electrons    NEL             ....   50
 Basis Dimension        Dim             ....  128

MULLIKEN ATOMIC CHARGES
-----------------------
   0 N :   -0.007549
   1 N :   -0.037727
   2 C :   -0.088594
   3 C :    0.031463
   4 C :    0.002087
   5 C :   -0.002744
   6 C :   -0.023270
   7 H :    0.135311
   8 H :    0.112666
   9 H :   -0.030137
  10 H :   -0.026076
  11 H :   -0.021429
  12 H :   -0.044001
Sum of atomic charges:   -0.0000000

LOEWDIN ATOMIC CHARGES
----------------------
   0 N :    0.086865
   1 N :    0.005055
   2 C :   -0.071194
   3 C :   -0.044925
   4 C :   -0.053572
   5 C :   -0.018602
   6 C :   -0.102669
   7 H :    0.071952
   8 H :    0.051956
   9 H :    0.023649
  10 H :    0.019172
  11 H :    0.019937
  12 H :    0.012376

  Mayer bond orders larger than 0.1
B(  0-N ,  1-N ) :   1.2336 B(  0-N ,  2-C ) :   0.1079 B(  0-N ,  7-H ) :   0.9553
B(  0-N ,  8-H ) :   0.9314 B(  1-N ,  2-C ) :   1.6664 B(  2-C ,  3-C ) :   1.1098
B(  2-C ,  6-C ) :   1.0770 B(  3-C ,  4-C ) :   1.5937 B(  3-C ,  9-H ) :   1.0069
B(  4-C ,  5-C ) :   1.1174 B(  4-C , 10-H ) :   0.9976 B(  5-C ,  6-C ) :   1.6187
B(  5-C , 11-H ) :   0.9872 B(  6-C , 12-H ) :   0.9926

FINAL SINGLE POINT ENERGY      -302.981456590272

DIPOLE MOMENT
-------------
                                X             Y             Z
Electronic contribution:     -0.09625      -0.43052       1.62570
Nuclear contribution   :     -1.11183       0.36151      -1.35667
                        -----------------------------------------
Total Dipole Moment    :     -1.20808      -0.06900       0.26903
                        -----------------------------------------
Magnitude (a.u.)       :      1.23959
Magnitude (Debye)      :      3.15079

                             ****ORCA TERMINATED NORMALLY****
TOTAL RUN TIME: 0 days 0 hours 0 minutes 6 seconds 768 msec
