                         Program Version 3.0.3 - RELEASE   -
|  1> ! RI PBE def2-SVP def2-SVP/J NBO PAL2
|  2> % maxcore 2000
|  3> % output
|  4>     # printlevel mini
|  5>     print[ P_Basis ] 0
|  6>     print[ P_SCFInfo ] 1
|  7>     print[ P_SCFIterInfo ] 1
|  8>     print[ P_OrbEn ] 0
|  9>     print[ P_Cartesian ] 0
| 10> end
| 11> *xyz 0 1
| 12>  N        0.9624230000    -0.1464000000    -0.0327990000
| 13>  N        2.3292590000    -0.1996110000    -0.0107130000
| 14>  C        2.9216800000    -0.5857570000    -1.0621990000
| 15>  C        2.2917720000    -1.0444920000    -2.3575310000
| 16>  C        3.4853660000    -1.3319270000    -3.2177460000
| 17>  C        4.6312210000    -1.1021630000    -2.5847700000
| 18>  C        4.4264800000    -0.6178960000    -1.1825790000
| 19>  H        0.6073770000    -0.1749990000     0.9102470000
| 20>  H        0.5150400000    -0.8481750000    -0.6151380000
| 21>  H        1.6365160000    -0.2690200000    -2.7777850000
| 22>  H        1.6567640000    -1.9330240000    -2.2189170000
| 23>  H        3.3999020000    -1.6855070000    -4.2383600000
| 24>  H        5.6139180000    -1.2431440000    -3.0186580000
| 25>  H        4.8649800000     0.3722440000    -1.0135500000
| 26>  H        4.8805910000    -1.2850180000    -0.4407940000
| 27> *
| 28>
| 29>                          ****END OF INPUT****
 Total Charge           Charge          ....    0
 Multiplicity           Mult            ....    1
 Number of Electrons    NEL             ....   52
 Basis Dimension        Dim             ....  138

MULLIKEN ATOMIC CHARGES
-----------------------
   0 N :   -0.056973
   1 N :   -0.100888
   2 C :   -0.317780
   3 C :    0.118857
   4 C :   -0.062998
   5 C :   -0.080259
   6 C :    0.190655
   7 H :    0.110463
   8 H :    0.084677
   9 H :    0.043292
  10 H :    0.032122
  11 H :   -0.015966
  12 H :   -0.015746
  13 H :    0.034481
  14 H :    0.036062
Sum of atomic charges:    0.0000000

LOEWDIN ATOMIC CHARGES
----------------------
   0 N :   -0.003519
   1 N :   -0.057942
   2 C :   -0.063189
   3 C :   -0.063913
   4 C :   -0.037342
   5 C :   -0.033058
   6 C :   -0.037505
   7 H :    0.057823
   8 H :    0.039009
   9 H :    0.039093
  10 H :    0.033181
  11 H :    0.021368
  12 H :    0.022027
  13 H :    0.042273
  14 H :    0.041694

  Mayer bond orders larger than 0.1
B(  0-N ,  1-N ) :   1.1010 B(  0-N ,  2-C ) :   0.1027 B(  0-N ,  7-H ) :   0.9648
B(  0-N ,  8-H ) :   0.9391 B(  1-N ,  2-C ) :   1.9295 B(  2-C ,  3-C ) :   1.0265
B(  2-C ,  6-C ) :   1.0457 B(  3-C ,  4-C ) :   1.0251 B(  3-C ,  9-H ) :   0.8922
B(  3-C , 10-H ) :   0.8860 B(  4-C ,  5-C ) :   1.8628 B(  4-C , 11-H ) :   0.9789
B(  5-C ,  6-C ) :   1.0181 B(  5-C , 12-H ) :   0.9847 B(  6-C , 13-H ) :   0.8999
B(  6-C , 14-H ) :   0.9002

FINAL SINGLE POINT ENERGY      -304.184438320337

DIPOLE MOMENT
-------------
                                X             Y             Z
Electronic contribution:     -0.03447       0.78046       1.50915
Nuclear contribution   :     -0.34641      -1.29863      -1.70788
                        -----------------------------------------
Total Dipole Moment    :     -0.38088      -0.51817      -0.19872
                        -----------------------------------------
Magnitude (a.u.)       :      0.67310
Magnitude (Debye)      :      1.71088

                             ****ORCA TERMINATED NORMALLY****
TOTAL RUN TIME: 0 days 0 hours 0 minutes 7 seconds 301 msec
