                         Program Version 3.0.3 - RELEASE   -
|  1> ! RI PBE def2-SVP def2-SVP/J NBO PAL2
|  2> % maxcore 2000
|  3> % output
|  4>     # printlevel mini
|  5>     print[ P_Basis ] 0
|  6>     print[ P_SCFInfo ] 1
|  7>     print[ P_SCFIterInfo ] 1
|  8>     print[ P_OrbEn ] 0
|  9>     print[ P_Cartesian ] 0
| 10> end
| 11> *xyz 0 1
| 12>  N        0.9508300000     0.1909630000     0.3811320000
| 13>  N        2.3136810000     0.0902330000     0.2764900000
| 14>  C        2.9089500000    -0.8367030000     0.9151860000
| 15>  C        4.4150160000    -0.9846980000     0.8982790000
| 16>  C        4.6968670000    -2.2680930000     1.6989390000
| 17>  C        3.3501230000    -2.6893980000     2.2011930000
| 18>  C        2.3676900000    -1.8992090000     1.7603340000
| 19>  H        0.5979890000     0.7116680000    -0.4070060000
| 20>  H        0.4635660000    -0.6955330000     0.4669800000
| 21>  H        4.8808830000    -0.1126000000     1.3631020000
| 22>  H        4.7907930000    -1.0382840000    -0.1246110000
| 23>  H        5.3947790000    -2.1038400000     2.5260100000
| 24>  H        5.1429160000    -3.0548970000     1.0803660000
| 25>  H        3.2105920000    -3.5458100000     2.8511580000
| 26>  H        1.3226040000    -2.0185890000     2.0157260000
| 27> *
| 28>
| 29>                          ****END OF INPUT****
 Total Charge           Charge          ....    0
 Multiplicity           Mult            ....    1
 Number of Electrons    NEL             ....   52
 Basis Dimension        Dim             ....  138

MULLIKEN ATOMIC CHARGES
-----------------------
   0 N :   -0.055343
   1 N :   -0.120333
   2 C :   -0.197256
   3 C :    0.113327
   4 C :    0.023045
   5 C :   -0.086154
   6 C :    0.042061
   7 H :    0.109552
   8 H :    0.087623
   9 H :    0.029840
  10 H :    0.022906
  11 H :    0.031020
  12 H :    0.031739
  13 H :   -0.004898
  14 H :   -0.027128
Sum of atomic charges:   -0.0000000

LOEWDIN ATOMIC CHARGES
----------------------
   0 N :   -0.005215
   1 N :   -0.065488
   2 C :   -0.075353
   3 C :   -0.029305
   4 C :   -0.040527
   5 C :   -0.007312
   6 C :   -0.062455
   7 H :    0.057294
   8 H :    0.038783
   9 H :    0.038529
  10 H :    0.035347
  11 H :    0.035451
  12 H :    0.035835
  13 H :    0.022106
  14 H :    0.022309

  Mayer bond orders larger than 0.1
B(  0-N ,  1-N ) :   1.0998 B(  0-N ,  7-H ) :   0.9652 B(  0-N ,  8-H ) :   0.9402
B(  1-N ,  2-C ) :   1.8443 B(  2-C ,  3-C ) :   1.0648 B(  2-C ,  6-C ) :   1.0486
B(  3-C ,  4-C ) :   1.0966 B(  3-C ,  9-H ) :   0.9156 B(  3-C , 10-H ) :   0.9173
B(  4-C ,  5-C ) :   1.0692 B(  4-C , 11-H ) :   0.9157 B(  4-C , 12-H ) :   0.9122
B(  5-C ,  6-C ) :   1.7384 B(  5-C , 13-H ) :   0.9745 B(  6-C , 14-H ) :   0.9861

FINAL SINGLE POINT ENERGY      -304.188730678313

DIPOLE MOMENT
-------------
                                X             Y             Z
Electronic contribution:     -2.19548       1.68000      -0.69891
Nuclear contribution   :      1.95928      -2.34692       0.66200
                        -----------------------------------------
Total Dipole Moment    :     -0.23621      -0.66692      -0.03691
                        -----------------------------------------
Magnitude (a.u.)       :      0.70848
Magnitude (Debye)      :      1.80081

                             ****ORCA TERMINATED NORMALLY****
TOTAL RUN TIME: 0 days 0 hours 0 minutes 7 seconds 241 msec
