                         Program Version 3.0.3 - RELEASE   -
|  1> ! RI PBE def2-SVP def2-SVP/J NBO PAL2
|  2> % maxcore 2000
|  3> % output
|  4>     # printlevel mini
|  5>     print[ P_Basis ] 0
|  6>     print[ P_SCFInfo ] 1
|  7>     print[ P_SCFIterInfo ] 1
|  8>     print[ P_OrbEn ] 0
|  9>     print[ P_Cartesian ] 0
| 10> end
| 11> *xyz 0 1
| 12>  N        0.9208490000    -0.1454790000     0.3486230000
| 13>  N        2.2793310000    -0.1964480000     0.3934830000
| 14>  C        2.8784440000    -1.0597200000    -0.3176350000
| 15>  C        4.3551080000    -1.1262460000    -0.3824810000
| 16>  C        5.0592400000    -2.4823710000    -0.1324310000
| 17>  C        6.0741360000    -2.1156150000    -1.2295200000
| 18>  C        5.0498430000    -1.1003680000    -1.7667830000
| 19>  H        0.5536620000     0.2425200000     1.2028960000
| 20>  H        0.4640480000    -1.0179560000     0.0970650000
| 21>  H        2.3131290000    -1.7870440000    -0.9211300000
| 22>  H        4.7693270000    -0.3524310000     0.2677540000
| 23>  H        4.4214370000    -3.3142870000    -0.4449170000
| 24>  H        5.4250500000    -2.6823900000     0.8759230000
| 25>  H        6.4113570000    -2.9067800000    -1.9004130000
| 26>  H        6.9503900000    -1.6153720000    -0.8114320000
| 27>  H        4.4091610000    -1.5498280000    -2.5307400000
| 28>  H        5.4070990000    -0.1367770000    -2.1328430000
| 29> *
| 30>
| 31>                          ****END OF INPUT****
 Total Charge           Charge          ....    0
 Multiplicity           Mult            ....    1
 Number of Electrons    NEL             ....   54
 Basis Dimension        Dim             ....  148

MULLIKEN ATOMIC CHARGES
-----------------------
   0 N :   -0.053115
   1 N :   -0.112670
   2 C :    0.008780
   3 C :   -0.155581
   4 C :    0.057504
   5 C :   -0.016139
   6 C :    0.059780
   7 H :    0.114199
   8 H :    0.083189
   9 H :   -0.048881
  10 H :    0.010671
  11 H :    0.000026
  12 H :    0.013119
  13 H :    0.009118
  14 H :    0.013246
  15 H :    0.002115
  16 H :    0.014638
Sum of atomic charges:   -0.0000000

LOEWDIN ATOMIC CHARGES
----------------------
   0 N :    0.000031
   1 N :   -0.044714
   2 C :   -0.053119
   3 C :   -0.046237
   4 C :   -0.025364
   5 C :   -0.036502
   6 C :   -0.024091
   7 H :    0.058847
   8 H :    0.038572
   9 H :   -0.015208
  10 H :    0.033463
  11 H :    0.020491
  12 H :    0.016122
  13 H :    0.015418
  14 H :    0.024080
  15 H :    0.021051
  16 H :    0.017160

  Mayer bond orders larger than 0.1
B(  0-N ,  1-N ) :   1.1044 B(  0-N ,  2-C ) :   0.1285 B(  0-N ,  7-H ) :   0.9627
B(  0-N ,  8-H ) :   0.9418 B(  1-N ,  2-C ) :   1.8803 B(  2-C ,  3-C ) :   1.0454
B(  2-C ,  9-H ) :   0.9130 B(  3-C ,  4-C ) :   1.0499 B(  3-C ,  6-C ) :   1.0503
B(  3-C , 10-H ) :   0.9115 B(  4-C ,  5-C ) :   1.1164 B(  4-C , 11-H ) :   0.9197
B(  4-C , 12-H ) :   0.9343 B(  5-C ,  6-C ) :   1.1141 B(  5-C , 13-H ) :   0.9352
B(  5-C , 14-H ) :   0.9316 B(  6-C , 15-H ) :   0.9225 B(  6-C , 16-H ) :   0.9346

FINAL SINGLE POINT ENERGY      -305.368268735477

DIPOLE MOMENT
-------------
                                X             Y             Z
Electronic contribution:     -3.84280       2.70250       2.01319
Nuclear contribution   :      3.42678      -3.20794      -1.89059
                        -----------------------------------------
Total Dipole Moment    :     -0.41601      -0.50544       0.12259
                        -----------------------------------------
Magnitude (a.u.)       :      0.66601
Magnitude (Debye)      :      1.69286

                             ****ORCA TERMINATED NORMALLY****
TOTAL RUN TIME: 0 days 0 hours 0 minutes 7 seconds 653 msec
