                         Program Version 3.0.3 - RELEASE   -
|  1> ! RI PBE def2-SVP def2-SVP/J NBO PAL2
|  2> % maxcore 2000
|  3> % output
|  4>     # printlevel mini
|  5>     print[ P_Basis ] 0
|  6>     print[ P_SCFInfo ] 1
|  7>     print[ P_SCFIterInfo ] 1
|  8>     print[ P_OrbEn ] 0
|  9>     print[ P_Cartesian ] 0
| 10> end
| 11> *xyz 0 1
| 12>  N        1.4498140000    -1.4013070000     0.1208040000
| 13>  N        2.6244560000    -0.7291770000    -0.0321630000
| 14>  C        2.6815740000     0.2032090000    -0.8889230000
| 15>  C        3.9136240000     1.0261230000    -1.0574810000
| 16>  C        4.4618650000     0.9713050000    -2.4618610000
| 17>  C        3.9007590000     1.8689590000    -3.5235470000
| 18>  C        5.2826870000     2.1045830000    -2.9916320000
| 19>  H        1.6206080000    -2.3298520000     0.4729290000
| 20>  H        0.8502670000    -1.4101690000    -0.7001100000
| 21>  H        1.8245700000     0.4302940000    -1.5390430000
| 22>  H        3.6881040000     2.0732900000    -0.8140160000
| 23>  H        4.6579090000     0.6808080000    -0.3351290000
| 24>  H        4.7553550000    -0.0217360000    -2.7883020000
| 25>  H        3.1245750000     2.5676760000    -3.2323340000
| 26>  H        3.7975420000     1.4817030000    -4.5295100000
| 27>  H        5.4350940000     2.9587190000    -2.3420660000
| 28>  H        6.1242980000     1.8754710000    -3.6331070000
| 29> *
| 30>
| 31>                          ****END OF INPUT****
 Total Charge           Charge          ....    0
 Multiplicity           Mult            ....    1
 Number of Electrons    NEL             ....   54
 Basis Dimension        Dim             ....  148

MULLIKEN ATOMIC CHARGES
-----------------------
   0 N :   -0.057004
   1 N :   -0.116719
   2 C :   -0.091397
   3 C :    0.180096
   4 C :   -0.180811
   5 C :   -0.037380
   6 C :   -0.016923
   7 H :    0.113759
   8 H :    0.082594
   9 H :   -0.030610
  10 H :   -0.000176
  11 H :    0.012696
  12 H :    0.019984
  13 H :    0.030319
  14 H :    0.031052
  15 H :    0.027170
  16 H :    0.033352
Sum of atomic charges:   -0.0000000

LOEWDIN ATOMIC CHARGES
----------------------
   0 N :   -0.002656
   1 N :   -0.048057
   2 C :   -0.049773
   3 C :   -0.040501
   4 C :   -0.043931
   5 C :   -0.050501
   6 C :   -0.044573
   7 H :    0.058264
   8 H :    0.038268
   9 H :   -0.012023
  10 H :    0.032043
  11 H :    0.035510
  12 H :    0.026028
  13 H :    0.023921
  14 H :    0.026070
  15 H :    0.024865
  16 H :    0.027045

  Mayer bond orders larger than 0.1
B(  0-N ,  1-N ) :   1.1006 B(  0-N ,  2-C ) :   0.1277 B(  0-N ,  7-H ) :   0.9632
B(  0-N ,  8-H ) :   0.9428 B(  1-N ,  2-C ) :   1.8929 B(  2-C ,  3-C ) :   1.0456
B(  2-C ,  9-H ) :   0.9283 B(  3-C ,  4-C ) :   1.0658 B(  3-C , 10-H ) :   0.8972
B(  3-C , 11-H ) :   0.9128 B(  4-C ,  5-C ) :   0.9852 B(  4-C ,  6-C ) :   0.9814
B(  4-C , 12-H ) :   0.9482 B(  5-C ,  6-C ) :   1.0546 B(  5-C , 13-H ) :   0.9486
B(  5-C , 14-H ) :   0.9481 B(  6-C , 15-H ) :   0.9449 B(  6-C , 16-H ) :   0.9466

FINAL SINGLE POINT ENERGY      -305.363700141491

DIPOLE MOMENT
-------------
                                X             Y             Z
Electronic contribution:     -1.81494      -3.04993       3.40177
Nuclear contribution   :      1.49494       2.73866      -3.92591
                        -----------------------------------------
Total Dipole Moment    :     -0.32000      -0.31127      -0.52415
                        -----------------------------------------
Magnitude (a.u.)       :      0.68849
Magnitude (Debye)      :      1.75000

                             ****ORCA TERMINATED NORMALLY****
TOTAL RUN TIME: 0 days 0 hours 0 minutes 7 seconds 795 msec
