                         Program Version 3.0.3 - RELEASE   -
|  1> ! RI PBE def2-SVP def2-SVP/J NBO PAL2
|  2> % maxcore 2000
|  3> % output
|  4>     # printlevel mini
|  5>     print[ P_Basis ] 0
|  6>     print[ P_SCFInfo ] 1
|  7>     print[ P_SCFIterInfo ] 1
|  8>     print[ P_OrbEn ] 0
|  9>     print[ P_Cartesian ] 0
| 10> end
| 11> *xyz 0 1
| 12>  N        1.2015040000    -0.0243150000     0.3412990000
| 13>  N        2.5361960000    -0.1352030000     0.1802680000
| 14>  C        2.9927380000    -0.7384670000    -0.8629890000
| 15>  C        2.1284220000    -1.3889630000    -1.8496430000
| 16>  C        2.4521870000    -1.6272480000    -3.1193120000
| 17>  C        4.4496680000    -0.7997130000    -1.0337930000
| 18>  C        5.3154430000     0.0614510000    -0.5079270000
| 19>  H        0.9832320000     0.6484900000     1.0574710000
| 20>  H        0.6460050000     0.1014000000    -0.4965260000
| 21>  H        1.1599470000    -1.7252760000    -1.4852170000
| 22>  H        3.3981300000    -1.3030980000    -3.5393340000
| 23>  H        1.7732820000    -2.1496470000    -3.7829830000
| 24>  H        4.8165860000    -1.6218440000    -1.6418740000
| 25>  H        4.9770710000     0.9035570000     0.0844300000
| 26>  H        6.3825100000    -0.0645340000    -0.6463690000
| 27> *
| 28>
| 29>                          ****END OF INPUT****
 Total Charge           Charge          ....    0
 Multiplicity           Mult            ....    1
 Number of Electrons    NEL             ....   52
 Basis Dimension        Dim             ....  138

MULLIKEN ATOMIC CHARGES
-----------------------
   0 N :   -0.038530
   1 N :   -0.115372
   2 C :   -0.043043
   3 C :   -0.063246
   4 C :   -0.024357
   5 C :   -0.023602
   6 C :   -0.013137
   7 H :    0.120372
   8 H :    0.103051
   9 H :    0.000999
  10 H :    0.029088
  11 H :    0.030102
  12 H :   -0.004702
  13 H :    0.020618
  14 H :    0.021758
Sum of atomic charges:   -0.0000000

LOEWDIN ATOMIC CHARGES
----------------------
   0 N :    0.028232
   1 N :   -0.036409
   2 C :   -0.075393
   3 C :   -0.057429
   4 C :   -0.037773
   5 C :   -0.040523
   6 C :   -0.041375
   7 H :    0.063972
   8 H :    0.045222
   9 H :    0.025335
  10 H :    0.025596
  11 H :    0.026513
  12 H :    0.026918
  13 H :    0.023196
  14 H :    0.023919

  Mayer bond orders larger than 0.1
B(  0-N ,  1-N ) :   1.1504 B(  0-N ,  7-H ) :   0.9633 B(  0-N ,  8-H ) :   0.9324
B(  1-N ,  2-C ) :   1.7589 B(  2-C ,  3-C ) :   1.0613 B(  2-C ,  5-C ) :   1.0869
B(  3-C ,  4-C ) :   1.9192 B(  3-C ,  9-H ) :   0.9384 B(  4-C , 10-H ) :   0.9426
B(  4-C , 11-H ) :   0.9393 B(  5-C ,  6-C ) :   1.9492 B(  5-C , 12-H ) :   0.9447
B(  6-C , 13-H ) :   0.9393 B(  6-C , 14-H ) :   0.9363

FINAL SINGLE POINT ENERGY      -304.155002194820

DIPOLE MOMENT
-------------
                                X             Y             Z
Electronic contribution:     -1.11074       0.36430       2.30910
Nuclear contribution   :      0.38661      -0.08490      -2.62432
                        -----------------------------------------
Total Dipole Moment    :     -0.72412       0.27940      -0.31522
                        -----------------------------------------
Magnitude (a.u.)       :      0.83773
Magnitude (Debye)      :      2.12933

                             ****ORCA TERMINATED NORMALLY****
TOTAL RUN TIME: 0 days 0 hours 0 minutes 7 seconds 66 msec
