                         Program Version 3.0.3 - RELEASE   -
|  1> ! RI PBE def2-SVP def2-SVP/J NBO PAL2
|  2> % maxcore 2000
|  3> % output
|  4>     # printlevel mini
|  5>     print[ P_Basis ] 0
|  6>     print[ P_SCFInfo ] 1
|  7>     print[ P_SCFIterInfo ] 1
|  8>     print[ P_OrbEn ] 0
|  9>     print[ P_Cartesian ] 0
| 10> end
| 11> *xyz 0 1
| 12>  N        0.9705140000    -0.2411830000    -0.2004570000
| 13>  N        2.2998600000    -0.1375540000    -0.0855610000
| 14>  C        2.8105000000     0.7303130000     0.7238050000
| 15>  C        2.0462550000     1.6646930000     1.5503570000
| 16>  C        2.5661160000     2.4229100000     2.5130160000
| 17>  C        4.2363720000     0.7716060000     0.7884310000
| 18>  C        5.4325380000     0.8387080000     0.8893010000
| 19>  H        0.7087870000    -1.1001640000    -0.6543530000
| 20>  H        0.3985530000    -0.0157210000     0.6039350000
| 21>  H        0.9896350000     1.7675310000     1.3219840000
| 22>  H        3.6202370000     2.3715750000     2.7614690000
| 23>  H        1.9500540000     3.1168690000     3.0716670000
| 24>  H        6.4935560000     0.8833160000     0.9581060000
| 25> *
| 26>
| 27>                          ****END OF INPUT****
 Total Charge           Charge          ....    0
 Multiplicity           Mult            ....    1
 Number of Electrons    NEL             ....   50
 Basis Dimension        Dim             ....  128

MULLIKEN ATOMIC CHARGES
-----------------------
   0 N :   -0.029716
   1 N :   -0.097217
   2 C :   -0.096952
   3 C :   -0.009584
   4 C :   -0.012465
   5 C :    0.450517
   6 C :   -0.486527
   7 H :    0.127592
   8 H :    0.102786
   9 H :   -0.014262
  10 H :    0.037987
  11 H :    0.027375
  12 H :    0.000468
Sum of atomic charges:   -0.0000000

LOEWDIN ATOMIC CHARGES
----------------------
   0 N :    0.038511
   1 N :   -0.020736
   2 C :   -0.090959
   3 C :   -0.053686
   4 C :   -0.024082
   5 C :   -0.007607
   6 C :   -0.073165
   7 H :    0.068229
   8 H :    0.044935
   9 H :    0.025175
  10 H :    0.031561
  11 H :    0.027456
  12 H :    0.034365

  Mayer bond orders larger than 0.1
B(  0-N ,  1-N ) :   1.1626 B(  0-N ,  2-C ) :   0.1076 B(  0-N ,  7-H ) :   0.9603
B(  0-N ,  8-H ) :   0.9316 B(  1-N ,  2-C ) :   1.7248 B(  2-C ,  3-C ) :   1.0751
B(  2-C ,  5-C ) :   0.9959 B(  3-C ,  4-C ) :   1.9117 B(  3-C ,  9-H ) :   0.9414
B(  4-C , 10-H ) :   0.9356 B(  4-C , 11-H ) :   0.9360 B(  5-C ,  6-C ) :   2.2479
B(  5-C , 12-H ) :  -0.1110 B(  6-C , 12-H ) :   1.1006

FINAL SINGLE POINT ENERGY      -302.910727239698

DIPOLE MOMENT
-------------
                                X             Y             Z
Electronic contribution:      1.71341      -1.97410      -2.26601
Nuclear contribution   :     -2.59935       1.85389       2.66253
                        -----------------------------------------
Total Dipole Moment    :     -0.88594      -0.12021       0.39653
                        -----------------------------------------
Magnitude (a.u.)       :      0.97804
Magnitude (Debye)      :      2.48599

                             ****ORCA TERMINATED NORMALLY****
TOTAL RUN TIME: 0 days 0 hours 0 minutes 6 seconds 748 msec
