                         Program Version 3.0.3 - RELEASE   -
|  1> ! RI PBE def2-SVP def2-SVP/J NBO PAL2
|  2> % maxcore 2000
|  3> % output
|  4>     # printlevel mini
|  5>     print[ P_Basis ] 0
|  6>     print[ P_SCFInfo ] 1
|  7>     print[ P_SCFIterInfo ] 1
|  8>     print[ P_OrbEn ] 0
|  9>     print[ P_Cartesian ] 0
| 10> end
| 11> *xyz 0 1
| 12>  N        1.0363190000    -0.0653550000     0.0697420000
| 13>  N        2.3429820000    -0.0942270000     0.0598700000
| 14>  C        3.0006640000     0.9668110000     0.4211140000
| 15>  C        2.3329130000     2.1581620000     0.8267510000
| 16>  C        1.6875320000     3.1207700000     1.1545100000
| 17>  C        4.4215640000     0.9346560000     0.4101370000
| 18>  C        5.6235020000     0.9556250000     0.4172610000
| 19>  H        0.5676520000    -0.9029170000    -0.2155230000
| 20>  H        0.5204880000     0.7592640000     0.3504280000
| 21>  H        1.1520700000     3.9920040000     1.4512260000
| 22>  H        6.6875130000     0.9607980000     0.4190850000
| 23> *
| 24>
| 25>                          ****END OF INPUT****
 Total Charge           Charge          ....    0
 Multiplicity           Mult            ....    1
 Number of Electrons    NEL             ....   48
 Basis Dimension        Dim             ....  118

MULLIKEN ATOMIC CHARGES
-----------------------
   0 N :   -0.017327
   1 N :   -0.058919
   2 C :   -0.142961
   3 C :    0.425781
   4 C :   -0.478416
   5 C :    0.483599
   6 C :   -0.470274
   7 H :    0.135109
   8 H :    0.112585
   9 H :    0.008949
  10 H :    0.001874
Sum of atomic charges:    0.0000000

LOEWDIN ATOMIC CHARGES
----------------------
   0 N :    0.079295
   1 N :    0.003650
   2 C :   -0.118145
   3 C :   -0.025927
   4 C :   -0.064200
   5 C :   -0.009730
   6 C :   -0.062919
   7 H :    0.072367
   8 H :    0.051585
   9 H :    0.039160
  10 H :    0.034865

  Mayer bond orders larger than 0.1
B(  0-N ,  1-N ) :   1.2285 B(  0-N ,  2-C ) :   0.1439 B(  0-N ,  7-H ) :   0.9553
B(  0-N ,  8-H ) :   0.9180 B(  1-N ,  2-C ) :   1.6810 B(  2-C ,  3-C ) :   0.9908
B(  2-C ,  5-C ) :   1.0004 B(  3-C ,  4-C ) :   2.2252 B(  3-C ,  9-H ) :  -0.1099
B(  4-C ,  9-H ) :   1.1005 B(  5-C ,  6-C ) :   2.2462 B(  5-C , 10-H ) :  -0.1074
B(  6-C , 10-H ) :   1.0977

FINAL SINGLE POINT ENERGY      -301.668490579905

DIPOLE MOMENT
-------------
                                X             Y             Z
Electronic contribution:      1.15753      -0.35016      -0.11913
Nuclear contribution   :     -2.28428       0.41078       0.13990
                        -----------------------------------------
Total Dipole Moment    :     -1.12675       0.06062       0.02077
                        -----------------------------------------
Magnitude (a.u.)       :      1.12857
Magnitude (Debye)      :      2.86860

                             ****ORCA TERMINATED NORMALLY****
TOTAL RUN TIME: 0 days 0 hours 0 minutes 5 seconds 478 msec
