                         Program Version 3.0.3 - RELEASE   -
|  1> ! RI PBE def2-SVP def2-SVP/J NBO PAL2
|  2> % maxcore 2000
|  3> % output
|  4>     # printlevel mini
|  5>     print[ P_Basis ] 0
|  6>     print[ P_SCFInfo ] 1
|  7>     print[ P_SCFIterInfo ] 1
|  8>     print[ P_OrbEn ] 0
|  9>     print[ P_Cartesian ] 0
| 10> end
| 11> *xyz 0 1
| 12>  N        0.6274170000    -0.6652470000    -0.8340490000
| 13>  N        1.8997160000    -0.4127860000    -0.5753000000
| 14>  C        2.8047230000    -1.1326440000    -1.1318620000
| 15>  C        4.1925130000    -0.8854280000    -0.8730010000
| 16>  C        5.2008990000    -1.5921270000    -1.4145410000
| 17>  C        6.5933540000    -1.3369390000    -1.1489280000
| 18>  C        7.6065360000    -2.0283140000    -1.6776610000
| 19>  H       -0.0525120000    -0.0867930000    -0.3835100000
| 20>  H        0.3392900000    -1.4071860000    -1.4552500000
| 21>  H        2.5385410000    -1.9493560000    -1.8148090000
| 22>  H        4.4081980000    -0.0670030000    -0.1906590000
| 23>  H        4.9705200000    -2.4092410000    -2.0963880000
| 24>  H        6.8108520000    -0.5179180000    -0.4660260000
| 25>  H        7.4308110000    -2.8517510000    -2.3625290000
| 26>  H        8.6371430000    -1.7931650000    -1.4429760000
| 27> *
| 28>
| 29>                          ****END OF INPUT****
 Total Charge           Charge          ....    0
 Multiplicity           Mult            ....    1
 Number of Electrons    NEL             ....   52
 Basis Dimension        Dim             ....  138

MULLIKEN ATOMIC CHARGES
-----------------------
   0 N :   -0.041319
   1 N :   -0.084692
   2 C :   -0.039474
   3 C :    0.031937
   4 C :   -0.004721
   5 C :   -0.004796
   6 C :   -0.039581
   7 H :    0.127837
   8 H :    0.099136
   9 H :   -0.038833
  10 H :   -0.009666
  11 H :   -0.021427
  12 H :   -0.008907
  13 H :    0.013466
  14 H :    0.021041
Sum of atomic charges:   -0.0000000

LOEWDIN ATOMIC CHARGES
----------------------
   0 N :    0.049275
   1 N :   -0.031479
   2 C :   -0.067576
   3 C :   -0.034355
   4 C :   -0.047749
   5 C :   -0.033090
   6 C :   -0.065595
   7 H :    0.065982
   8 H :    0.044088
   9 H :   -0.006476
  10 H :    0.031415
  11 H :    0.023424
  12 H :    0.028669
  13 H :    0.020375
  14 H :    0.023092

  Mayer bond orders larger than 0.1
B(  0-N ,  1-N ) :   1.1661 B(  0-N ,  2-C ) :   0.1272 B(  0-N ,  7-H ) :   0.9607
B(  0-N ,  8-H ) :   0.9352 B(  1-N ,  2-C ) :   1.7125 B(  2-C ,  3-C ) :   1.1594
B(  2-C ,  9-H ) :   0.9388 B(  3-C ,  4-C ) :   1.6150 B(  3-C ,  6-C ) :   0.1141
B(  3-C , 10-H ) :   0.9708 B(  4-C ,  5-C ) :   1.1603 B(  4-C , 11-H ) :   0.9670
B(  5-C ,  6-C ) :   1.8498 B(  5-C , 12-H ) :   0.9634 B(  6-C , 13-H ) :   0.9478
B(  6-C , 14-H ) :   0.9429

FINAL SINGLE POINT ENERGY      -304.168735923135

DIPOLE MOMENT
-------------
                                X             Y             Z
Electronic contribution:     -3.75276       1.60009       1.17280
Nuclear contribution   :      2.60443      -1.79838      -1.37452
                        -----------------------------------------
Total Dipole Moment    :     -1.14833      -0.19828      -0.20173
                        -----------------------------------------
Magnitude (a.u.)       :      1.18266
Magnitude (Debye)      :      3.00607

                             ****ORCA TERMINATED NORMALLY****
TOTAL RUN TIME: 0 days 0 hours 0 minutes 7 seconds 178 msec
