                         Program Version 3.0.3 - RELEASE   -
|  1> ! RI PBE def2-SVP def2-SVP/J NBO PAL2
|  2> % maxcore 2000
|  3> % output
|  4>     # printlevel mini
|  5>     print[ P_Basis ] 0
|  6>     print[ P_SCFInfo ] 1
|  7>     print[ P_SCFIterInfo ] 1
|  8>     print[ P_OrbEn ] 0
|  9>     print[ P_Cartesian ] 0
| 10> end
| 11> *xyz 0 1
| 12>  N        1.0099890000     0.3267530000    -0.2267330000
| 13>  N        2.3294580000     0.3334690000    -0.2173800000
| 14>  C        2.9662190000    -0.3296960000    -1.1134160000
| 15>  C        4.3984460000    -0.3355690000    -1.1208470000
| 16>  C        5.1348000000    -1.0057890000    -2.0263830000
| 17>  C        6.5453450000    -1.0196180000    -2.0445750000
| 18>  C        7.7492410000    -1.0521690000    -2.0881360000
| 19>  H        0.5471280000     0.8547470000     0.4856510000
| 20>  H        0.4766040000    -0.1828350000    -0.9164380000
| 21>  H        2.4349440000    -0.9005050000    -1.8850060000
| 22>  H        4.8863800000     0.2409950000    -0.3414560000
| 23>  H        4.6346900000    -1.5803710000    -2.8030850000
| 24>  H        8.8125050000    -1.0741940000    -2.1175060000
| 25> *
| 26>
| 27>                          ****END OF INPUT****
 Total Charge           Charge          ....    0
 Multiplicity           Mult            ....    1
 Number of Electrons    NEL             ....   50
 Basis Dimension        Dim             ....  128

MULLIKEN ATOMIC CHARGES
-----------------------
   0 N :   -0.038014
   1 N :   -0.079215
   2 C :   -0.041184
   3 C :    0.056315
   4 C :   -0.097176
   5 C :    0.397030
   6 C :   -0.421468
   7 H :    0.130471
   8 H :    0.100973
   9 H :   -0.032882
  10 H :    0.006791
  11 H :    0.018539
  12 H :   -0.000179
Sum of atomic charges:   -0.0000000

LOEWDIN ATOMIC CHARGES
----------------------
   0 N :    0.054790
   1 N :   -0.025734
   2 C :   -0.067820
   3 C :   -0.010500
   4 C :   -0.070793
   5 C :   -0.019490
   6 C :   -0.079049
   7 H :    0.067762
   8 H :    0.045732
   9 H :   -0.004654
  10 H :    0.038758
  11 H :    0.038192
  12 H :    0.032805

  Mayer bond orders larger than 0.1
B(  0-N ,  1-N ) :   1.1762 B(  0-N ,  2-C ) :   0.1282 B(  0-N ,  7-H ) :   0.9599
B(  0-N ,  8-H ) :   0.9347 B(  1-N ,  2-C ) :   1.7019 B(  2-C ,  3-C ) :   1.1714
B(  2-C ,  9-H ) :   0.9378 B(  3-C ,  4-C ) :   1.6414 B(  3-C ,  6-C ) :   0.1090
B(  3-C , 10-H ) :   0.9714 B(  4-C ,  5-C ) :   1.0584 B(  4-C , 11-H ) :   0.9435
B(  5-C ,  6-C ) :   2.2436 B(  6-C , 12-H ) :   1.0899

FINAL SINGLE POINT ENERGY      -302.922268869553

DIPOLE MOMENT
-------------
                                X             Y             Z
Electronic contribution:      1.53176       0.20665       0.27624
Nuclear contribution   :     -2.94174      -0.17576      -0.23996
                        -----------------------------------------
Total Dipole Moment    :     -1.40998       0.03089       0.03629
                        -----------------------------------------
Magnitude (a.u.)       :      1.41078
Magnitude (Debye)      :      3.58593

                             ****ORCA TERMINATED NORMALLY****
TOTAL RUN TIME: 0 days 0 hours 0 minutes 6 seconds 458 msec
