                         Program Version 3.0.3 - RELEASE   -
|  1> ! RI PBE def2-SVP def2-SVP/J NBO PAL2
|  2> % maxcore 2000
|  3> % output
|  4>     # printlevel mini
|  5>     print[ P_Basis ] 0
|  6>     print[ P_SCFInfo ] 1
|  7>     print[ P_SCFIterInfo ] 1
|  8>     print[ P_OrbEn ] 0
|  9>     print[ P_Cartesian ] 0
| 10> end
| 11> *xyz 0 1
| 12>  N        1.0014070000    -1.0306340000    -1.2992140000
| 13>  N        2.3447190000    -1.1529980000    -1.2750140000
| 14>  C        2.9970480000    -0.5257700000    -0.3777860000
| 15>  C        4.4527930000    -0.5483370000    -0.3317120000
| 16>  C        5.0907980000     0.1282270000     0.6338040000
| 17>  C        5.1593230000    -1.3001870000    -1.3783330000
| 18>  C        6.3129290000    -1.9364570000    -1.2077040000
| 19>  H        0.5682510000    -1.8145240000    -1.7594080000
| 20>  H        0.5578720000    -0.7888640000    -0.4178700000
| 21>  H        2.4834700000     0.0625730000     0.3935440000
| 22>  H        4.5398490000     0.6598730000     1.4016910000
| 23>  H        6.1714790000     0.1790960000     0.6702060000
| 24>  H        4.6587230000    -1.3438940000    -2.3403990000
| 25>  H        6.8110200000    -1.9710590000    -0.2444160000
| 26>  H        6.7897180000    -2.4591460000    -2.0283970000
| 27> *
| 28>
| 29>                          ****END OF INPUT****
 Total Charge           Charge          ....    0
 Multiplicity           Mult            ....    1
 Number of Electrons    NEL             ....   52
 Basis Dimension        Dim             ....  138

MULLIKEN ATOMIC CHARGES
-----------------------
   0 N :   -0.037376
   1 N :   -0.100492
   2 C :   -0.028577
   3 C :    0.001106
   4 C :   -0.055963
   5 C :   -0.004265
   6 C :   -0.027576
   7 H :    0.121298
   8 H :    0.089866
   9 H :   -0.043374
  10 H :    0.011501
  11 H :    0.020922
  12 H :    0.007950
  13 H :    0.019484
  14 H :    0.025496
Sum of atomic charges:    0.0000000

LOEWDIN ATOMIC CHARGES
----------------------
   0 N :    0.021475
   1 N :   -0.036757
   2 C :   -0.047844
   3 C :   -0.045374
   4 C :   -0.051604
   5 C :   -0.017415
   6 C :   -0.044208
   7 H :    0.063086
   8 H :    0.042832
   9 H :   -0.005215
  10 H :    0.020011
  11 H :    0.023399
  12 H :    0.031032
  13 H :    0.021257
  14 H :    0.025324

  Mayer bond orders larger than 0.1
B(  0-N ,  1-N ) :   1.1334 B(  0-N ,  2-C ) :   0.1182 B(  0-N ,  7-H ) :   0.9607
B(  0-N ,  8-H ) :   0.9391 B(  1-N ,  2-C ) :   1.8188 B(  2-C ,  3-C ) :   1.0957
B(  2-C ,  9-H ) :   0.9282 B(  3-C ,  4-C ) :   1.8302 B(  3-C ,  5-C ) :   1.0602
B(  4-C , 10-H ) :   0.9362 B(  4-C , 11-H ) :   0.9355 B(  5-C ,  6-C ) :   1.9536
B(  5-C , 12-H ) :   0.9410 B(  6-C , 13-H ) :   0.9467 B(  6-C , 14-H ) :   0.9416

FINAL SINGLE POINT ENERGY      -304.157840499899

DIPOLE MOMENT
-------------
                                X             Y             Z
Electronic contribution:     -2.56422      -0.04231      -1.21306
Nuclear contribution   :      1.80138      -0.11725       1.58794
                        -----------------------------------------
Total Dipole Moment    :     -0.76284      -0.15957       0.37488
                        -----------------------------------------
Magnitude (a.u.)       :      0.86482
Magnitude (Debye)      :      2.19821

                             ****ORCA TERMINATED NORMALLY****
TOTAL RUN TIME: 0 days 0 hours 0 minutes 6 seconds 811 msec
