                         Program Version 3.0.3 - RELEASE   -
|  1> ! RI PBE def2-SVP def2-SVP/J NBO PAL2
|  2> % maxcore 2000
|  3> % output
|  4>     # printlevel mini
|  5>     print[ P_Basis ] 0
|  6>     print[ P_SCFInfo ] 1
|  7>     print[ P_SCFIterInfo ] 1
|  8>     print[ P_OrbEn ] 0
|  9>     print[ P_Cartesian ] 0
| 10> end
| 11> *xyz 0 1
| 12>  N        0.8729940000    -0.8776780000     1.6868600000
| 13>  N        2.1906920000    -1.1387180000     1.6726560000
| 14>  C        2.9246270000    -0.5312250000     0.8282990000
| 15>  C        4.3705240000    -0.7133500000     0.7949510000
| 16>  C        5.1192060000    -0.0607820000    -0.1084570000
| 17>  C        4.9702800000    -1.5989620000     1.7387450000
| 18>  C        5.4860250000    -2.3425930000     2.5287490000
| 19>  H        0.3465450000    -1.6262850000     2.1056870000
| 20>  H        0.4659090000    -0.5207620000     0.8276850000
| 21>  H        2.5043550000     0.1609460000     0.0883270000
| 22>  H        4.6600450000     0.6126510000    -0.8229610000
| 23>  H        6.1923910000    -0.1875820000    -0.1468420000
| 24>  H        5.9383170000    -3.0012610000     3.2315010000
| 25> *
| 26>
| 27>                          ****END OF INPUT****
 Total Charge           Charge          ....    0
 Multiplicity           Mult            ....    1
 Number of Electrons    NEL             ....   50
 Basis Dimension        Dim             ....  128

MULLIKEN ATOMIC CHARGES
-----------------------
   0 N :   -0.035610
   1 N :   -0.070750
   2 C :   -0.021398
   3 C :   -0.045327
   4 C :   -0.024830
   5 C :    0.444918
   6 C :   -0.470809
   7 H :    0.124965
   8 H :    0.092726
   9 H :   -0.044050
  10 H :    0.017467
  11 H :    0.031170
  12 H :    0.001528
Sum of atomic charges:   -0.0000000

LOEWDIN ATOMIC CHARGES
----------------------
   0 N :    0.029102
   1 N :   -0.023032
   2 C :   -0.048893
   3 C :   -0.057531
   4 C :   -0.035227
   5 C :    0.002664
   6 C :   -0.060542
   7 H :    0.065237
   8 H :    0.043696
   9 H :   -0.004044
  10 H :    0.022812
  11 H :    0.030793
  12 H :    0.034964

  Mayer bond orders larger than 0.1
B(  0-N ,  1-N ) :   1.1445 B(  0-N ,  2-C ) :   0.1232 B(  0-N ,  7-H ) :   0.9600
B(  0-N ,  8-H ) :   0.9379 B(  1-N ,  2-C ) :   1.8320 B(  2-C ,  3-C ) :   1.1012
B(  2-C ,  9-H ) :   0.9285 B(  3-C ,  4-C ) :   1.8126 B(  3-C ,  5-C ) :   0.9521
B(  4-C ,  6-C ) :   0.1102 B(  4-C , 10-H ) :   0.9367 B(  4-C , 11-H ) :   0.9408
B(  5-C ,  6-C ) :   2.2755 B(  5-C , 12-H ) :  -0.1065 B(  6-C , 12-H ) :   1.0958

FINAL SINGLE POINT ENERGY      -302.913077027638

DIPOLE MOMENT
-------------
                                X             Y             Z
Electronic contribution:      0.51732      -1.44159       1.86995
Nuclear contribution   :     -1.36660       1.45337      -2.32575
                        -----------------------------------------
Total Dipole Moment    :     -0.84929       0.01178      -0.45580
                        -----------------------------------------
Magnitude (a.u.)       :      0.96394
Magnitude (Debye)      :      2.45015

                             ****ORCA TERMINATED NORMALLY****
TOTAL RUN TIME: 0 days 0 hours 0 minutes 6 seconds 464 msec
