                         Program Version 3.0.3 - RELEASE   -
|  1> ! RI PBE def2-SVP def2-SVP/J NBO PAL2
|  2> % maxcore 2000
|  3> % output
|  4>     # printlevel mini
|  5>     print[ P_Basis ] 0
|  6>     print[ P_SCFInfo ] 1
|  7>     print[ P_SCFIterInfo ] 1
|  8>     print[ P_OrbEn ] 0
|  9>     print[ P_Cartesian ] 0
| 10> end
| 11> *xyz 0 1
| 12>  N        0.9330820000     0.6072570000     0.0001350000
| 13>  N        2.2604360000     0.5769310000    -0.1635150000
| 14>  C        2.9897260000     0.3657340000     0.8692020000
| 15>  C        4.3968360000     0.3817300000     0.7926760000
| 16>  C        5.6068980000     0.3758260000     0.8059980000
| 17>  C        7.0174730000     0.3833390000     0.7549680000
| 18>  C        7.8193140000     0.1535330000     1.7974960000
| 19>  H        0.4356060000     0.4371980000    -0.8573990000
| 20>  H        0.5479180000     0.1375660000     0.8136040000
| 21>  H        2.5416490000     0.1701500000     1.8507430000
| 22>  H        7.4539140000     0.5953410000    -0.2183580000
| 23>  H        7.4212380000    -0.0606130000     2.7820450000
| 24>  H        8.8957010000     0.1763960000     1.6826470000
| 25> *
| 26>
| 27>                          ****END OF INPUT****
 Total Charge           Charge          ....    0
 Multiplicity           Mult            ....    1
 Number of Electrons    NEL             ....   50
 Basis Dimension        Dim             ....  128

MULLIKEN ATOMIC CHARGES
-----------------------
   0 N :   -0.032143
   1 N :   -0.099757
   2 C :   -0.102847
   3 C :    0.055060
   4 C :   -0.035237
   5 C :   -0.082812
   6 C :   -0.020282
   7 H :    0.128118
   8 H :    0.094375
   9 H :    0.000933
  10 H :    0.030824
  11 H :    0.029384
  12 H :    0.034384
Sum of atomic charges:   -0.0000000

LOEWDIN ATOMIC CHARGES
----------------------
   0 N :    0.038201
   1 N :   -0.019495
   2 C :   -0.075631
   3 C :   -0.044234
   4 C :   -0.036904
   5 C :   -0.047101
   6 C :   -0.033880
   7 H :    0.067047
   8 H :    0.044742
   9 H :    0.006471
  10 H :    0.045127
  11 H :    0.028045
  12 H :    0.027612

  Mayer bond orders larger than 0.1
B(  0-N ,  1-N ) :   1.1607 B(  0-N ,  2-C ) :   0.1256 B(  0-N ,  7-H ) :   0.9595
B(  0-N ,  8-H ) :   0.9344 B(  1-N ,  2-C ) :   1.7516 B(  2-C ,  3-C ) :   1.0640
B(  2-C ,  9-H ) :   0.9249 B(  3-C ,  4-C ) :   2.3263 B(  3-C ,  6-C ) :   0.1127
B(  4-C ,  5-C ) :   1.0811 B(  5-C ,  6-C ) :   1.8823 B(  5-C , 10-H ) :   0.9450
B(  6-C , 11-H ) :   0.9539 B(  6-C , 12-H ) :   0.9442

FINAL SINGLE POINT ENERGY      -302.921162785885

DIPOLE MOMENT
-------------
                                X             Y             Z
Electronic contribution:     -2.12004       0.50280      -1.61485
Nuclear contribution   :      1.26518      -0.90434       1.83613
                        -----------------------------------------
Total Dipole Moment    :     -0.85486      -0.40154       0.22128
                        -----------------------------------------
Magnitude (a.u.)       :      0.97004
Magnitude (Debye)      :      2.46566

                             ****ORCA TERMINATED NORMALLY****
TOTAL RUN TIME: 0 days 0 hours 0 minutes 6 seconds 191 msec
