                         Program Version 3.0.3 - RELEASE   -
|  1> ! RI PBE def2-SVP def2-SVP/J NBO PAL2
|  2> % maxcore 2000
|  3> % output
|  4>     # printlevel mini
|  5>     print[ P_Basis ] 0
|  6>     print[ P_SCFInfo ] 1
|  7>     print[ P_SCFIterInfo ] 1
|  8>     print[ P_OrbEn ] 0
|  9>     print[ P_Cartesian ] 0
| 10> end
| 11> *xyz 0 1
| 12>  N        0.9040790000     0.0153390000     0.0422090000
| 13>  N        2.2158800000    -0.0256790000     0.1101480000
| 14>  C        2.9030470000     0.5363710000    -0.8202460000
| 15>  C        4.3085940000     0.5207910000    -0.7944710000
| 16>  C        5.5203590000     0.5480730000    -0.8395920000
| 17>  C        6.8788220000     0.5700010000    -0.8758760000
| 18>  C        8.0854660000     0.5904940000    -0.9097640000
| 19>  H        0.3979690000    -0.4309270000     0.7811950000
| 20>  H        0.4125980000     0.4719640000    -0.7134460000
| 21>  H        2.4188370000     1.0445650000    -1.6614920000
| 22>  H        9.1489500000     0.6076090000    -0.9380650000
| 23> *
| 24>
| 25>                          ****END OF INPUT****
 Total Charge           Charge          ....    0
 Multiplicity           Mult            ....    1
 Number of Electrons    NEL             ....   48
 Basis Dimension        Dim             ....  118

MULLIKEN ATOMIC CHARGES
-----------------------
   0 N :   -0.033172
   1 N :   -0.066426
   2 C :   -0.126049
   3 C :    0.034384
   4 C :   -0.000927
   5 C :    0.356240
   6 C :   -0.419867
   7 H :    0.135533
   8 H :    0.103980
   9 H :    0.006785
  10 H :    0.009518
Sum of atomic charges:   -0.0000000

LOEWDIN ATOMIC CHARGES
----------------------
   0 N :    0.062944
   1 N :   -0.005389
   2 C :   -0.088329
   3 C :   -0.008462
   4 C :   -0.058541
   5 C :   -0.030308
   6 C :   -0.038167
   7 H :    0.071217
   8 H :    0.048107
   9 H :    0.009272
  10 H :    0.037654

  Mayer bond orders larger than 0.1
B(  0-N ,  1-N ) :   1.2007 B(  0-N ,  2-C ) :   0.1416 B(  0-N ,  7-H ) :   0.9586
B(  0-N ,  8-H ) :   0.9312 B(  1-N ,  2-C ) :   1.7264 B(  2-C ,  3-C ) :   1.0744
B(  2-C ,  9-H ) :   0.9260 B(  3-C ,  4-C ) :   2.2094 B(  3-C ,  6-C ) :   0.2428
B(  4-C ,  5-C ) :   0.9657 B(  5-C ,  6-C ) :   2.1256 B(  5-C , 10-H ) :  -0.1044
B(  6-C , 10-H ) :   1.0942

FINAL SINGLE POINT ENERGY      -301.682798640014

DIPOLE MOMENT
-------------
                                X             Y             Z
Electronic contribution:      2.82988      -0.08134       0.13007
Nuclear contribution   :     -4.25968       0.16714      -0.27626
                        -----------------------------------------
Total Dipole Moment    :     -1.42981       0.08580      -0.14619
                        -----------------------------------------
Magnitude (a.u.)       :      1.43982
Magnitude (Debye)      :      3.65974

                             ****ORCA TERMINATED NORMALLY****
TOTAL RUN TIME: 0 days 0 hours 0 minutes 5 seconds 123 msec
