                         Program Version 3.0.3 - RELEASE   -
|  1> ! RI PBE def2-SVP def2-SVP/J NBO PAL2
|  2> % maxcore 2000
|  3> % output
|  4>     # printlevel mini
|  5>     print[ P_Basis ] 0
|  6>     print[ P_SCFInfo ] 1
|  7>     print[ P_SCFIterInfo ] 1
|  8>     print[ P_OrbEn ] 0
|  9>     print[ P_Cartesian ] 0
| 10> end
| 11> *xyz 0 1
| 12>  N        0.8123310000    -0.1275870000     0.7067820000
| 13>  N        2.1682390000    -0.1765470000     0.8151950000
| 14>  C        2.8410010000     0.8484240000     0.4932710000
| 15>  C        4.3185270000     0.8933550000     0.6740100000
| 16>  C        4.7537980000     1.9428160000     1.7047200000
| 17>  C        6.2351580000     1.9913070000     1.8763450000
| 18>  C        6.9971700000     3.0516910000     1.6478340000
| 19>  H        0.4367480000    -1.0529730000     0.5730060000
| 20>  H        0.4590560000     0.5300230000     0.0168850000
| 21>  H        2.3466010000     1.7455970000     0.0923250000
| 22>  H        4.8005440000     1.1243360000    -0.2834520000
| 23>  H        4.6574880000    -0.0995820000     0.9797380000
| 24>  H        4.2805800000     1.6974960000     2.6628830000
| 25>  H        4.3844700000     2.9312580000     1.4120870000
| 26>  H        6.7055900000     1.0659690000     2.2065360000
| 27>  H        6.5710820000     3.9939310000     1.3159770000
| 28>  H        8.0716170000     3.0204980000     1.7872650000
| 29> *
| 30>
| 31>                          ****END OF INPUT****
 Total Charge           Charge          ....    0
 Multiplicity           Mult            ....    1
 Number of Electrons    NEL             ....   54
 Basis Dimension        Dim             ....  148

MULLIKEN ATOMIC CHARGES
-----------------------
   0 N :   -0.054874
   1 N :   -0.110532
   2 C :   -0.093934
   3 C :    0.065697
   4 C :    0.036298
   5 C :   -0.075345
   6 C :   -0.037720
   7 H :    0.114431
   8 H :    0.083078
   9 H :   -0.027848
  10 H :    0.016788
  11 H :    0.012182
  12 H :    0.028202
  13 H :    0.001540
  14 H :    0.002444
  15 H :    0.013993
  16 H :    0.025600
Sum of atomic charges:   -0.0000000

LOEWDIN ATOMIC CHARGES
----------------------
   0 N :   -0.000696
   1 N :   -0.045772
   2 C :   -0.053391
   3 C :   -0.044711
   4 C :   -0.038397
   5 C :   -0.027503
   6 C :   -0.069576
   7 H :    0.058763
   8 H :    0.038768
   9 H :   -0.012183
  10 H :    0.031409
  11 H :    0.031756
  12 H :    0.036375
  13 H :    0.025259
  14 H :    0.025032
  15 H :    0.020492
  16 H :    0.024375

  Mayer bond orders larger than 0.1
B(  0-N ,  1-N ) :   1.1027 B(  0-N ,  2-C ) :   0.1292 B(  0-N ,  7-H ) :   0.9635
B(  0-N ,  8-H ) :   0.9426 B(  1-N ,  2-C ) :   1.8983 B(  2-C ,  3-C ) :   1.0541
B(  2-C ,  9-H ) :   0.9238 B(  3-C ,  4-C ) :   1.0554 B(  3-C , 10-H ) :   0.9172
B(  3-C , 11-H ) :   0.9260 B(  4-C ,  5-C ) :   1.0692 B(  4-C , 12-H ) :   0.9136
B(  4-C , 13-H ) :   0.9333 B(  5-C ,  6-C ) :   2.0166 B(  5-C , 14-H ) :   0.9516
B(  6-C , 15-H ) :   0.9462 B(  6-C , 16-H ) :   0.9437

FINAL SINGLE POINT ENERGY      -305.366058665111

DIPOLE MOMENT
-------------
                                X             Y             Z
Electronic contribution:     -3.53391      -2.86715      -0.22526
Nuclear contribution   :      3.07028       2.96324      -0.32425
                        -----------------------------------------
Total Dipole Moment    :     -0.46363       0.09609      -0.54951
                        -----------------------------------------
Magnitude (a.u.)       :      0.72536
Magnitude (Debye)      :      1.84372

                             ****ORCA TERMINATED NORMALLY****
TOTAL RUN TIME: 0 days 0 hours 0 minutes 7 seconds 395 msec
