                         Program Version 3.0.3 - RELEASE   -
|  1> ! RI PBE def2-SVP def2-SVP/J NBO PAL2
|  2> % maxcore 2000
|  3> % output
|  4>     # printlevel mini
|  5>     print[ P_Basis ] 0
|  6>     print[ P_SCFInfo ] 1
|  7>     print[ P_SCFIterInfo ] 1
|  8>     print[ P_OrbEn ] 0
|  9>     print[ P_Cartesian ] 0
| 10> end
| 11> *xyz 0 1
| 12>  N        0.9908220000     0.9595780000     0.1332750000
| 13>  N        2.3404420000     1.0044100000     0.2765630000
| 14>  C        3.0703620000     0.7467590000    -0.7275320000
| 15>  C        4.5529950000     0.8643200000    -0.6505680000
| 16>  C        5.0878630000     1.9905300000    -1.5484370000
| 17>  C        6.5380600000     2.0720110000    -1.5436970000
| 18>  C        7.7375610000     2.1202580000    -1.5239620000
| 19>  H        0.5455410000     0.7717130000     1.0171280000
| 20>  H        0.6510370000     0.3521920000    -0.6071500000
| 21>  H        2.6268860000     0.4503300000    -1.6893830000
| 22>  H        5.0195820000    -0.0771240000    -0.9598010000
| 23>  H        4.8387290000     1.0496100000     0.3860290000
| 24>  H        4.6679920000     2.9456260000    -1.2170630000
| 25>  H        4.7416970000     1.8406220000    -2.5773360000
| 26>  H        8.8004320000     2.1694550000    -1.5088650000
| 27> *
| 28>
| 29>                          ****END OF INPUT****
 Total Charge           Charge          ....    0
 Multiplicity           Mult            ....    1
 Number of Electrons    NEL             ....   52
 Basis Dimension        Dim             ....  138

MULLIKEN ATOMIC CHARGES
-----------------------
   0 N :   -0.053176
   1 N :   -0.107031
   2 C :   -0.092423
   3 C :    0.059191
   4 C :    0.049454
   5 C :    0.346613
   6 C :   -0.500454
   7 H :    0.116997
   8 H :    0.085603
   9 H :   -0.025858
  10 H :    0.024627
  11 H :    0.026021
  12 H :    0.042833
  13 H :    0.032453
  14 H :   -0.004850
Sum of atomic charges:    0.0000000

LOEWDIN ATOMIC CHARGES
----------------------
   0 N :    0.003118
   1 N :   -0.041712
   2 C :   -0.056358
   3 C :   -0.037014
   4 C :   -0.044147
   5 C :   -0.021813
   6 C :   -0.092423
   7 H :    0.060181
   8 H :    0.040009
   9 H :   -0.011561
  10 H :    0.035096
  11 H :    0.037812
  12 H :    0.050475
  13 H :    0.045678
  14 H :    0.032659

  Mayer bond orders larger than 0.1
B(  0-N ,  1-N ) :   1.1090 B(  0-N ,  2-C ) :   0.1321 B(  0-N ,  7-H ) :   0.9627
B(  0-N ,  8-H ) :   0.9423 B(  1-N ,  2-C ) :   1.8964 B(  2-C ,  3-C ) :   1.0540
B(  2-C ,  9-H ) :   0.9222 B(  3-C ,  4-C ) :   1.0643 B(  3-C , 10-H ) :   0.9178
B(  3-C , 11-H ) :   0.9284 B(  4-C ,  5-C ) :   1.0673 B(  4-C , 12-H ) :   0.8968
B(  4-C , 13-H ) :   0.8991 B(  5-C ,  6-C ) :   2.3316 B(  5-C , 14-H ) :  -0.1129
B(  6-C , 14-H ) :   1.1041

FINAL SINGLE POINT ENERGY      -304.123475994389

DIPOLE MOMENT
-------------
                                X             Y             Z
Electronic contribution:      0.85374       0.72932       0.75766
Nuclear contribution   :     -1.56696      -1.29340      -0.96734
                        -----------------------------------------
Total Dipole Moment    :     -0.71322      -0.56408      -0.20968
                        -----------------------------------------
Magnitude (a.u.)       :      0.93318
Magnitude (Debye)      :      2.37197

                             ****ORCA TERMINATED NORMALLY****
TOTAL RUN TIME: 0 days 0 hours 0 minutes 6 seconds 845 msec
