                         Program Version 3.0.3 - RELEASE   -
|  1> ! RI PBE def2-SVP def2-SVP/J NBO PAL2
|  2> % maxcore 2000
|  3> % output
|  4>     # printlevel mini
|  5>     print[ P_Basis ] 0
|  6>     print[ P_SCFInfo ] 1
|  7>     print[ P_SCFIterInfo ] 1
|  8>     print[ P_OrbEn ] 0
|  9>     print[ P_Cartesian ] 0
| 10> end
| 11> *xyz 0 1
| 12>  C       -0.8724730000     0.0000810000    -1.2197890000
| 13>  C       -0.6212200000     1.0218600000    -0.0937460000
| 14>  C       -1.3452770000     0.0000880000     0.8338870000
| 15>  C       -0.6214140000    -1.0217880000    -0.0937830000
| 16>  C        0.8309000000    -0.7268380000     0.3016820000
| 17>  O        1.5995200000    -0.0001650000    -0.6542970000
| 18>  C        0.8310380000     0.7266200000     0.3017080000
| 19>  H       -0.2059960000     0.0000330000    -2.0791100000
| 20>  H       -1.9180780000     0.0001860000    -1.5273610000
| 21>  H       -0.9307630000     2.0628190000    -0.1715020000
| 22>  H       -2.4302790000     0.0001940000     0.7113410000
| 23>  H       -1.0794790000     0.0000440000     1.8945970000
| 24>  H       -0.9311560000    -2.0626850000    -0.1715760000
| 25>  H        1.3854640000    -1.3533590000     0.9906050000
| 26>  H        1.3857220000     1.3530100000     0.9906530000
| 27> *
| 28>
| 29>                          ****END OF INPUT****
 Total Charge           Charge          ....    0
 Multiplicity           Mult            ....    1
 Number of Electrons    NEL             ....   52
 Basis Dimension        Dim             ....  138

MULLIKEN ATOMIC CHARGES
-----------------------
   0 C :    0.123873
   1 C :   -0.135700
   2 C :    0.052764
   3 C :   -0.135691
   4 C :    0.114750
   5 O :   -0.240912
   6 C :    0.114748
   7 H :    0.034598
   8 H :    0.011771
   9 H :   -0.007025
  10 H :    0.023759
  11 H :    0.021160
  12 H :   -0.007029
  13 H :    0.014466
  14 H :    0.014468
Sum of atomic charges:   -0.0000000

LOEWDIN ATOMIC CHARGES
----------------------
   0 C :   -0.011629
   1 C :   -0.032904
   2 C :   -0.010764
   3 C :   -0.032902
   4 C :    0.045437
   5 O :   -0.139107
   6 C :    0.045436
   7 H :    0.018580
   8 H :    0.025264
   9 H :    0.012269
  10 H :    0.020614
  11 H :    0.013456
  12 H :    0.012269
  13 H :    0.016990
  14 H :    0.016991

  Mayer bond orders larger than 0.1
B(  0-C ,  1-C ) :   0.9932 B(  0-C ,  3-C ) :   0.9932 B(  0-C ,  7-H ) :   0.9216
B(  0-C ,  8-H ) :   0.9303 B(  1-C ,  2-C ) :   0.9783 B(  1-C ,  6-C ) :   0.9345
B(  1-C ,  9-H ) :   0.9694 B(  2-C ,  3-C ) :   0.9783 B(  2-C , 10-H ) :   0.9387
B(  2-C , 11-H ) :   0.9402 B(  3-C ,  4-C ) :   0.9345 B(  3-C , 12-H ) :   0.9694
B(  4-C ,  5-O ) :   1.0331 B(  4-C ,  6-C ) :   0.9993 B(  4-C , 13-H ) :   0.9605
B(  5-O ,  6-C ) :   1.0331 B(  6-C , 14-H ) :   0.9605

FINAL SINGLE POINT ENERGY      -307.970512801175

DIPOLE MOMENT
-------------
                                X             Y             Z
Electronic contribution:      3.85230      -0.00035      -0.83738
Nuclear contribution   :     -4.34837       0.00039       1.32904
                        -----------------------------------------
Total Dipole Moment    :     -0.49606       0.00004       0.49166
                        -----------------------------------------
Magnitude (a.u.)       :      0.69843
Magnitude (Debye)      :      1.77527

                             ****ORCA TERMINATED NORMALLY****
TOTAL RUN TIME: 0 days 0 hours 0 minutes 6 seconds 641 msec
