                         Program Version 3.0.3 - RELEASE   -
|  1> ! RI PBE def2-SVP def2-SVP/J NBO PAL2
|  2> % maxcore 2000
|  3> % output
|  4>     # printlevel mini
|  5>     print[ P_Basis ] 0
|  6>     print[ P_SCFInfo ] 1
|  7>     print[ P_SCFIterInfo ] 1
|  8>     print[ P_OrbEn ] 0
|  9>     print[ P_Cartesian ] 0
| 10> end
| 11> *xyz 0 1
| 12>  C       -0.9899560000    -0.0110930000    -1.0737750000
| 13>  C       -0.5833940000     0.9953180000     0.0175390000
| 14>  C       -1.0347740000    -0.0620280000     1.0409630000
| 15>  C       -0.6193960000    -1.1004340000    -0.0337020000
| 16>  C        0.8814490000    -1.1734260000    -0.0036520000
| 17>  C        1.5159580000    -0.0044750000     0.0379510000
| 18>  O        0.8335320000     1.1677970000     0.0517230000
| 19>  H       -0.4431450000     0.0060870000    -2.0169030000
| 20>  H       -2.0650090000     0.0430560000    -1.2500860000
| 21>  H       -1.0077510000     1.9976050000     0.0326870000
| 22>  H       -2.1163840000    -0.0153310000     1.1739960000
| 23>  H       -0.5284070000    -0.0908120000     2.0061320000
| 24>  H       -1.1138400000    -2.0699160000    -0.0675320000
| 25>  H        1.4242400000    -2.1085430000    -0.0146720000
| 26>  H        2.5885950000     0.1385950000     0.0641300000
| 27> *
| 28>
| 29>                          ****END OF INPUT****
 Total Charge           Charge          ....    0
 Multiplicity           Mult            ....    1
 Number of Electrons    NEL             ....   52
 Basis Dimension        Dim             ....  138

MULLIKEN ATOMIC CHARGES
-----------------------
   0 C :    0.101484
   1 C :    0.016089
   2 C :    0.099232
   3 C :   -0.139111
   4 C :   -0.030588
   5 C :    0.115728
   6 O :   -0.244766
   7 H :    0.024318
   8 H :    0.020766
   9 H :    0.005111
  10 H :    0.021795
  11 H :    0.024712
  12 H :   -0.007659
  13 H :   -0.012999
  14 H :    0.005887
Sum of atomic charges:   -0.0000000

LOEWDIN ATOMIC CHARGES
----------------------
   0 C :   -0.031207
   1 C :    0.070010
   2 C :   -0.031534
   3 C :   -0.025754
   4 C :   -0.112391
   5 C :    0.029963
   6 O :   -0.074646
   7 H :    0.020982
   8 H :    0.028342
   9 H :    0.012389
  10 H :    0.028484
  11 H :    0.021101
  12 H :    0.016159
  13 H :    0.026832
  14 H :    0.021269

  Mayer bond orders larger than 0.1
B(  0-C ,  1-C ) :   0.9969 B(  0-C ,  3-C ) :   0.9824 B(  0-C ,  7-H ) :   0.9305
B(  0-C ,  8-H ) :   0.9359 B(  1-C ,  2-C ) :   0.9973 B(  1-C ,  6-O ) :   0.9827
B(  1-C ,  9-H ) :   0.9406 B(  2-C ,  3-C ) :   0.9821 B(  2-C , 10-H ) :   0.9363
B(  2-C , 11-H ) :   0.9303 B(  3-C ,  4-C ) :   0.9923 B(  3-C , 12-H ) :   0.9373
B(  4-C ,  5-C ) :   1.7505 B(  4-C ,  6-O ) :   0.1065 B(  4-C , 13-H ) :   0.9804
B(  5-C ,  6-O ) :   1.1205 B(  5-C , 14-H ) :   0.9782

FINAL SINGLE POINT ENERGY      -307.999901068615

DIPOLE MOMENT
-------------
                                X             Y             Z
Electronic contribution:      2.66965       1.77141       0.09963
Nuclear contribution   :     -3.05378      -1.97403      -0.11227
                        -----------------------------------------
Total Dipole Moment    :     -0.38413      -0.20262      -0.01263
                        -----------------------------------------
Magnitude (a.u.)       :      0.43448
Magnitude (Debye)      :      1.10435

                             ****ORCA TERMINATED NORMALLY****
TOTAL RUN TIME: 0 days 0 hours 0 minutes 7 seconds 360 msec
