                         Program Version 3.0.3 - RELEASE   -
|  1> ! RI PBE def2-SVP def2-SVP/J NBO PAL2
|  2> % maxcore 2000
|  3> % output
|  4>     # printlevel mini
|  5>     print[ P_Basis ] 0
|  6>     print[ P_SCFInfo ] 1
|  7>     print[ P_SCFIterInfo ] 1
|  8>     print[ P_OrbEn ] 0
|  9>     print[ P_Cartesian ] 0
| 10> end
| 11> *xyz 0 1
| 12>  C       -1.5403130000     0.8562540000     0.6376560000
| 13>  C       -1.3299830000    -0.3895520000    -0.1625480000
| 14>  C       -0.2894350000    -1.4079120000     0.2793230000
| 15>  C        1.0417560000    -0.6935370000     0.2381990000
| 16>  O        1.1476710000     0.4265750000     1.1105070000
| 17>  C        0.8405100000     0.6689560000    -0.2589740000
| 18>  C       -0.6185880000     0.8881840000    -0.5448500000
| 19>  H       -1.0890270000     0.9271850000     1.6184960000
| 20>  H       -2.4979950000     1.3509860000     0.5292480000
| 21>  H       -2.1640890000    -0.7468690000    -0.7548320000
| 22>  H       -0.2615750000    -2.2403940000    -0.4304460000
| 23>  H       -0.4916550000    -1.8291070000     1.2686020000
| 24>  H        1.9621230000    -1.2556750000     0.1017530000
| 25>  H        1.5934870000     1.2210090000    -0.8123550000
| 26>  H       -0.8874790000     1.4553770000    -1.4266900000
| 27> *
| 28>
| 29>                          ****END OF INPUT****
 Total Charge           Charge          ....    0
 Multiplicity           Mult            ....    1
 Number of Electrons    NEL             ....   52
 Basis Dimension        Dim             ....  138

MULLIKEN ATOMIC CHARGES
-----------------------
   0 C :    0.058750
   1 C :   -0.218636
   2 C :    0.224573
   3 C :   -0.029993
   4 O :   -0.266470
   5 C :    0.124995
   6 C :   -0.047620
   7 H :    0.040079
   8 H :    0.026296
   9 H :    0.017603
  10 H :    0.019393
  11 H :    0.027999
  12 H :    0.014844
  13 H :    0.006541
  14 H :    0.001646
Sum of atomic charges:   -0.0000000

LOEWDIN ATOMIC CHARGES
----------------------
   0 C :   -0.028355
   1 C :   -0.037741
   2 C :   -0.037938
   3 C :    0.045171
   4 O :   -0.147530
   5 C :    0.053922
   6 C :   -0.055343
   7 H :    0.026432
   8 H :    0.028292
   9 H :    0.023913
  10 H :    0.037192
  11 H :    0.036500
  12 H :    0.012879
  13 H :    0.017541
  14 H :    0.025065

  Mayer bond orders larger than 0.1
B(  0-C ,  1-C ) :   1.0085 B(  0-C ,  6-C ) :   0.9851 B(  0-C ,  7-H ) :   0.9242
B(  0-C ,  8-H ) :   0.9349 B(  1-C ,  2-C ) :   1.0605 B(  1-C ,  6-C ) :   0.9134
B(  1-C ,  9-H ) :   0.9395 B(  2-C ,  3-C ) :   1.0165 B(  2-C , 10-H ) :   0.9178
B(  2-C , 11-H ) :   0.9035 B(  3-C ,  4-O ) :   0.9892 B(  3-C ,  5-C ) :   1.0192
B(  3-C , 12-H ) :   0.9486 B(  4-O ,  5-C ) :   0.9920 B(  5-C ,  6-C ) :   0.9989
B(  5-C , 13-H ) :   0.9745 B(  6-C , 14-H ) :   0.9742

FINAL SINGLE POINT ENERGY      -307.993604262768

DIPOLE MOMENT
-------------
                                X             Y             Z
Electronic contribution:      2.73171       1.11885       0.85238
Nuclear contribution   :     -2.93442      -1.41495      -1.47032
                        -----------------------------------------
Total Dipole Moment    :     -0.20270      -0.29610      -0.61794
                        -----------------------------------------
Magnitude (a.u.)       :      0.71457
Magnitude (Debye)      :      1.81630

                             ****ORCA TERMINATED NORMALLY****
TOTAL RUN TIME: 0 days 0 hours 0 minutes 6 seconds 844 msec
