                         Program Version 3.0.3 - RELEASE   -
|  1> ! RI PBE def2-SVP def2-SVP/J NBO PAL2
|  2> % maxcore 2000
|  3> % output
|  4>     # printlevel mini
|  5>     print[ P_Basis ] 0
|  6>     print[ P_SCFInfo ] 1
|  7>     print[ P_SCFIterInfo ] 1
|  8>     print[ P_OrbEn ] 0
|  9>     print[ P_Cartesian ] 0
| 10> end
| 11> *xyz 0 1
| 12>  C        0.5574310000     1.2214230000     0.6848990000
| 13>  C       -0.8710910000     0.7883340000     0.4405660000
| 14>  C       -0.8789310000     0.0318570000    -0.8804760000
| 15>  C        0.5450500000     0.0328000000    -1.3905400000
| 16>  C        1.1943900000     0.0091250000    -0.0026840000
| 17>  O        0.5432480000    -1.0939020000     0.6327610000
| 18>  C       -0.7941230000    -0.7104050000     0.4211760000
| 19>  H        0.8113370000     1.2692990000     1.7458050000
| 20>  H        0.8212350000     2.1639770000     0.2005120000
| 21>  H       -1.7338430000     1.3243410000     0.8095050000
| 22>  H       -1.7477480000    -0.0103910000    -1.5216770000
| 23>  H        0.8083790000     0.9263580000    -1.9604640000
| 24>  H        0.7891830000    -0.8591920000    -1.9710720000
| 25>  H        2.2728630000    -0.1105210000     0.0593530000
| 26>  H       -1.5373810000    -1.3879040000     0.8134280000
| 27> *
| 28>
| 29>                          ****END OF INPUT****
 Total Charge           Charge          ....    0
 Multiplicity           Mult            ....    1
 Number of Electrons    NEL             ....   52
 Basis Dimension        Dim             ....  138

MULLIKEN ATOMIC CHARGES
-----------------------
   0 C :    0.238976
   1 C :   -0.174774
   2 C :   -0.184704
   3 C :    0.236503
   4 C :   -0.131093
   5 O :   -0.282513
   6 C :    0.206000
   7 H :    0.018939
   8 H :    0.014453
   9 H :    0.002847
  10 H :    0.005574
  11 H :    0.015436
  12 H :    0.022236
  13 H :    0.009340
  14 H :    0.002779
Sum of atomic charges:   -0.0000000

LOEWDIN ATOMIC CHARGES
----------------------
   0 C :   -0.031807
   1 C :   -0.055809
   2 C :   -0.057381
   3 C :   -0.032504
   4 C :    0.058632
   5 O :   -0.131395
   6 C :    0.050806
   7 H :    0.028817
   8 H :    0.027427
   9 H :    0.023156
  10 H :    0.023547
  11 H :    0.027676
  12 H :    0.029194
  13 H :    0.019766
  14 H :    0.019876

  Mayer bond orders larger than 0.1
B(  0-C ,  1-C ) :   1.0252 B(  0-C ,  4-C ) :   0.9829 B(  0-C ,  7-H ) :   0.9207
B(  0-C ,  8-H ) :   0.9250 B(  1-C ,  2-C ) :   0.8873 B(  1-C ,  6-C ) :   0.8949
B(  1-C ,  9-H ) :   0.9591 B(  2-C ,  3-C ) :   1.0239 B(  2-C ,  6-C ) :   0.8908
B(  2-C , 10-H ) :   0.9607 B(  3-C ,  4-C ) :   0.9834 B(  3-C , 11-H ) :   0.9242
B(  3-C , 12-H ) :   0.9224 B(  4-C ,  5-O ) :   0.9833 B(  4-C , 13-H ) :   0.9460
B(  5-O ,  6-C ) :   1.0521 B(  6-C , 14-H ) :   0.9746

FINAL SINGLE POINT ENERGY      -308.018122825775

DIPOLE MOMENT
-------------
                                X             Y             Z
Electronic contribution:     -0.15055      -2.45624       1.41085
Nuclear contribution   :     -0.02362       2.91220      -1.66737
                        -----------------------------------------
Total Dipole Moment    :     -0.17417       0.45596      -0.25652
                        -----------------------------------------
Magnitude (a.u.)       :      0.55140
Magnitude (Debye)      :      1.40154

                             ****ORCA TERMINATED NORMALLY****
TOTAL RUN TIME: 0 days 0 hours 0 minutes 6 seconds 949 msec
