                         Program Version 3.0.3 - RELEASE   -
|  1> ! RI PBE def2-SVP def2-SVP/J NBO PAL2
|  2> % maxcore 2000
|  3> % output
|  4>     # printlevel mini
|  5>     print[ P_Basis ] 0
|  6>     print[ P_SCFInfo ] 1
|  7>     print[ P_SCFIterInfo ] 1
|  8>     print[ P_OrbEn ] 0
|  9>     print[ P_Cartesian ] 0
| 10> end
| 11> *xyz 0 1
| 12>  C        1.7624990000    -0.0001610000    -0.5088600000
| 13>  C        0.8021880000     0.7550830000     0.3568420000
| 14>  C        0.8020570000    -0.7552690000     0.3568180000
| 15>  C       -0.6387500000    -0.9653290000    -0.1173330000
| 16>  C       -0.8413030000     0.0000750000    -1.2887420000
| 17>  C       -0.6385780000     0.9654130000    -0.1173080000
| 18>  O       -1.3642500000     0.0000960000     0.7111690000
| 19>  H        2.7931170000    -0.0002520000    -0.1709090000
| 20>  H        1.6652860000    -0.0001320000    -1.5867090000
| 21>  H        1.1613090000     1.3267350000     1.2024870000
| 22>  H        1.1610790000    -1.3270090000     1.2024450000
| 23>  H       -1.0537100000    -1.9713620000    -0.0894870000
| 24>  H       -1.8824670000     0.0001700000    -1.6039420000
| 25>  H       -0.1733350000     0.0000230000    -2.1485240000
| 26>  H       -1.0533600000     1.9715190000    -0.0894360000
| 27> *
| 28>
| 29>                          ****END OF INPUT****
 Total Charge           Charge          ....    0
 Multiplicity           Mult            ....    1
 Number of Electrons    NEL             ....   52
 Basis Dimension        Dim             ....  138

MULLIKEN ATOMIC CHARGES
-----------------------
   0 C :    0.095176
   1 C :   -0.064128
   2 C :   -0.064132
   3 C :    0.100605
   4 C :    0.035588
   5 C :    0.100607
   6 O :   -0.328786
   7 H :    0.021739
   8 H :    0.023738
   9 H :    0.018671
  10 H :    0.018672
  11 H :   -0.001779
  12 H :    0.024715
  13 H :    0.021094
  14 H :   -0.001780
Sum of atomic charges:   -0.0000000

LOEWDIN ATOMIC CHARGES
----------------------
   0 C :   -0.031960
   1 C :   -0.046347
   2 C :   -0.046347
   3 C :    0.084878
   4 C :   -0.040649
   5 C :    0.084878
   6 O :   -0.184104
   7 H :    0.034079
   8 H :    0.024127
   9 H :    0.024819
  10 H :    0.024819
  11 H :    0.012558
  12 H :    0.032847
  13 H :    0.013843
  14 H :    0.012558

  Mayer bond orders larger than 0.1
B(  0-C ,  1-C ) :   1.0065 B(  0-C ,  2-C ) :   1.0065 B(  0-C ,  7-H ) :   0.9285
B(  0-C ,  8-H ) :   0.8945 B(  1-C ,  2-C ) :   0.9366 B(  1-C ,  5-C ) :   0.9868
B(  1-C ,  9-H ) :   0.9479 B(  2-C ,  3-C ) :   0.9868 B(  2-C , 10-H ) :   0.9479
B(  3-C ,  4-C ) :   1.0450 B(  3-C ,  6-O ) :   0.9648 B(  3-C , 11-H ) :   0.9741
B(  4-C ,  5-C ) :   1.0450 B(  4-C , 12-H ) :   0.9063 B(  4-C , 13-H ) :   0.9173
B(  5-C ,  6-O ) :   0.9648 B(  5-C , 14-H ) :   0.9741

FINAL SINGLE POINT ENERGY      -307.961734700633

DIPOLE MOMENT
-------------
                                X             Y             Z
Electronic contribution:     -2.30348       0.00017       2.04061
Nuclear contribution   :      2.76420      -0.00021      -2.46269
                        -----------------------------------------
Total Dipole Moment    :      0.46072      -0.00003      -0.42207
                        -----------------------------------------
Magnitude (a.u.)       :      0.62483
Magnitude (Debye)      :      1.58818

                             ****ORCA TERMINATED NORMALLY****
TOTAL RUN TIME: 0 days 0 hours 0 minutes 6 seconds 790 msec
