                         Program Version 3.0.3 - RELEASE   -
|  1> ! RI PBE def2-SVP def2-SVP/J NBO PAL2
|  2> % maxcore 2000
|  3> % output
|  4>     # printlevel mini
|  5>     print[ P_Basis ] 0
|  6>     print[ P_SCFInfo ] 1
|  7>     print[ P_SCFIterInfo ] 1
|  8>     print[ P_OrbEn ] 0
|  9>     print[ P_Cartesian ] 0
| 10> end
| 11> *xyz 0 1
| 12>  C       -0.8250680000     0.0000500000    -1.3105560000
| 13>  C       -0.6303330000     0.9669220000    -0.1377010000
| 14>  O       -1.3257190000     0.0001060000     0.7116850000
| 15>  C       -0.6305210000    -0.9668520000    -0.1376940000
| 16>  C        0.8269580000    -0.7264600000     0.2987410000
| 17>  O        1.6167700000    -0.0001860000    -0.6375990000
| 18>  C        0.8271000000     0.7262490000     0.2987360000
| 19>  H       -0.1186820000    -0.0000220000    -2.1364690000
| 20>  H       -1.8619570000     0.0001500000    -1.6386040000
| 21>  H       -1.0398020000     1.9739130000    -0.0942210000
| 22>  H       -1.0401870000    -1.9737630000    -0.0942070000
| 23>  H        1.3509420000    -1.3589780000     1.0043040000
| 24>  H        1.3512070000     1.3586700000     1.0042950000
| 25> *
| 26>
| 27>                          ****END OF INPUT****
 Total Charge           Charge          ....    0
 Multiplicity           Mult            ....    1
 Number of Electrons    NEL             ....   52
 Basis Dimension        Dim             ....  128

MULLIKEN ATOMIC CHARGES
-----------------------
   0 C :    0.111758
   1 C :    0.045693
   2 O :   -0.325910
   3 C :    0.045693
   4 C :    0.122139
   5 O :   -0.231954
   6 C :    0.122137
   7 H :    0.043136
   8 H :    0.021506
   9 H :    0.001842
  10 H :    0.001841
  11 H :    0.021058
  12 H :    0.021060
Sum of atomic charges:    0.0000000

LOEWDIN ATOMIC CHARGES
----------------------
   0 C :   -0.031016
   1 C :    0.069069
   2 O :   -0.174545
   3 C :    0.069069
   4 C :    0.038763
   5 O :   -0.132871
   6 C :    0.038763
   7 H :    0.022175
   8 H :    0.032640
   9 H :    0.013965
  10 H :    0.013965
  11 H :    0.020011
  12 H :    0.020012

  Mayer bond orders larger than 0.1
B(  0-C ,  1-C ) :   1.0198 B(  0-C ,  3-C ) :   1.0198 B(  0-C ,  7-H ) :   0.9188
B(  0-C ,  8-H ) :   0.9029 B(  1-C ,  2-O ) :   0.9624 B(  1-C ,  6-C ) :   0.9074
B(  1-C ,  9-H ) :   0.9778 B(  2-O ,  3-C ) :   0.9624 B(  3-C ,  4-C ) :   0.9074
B(  3-C , 10-H ) :   0.9778 B(  4-C ,  5-O ) :   1.0379 B(  4-C ,  6-C ) :   1.0071
B(  4-C , 11-H ) :   0.9594 B(  5-O ,  6-C ) :   1.0379 B(  6-C , 12-H ) :   0.9594

FINAL SINGLE POINT ENERGY      -343.813636790594

DIPOLE MOMENT
-------------
                                X             Y             Z
Electronic contribution:      1.13204      -0.00011       1.08203
Nuclear contribution   :     -1.16060       0.00011      -1.10282
                        -----------------------------------------
Total Dipole Moment    :     -0.02855       0.00000      -0.02079
                        -----------------------------------------
Magnitude (a.u.)       :      0.03532
Magnitude (Debye)      :      0.08978

                             ****ORCA TERMINATED NORMALLY****
TOTAL RUN TIME: 0 days 0 hours 0 minutes 6 seconds 574 msec
