                         Program Version 3.0.3 - RELEASE   -
|  1> ! RI PBE def2-SVP def2-SVP/J NBO PAL2
|  2> % maxcore 2000
|  3> % output
|  4>     # printlevel mini
|  5>     print[ P_Basis ] 0
|  6>     print[ P_SCFInfo ] 1
|  7>     print[ P_SCFIterInfo ] 1
|  8>     print[ P_OrbEn ] 0
|  9>     print[ P_Cartesian ] 0
| 10> end
| 11> *xyz 0 1
| 12>  C       -0.9838310000     0.0644870000     0.9225620000
| 13>  C       -1.1935600000    -0.0438080000    -0.5915840000
| 14>  O       -0.5209090000    -1.3418590000    -0.5430440000
| 15>  C        0.2823490000    -0.6791830000     0.4842760000
| 16>  C        1.0370640000     0.3541080000    -0.3731780000
| 17>  O        0.5671430000     1.6921870000    -0.2438480000
| 18>  C       -0.0716830000     0.8314210000    -1.1813950000
| 19>  H       -1.6577160000    -0.6056930000     1.4512330000
| 20>  H       -0.9041020000     1.0421110000     1.3905450000
| 21>  H       -2.1657120000    -0.0636060000    -1.0795540000
| 22>  H        0.8472620000    -1.3606830000     1.1167460000
| 23>  H        2.0554890000     0.2169970000    -0.7144550000
| 24>  H       -0.0186930000     1.1099300000    -2.2264230000
| 25> *
| 26>
| 27>                          ****END OF INPUT****
 Total Charge           Charge          ....    0
 Multiplicity           Mult            ....    1
 Number of Electrons    NEL             ....   52
 Basis Dimension        Dim             ....  128

MULLIKEN ATOMIC CHARGES
-----------------------
   0 C :    0.114432
   1 C :    0.035927
   2 O :   -0.322838
   3 C :    0.042693
   4 C :    0.122471
   5 O :   -0.232228
   6 C :    0.125606
   7 H :    0.024594
   8 H :    0.041944
   9 H :    0.002699
  10 H :    0.004907
  11 H :    0.018847
  12 H :    0.020947
Sum of atomic charges:   -0.0000000

LOEWDIN ATOMIC CHARGES
----------------------
   0 C :   -0.030997
   1 C :    0.068154
   2 O :   -0.174334
   3 C :    0.068232
   4 C :    0.039094
   5 O :   -0.133174
   6 C :    0.039459
   7 H :    0.033212
   8 H :    0.021907
   9 H :    0.014104
  10 H :    0.014563
  11 H :    0.019731
  12 H :    0.020049

  Mayer bond orders larger than 0.1
B(  0-C ,  1-C ) :   1.0157 B(  0-C ,  3-C ) :   1.0199 B(  0-C ,  7-H ) :   0.9032
B(  0-C ,  8-H ) :   0.9187 B(  1-C ,  2-O ) :   0.9662 B(  1-C ,  6-C ) :   0.9079
B(  1-C ,  9-H ) :   0.9787 B(  2-O ,  3-C ) :   0.9646 B(  3-C ,  4-C ) :   0.9104
B(  3-C , 10-H ) :   0.9779 B(  4-C ,  5-O ) :   1.0390 B(  4-C ,  6-C ) :   1.0057
B(  4-C , 11-H ) :   0.9592 B(  5-O ,  6-C ) :   1.0350 B(  6-C , 12-H ) :   0.9575

FINAL SINGLE POINT ENERGY      -343.813641594110

DIPOLE MOMENT
-------------
                                X             Y             Z
Electronic contribution:      0.99860       0.37030      -1.15236
Nuclear contribution   :     -1.02022      -0.38487       1.17228
                        -----------------------------------------
Total Dipole Moment    :     -0.02162      -0.01457       0.01992
                        -----------------------------------------
Magnitude (a.u.)       :      0.03281
Magnitude (Debye)      :      0.08339

                             ****ORCA TERMINATED NORMALLY****
TOTAL RUN TIME: 0 days 0 hours 0 minutes 6 seconds 580 msec
