                         Program Version 3.0.3 - RELEASE   -
|  1> ! RI PBE def2-SVP def2-SVP/J NBO PAL2
|  2> % maxcore 2000
|  3> % output
|  4>     # printlevel mini
|  5>     print[ P_Basis ] 0
|  6>     print[ P_SCFInfo ] 1
|  7>     print[ P_SCFIterInfo ] 1
|  8>     print[ P_OrbEn ] 0
|  9>     print[ P_Cartesian ] 0
| 10> end
| 11> *xyz 0 1
| 12>  C        0.5471450000     1.2263030000     0.7067720000
| 13>  C       -0.8793490000     0.7948890000     0.4667630000
| 14>  C       -0.8101450000     0.0324490000    -0.8400490000
| 15>  O        0.5280100000     0.0353550000    -1.2750790000
| 16>  C        1.1451650000     0.0080980000    -0.0029780000
| 17>  O        0.5411710000    -1.0854970000     0.6616650000
| 18>  C       -0.8010720000    -0.7176800000     0.4565930000
| 19>  H        0.8225980000     1.2599980000     1.7611310000
| 20>  H        0.8118510000     2.1590280000     0.2081520000
| 21>  H       -1.7513940000     1.3437540000     0.7894690000
| 22>  H       -1.5596490000    -0.0015900000    -1.6150590000
| 23>  H        2.2201640000    -0.1167240000    -0.0822110000
| 24>  H       -1.5434040000    -1.4104830000     0.8206320000
| 25> *
| 26>
| 27>                          ****END OF INPUT****
 Total Charge           Charge          ....    0
 Multiplicity           Mult            ....    1
 Number of Electrons    NEL             ....   52
 Basis Dimension        Dim             ....  128

MULLIKEN ATOMIC CHARGES
-----------------------
   0 C :    0.305713
   1 C :   -0.275887
   2 C :    0.160451
   3 O :   -0.260859
   4 C :    0.046188
   5 O :   -0.261607
   6 C :    0.167909
   7 H :    0.026236
   8 H :    0.025681
   9 H :    0.020012
  10 H :    0.014333
  11 H :    0.019940
  12 H :    0.011890
Sum of atomic charges:   -0.0000000

LOEWDIN ATOMIC CHARGES
----------------------
   0 C :   -0.039754
   1 C :   -0.072562
   2 C :    0.033087
   3 O :   -0.117213
   4 C :    0.115785
   5 O :   -0.117926
   6 C :    0.034620
   7 H :    0.033928
   8 H :    0.033600
   9 H :    0.027832
  10 H :    0.023516
  11 H :    0.021861
  12 H :    0.023225

  Mayer bond orders larger than 0.1
B(  0-C ,  1-C ) :   0.9877 B(  0-C ,  4-C ) :   0.9569 B(  0-C ,  7-H ) :   0.9233
B(  0-C ,  8-H ) :   0.9246 B(  1-C ,  2-C ) :   0.8537 B(  1-C ,  4-C ) :   0.1392
B(  1-C ,  6-C ) :   0.8590 B(  1-C ,  9-H ) :   0.9461 B(  2-C ,  3-O ) :   1.0310
B(  2-C ,  6-C ) :   0.8956 B(  2-C , 10-H ) :   0.9737 B(  3-O ,  4-C ) :   1.0282
B(  4-C ,  5-O ) :   1.0266 B(  4-C , 11-H ) :   0.9546 B(  5-O ,  6-C ) :   1.0316
B(  6-C , 12-H ) :   0.9731

FINAL SINGLE POINT ENERGY      -343.869389473803

DIPOLE MOMENT
-------------
                                X             Y             Z
Electronic contribution:      0.87138      -2.41086      -1.39855
Nuclear contribution   :     -1.29772       2.86842       1.66802
                        -----------------------------------------
Total Dipole Moment    :     -0.42634       0.45756       0.26947
                        -----------------------------------------
Magnitude (a.u.)       :      0.68098
Magnitude (Debye)      :      1.73092

                             ****ORCA TERMINATED NORMALLY****
TOTAL RUN TIME: 0 days 0 hours 0 minutes 6 seconds 153 msec
