                         Program Version 3.0.3 - RELEASE   -
|  1> ! RI PBE def2-SVP def2-SVP/J NBO PAL2
|  2> % maxcore 2000
|  3> % output
|  4>     # printlevel mini
|  5>     print[ P_Basis ] 0
|  6>     print[ P_SCFInfo ] 1
|  7>     print[ P_SCFIterInfo ] 1
|  8>     print[ P_OrbEn ] 0
|  9>     print[ P_Cartesian ] 0
| 10> end
| 11> *xyz 0 1
| 12>  C       -1.3622550000     0.5831620000     0.7812440000
| 13>  C       -1.2338920000    -0.3730910000    -0.3611090000
| 14>  O       -0.2229720000    -1.3411450000    -0.3238150000
| 15>  C        1.0281390000    -0.7419300000    -0.5139740000
| 16>  C        1.6012710000     0.1001250000     0.5806830000
| 17>  C        0.8654140000     0.7468830000    -0.5636740000
| 18>  C       -0.6163820000     0.9884750000    -0.4632320000
| 19>  H       -0.8174100000     0.3836110000     1.6943240000
| 20>  H       -2.3369620000     1.0327550000     0.9312040000
| 21>  H       -2.1092750000    -0.6931680000    -0.9141660000
| 22>  H        1.6769580000    -1.3104290000    -1.1700610000
| 23>  H        2.6790250000     0.2142930000     0.5914850000
| 24>  H        1.1463500000     0.0643920000     1.5615910000
| 25>  H        1.4198610000     1.3578620000    -1.2639870000
| 26>  H       -1.0364810000     1.7580360000    -1.0976020000
| 27> *
| 28>
| 29>                          ****END OF INPUT****
 Total Charge           Charge          ....    0
 Multiplicity           Mult            ....    1
 Number of Electrons    NEL             ....   52
 Basis Dimension        Dim             ....  138

MULLIKEN ATOMIC CHARGES
-----------------------
   0 C :    0.026800
   1 C :    0.094073
   2 O :   -0.283145
   3 C :    0.090269
   4 C :    0.016273
   5 C :   -0.061721
   6 C :   -0.064499
   7 H :    0.027288
   8 H :    0.028170
   9 H :    0.019770
  10 H :    0.022155
  11 H :    0.034102
  12 H :    0.027070
  13 H :    0.012029
  14 H :    0.011366
Sum of atomic charges:   -0.0000000

LOEWDIN ATOMIC CHARGES
----------------------
   0 C :   -0.054601
   1 C :    0.053150
   2 O :   -0.112916
   3 C :    0.052027
   4 C :   -0.057106
   5 C :   -0.045210
   6 C :   -0.045230
   7 H :    0.026311
   8 H :    0.031906
   9 H :    0.016298
  10 H :    0.016784
  11 H :    0.032999
  12 H :    0.026686
  13 H :    0.029613
  14 H :    0.029289

  Mayer bond orders larger than 0.1
B(  0-C ,  1-C ) :   0.9977 B(  0-C ,  6-C ) :   0.9726 B(  0-C ,  7-H ) :   0.9092
B(  0-C ,  8-H ) :   0.9318 B(  1-C ,  2-O ) :   1.0501 B(  1-C ,  6-C ) :   0.9212
B(  1-C ,  9-H ) :   0.9524 B(  2-O ,  3-C ) :   1.0519 B(  3-C ,  4-C ) :   1.0023
B(  3-C ,  5-C ) :   0.9204 B(  3-C , 10-H ) :   0.9518 B(  4-C ,  5-C ) :   0.9739
B(  4-C , 11-H ) :   0.9310 B(  4-C , 12-H ) :   0.9074 B(  5-C ,  6-C ) :   1.0726
B(  5-C , 13-H ) :   0.9609 B(  6-C , 14-H ) :   0.9620

FINAL SINGLE POINT ENERGY      -307.978745680090

DIPOLE MOMENT
-------------
                                X             Y             Z
Electronic contribution:     -0.48083      -2.33154      -1.35830
Nuclear contribution   :      0.54508       2.84625       1.19393
                        -----------------------------------------
Total Dipole Moment    :      0.06424       0.51471      -0.16437
                        -----------------------------------------
Magnitude (a.u.)       :      0.54412
Magnitude (Debye)      :      1.38305

                             ****ORCA TERMINATED NORMALLY****
TOTAL RUN TIME: 0 days 0 hours 0 minutes 6 seconds 699 msec
