                         Program Version 3.0.3 - RELEASE   -
|  1> ! RI PBE def2-SVP def2-SVP/J NBO PAL2
|  2> % maxcore 2000
|  3> % output
|  4>     # printlevel mini
|  5>     print[ P_Basis ] 0
|  6>     print[ P_SCFInfo ] 1
|  7>     print[ P_SCFIterInfo ] 1
|  8>     print[ P_OrbEn ] 0
|  9>     print[ P_Cartesian ] 0
| 10> end
| 11> *xyz 0 1
| 12>  C        2.0259740000    -0.1768850000    -0.0998390000
| 13>  C        0.6465410000    -0.7501740000     0.1307820000
| 14>  O       -0.4148240000    -1.3694850000    -0.5556380000
| 15>  C       -1.4410970000    -0.4778040000    -0.2723560000
| 16>  C       -1.3110960000     0.7648730000     0.2436660000
| 17>  O       -0.1236680000     1.4480750000     0.4713210000
| 18>  C        0.7680040000     0.6448500000    -0.2641880000
| 19>  H        2.5819760000    -0.2763440000    -1.0247430000
| 20>  H        2.6361870000    -0.1872660000     0.7957110000
| 21>  H        0.4894440000    -0.8527160000     1.2033480000
| 22>  H       -2.4246220000    -0.8899540000    -0.4523030000
| 23>  H       -2.1902500000     1.3524450000     0.4704180000
| 24>  H        0.5796320000     0.7799730000    -1.3280700000
| 25> *
| 26>
| 27>                          ****END OF INPUT****
 Total Charge           Charge          ....    0
 Multiplicity           Mult            ....    1
 Number of Electrons    NEL             ....   52
 Basis Dimension        Dim             ....  128

MULLIKEN ATOMIC CHARGES
-----------------------
   0 C :    0.035081
   1 C :    0.040135
   2 O :   -0.245698
   3 C :    0.078690
   4 C :    0.075874
   5 O :   -0.244469
   6 C :    0.040426
   7 H :    0.048218
   8 H :    0.048763
   9 H :    0.047945
  10 H :    0.012263
  11 H :    0.014108
  12 H :    0.048666
Sum of atomic charges:   -0.0000000

LOEWDIN ATOMIC CHARGES
----------------------
   0 C :   -0.015413
   1 C :    0.015563
   2 O :   -0.086241
   3 C :   -0.020336
   4 C :   -0.020815
   5 O :   -0.086144
   6 C :    0.015190
   7 H :    0.042785
   8 H :    0.042993
   9 H :    0.028399
  10 H :    0.027523
  11 H :    0.027941
  12 H :    0.028555

  Mayer bond orders larger than 0.1
B(  0-C ,  1-C ) :   1.0202 B(  0-C ,  6-C ) :   1.0202 B(  0-C ,  7-H ) :   0.9206
B(  0-C ,  8-H ) :   0.9201 B(  1-C ,  2-O ) :   1.0085 B(  1-C ,  6-C ) :   0.9288
B(  1-C ,  9-H ) :   0.9533 B(  2-O ,  3-C ) :   1.0835 B(  3-C ,  4-C ) :   1.7069
B(  3-C , 10-H ) :   0.9609 B(  4-C ,  5-O ) :   1.0863 B(  4-C , 11-H ) :   0.9603
B(  5-O ,  6-C ) :   1.0065 B(  6-C , 12-H ) :   0.9531

FINAL SINGLE POINT ENERGY      -343.787791371527

DIPOLE MOMENT
-------------
                                X             Y             Z
Electronic contribution:     -1.24215       0.11549       0.03224
Nuclear contribution   :      1.48384      -0.13973      -0.03734
                        -----------------------------------------
Total Dipole Moment    :      0.24169      -0.02424      -0.00509
                        -----------------------------------------
Magnitude (a.u.)       :      0.24296
Magnitude (Debye)      :      0.61755

                             ****ORCA TERMINATED NORMALLY****
TOTAL RUN TIME: 0 days 0 hours 0 minutes 6 seconds 23 msec
