                         Program Version 3.0.3 - RELEASE   -
|  1> ! RI PBE def2-SVP def2-SVP/J NBO PAL2
|  2> % maxcore 2000
|  3> % output
|  4>     # printlevel mini
|  5>     print[ P_Basis ] 0
|  6>     print[ P_SCFInfo ] 1
|  7>     print[ P_SCFIterInfo ] 1
|  8>     print[ P_OrbEn ] 0
|  9>     print[ P_Cartesian ] 0
| 10> end
| 11> *xyz 0 1
| 12>  C       -2.5137010000     0.4366470000     0.6604740000
| 13>  C       -2.4961350000     0.3468290000    -0.8474300000
| 14>  C       -1.2486320000     0.1517450000    -0.0645100000
| 15>  C       -0.4836090000    -1.1640550000     0.0226230000
| 16>  C        0.9358950000    -0.6743640000     0.0083050000
| 17>  C        0.9251100000     0.6500570000    -0.0704010000
| 18>  O       -0.3036610000     1.2206030000    -0.1171740000
| 19>  H       -2.9667770000    -0.3696390000     1.2256450000
| 20>  H       -2.6206840000     1.4226800000     1.0950900000
| 21>  H       -2.5916570000     1.2741390000    -1.3984000000
| 22>  H       -2.9370520000    -0.5214970000    -1.3232470000
| 23>  H       -0.7094300000    -1.8221180000    -0.8237200000
| 24>  H       -0.7279770000    -1.7164080000     0.9367190000
| 25>  H        1.8168580000    -1.2953370000     0.0544400000
| 26>  H        1.7492620000     1.3491070000    -0.1031130000
| 27> *
| 28>
| 29>                          ****END OF INPUT****
 Total Charge           Charge          ....    0
 Multiplicity           Mult            ....    1
 Number of Electrons    NEL             ....   52
 Basis Dimension        Dim             ....  138

MULLIKEN ATOMIC CHARGES
-----------------------
   0 C :   -0.018547
   1 C :   -0.023140
   2 C :   -0.085651
   3 C :    0.186332
   4 C :   -0.153550
   5 C :    0.153651
   6 O :   -0.249811
   7 H :    0.034482
   8 H :    0.039406
   9 H :    0.042385
  10 H :    0.034016
  11 H :    0.023207
  12 H :    0.021554
  13 H :   -0.005797
  14 H :    0.001463
Sum of atomic charges:   -0.0000000

LOEWDIN ATOMIC CHARGES
----------------------
   0 C :   -0.045619
   1 C :   -0.046624
   2 C :    0.036993
   3 C :   -0.029338
   4 C :   -0.115840
   5 C :    0.040504
   6 O :   -0.074449
   7 H :    0.028001
   8 H :    0.033662
   9 H :    0.034368
  10 H :    0.027862
  11 H :    0.031662
  12 H :    0.031282
  13 H :    0.025593
  14 H :    0.021944

  Mayer bond orders larger than 0.1
B(  0-C ,  1-C ) :   1.0327 B(  0-C ,  2-C ) :   0.9818 B(  0-C ,  7-H ) :   0.9424
B(  0-C ,  8-H ) :   0.9353 B(  1-C ,  2-C ) :   0.9839 B(  1-C ,  9-H ) :   0.9347
B(  1-C , 10-H ) :   0.9423 B(  2-C ,  3-C ) :   1.0248 B(  2-C ,  6-O ) :   0.9995
B(  3-C ,  4-C ) :   1.0531 B(  3-C , 11-H ) :   0.9044 B(  3-C , 12-H ) :   0.9046
B(  4-C ,  5-C ) :   1.7511 B(  4-C ,  6-O ) :   0.1244 B(  4-C , 13-H ) :   0.9844
B(  5-C ,  6-O ) :   1.1021 B(  5-C , 14-H ) :   0.9903

FINAL SINGLE POINT ENERGY      -307.999048596201

DIPOLE MOMENT
-------------
                                X             Y             Z
Electronic contribution:      2.67775       2.38513      -0.11007
Nuclear contribution   :     -2.76116      -2.71467       0.12906
                        -----------------------------------------
Total Dipole Moment    :     -0.08341      -0.32953       0.01899
                        -----------------------------------------
Magnitude (a.u.)       :      0.34046
Magnitude (Debye)      :      0.86537

                             ****ORCA TERMINATED NORMALLY****
TOTAL RUN TIME: 0 days 0 hours 0 minutes 6 seconds 923 msec
