                         Program Version 3.0.3 - RELEASE   -
|  1> ! RI PBE def2-SVP def2-SVP/J NBO PAL2
|  2> % maxcore 2000
|  3> % output
|  4>     # printlevel mini
|  5>     print[ P_Basis ] 0
|  6>     print[ P_SCFInfo ] 1
|  7>     print[ P_SCFIterInfo ] 1
|  8>     print[ P_OrbEn ] 0
|  9>     print[ P_Cartesian ] 0
| 10> end
| 11> *xyz 0 1
| 12>  C       -2.5597740000     0.3892350000     0.6327510000
| 13>  C       -2.3995580000     0.3869100000    -0.8876720000
| 14>  C       -1.2325090000     0.2457890000     0.0186520000
| 15>  O       -0.5444630000    -0.9789350000     0.0891610000
| 16>  C        0.7727920000    -0.6448030000    -0.1212940000
| 17>  C        0.9211640000     0.6697110000    -0.1076600000
| 18>  O       -0.2889700000     1.2846480000     0.1126270000
| 19>  H       -2.9915790000    -0.4890560000     1.0957750000
| 20>  H       -2.7860330000     1.3320090000     1.1146500000
| 21>  H       -2.5215850000     1.3303360000    -1.4048940000
| 22>  H       -2.7275950000    -0.4947980000    -1.4238100000
| 23>  H        1.4787980000    -1.4490080000    -0.2332350000
| 24>  H        1.7889100000     1.2984510000    -0.2047410000
| 25> *
| 26>
| 27>                          ****END OF INPUT****
 Total Charge           Charge          ....    0
 Multiplicity           Mult            ....    1
 Number of Electrons    NEL             ....   52
 Basis Dimension        Dim             ....  128

MULLIKEN ATOMIC CHARGES
-----------------------
   0 C :   -0.059857
   1 C :   -0.048189
   2 C :    0.182751
   3 O :   -0.248628
   4 C :    0.096319
   5 C :    0.097461
   6 O :   -0.250711
   7 H :    0.051462
   8 H :    0.049690
   9 H :    0.044902
  10 H :    0.045630
  11 H :    0.020499
  12 H :    0.018672
Sum of atomic charges:   -0.0000000

LOEWDIN ATOMIC CHARGES
----------------------
   0 C :   -0.053994
   1 C :   -0.062855
   2 C :    0.089871
   3 O :   -0.078121
   4 C :   -0.008125
   5 C :   -0.007875
   6 O :   -0.078624
   7 H :    0.038154
   8 H :    0.037729
   9 H :    0.034440
  10 H :    0.034584
  11 H :    0.027560
  12 H :    0.027256

  Mayer bond orders larger than 0.1
B(  0-C ,  1-C ) :   0.9945 B(  0-C ,  2-C ) :   1.0078 B(  0-C ,  7-H ) :   0.9354
B(  0-C ,  8-H ) :   0.9350 B(  1-C ,  2-C ) :   0.9777 B(  1-C ,  9-H ) :   0.9356
B(  1-C , 10-H ) :   0.9349 B(  2-C ,  3-O ) :   1.0445 B(  2-C ,  6-O ) :   1.0432
B(  3-O ,  4-C ) :   1.0426 B(  4-C ,  5-C ) :   1.7325 B(  4-C , 11-H ) :   0.9827
B(  5-C ,  6-O ) :   1.0429 B(  5-C , 12-H ) :   0.9838

FINAL SINGLE POINT ENERGY      -343.845551811853

DIPOLE MOMENT
-------------
                                X             Y             Z
Electronic contribution:      3.09451      -0.35735       0.66141
Nuclear contribution   :     -2.95524       0.34176      -0.79046
                        -----------------------------------------
Total Dipole Moment    :      0.13927      -0.01559      -0.12905
                        -----------------------------------------
Magnitude (a.u.)       :      0.19050
Magnitude (Debye)      :      0.48423

                             ****ORCA TERMINATED NORMALLY****
TOTAL RUN TIME: 0 days 0 hours 0 minutes 5 seconds 946 msec
