                         Program Version 3.0.3 - RELEASE   -
|  1> ! RI PBE def2-SVP def2-SVP/J NBO PAL2
|  2> % maxcore 2000
|  3> % output
|  4>     # printlevel mini
|  5>     print[ P_Basis ] 0
|  6>     print[ P_SCFInfo ] 1
|  7>     print[ P_SCFIterInfo ] 1
|  8>     print[ P_OrbEn ] 0
|  9>     print[ P_Cartesian ] 0
| 10> end
| 11> *xyz 0 1
| 12>  C       -0.4025980000    -0.9942590000    -0.4923270000
| 13>  C        0.8864740000    -1.0769820000    -1.2541100000
| 14>  C        0.8084270000    -0.2655570000     0.0015950000
| 15>  C        1.5296850000    -0.6829260000     1.2513390000
| 16>  C        0.7723370000    -0.4880110000     2.5749500000
| 17>  O        0.7297810000    -1.9006300000     2.8166900000
| 18>  C        1.5123000000    -2.1659000000     1.6473100000
| 19>  H       -0.7281710000    -1.8738200000     0.0506440000
| 20>  H       -1.2103740000    -0.4102770000    -0.9151350000
| 21>  H        0.9618910000    -0.5582910000    -2.2015290000
| 22>  H        1.4308110000    -2.0138020000    -1.2157750000
| 23>  H        0.7898010000     0.8112620000    -0.1420970000
| 24>  H        2.5328140000    -0.2508380000     1.2546250000
| 25>  H       -0.2310870000    -0.0601870000     2.4799470000
| 26>  H        1.3212190000     0.0411860000     3.3615870000
| 27>  H        1.0020770000    -2.8517830000     0.9626170000
| 28>  H        2.4916240000    -2.5861740000     1.9002680000
| 29> *
| 30>
| 31>                          ****END OF INPUT****
 Total Charge           Charge          ....    0
 Multiplicity           Mult            ....    1
 Number of Electrons    NEL             ....   54
 Basis Dimension        Dim             ....  148

MULLIKEN ATOMIC CHARGES
-----------------------
   0 C :   -0.045786
   1 C :   -0.032938
   2 C :   -0.098507
   3 C :   -0.168827
   4 C :    0.260577
   5 O :   -0.366347
   6 C :    0.230902
   7 H :    0.046035
   8 H :    0.034049
   9 H :    0.031925
  10 H :    0.035124
  11 H :    0.029779
  12 H :    0.014735
  13 H :    0.005157
  14 H :    0.006807
  15 H :    0.011099
  16 H :    0.006216
Sum of atomic charges:   -0.0000000

LOEWDIN ATOMIC CHARGES
----------------------
   0 C :   -0.047637
   1 C :   -0.043537
   2 C :   -0.045141
   3 C :   -0.049546
   4 C :    0.089207
   5 O :   -0.184869
   6 C :    0.084585
   7 H :    0.027507
   8 H :    0.028464
   9 H :    0.027369
  10 H :    0.024461
  11 H :    0.029686
  12 H :    0.027240
  13 H :    0.009104
  14 H :    0.007713
  15 H :    0.006146
  16 H :    0.009248

  Mayer bond orders larger than 0.1
B(  0-C ,  1-C ) :   1.0380 B(  0-C ,  2-C ) :   0.9955 B(  0-C ,  7-H ) :   0.9454
B(  0-C ,  8-H ) :   0.9461 B(  1-C ,  2-C ) :   1.0003 B(  1-C ,  9-H ) :   0.9455
B(  1-C , 10-H ) :   0.9463 B(  2-C ,  3-C ) :   1.0279 B(  2-C , 11-H ) :   0.9390
B(  3-C ,  4-C ) :   1.0799 B(  3-C ,  6-C ) :   1.0928 B(  3-C , 12-H ) :   0.9170
B(  4-C ,  5-O ) :   1.0362 B(  4-C , 13-H ) :   0.9300 B(  4-C , 14-H ) :   0.9293
B(  5-O ,  6-C ) :   1.0393 B(  6-C , 15-H ) :   0.9222 B(  6-C , 16-H ) :   0.9282

FINAL SINGLE POINT ENERGY      -309.177970569483

DIPOLE MOMENT
-------------
                                X             Y             Z
Electronic contribution:      0.20113      -0.76693       3.36797
Nuclear contribution   :      0.05743       1.19906      -3.90199
                        -----------------------------------------
Total Dipole Moment    :      0.25856       0.43213      -0.53402
                        -----------------------------------------
Magnitude (a.u.)       :      0.73401
Magnitude (Debye)      :      1.86570

                             ****ORCA TERMINATED NORMALLY****
TOTAL RUN TIME: 0 days 0 hours 0 minutes 7 seconds 459 msec
