                         Program Version 3.0.3 - RELEASE   -
|  1> ! RI PBE def2-SVP def2-SVP/J NBO PAL2
|  2> % maxcore 2000
|  3> % output
|  4>     # printlevel mini
|  5>     print[ P_Basis ] 0
|  6>     print[ P_SCFInfo ] 1
|  7>     print[ P_SCFIterInfo ] 1
|  8>     print[ P_OrbEn ] 0
|  9>     print[ P_Cartesian ] 0
| 10> end
| 11> *xyz 0 1
| 12>  C        1.1471060000     0.0324020000    -0.0041340000
| 13>  C        0.7040080000     1.2124160000     0.8188190000
| 14>  C       -0.7509100000     1.4340900000     1.0896150000
| 15>  C        0.1621710000     1.0097070000     2.2008170000
| 16>  C        2.5640370000    -0.3716140000     0.2841000000
| 17>  C        2.8971500000    -1.4572790000     1.1991120000
| 18>  O        2.9827780000    -1.6361200000    -0.2057280000
| 19>  H        1.0596730000     0.2692110000    -1.0710990000
| 20>  H        0.4907650000    -0.8240770000     0.1817700000
| 21>  H        1.2954320000     2.1120190000     0.6733560000
| 22>  H       -1.4496280000     0.7015540000     0.7024220000
| 23>  H       -1.1263130000     2.4497560000     1.0938430000
| 24>  H        0.0765600000    -0.0086600000     2.5618670000
| 25>  H        0.4100090000     1.7343080000     2.9663300000
| 26>  H        3.3086570000     0.4146680000     0.1532950000
| 27>  H        2.0929880000    -2.0036700000     1.6873740000
| 28>  H        3.8477060000    -1.4536020000     1.7270510000
| 29> *
| 30>
| 31>                          ****END OF INPUT****
 Total Charge           Charge          ....    0
 Multiplicity           Mult            ....    1
 Number of Electrons    NEL             ....   54
 Basis Dimension        Dim             ....  148

MULLIKEN ATOMIC CHARGES
-----------------------
   0 C :    0.180038
   1 C :   -0.173537
   2 C :   -0.021060
   3 C :   -0.032741
   4 C :   -0.023579
   5 C :    0.141757
   6 O :   -0.289653
   7 H :    0.022617
   8 H :   -0.016619
   9 H :    0.021508
  10 H :    0.030365
  11 H :    0.031825
  12 H :    0.027045
  13 H :    0.035084
  14 H :    0.015190
  15 H :    0.022106
  16 H :    0.029653
Sum of atomic charges:   -0.0000000

LOEWDIN ATOMIC CHARGES
----------------------
   0 C :   -0.039234
   1 C :   -0.043246
   2 C :   -0.043691
   3 C :   -0.047661
   4 C :    0.039801
   5 C :    0.052376
   6 O :   -0.157126
   7 H :    0.035599
   8 H :    0.030380
   9 H :    0.026046
  10 H :    0.026077
  11 H :    0.026988
  12 H :    0.023266
  13 H :    0.027768
  14 H :    0.014747
  15 H :    0.012278
  16 H :    0.015632

  Mayer bond orders larger than 0.1
B(  0-C ,  1-C ) :   1.0652 B(  0-C ,  4-C ) :   1.0558 B(  0-C ,  7-H ) :   0.9101
B(  0-C ,  8-H ) :   0.8966 B(  1-C ,  2-C ) :   0.9901 B(  1-C ,  3-C ) :   0.9950
B(  1-C ,  9-H ) :   0.9410 B(  2-C ,  3-C ) :   1.0506 B(  2-C , 10-H ) :   0.9470
B(  2-C , 11-H ) :   0.9460 B(  3-C , 12-H ) :   0.9506 B(  3-C , 13-H ) :   0.9463
B(  4-C ,  5-C ) :   1.1020 B(  4-C ,  6-O ) :   0.9773 B(  4-C , 14-H ) :   0.9283
B(  5-C ,  6-O ) :   1.0053 B(  5-C , 15-H ) :   0.9267 B(  5-C , 16-H ) :   0.9377

FINAL SINGLE POINT ENERGY      -309.180496106196

DIPOLE MOMENT
-------------
                                X             Y             Z
Electronic contribution:      3.62280      -2.72812      -2.39580
Nuclear contribution   :     -3.83497       3.19790       2.87161
                        -----------------------------------------
Total Dipole Moment    :     -0.21217       0.46977       0.47581
                        -----------------------------------------
Magnitude (a.u.)       :      0.70150
Magnitude (Debye)      :      1.78306

                             ****ORCA TERMINATED NORMALLY****
TOTAL RUN TIME: 0 days 0 hours 0 minutes 6 seconds 693 msec
