                         Program Version 3.0.3 - RELEASE   -
|  1> ! RI PBE def2-SVP def2-SVP/J NBO PAL2
|  2> % maxcore 2000
|  3> % output
|  4>     # printlevel mini
|  5>     print[ P_Basis ] 0
|  6>     print[ P_SCFInfo ] 1
|  7>     print[ P_SCFIterInfo ] 1
|  8>     print[ P_OrbEn ] 0
|  9>     print[ P_Cartesian ] 0
| 10> end
| 11> *xyz 0 1
| 12>  C        0.5568280000     0.2134850000    -1.3195160000
| 13>  C       -0.4967790000    -0.4971040000    -0.5093180000
| 14>  C        0.9375010000    -0.6931450000    -0.1908220000
| 15>  O        1.3853590000    -0.1317630000     1.0003270000
| 16>  C        2.7486380000     0.1432830000     0.9807660000
| 17>  C        3.4281940000     0.1833080000     2.2974410000
| 18>  C        3.7113360000    -0.9454000000     1.3396860000
| 19>  H        0.6673930000     1.2771210000    -1.1480570000
| 20>  H        0.7441330000    -0.1109670000    -2.3356570000
| 21>  H       -1.0419710000    -1.3159100000    -0.9612050000
| 22>  H       -1.0645570000     0.1026260000     0.1906750000
| 23>  H        1.4002440000    -1.6467320000    -0.4373410000
| 24>  H        3.0495370000     0.8580140000     0.2173200000
| 25>  H        2.8149840000    -0.0470270000     3.1593920000
| 26>  H        4.1901550000     0.9343100000     2.4626370000
| 27>  H        3.2854280000    -1.9104000000     1.5852870000
| 28>  H        4.6709860000    -0.9797000000     0.8388950000
| 29> *
| 30>
| 31>                          ****END OF INPUT****
 Total Charge           Charge          ....    0
 Multiplicity           Mult            ....    1
 Number of Electrons    NEL             ....   54
 Basis Dimension        Dim             ....  148

MULLIKEN ATOMIC CHARGES
-----------------------
   0 C :   -0.072684
   1 C :   -0.031002
   2 C :    0.066754
   3 O :   -0.272631
   4 C :    0.062218
   5 C :   -0.030506
   6 C :   -0.063758
   7 H :    0.045778
   8 H :    0.036292
   9 H :    0.034659
  10 H :    0.047275
  11 H :    0.008636
  12 H :    0.011152
  13 H :    0.044886
  14 H :    0.036426
  15 H :    0.041080
  16 H :    0.035424
Sum of atomic charges:   -0.0000000

LOEWDIN ATOMIC CHARGES
----------------------
   0 C :   -0.066182
   1 C :   -0.050922
   2 C :    0.039048
   3 O :   -0.105760
   4 C :    0.037760
   5 C :   -0.050959
   6 C :   -0.063852
   7 H :    0.031904
   8 H :    0.026674
   9 H :    0.028977
  10 H :    0.034572
  11 H :    0.008628
  12 H :    0.009093
  13 H :    0.034153
  14 H :    0.029319
  15 H :    0.030972
  16 H :    0.026574

  Mayer bond orders larger than 0.1
B(  0-C ,  1-C ) :   1.0384 B(  0-C ,  2-C ) :   0.9993 B(  0-C ,  7-H ) :   0.9403
B(  0-C ,  8-H ) :   0.9452 B(  1-C ,  2-C ) :   1.0007 B(  1-C ,  9-H ) :   0.9423
B(  1-C , 10-H ) :   0.9453 B(  2-C ,  3-O ) :   1.0563 B(  2-C , 11-H ) :   0.9312
B(  3-O ,  4-C ) :   1.0530 B(  4-C ,  5-C ) :   0.9999 B(  4-C ,  6-C ) :   1.0047
B(  4-C , 12-H ) :   0.9306 B(  5-C ,  6-C ) :   1.0336 B(  5-C , 13-H ) :   0.9459
B(  5-C , 14-H ) :   0.9426 B(  6-C , 15-H ) :   0.9427 B(  6-C , 16-H ) :   0.9445

FINAL SINGLE POINT ENERGY      -309.174672764423

DIPOLE MOMENT
-------------
                                X             Y             Z
Electronic contribution:     -0.89083       0.27148       1.19186
Nuclear contribution   :      1.13334      -0.35450      -1.49893
                        -----------------------------------------
Total Dipole Moment    :      0.24252      -0.08302      -0.30707
                        -----------------------------------------
Magnitude (a.u.)       :      0.40000
Magnitude (Debye)      :      1.01671

                             ****ORCA TERMINATED NORMALLY****
TOTAL RUN TIME: 0 days 0 hours 0 minutes 6 seconds 885 msec
