                         Program Version 3.0.3 - RELEASE   -
|  1> ! RI PBE def2-SVP def2-SVP/J NBO PAL2
|  2> % maxcore 2000
|  3> % output
|  4>     # printlevel mini
|  5>     print[ P_Basis ] 0
|  6>     print[ P_SCFInfo ] 1
|  7>     print[ P_SCFIterInfo ] 1
|  8>     print[ P_OrbEn ] 0
|  9>     print[ P_Cartesian ] 0
| 10> end
| 11> *xyz 0 1
| 12>  C       -1.2610260000    -0.7853200000    -0.5152410000
| 13>  C       -1.2325590000     0.7660860000    -0.5239480000
| 14>  C        0.0119390000     1.0623820000     0.3120350000
| 15>  C       -0.0253280000    -0.0317410000     1.3711270000
| 16>  C       -0.0171450000    -1.1394050000     0.3133090000
| 17>  C        1.2087510000    -0.7125560000    -0.4877670000
| 18>  O        1.1622460000     0.7185410000    -0.4617950000
| 19>  H       -1.2160930000    -1.2132570000    -1.5191510000
| 20>  H       -2.1665370000    -1.1657810000    -0.0366260000
| 21>  H       -2.1293580000     1.1957680000    -0.0701250000
| 22>  H       -1.1275830000     1.1859510000    -1.5252050000
| 23>  H        0.1233550000     2.0927520000     0.6483550000
| 24>  H       -0.9324740000    -0.0208180000     1.9789450000
| 25>  H        0.8563100000    -0.0262020000     2.0145580000
| 26>  H        0.0226580000    -2.1681550000     0.6715190000
| 27>  H        1.1779310000    -1.0643050000    -1.5246650000
| 28>  H        2.1460030000    -1.0527500000    -0.0316040000
| 29> *
| 30>
| 31>                          ****END OF INPUT****
 Total Charge           Charge          ....    0
 Multiplicity           Mult            ....    1
 Number of Electrons    NEL             ....   54
 Basis Dimension        Dim             ....  148

MULLIKEN ATOMIC CHARGES
-----------------------
   0 C :    0.079309
   1 C :    0.120105
   2 C :   -0.009919
   3 C :    0.064712
   4 C :   -0.251698
   5 C :    0.287314
   6 O :   -0.341423
   7 H :    0.001850
   8 H :    0.005112
   9 H :    0.003998
  10 H :    0.007519
  11 H :   -0.001320
  12 H :    0.014697
  13 H :    0.022771
  14 H :   -0.000130
  15 H :   -0.003304
  16 H :    0.000407
Sum of atomic charges:   -0.0000000

LOEWDIN ATOMIC CHARGES
----------------------
   0 C :   -0.030216
   1 C :   -0.048347
   2 C :    0.055614
   3 C :   -0.040608
   4 C :   -0.052264
   5 C :    0.078007
   6 O :   -0.165604
   7 H :    0.021963
   8 H :    0.023614
   9 H :    0.023533
  10 H :    0.026914
  11 H :    0.015790
  12 H :    0.024274
  13 H :    0.026163
  14 H :    0.022360
  15 H :    0.009470
  16 H :    0.009337

  Mayer bond orders larger than 0.1
B(  0-C ,  1-C ) :   1.0997 B(  0-C ,  4-C ) :   1.0792 B(  0-C ,  7-H ) :   0.9129
B(  0-C ,  8-H ) :   0.9195 B(  1-C ,  2-C ) :   1.0634 B(  1-C ,  9-H ) :   0.9179
B(  1-C , 10-H ) :   0.8988 B(  2-C ,  3-C ) :   1.0146 B(  2-C ,  6-O ) :   1.0143
B(  2-C , 11-H ) :   0.9429 B(  3-C ,  4-C ) :   0.9889 B(  3-C , 12-H ) :   0.9395
B(  3-C , 13-H ) :   0.9316 B(  4-C ,  5-C ) :   1.0167 B(  4-C , 14-H ) :   0.9365
B(  5-C ,  6-O ) :   0.9967 B(  5-C , 15-H ) :   0.9328 B(  5-C , 16-H ) :   0.9349

FINAL SINGLE POINT ENERGY      -309.237682759070

DIPOLE MOMENT
-------------
                                X             Y             Z
Electronic contribution:      2.56845       1.62804      -0.39230
Nuclear contribution   :     -2.98237      -2.00606       0.67067
                        -----------------------------------------
Total Dipole Moment    :     -0.41392      -0.37802       0.27837
                        -----------------------------------------
Magnitude (a.u.)       :      0.62587
Magnitude (Debye)      :      1.59084

                             ****ORCA TERMINATED NORMALLY****
TOTAL RUN TIME: 0 days 0 hours 0 minutes 7 seconds 684 msec
