                         Program Version 3.0.3 - RELEASE   -
|  1> ! RI PBE def2-SVP def2-SVP/J NBO PAL2
|  2> % maxcore 2000
|  3> % output
|  4>     # printlevel mini
|  5>     print[ P_Basis ] 0
|  6>     print[ P_SCFInfo ] 1
|  7>     print[ P_SCFIterInfo ] 1
|  8>     print[ P_OrbEn ] 0
|  9>     print[ P_Cartesian ] 0
| 10> end
| 11> *xyz 0 1
| 12>  C       -1.7140990000     0.8427970000     0.5417300000
| 13>  C       -1.1686790000    -0.2744820000    -0.2880300000
| 14>  C       -0.2902850000    -1.3401070000     0.3214790000
| 15>  C        1.1056080000    -1.2631490000    -0.2847440000
| 16>  O        1.6776380000     0.0354740000    -0.2551760000
| 17>  C        0.8645420000     1.0586580000     0.2893830000
| 18>  C       -0.5113150000     1.0792520000    -0.3206920000
| 19>  H       -1.5691280000     0.7995270000     1.6162540000
| 20>  H       -2.6500310000     1.2922120000     0.2344840000
| 21>  H       -1.7417750000    -0.5667980000    -1.1611040000
| 22>  H       -0.6954670000    -2.3400950000     0.1482920000
| 23>  H       -0.2331260000    -1.2141230000     1.4066120000
| 24>  H        1.0609090000    -1.5842290000    -1.3332950000
| 25>  H        1.7863890000    -1.9440430000     0.2395260000
| 26>  H        1.4028400000     1.9874010000     0.0928670000
| 27>  H        0.7918810000     0.9514860000     1.3809080000
| 28>  H       -0.6390020000     1.6846180000    -1.2106930000
| 29> *
| 30>
| 31>                          ****END OF INPUT****
 Total Charge           Charge          ....    0
 Multiplicity           Mult            ....    1
 Number of Electrons    NEL             ....   54
 Basis Dimension        Dim             ....  148

MULLIKEN ATOMIC CHARGES
-----------------------
   0 C :    0.033026
   1 C :   -0.131438
   2 C :    0.015426
   3 C :    0.219846
   4 O :   -0.366301
   5 C :    0.292776
   6 C :   -0.184986
   7 H :    0.030681
   8 H :    0.023130
   9 H :    0.018938
  10 H :    0.017969
  11 H :    0.011565
  12 H :   -0.002295
  13 H :    0.005063
  14 H :    0.013376
  15 H :   -0.018509
  16 H :    0.021734
Sum of atomic charges:    0.0000000

LOEWDIN ATOMIC CHARGES
----------------------
   0 C :   -0.034507
   1 C :   -0.038407
   2 C :   -0.054421
   3 C :    0.066544
   4 O :   -0.164069
   5 C :    0.066289
   6 C :   -0.062717
   7 H :    0.024040
   8 H :    0.028396
   9 H :    0.025897
  10 H :    0.035592
  11 H :    0.028526
  12 H :    0.009835
  13 H :    0.012544
  14 H :    0.026571
  15 H :    0.004514
  16 H :    0.025373

  Mayer bond orders larger than 0.1
B(  0-C ,  1-C ) :   1.0069 B(  0-C ,  6-C ) :   0.9930 B(  0-C ,  7-H ) :   0.9370
B(  0-C ,  8-H ) :   0.9325 B(  1-C ,  2-C ) :   1.1025 B(  1-C ,  6-C ) :   0.9355
B(  1-C ,  9-H ) :   0.9398 B(  2-C ,  3-C ) :   1.0815 B(  2-C , 10-H ) :   0.9257
B(  2-C , 11-H ) :   0.9072 B(  3-C ,  4-O ) :   1.0149 B(  3-C , 12-H ) :   0.9359
B(  3-C , 13-H ) :   0.9350 B(  4-O ,  5-C ) :   1.0212 B(  5-C ,  6-C ) :   1.0976
B(  5-C , 14-H ) :   0.9392 B(  5-C , 15-H ) :   0.9063 B(  6-C , 16-H ) :   0.9361

FINAL SINGLE POINT ENERGY      -309.206725347690

DIPOLE MOMENT
-------------
                                X             Y             Z
Electronic contribution:      2.12637       0.82855      -1.16886
Nuclear contribution   :     -2.66648      -0.95838       1.27911
                        -----------------------------------------
Total Dipole Moment    :     -0.54011      -0.12983       0.11025
                        -----------------------------------------
Magnitude (a.u.)       :      0.56633
Magnitude (Debye)      :      1.43950

                             ****ORCA TERMINATED NORMALLY****
TOTAL RUN TIME: 0 days 0 hours 0 minutes 7 seconds 839 msec
