                         Program Version 3.0.3 - RELEASE   -
|  1> ! RI PBE def2-SVP def2-SVP/J NBO PAL2
|  2> % maxcore 2000
|  3> % output
|  4>     # printlevel mini
|  5>     print[ P_Basis ] 0
|  6>     print[ P_SCFInfo ] 1
|  7>     print[ P_SCFIterInfo ] 1
|  8>     print[ P_OrbEn ] 0
|  9>     print[ P_Cartesian ] 0
| 10> end
| 11> *xyz 0 1
| 12>  C        1.6974330000     0.1467510000    -0.8701770000
| 13>  C        1.9448760000    -0.0938600000     0.5930310000
| 14>  C        0.5500850000     0.0123270000     0.0834270000
| 15>  C       -0.3702130000     1.1761550000     0.3613500000
| 16>  C       -1.5948980000     0.7535330000    -0.4319720000
| 17>  O       -1.6679140000    -0.6573670000    -0.2981070000
| 18>  C       -0.3839840000    -1.1763710000     0.0177060000
| 19>  H        1.8885100000    -0.6699550000    -1.5567190000
| 20>  H        1.9186180000     1.1308730000    -1.2673330000
| 21>  H        2.3354370000     0.7246120000     1.1864140000
| 22>  H        2.3050110000    -1.0722830000     0.8906460000
| 23>  H        0.0399210000     2.1364210000     0.0436680000
| 24>  H       -0.6084410000     1.2343400000     1.4284940000
| 25>  H       -1.4842950000     1.0287230000    -1.4903340000
| 26>  H       -2.5300340000     1.1788380000    -0.0608540000
| 27>  H       -0.0775230000    -1.9039710000    -0.7424990000
| 28>  H       -0.4453970000    -1.6935780000     0.9837470000
| 29> *
| 30>
| 31>                          ****END OF INPUT****
 Total Charge           Charge          ....    0
 Multiplicity           Mult            ....    1
 Number of Electrons    NEL             ....   54
 Basis Dimension        Dim             ....  148

MULLIKEN ATOMIC CHARGES
-----------------------
   0 C :    0.012566
   1 C :    0.013254
   2 C :   -0.418756
   3 C :    0.049839
   4 C :    0.240358
   5 O :   -0.373578
   6 C :    0.349424
   7 H :    0.033111
   8 H :    0.024754
   9 H :    0.028751
  10 H :    0.028184
  11 H :    0.000567
  12 H :    0.019756
  13 H :   -0.005412
  14 H :    0.004748
  15 H :   -0.007438
  16 H :   -0.000129
Sum of atomic charges:    0.0000000

LOEWDIN ATOMIC CHARGES
----------------------
   0 C :   -0.036022
   1 C :   -0.037184
   2 C :   -0.081981
   3 C :   -0.038688
   4 C :    0.071704
   5 O :   -0.165947
   6 C :    0.081279
   7 H :    0.025426
   8 H :    0.024259
   9 H :    0.028615
  10 H :    0.027830
  11 H :    0.027433
  12 H :    0.028752
  13 H :    0.004789
  14 H :    0.016076
  15 H :    0.012879
  16 H :    0.010780

  Mayer bond orders larger than 0.1
B(  0-C ,  1-C ) :   1.0562 B(  0-C ,  2-C ) :   0.9704 B(  0-C ,  7-H ) :   0.9407
B(  0-C ,  8-H ) :   0.9402 B(  1-C ,  2-C ) :   0.9769 B(  1-C ,  9-H ) :   0.9373
B(  1-C , 10-H ) :   0.9429 B(  2-C ,  3-C ) :   1.0738 B(  2-C ,  6-C ) :   1.0264
B(  3-C ,  4-C ) :   1.0909 B(  3-C , 11-H ) :   0.9194 B(  3-C , 12-H ) :   0.9184
B(  4-C ,  5-O ) :   1.0032 B(  4-C , 13-H ) :   0.9317 B(  4-C , 14-H ) :   0.9406
B(  5-O ,  6-C ) :   1.0189 B(  6-C , 15-H ) :   0.9206 B(  6-C , 16-H ) :   0.9316

FINAL SINGLE POINT ENERGY      -309.208407681063

DIPOLE MOMENT
-------------
                                X             Y             Z
Electronic contribution:     -2.72113      -1.44990      -0.14059
Nuclear contribution   :      3.22318       1.81841       0.24366
                        -----------------------------------------
Total Dipole Moment    :      0.50205       0.36850       0.10307
                        -----------------------------------------
Magnitude (a.u.)       :      0.63125
Magnitude (Debye)      :      1.60450

                             ****ORCA TERMINATED NORMALLY****
TOTAL RUN TIME: 0 days 0 hours 0 minutes 7 seconds 748 msec
