                         Program Version 3.0.3 - RELEASE   -
|  1> ! RI PBE def2-SVP def2-SVP/J NBO PAL2
|  2> % maxcore 2000
|  3> % output
|  4>     # printlevel mini
|  5>     print[ P_Basis ] 0
|  6>     print[ P_SCFInfo ] 1
|  7>     print[ P_SCFIterInfo ] 1
|  8>     print[ P_OrbEn ] 0
|  9>     print[ P_Cartesian ] 0
| 10> end
| 11> *xyz 0 1
| 12>  C       -1.2480040000    -0.7744750000    -0.5370390000
| 13>  C       -1.2510590000     0.7721520000    -0.5300690000
| 14>  C       -0.0020360000     1.0631180000     0.3097180000
| 15>  C        1.2570880000     0.7765710000    -0.5164790000
| 16>  C        1.2601390000    -0.7700590000    -0.5226100000
| 17>  C        0.0018400000    -1.0680880000     0.3006890000
| 18>  O       -0.0053900000    -0.0065140000     1.2539250000
| 19>  H       -1.1874450000    -1.2022860000    -1.5393750000
| 20>  H       -2.1387590000    -1.1752380000    -0.0512690000
| 21>  H       -2.1430420000     1.1648700000    -0.0399820000
| 22>  H       -1.1929690000     1.2093110000    -1.5285040000
| 23>  H       -0.0065770000     2.0165810000     0.8362260000
| 24>  H        2.1423500000     1.1731510000    -0.0174160000
| 25>  H        1.2076940000     1.2128810000    -1.5157590000
| 26>  H        2.1466180000    -1.1669670000    -0.0259560000
| 27>  H        1.2132110000    -1.1987210000    -1.5253080000
| 28>  H        0.0005510000    -2.0259880000     0.8190990000
| 29> *
| 30>
| 31>                          ****END OF INPUT****
 Total Charge           Charge          ....    0
 Multiplicity           Mult            ....    1
 Number of Electrons    NEL             ....   54
 Basis Dimension        Dim             ....  148

MULLIKEN ATOMIC CHARGES
-----------------------
   0 C :    0.086339
   1 C :    0.085693
   2 C :   -0.019415
   3 C :    0.085486
   4 C :    0.086282
   5 C :   -0.019626
   6 O :   -0.335309
   7 H :   -0.003004
   8 H :    0.010265
   9 H :    0.010254
  10 H :   -0.002781
  11 H :    0.000388
  12 H :    0.010480
  13 H :   -0.002791
  14 H :    0.010377
  15 H :   -0.002999
  16 H :    0.000360
Sum of atomic charges:   -0.0000000

LOEWDIN ATOMIC CHARGES
----------------------
   0 C :   -0.044870
   1 C :   -0.044943
   2 C :    0.051814
   3 C :   -0.044993
   4 C :   -0.044903
   5 C :    0.051845
   6 O :   -0.152116
   7 H :    0.022005
   8 H :    0.026406
   9 H :    0.026395
  10 H :    0.022059
  11 H :    0.017192
  12 H :    0.026431
  13 H :    0.022066
  14 H :    0.026422
  15 H :    0.022006
  16 H :    0.017186

  Mayer bond orders larger than 0.1
B(  0-C ,  1-C ) :   1.1365 B(  0-C ,  5-C ) :   1.0711 B(  0-C ,  7-H ) :   0.9069
B(  0-C ,  8-H ) :   0.9116 B(  1-C ,  2-C ) :   1.0709 B(  1-C ,  9-H ) :   0.9117
B(  1-C , 10-H ) :   0.9069 B(  2-C ,  3-C ) :   1.0708 B(  2-C ,  6-O ) :   0.9919
B(  2-C , 11-H ) :   0.9472 B(  3-C ,  4-C ) :   1.1365 B(  3-C , 12-H ) :   0.9117
B(  3-C , 13-H ) :   0.9068 B(  4-C ,  5-C ) :   1.0709 B(  4-C , 14-H ) :   0.9116
B(  4-C , 15-H ) :   0.9069 B(  5-C ,  6-O ) :   0.9916 B(  5-C , 16-H ) :   0.9472

FINAL SINGLE POINT ENERGY      -309.242459014634

DIPOLE MOMENT
-------------
                                X             Y             Z
Electronic contribution:     -0.01962      -0.01489       3.49819
Nuclear contribution   :      0.02255       0.01717      -4.04387
                        -----------------------------------------
Total Dipole Moment    :      0.00293       0.00228      -0.54569
                        -----------------------------------------
Magnitude (a.u.)       :      0.54570
Magnitude (Debye)      :      1.38705

                             ****ORCA TERMINATED NORMALLY****
TOTAL RUN TIME: 0 days 0 hours 0 minutes 7 seconds 921 msec
