                         Program Version 3.0.3 - RELEASE   -
|  1> ! RI PBE def2-SVP def2-SVP/J NBO PAL2
|  2> % maxcore 2000
|  3> % output
|  4>     # printlevel mini
|  5>     print[ P_Basis ] 0
|  6>     print[ P_SCFInfo ] 1
|  7>     print[ P_SCFIterInfo ] 1
|  8>     print[ P_OrbEn ] 0
|  9>     print[ P_Cartesian ] 0
| 10> end
| 11> *xyz 0 1
| 12>  C       -1.2031750000    -0.1084530000     0.9240160000
| 13>  C       -0.5886990000    -0.9898410000    -0.1628270000
| 14>  C        0.8818320000    -1.2614400000     0.1235370000
| 15>  C        1.6644840000     0.0590780000     0.0328770000
| 16>  C        0.8125370000     1.2911220000     0.3804190000
| 17>  C       -0.6428100000     1.0033950000     0.0377670000
| 18>  O       -0.6948260000     0.1094420000    -1.1040110000
| 19>  H       -0.8230910000    -0.2006530000     1.9427140000
| 20>  H       -2.2926610000    -0.1370820000     0.9146090000
| 21>  H       -1.1387880000    -1.8711800000    -0.4992480000
| 22>  H        0.9700660000    -1.7231470000     1.1126140000
| 23>  H        1.2880310000    -1.9767250000    -0.5965620000
| 24>  H        1.9986560000     0.1720270000    -0.9993230000
| 25>  H        2.5664650000     0.0217020000     0.6475800000
| 26>  H        1.1758330000     2.1562280000    -0.1806340000
| 27>  H        0.8811900000     1.5507080000     1.4420850000
| 28>  H       -1.2412530000     1.9032280000    -0.1194020000
| 29> *
| 30>
| 31>                          ****END OF INPUT****
 Total Charge           Charge          ....    0
 Multiplicity           Mult            ....    1
 Number of Electrons    NEL             ....   54
 Basis Dimension        Dim             ....  148

MULLIKEN ATOMIC CHARGES
-----------------------
   0 C :    0.061135
   1 C :    0.008254
   2 C :    0.068405
   3 C :    0.005410
   4 C :    0.080124
   5 C :   -0.002387
   6 O :   -0.332042
   7 H :    0.008636
   8 H :    0.022276
   9 H :    0.005567
  10 H :    0.007285
  11 H :    0.016434
  12 H :    0.019296
  13 H :    0.005707
  14 H :    0.011537
  15 H :    0.006383
  16 H :    0.007980
Sum of atomic charges:   -0.0000000

LOEWDIN ATOMIC CHARGES
----------------------
   0 C :   -0.047792
   1 C :    0.071559
   2 C :   -0.052120
   3 C :   -0.035326
   4 C :   -0.050697
   5 C :    0.070721
   6 O :   -0.183734
   7 H :    0.013658
   8 H :    0.030602
   9 H :    0.010661
  10 H :    0.024344
  11 H :    0.028289
  12 H :    0.031219
  13 H :    0.025770
  14 H :    0.027370
  15 H :    0.024459
  16 H :    0.011018

  Mayer bond orders larger than 0.1
B(  0-C ,  1-C ) :   1.0492 B(  0-C ,  5-C ) :   1.0525 B(  0-C ,  7-H ) :   0.9433
B(  0-C ,  8-H ) :   0.9071 B(  1-C ,  2-C ) :   1.0363 B(  1-C ,  6-O ) :   1.0062
B(  1-C ,  9-H ) :   0.9374 B(  2-C ,  3-C ) :   1.1034 B(  2-C , 10-H ) :   0.9169
B(  2-C , 11-H ) :   0.9228 B(  3-C ,  4-C ) :   1.1015 B(  3-C , 12-H ) :   0.9257
B(  3-C , 13-H ) :   0.9321 B(  4-C ,  5-C ) :   1.0359 B(  4-C , 14-H ) :   0.9222
B(  4-C , 15-H ) :   0.9162 B(  5-C ,  6-O ) :   1.0075 B(  5-C , 16-H ) :   0.9390

FINAL SINGLE POINT ENERGY      -309.215900155499

DIPOLE MOMENT
-------------
                                X             Y             Z
Electronic contribution:     -2.71725       0.19008      -2.61780
Nuclear contribution   :      2.83987      -0.24725       3.22291
                        -----------------------------------------
Total Dipole Moment    :      0.12262      -0.05717       0.60511
                        -----------------------------------------
Magnitude (a.u.)       :      0.62005
Magnitude (Debye)      :      1.57605

                             ****ORCA TERMINATED NORMALLY****
TOTAL RUN TIME: 0 days 0 hours 0 minutes 7 seconds 625 msec
