                         Program Version 3.0.3 - RELEASE   -
|  1> ! RI PBE def2-SVP def2-SVP/J NBO PAL2
|  2> % maxcore 2000
|  3> % output
|  4>     # printlevel mini
|  5>     print[ P_Basis ] 0
|  6>     print[ P_SCFInfo ] 1
|  7>     print[ P_SCFIterInfo ] 1
|  8>     print[ P_OrbEn ] 0
|  9>     print[ P_Cartesian ] 0
| 10> end
| 11> *xyz 0 1
| 12>  C       -1.7919960000     0.6849040000     0.2970810000
| 13>  C       -1.6944800000    -0.7237060000    -0.3879840000
| 14>  C       -0.2366480000    -0.6835730000     0.1022540000
| 15>  O        0.9920690000    -1.0778760000    -0.4480230000
| 16>  C        1.8940910000    -0.0417590000     0.0127870000
| 17>  C        1.0617800000     1.1552860000     0.6067740000
| 18>  C       -0.2744270000     0.8002460000    -0.0037220000
| 19>  H       -2.0191880000     0.5950760000     1.3609740000
| 20>  H       -2.4531200000     1.4222200000    -0.1560220000
| 21>  H       -1.7766270000    -0.6297570000    -1.4721920000
| 22>  H       -2.3394100000    -1.5259580000    -0.0296560000
| 23>  H       -0.2669620000    -0.9709670000     1.1672800000
| 24>  H        2.4921860000     0.2732940000    -0.8455380000
| 25>  H        2.5658730000    -0.4628300000     0.7665730000
| 26>  H        1.4852300000     2.1161730000     0.3096980000
| 27>  H        1.0430000000     1.1065250000     1.6979090000
| 28>  H       -0.2165700000     1.0198120000    -1.0772920000
| 29> *
| 30>
| 31>                          ****END OF INPUT****
 Total Charge           Charge          ....    0
 Multiplicity           Mult            ....    1
 Number of Electrons    NEL             ....   54
 Basis Dimension        Dim             ....  148

MULLIKEN ATOMIC CHARGES
-----------------------
   0 C :    0.016520
   1 C :    0.018464
   2 C :    0.066530
   3 O :   -0.329449
   4 C :    0.184638
   5 C :    0.034032
   6 C :   -0.137992
   7 H :    0.020250
   8 H :    0.018679
   9 H :    0.025240
  10 H :    0.017378
  11 H :   -0.003832
  12 H :    0.018872
  13 H :    0.010492
  14 H :    0.010554
  15 H :    0.013460
  16 H :    0.016164
Sum of atomic charges:    0.0000000

LOEWDIN ATOMIC CHARGES
----------------------
   0 C :   -0.017555
   1 C :   -0.030676
   2 C :    0.035685
   3 O :   -0.164373
   4 C :    0.080552
   5 C :   -0.052073
   6 C :   -0.059466
   7 H :    0.026036
   8 H :    0.020414
   9 H :    0.029543
  10 H :    0.018077
  11 H :    0.004787
  12 H :    0.016774
  13 H :    0.013590
  14 H :    0.024374
  15 H :    0.025705
  16 H :    0.028606

  Mayer bond orders larger than 0.1
B(  0-C ,  1-C ) :   1.0650 B(  0-C ,  6-C ) :   1.0314 B(  0-C ,  7-H ) :   0.9317
B(  0-C ,  8-H ) :   0.9330 B(  1-C ,  2-C ) :   1.0209 B(  1-C ,  9-H ) :   0.9253
B(  1-C , 10-H ) :   0.9360 B(  2-C ,  3-O ) :   1.0698 B(  2-C ,  6-C ) :   1.0091
B(  2-C , 11-H ) :   0.9384 B(  3-O ,  4-C ) :   1.0016 B(  4-C ,  5-C ) :   1.0455
B(  4-C , 12-H ) :   0.9487 B(  4-C , 13-H ) :   0.9427 B(  5-C ,  6-C ) :   1.0823
B(  5-C , 14-H ) :   0.9302 B(  5-C , 15-H ) :   0.9272 B(  6-C , 16-H ) :   0.9165

FINAL SINGLE POINT ENERGY      -309.177654012425

DIPOLE MOMENT
-------------
                                X             Y             Z
Electronic contribution:      1.41492      -2.24140      -1.13967
Nuclear contribution   :     -1.55744       2.74259       1.40753
                        -----------------------------------------
Total Dipole Moment    :     -0.14252       0.50119       0.26786
                        -----------------------------------------
Magnitude (a.u.)       :      0.58588
Magnitude (Debye)      :      1.48919

                             ****ORCA TERMINATED NORMALLY****
TOTAL RUN TIME: 0 days 0 hours 0 minutes 7 seconds 533 msec
