                         Program Version 3.0.3 - RELEASE   -
|  1> ! RI PBE def2-SVP def2-SVP/J NBO PAL2
|  2> % maxcore 2000
|  3> % output
|  4>     # printlevel mini
|  5>     print[ P_Basis ] 0
|  6>     print[ P_SCFInfo ] 1
|  7>     print[ P_SCFIterInfo ] 1
|  8>     print[ P_OrbEn ] 0
|  9>     print[ P_Cartesian ] 0
| 10> end
| 11> *xyz 0 1
| 12>  C       -0.8217870000     0.0447880000    -1.2023430000
| 13>  C       -0.6430180000     1.0752160000    -0.0618650000
| 14>  C       -1.1788230000    -0.0165490000     0.8892250000
| 15>  C       -0.5734110000    -1.0170120000    -0.1110650000
| 16>  O        0.8028010000    -1.2030140000     0.1593090000
| 17>  C        1.5835960000    -0.0456970000    -0.0851590000
| 18>  C        0.8452010000     1.2580390000     0.2252820000
| 19>  H       -0.1587330000     0.0766460000    -2.0689350000
| 20>  H       -1.8576100000     0.0024920000    -1.5426800000
| 21>  H       -1.1748950000     2.0265020000    -0.1208560000
| 22>  H       -2.2700060000    -0.0588790000     0.8950790000
| 23>  H       -0.7930810000    -0.0474500000     1.9104110000
| 24>  H       -1.0082360000    -2.0119000000    -0.2130070000
| 25>  H        1.8951630000    -0.0413900000    -1.1374870000
| 26>  H        2.4882210000    -0.1495950000     0.5170880000
| 27>  H        1.2708780000     2.0560880000    -0.3913020000
| 28>  H        0.9769620000     1.5516140000     1.2716150000
| 29> *
| 30>
| 31>                          ****END OF INPUT****
 Total Charge           Charge          ....    0
 Multiplicity           Mult            ....    1
 Number of Electrons    NEL             ....   54
 Basis Dimension        Dim             ....  148

MULLIKEN ATOMIC CHARGES
-----------------------
   0 C :    0.074416
   1 C :   -0.237713
   2 C :    0.110275
   3 C :    0.027182
   4 O :   -0.323499
   5 C :    0.189468
   6 C :    0.068130
   7 H :    0.017520
   8 H :    0.017418
   9 H :    0.001416
  10 H :    0.014351
  11 H :    0.006567
  12 H :    0.000497
  13 H :   -0.003061
  14 H :    0.013030
  15 H :    0.013321
  16 H :    0.010681
Sum of atomic charges:    0.0000000

LOEWDIN ATOMIC CHARGES
----------------------
   0 C :   -0.044281
   1 C :   -0.030306
   2 C :   -0.043472
   3 C :    0.063989
   4 O :   -0.148507
   5 C :    0.063825
   6 C :   -0.050075
   7 H :    0.016351
   8 H :    0.029563
   9 H :    0.013142
  10 H :    0.025565
  11 H :    0.013430
  12 H :    0.008863
  13 H :    0.007064
  14 H :    0.022507
  15 H :    0.028411
  16 H :    0.023931

  Mayer bond orders larger than 0.1
B(  0-C ,  1-C ) :   1.0046 B(  0-C ,  3-C ) :   0.9925 B(  0-C ,  7-H ) :   0.9317
B(  0-C ,  8-H ) :   0.9300 B(  1-C ,  2-C ) :   0.9944 B(  1-C ,  6-C ) :   1.0543
B(  1-C ,  9-H ) :   0.9325 B(  2-C ,  3-C ) :   0.9937 B(  2-C , 10-H ) :   0.9315
B(  2-C , 11-H ) :   0.9261 B(  3-C ,  4-O ) :   1.0347 B(  3-C , 12-H ) :   0.9376
B(  4-O ,  5-C ) :   1.0204 B(  5-C ,  6-C ) :   1.0941 B(  5-C , 13-H ) :   0.9242
B(  5-C , 14-H ) :   0.9423 B(  6-C , 15-H ) :   0.9244 B(  6-C , 16-H ) :   0.9190

FINAL SINGLE POINT ENERGY      -309.208966268384

DIPOLE MOMENT
-------------
                                X             Y             Z
Electronic contribution:      0.65772      -2.70686       0.41186
Nuclear contribution   :     -0.84277       3.19656      -0.58460
                        -----------------------------------------
Total Dipole Moment    :     -0.18504       0.48969      -0.17275
                        -----------------------------------------
Magnitude (a.u.)       :      0.55126
Magnitude (Debye)      :      1.40118

                             ****ORCA TERMINATED NORMALLY****
TOTAL RUN TIME: 0 days 0 hours 0 minutes 7 seconds 688 msec
