                         Program Version 3.0.3 - RELEASE   -
|  1> ! RI PBE def2-SVP def2-SVP/J NBO PAL2
|  2> % maxcore 2000
|  3> % output
|  4>     # printlevel mini
|  5>     print[ P_Basis ] 0
|  6>     print[ P_SCFInfo ] 1
|  7>     print[ P_SCFIterInfo ] 1
|  8>     print[ P_OrbEn ] 0
|  9>     print[ P_Cartesian ] 0
| 10> end
| 11> *xyz 0 1
| 12>  C        1.5686530000    -0.0431840000     0.3109930000
| 13>  C        0.8858050000    -1.4228360000     0.4551810000
| 14>  C       -0.2597830000    -0.9290910000    -0.4573060000
| 15>  C       -1.4056740000    -0.2332020000     0.2155380000
| 16>  C       -1.2754450000     1.0798180000     0.0486420000
| 17>  O       -0.1774270000     1.4816200000    -0.6445850000
| 18>  C        0.6050780000     0.2990730000    -0.8365430000
| 19>  H        2.6333510000    -0.0369980000     0.0750490000
| 20>  H        1.3950570000     0.6094490000     1.1672930000
| 21>  H        0.6075850000    -1.7292790000     1.4647300000
| 22>  H        1.4605400000    -2.2272840000    -0.0083270000
| 23>  H       -0.5839390000    -1.6196080000    -1.2417160000
| 24>  H       -2.2309780000    -0.7179790000     0.7157330000
| 25>  H       -1.9254790000     1.8816510000     0.3722380000
| 26>  H        1.0447690000     0.3390480000    -1.8325210000
| 27> *
| 28>
| 29>                          ****END OF INPUT****
 Total Charge           Charge          ....    0
 Multiplicity           Mult            ....    1
 Number of Electrons    NEL             ....   52
 Basis Dimension        Dim             ....  138

MULLIKEN ATOMIC CHARGES
-----------------------
   0 C :    0.071774
   1 C :    0.089702
   2 C :   -0.096664
   3 C :   -0.076612
   4 C :    0.148599
   5 O :   -0.255861
   6 C :    0.038951
   7 H :    0.022491
   8 H :    0.015820
   9 H :   -0.000732
  10 H :    0.010872
  11 H :    0.019118
  12 H :   -0.001537
  13 H :    0.005301
  14 H :    0.008776
Sum of atomic charges:   -0.0000000

LOEWDIN ATOMIC CHARGES
----------------------
   0 C :   -0.041816
   1 C :   -0.026071
   2 C :   -0.038034
   3 C :   -0.112254
   4 C :    0.042351
   5 O :   -0.085380
   6 C :    0.075886
   7 H :    0.023663
   8 H :    0.033930
   9 H :    0.020034
  10 H :    0.022523
  11 H :    0.020522
  12 H :    0.025751
  13 H :    0.021468
  14 H :    0.017426

  Mayer bond orders larger than 0.1
B(  0-C ,  1-C ) :   1.1692 B(  0-C ,  6-C ) :   1.0904 B(  0-C ,  7-H ) :   0.9294
B(  0-C ,  8-H ) :   0.8765 B(  1-C ,  2-C ) :   1.1099 B(  1-C ,  9-H ) :   0.9040
B(  1-C , 10-H ) :   0.9249 B(  2-C ,  3-C ) :   0.9935 B(  2-C ,  6-C ) :   1.0560
B(  2-C , 11-H ) :   0.9054 B(  3-C ,  4-C ) :   1.7419 B(  3-C ,  5-O ) :   0.1170
B(  3-C , 12-H ) :   0.9814 B(  4-C ,  5-O ) :   1.1082 B(  4-C , 13-H ) :   0.9887
B(  5-O ,  6-C ) :   0.9828 B(  6-C , 14-H ) :   0.9262

FINAL SINGLE POINT ENERGY      -308.005417904562

DIPOLE MOMENT
-------------
                                X             Y             Z
Electronic contribution:     -2.08448       3.31295      -1.58116
Nuclear contribution   :      2.17112      -3.66699       1.65707
                        -----------------------------------------
Total Dipole Moment    :      0.08664      -0.35403       0.07591
                        -----------------------------------------
Magnitude (a.u.)       :      0.37230
Magnitude (Debye)      :      0.94632

                             ****ORCA TERMINATED NORMALLY****
TOTAL RUN TIME: 0 days 0 hours 0 minutes 7 seconds 298 msec
