                         Program Version 3.0.3 - RELEASE   -
|  1> ! RI PBE def2-SVP def2-SVP/J NBO PAL2
|  2> % maxcore 2000
|  3> % output
|  4>     # printlevel mini
|  5>     print[ P_Basis ] 0
|  6>     print[ P_SCFInfo ] 1
|  7>     print[ P_SCFIterInfo ] 1
|  8>     print[ P_OrbEn ] 0
|  9>     print[ P_Cartesian ] 0
| 10> end
| 11> *xyz 0 1
| 12>  C        1.8967280000     0.0555610000    -0.7465850000
| 13>  O        1.6953800000    -0.1032910000     0.6506760000
| 14>  C        0.5552410000     0.0413190000    -0.1814670000
| 15>  C       -0.3281230000     1.2578420000     0.0315880000
| 16>  C       -1.7299450000     0.6755410000    -0.1288610000
| 17>  O       -1.6148030000    -0.6850710000     0.2440570000
| 18>  C       -0.3965090000    -1.1331100000    -0.3057930000
| 19>  H        2.2753850000    -0.8241100000    -1.2643680000
| 20>  H        2.3424840000     1.0004120000    -1.0500360000
| 21>  H       -0.1190080000     2.0678720000    -0.6683670000
| 22>  H       -0.1688840000     1.6262310000     1.0471360000
| 23>  H       -2.0695980000     0.7536540000    -1.1728130000
| 24>  H       -2.4776190000     1.1397120000     0.5143800000
| 25>  H       -0.5310460000    -1.4066850000    -1.3640860000
| 26>  H       -0.0486820000    -2.0047680000     0.2497310000
| 27> *
| 28>
| 29>                          ****END OF INPUT****
 Total Charge           Charge          ....    0
 Multiplicity           Mult            ....    1
 Number of Electrons    NEL             ....   54
 Basis Dimension        Dim             ....  138

MULLIKEN ATOMIC CHARGES
-----------------------
   0 C :    0.175898
   1 O :   -0.280500
   2 C :   -0.273815
   3 C :    0.105427
   4 C :    0.175622
   5 O :   -0.352206
   6 C :    0.340440
   7 H :    0.024066
   8 H :    0.023293
   9 H :    0.015202
  10 H :    0.026858
  11 H :   -0.005764
  12 H :    0.021841
  13 H :   -0.009870
  14 H :    0.013508
Sum of atomic charges:   -0.0000000

LOEWDIN ATOMIC CHARGES
----------------------
   0 C :    0.061351
   1 O :   -0.148383
   2 C :   -0.005111
   3 C :   -0.052852
   4 C :    0.066519
   5 O :   -0.149916
   6 C :    0.061659
   7 H :    0.014904
   8 H :    0.015426
   9 H :    0.031781
  10 H :    0.040549
  11 H :    0.003517
  12 H :    0.023228
  13 H :    0.008649
  14 H :    0.028679

  Mayer bond orders larger than 0.1
B(  0-C ,  1-O ) :   1.0072 B(  0-C ,  2-C ) :   1.0878 B(  0-C ,  7-H ) :   0.9325
B(  0-C ,  8-H ) :   0.9271 B(  1-O ,  2-C ) :   0.9655 B(  2-C ,  3-C ) :   1.0558
B(  2-C ,  6-C ) :   1.0340 B(  3-C ,  4-C ) :   1.1114 B(  3-C ,  9-H ) :   0.9191
B(  3-C , 10-H ) :   0.8907 B(  4-C ,  5-O ) :   1.0158 B(  4-C , 11-H ) :   0.9173
B(  4-C , 12-H ) :   0.9422 B(  5-O ,  6-C ) :   1.0281 B(  6-C , 13-H ) :   0.9058
B(  6-C , 14-H ) :   0.9173

FINAL SINGLE POINT ENERGY      -345.062826951796

DIPOLE MOMENT
-------------
                                X             Y             Z
Electronic contribution:      0.84187      -1.71405       2.28127
Nuclear contribution   :     -0.78071       2.15505      -3.05866
                        -----------------------------------------
Total Dipole Moment    :      0.06116       0.44100      -0.77739
                        -----------------------------------------
Magnitude (a.u.)       :      0.89586
Magnitude (Debye)      :      2.27708

                             ****ORCA TERMINATED NORMALLY****
TOTAL RUN TIME: 0 days 0 hours 0 minutes 6 seconds 943 msec
