                         Program Version 3.0.3 - RELEASE   -
|  1> ! RI PBE def2-SVP def2-SVP/J NBO PAL2
|  2> % maxcore 2000
|  3> % output
|  4>     # printlevel mini
|  5>     print[ P_Basis ] 0
|  6>     print[ P_SCFInfo ] 1
|  7>     print[ P_SCFIterInfo ] 1
|  8>     print[ P_OrbEn ] 0
|  9>     print[ P_Cartesian ] 0
| 10> end
| 11> *xyz 0 1
| 12>  C       -1.7982210000     0.6368030000     0.2666550000
| 13>  O       -1.7210830000    -0.6994290000    -0.3062650000
| 14>  C       -0.3175550000    -0.6850770000     0.0535850000
| 15>  C        0.9479160000    -1.0959250000    -0.6514260000
| 16>  C        1.9053190000    -0.0231970000    -0.0059410000
| 17>  C        1.0317740000     1.1310260000     0.6287800000
| 18>  C       -0.2948110000     0.8040300000    -0.0158840000
| 19>  H       -2.0583110000     0.5867550000     1.3311660000
| 20>  H       -2.5044820000     1.2697740000    -0.2722090000
| 21>  H       -0.2511500000    -1.0162160000     1.1042270000
| 22>  H        0.8661990000    -0.9515480000    -1.7308030000
| 23>  H        1.2890450000    -2.1144720000    -0.4598890000
| 24>  H        2.5791030000     0.3797730000    -0.7633580000
| 25>  H        2.5329190000    -0.4851870000     0.7577730000
| 26>  H        1.4346770000     2.1169170000     0.3932550000
| 27>  H        0.9972970000     1.0317810000     1.7162140000
| 28>  H       -0.2329450000     1.0621010000    -1.0795790000
| 29> *
| 30>
| 31>                          ****END OF INPUT****
 Total Charge           Charge          ....    0
 Multiplicity           Mult            ....    1
 Number of Electrons    NEL             ....   54
 Basis Dimension        Dim             ....  148

MULLIKEN ATOMIC CHARGES
-----------------------
   0 C :    0.259597
   1 O :   -0.343515
   2 C :    0.037929
   3 C :    0.113776
   4 C :   -0.087234
   5 C :    0.128303
   6 C :   -0.215788
   7 H :   -0.000120
   8 H :    0.014392
   9 H :   -0.003628
  10 H :    0.013012
  11 H :    0.012481
  12 H :    0.019216
  13 H :    0.017646
  14 H :    0.005913
  15 H :    0.010228
  16 H :    0.017791
Sum of atomic charges:   -0.0000000

LOEWDIN ATOMIC CHARGES
----------------------
   0 C :    0.093798
   1 O :   -0.185528
   2 C :    0.054064
   3 C :   -0.045024
   4 C :   -0.028296
   5 C :   -0.034781
   6 C :   -0.068180
   7 H :    0.009123
   8 H :    0.013759
   9 H :    0.007370
  10 H :    0.027766
  11 H :    0.023803
  12 H :    0.028572
  13 H :    0.027422
  14 H :    0.022237
  15 H :    0.024602
  16 H :    0.029292

  Mayer bond orders larger than 0.1
B(  0-C ,  1-O ) :   1.0038 B(  0-C ,  6-C ) :   1.0663 B(  0-C ,  7-H ) :   0.9202
B(  0-C ,  8-H ) :   0.9350 B(  1-O ,  2-C ) :   1.0139 B(  2-C ,  3-C ) :   1.0788
B(  2-C ,  6-C ) :   1.0290 B(  2-C ,  9-H ) :   0.9148 B(  3-C ,  4-C ) :   1.0755
B(  3-C , 10-H ) :   0.9119 B(  3-C , 11-H ) :   0.9303 B(  4-C ,  5-C ) :   1.0759
B(  4-C , 12-H ) :   0.9292 B(  4-C , 13-H ) :   0.9320 B(  5-C ,  6-C ) :   1.0664
B(  5-C , 14-H ) :   0.9268 B(  5-C , 15-H ) :   0.9241 B(  6-C , 16-H ) :   0.8997

FINAL SINGLE POINT ENERGY      -309.174895489775

DIPOLE MOMENT
-------------
                                X             Y             Z
Electronic contribution:     -4.24897      -1.33271      -0.78433
Nuclear contribution   :      4.83107       1.76031       0.98645
                        -----------------------------------------
Total Dipole Moment    :      0.58211       0.42760       0.20212
                        -----------------------------------------
Magnitude (a.u.)       :      0.75003
Magnitude (Debye)      :      1.90642

                             ****ORCA TERMINATED NORMALLY****
TOTAL RUN TIME: 0 days 0 hours 0 minutes 7 seconds 785 msec
