                         Program Version 3.0.3 - RELEASE   -
|  1> ! RI PBE def2-SVP def2-SVP/J NBO PAL2
|  2> % maxcore 2000
|  3> % output
|  4>     # printlevel mini
|  5>     print[ P_Basis ] 0
|  6>     print[ P_SCFInfo ] 1
|  7>     print[ P_SCFIterInfo ] 1
|  8>     print[ P_OrbEn ] 0
|  9>     print[ P_Cartesian ] 0
| 10> end
| 11> *xyz 0 1
| 12>  C        1.5136430000    -0.8171270000     0.3782700000
| 13>  C        2.5087360000     0.3215480000    -0.0606350000
| 14>  C        3.1906810000     0.1295020000     1.2769340000
| 15>  C        4.0709220000     0.3088270000     2.2836130000
| 16>  O        3.7523980000    -0.5653220000     3.2827260000
| 17>  C        2.6655880000    -1.2993630000     2.9034540000
| 18>  C        2.2976700000    -0.8924190000     1.6708080000
| 19>  H        1.5479170000    -1.7134800000    -0.2435560000
| 20>  H        0.4748380000    -0.4974620000     0.4782290000
| 21>  H        2.0427270000     1.2966340000    -0.2133890000
| 22>  H        3.1158630000     0.0806060000    -0.9350700000
| 23>  H        4.9203540000     0.9414450000     2.4808330000
| 24>  H        2.3278610000    -2.0252970000     3.6242830000
| 25> *
| 26>
| 27>                          ****END OF INPUT****
 Total Charge           Charge          ....    0
 Multiplicity           Mult            ....    1
 Number of Electrons    NEL             ....   50
 Basis Dimension        Dim             ....  128

MULLIKEN ATOMIC CHARGES
-----------------------
   0 C :    0.095303
   1 C :    0.120193
   2 C :   -0.044055
   3 C :   -0.030639
   4 O :   -0.187664
   5 C :   -0.032691
   6 C :   -0.033505
   7 H :    0.029272
   8 H :    0.027950
   9 H :    0.023009
  10 H :    0.024765
  11 H :    0.004089
  12 H :    0.003972
Sum of atomic charges:   -0.0000000

LOEWDIN ATOMIC CHARGES
----------------------
   0 C :   -0.012889
   1 C :   -0.009035
   2 C :   -0.084256
   3 C :    0.002045
   4 O :    0.020486
   5 C :    0.001735
   6 C :   -0.083303
   7 H :    0.032415
   8 H :    0.032497
   9 H :    0.031389
  10 H :    0.031898
  11 H :    0.018530
  12 H :    0.018487

  Mayer bond orders larger than 0.1
B(  0-C ,  1-C ) :   1.1777 B(  0-C ,  6-C ) :   1.0851 B(  0-C ,  7-H ) :   0.8911
B(  0-C ,  8-H ) :   0.8881 B(  1-C ,  2-C ) :   1.0822 B(  1-C ,  9-H ) :   0.8896
B(  1-C , 10-H ) :   0.8871 B(  2-C ,  3-C ) :   1.5204 B(  2-C ,  6-C ) :   1.3026
B(  3-C ,  4-O ) :   1.1393 B(  3-C ,  5-C ) :   0.1112 B(  3-C , 11-H ) :   1.0079
B(  4-O ,  5-C ) :   1.1407 B(  5-C ,  6-C ) :   1.5149 B(  5-C , 12-H ) :   1.0100

FINAL SINGLE POINT ENERGY      -306.787715672266

DIPOLE MOMENT
-------------
                                X             Y             Z
Electronic contribution:      2.36797      -0.43110       4.24430
Nuclear contribution   :     -2.58214       0.47089      -4.63263
                        -----------------------------------------
Total Dipole Moment    :     -0.21417       0.03979      -0.38834
                        -----------------------------------------
Magnitude (a.u.)       :      0.44526
Magnitude (Debye)      :      1.13177

                             ****ORCA TERMINATED NORMALLY****
TOTAL RUN TIME: 0 days 0 hours 0 minutes 6 seconds 435 msec
