                         Program Version 3.0.3 - RELEASE   -
|  1> ! RI PBE def2-SVP def2-SVP/J NBO PAL2
|  2> % maxcore 2000
|  3> % output
|  4>     # printlevel mini
|  5>     print[ P_Basis ] 0
|  6>     print[ P_SCFInfo ] 1
|  7>     print[ P_SCFIterInfo ] 1
|  8>     print[ P_OrbEn ] 0
|  9>     print[ P_Cartesian ] 0
| 10> end
| 11> *xyz 0 1
| 12>  C       -1.7784080000     0.7004780000     0.3419140000
| 13>  C       -1.7780630000    -0.7014370000    -0.3438140000
| 14>  C       -0.2834190000    -0.7565050000     0.0390230000
| 15>  C        1.0655880000    -1.0689670000    -0.5462480000
| 16>  O        1.8729730000    -0.0025350000     0.0050840000
| 17>  C        1.0649710000     1.0648080000     0.5537460000
| 18>  C       -0.2824450000     0.7538640000    -0.0359810000
| 19>  H       -1.9367170000     0.6065910000     1.4186740000
| 20>  H       -2.4343220000     1.4740860000    -0.0577210000
| 21>  H       -1.9327080000    -0.6073740000    -1.4210910000
| 22>  H       -2.4361650000    -1.4743050000     0.0536500000
| 23>  H       -0.2515350000    -1.0257810000     1.1030340000
| 24>  H        1.0771960000    -1.0169940000    -1.6419220000
| 25>  H        1.5125960000    -2.0134080000    -0.2277140000
| 26>  H        1.5140920000     2.0087440000     0.2366930000
| 27>  H        1.0728990000     1.0128230000     1.6494520000
| 28>  H       -0.2467420000     1.0231010000    -1.0998800000
| 29> *
| 30>
| 31>                          ****END OF INPUT****
 Total Charge           Charge          ....    0
 Multiplicity           Mult            ....    1
 Number of Electrons    NEL             ....   54
 Basis Dimension        Dim             ....  148

MULLIKEN ATOMIC CHARGES
-----------------------
   0 C :    0.052190
   1 C :    0.051814
   2 C :   -0.233467
   3 C :    0.334506
   4 O :   -0.400491
   5 C :    0.334283
   6 C :   -0.233443
   7 H :    0.018585
   8 H :    0.015544
   9 H :    0.018667
  10 H :    0.015604
  11 H :    0.023069
  12 H :   -0.006224
  13 H :   -0.003775
  14 H :   -0.003707
  15 H :   -0.006205
  16 H :    0.023053
Sum of atomic charges:   -0.0000000

LOEWDIN ATOMIC CHARGES
----------------------
   0 C :   -0.020245
   1 C :   -0.020312
   2 C :   -0.057469
   3 C :    0.075696
   4 O :   -0.189907
   5 C :    0.075666
   6 C :   -0.057475
   7 H :    0.027121
   8 H :    0.017969
   9 H :    0.027136
  10 H :    0.017977
  11 H :    0.029269
  12 H :    0.008037
  13 H :    0.014611
  14 H :    0.014619
  15 H :    0.008039
  16 H :    0.029267

  Mayer bond orders larger than 0.1
B(  0-C ,  1-C ) :   1.0850 B(  0-C ,  6-C ) :   1.0206 B(  0-C ,  7-H ) :   0.9258
B(  0-C ,  8-H ) :   0.9357 B(  1-C ,  2-C ) :   1.0207 B(  1-C ,  9-H ) :   0.9258
B(  1-C , 10-H ) :   0.9357 B(  2-C ,  3-C ) :   1.0834 B(  2-C ,  6-C ) :   0.9912
B(  2-C , 11-H ) :   0.9224 B(  3-C ,  4-O ) :   0.9796 B(  3-C , 12-H ) :   0.9230
B(  3-C , 13-H ) :   0.9246 B(  4-O ,  5-C ) :   0.9797 B(  5-C ,  6-C ) :   1.0834
B(  5-C , 14-H ) :   0.9246 B(  5-C , 15-H ) :   0.9230 B(  6-C , 16-H ) :   0.9223

FINAL SINGLE POINT ENERGY      -309.179513269824

DIPOLE MOMENT
-------------
                                X             Y             Z
Electronic contribution:      3.27505      -0.00182       0.00540
Nuclear contribution   :     -3.96918       0.00223      -0.00656
                        -----------------------------------------
Total Dipole Moment    :     -0.69413       0.00041      -0.00115
                        -----------------------------------------
Magnitude (a.u.)       :      0.69413
Magnitude (Debye)      :      1.76434

                             ****ORCA TERMINATED NORMALLY****
TOTAL RUN TIME: 0 days 0 hours 0 minutes 7 seconds 531 msec
