                         Program Version 3.0.3 - RELEASE   -
|  1> ! RI PBE def2-SVP def2-SVP/J NBO PAL2
|  2> % maxcore 2000
|  3> % output
|  4>     # printlevel mini
|  5>     print[ P_Basis ] 0
|  6>     print[ P_SCFInfo ] 1
|  7>     print[ P_SCFIterInfo ] 1
|  8>     print[ P_OrbEn ] 0
|  9>     print[ P_Cartesian ] 0
| 10> end
| 11> *xyz 0 1
| 12>  C        0.3280910000     1.4448050000     0.3603690000
| 13>  C        1.3661020000     0.3422910000     0.0615740000
| 14>  C        0.5038540000    -0.6496580000    -0.7637110000
| 15>  O       -0.3313480000     0.2454780000    -1.4914680000
| 16>  C       -0.9221490000     0.8649250000    -0.3531700000
| 17>  C       -1.3663480000    -0.3290910000     0.4644250000
| 18>  C       -0.4727860000    -1.2781620000     0.2071760000
| 19>  H        0.6136190000     2.3917790000    -0.0997390000
| 20>  H        0.1618150000     1.6136470000     1.4249180000
| 21>  H        1.7895570000    -0.1154020000     0.9563530000
| 22>  H        2.1834450000     0.7244790000    -0.5515050000
| 23>  H        1.0461630000    -1.3091930000    -1.4379580000
| 24>  H       -1.6796530000     1.5859370000    -0.6532110000
| 25>  H       -2.1720300000    -0.3368060000     1.1858370000
| 26>  H       -0.3692100000    -2.2516190000     0.6668200000
| 27> *
| 28>
| 29>                          ****END OF INPUT****
 Total Charge           Charge          ....    0
 Multiplicity           Mult            ....    1
 Number of Electrons    NEL             ....   52
 Basis Dimension        Dim             ....  138

MULLIKEN ATOMIC CHARGES
-----------------------
   0 C :    0.089869
   1 C :    0.089232
   2 C :    0.053688
   3 O :   -0.311178
   4 C :    0.049443
   5 C :   -0.013259
   6 C :   -0.006367
   7 H :    0.015712
   8 H :    0.005985
   9 H :    0.003151
  10 H :    0.018779
  11 H :    0.005905
  12 H :    0.006823
  13 H :   -0.001819
  14 H :   -0.005964
Sum of atomic charges:   -0.0000000

LOEWDIN ATOMIC CHARGES
----------------------
   0 C :   -0.039517
   1 C :   -0.039447
   2 C :    0.055928
   3 O :   -0.141678
   4 C :    0.055739
   5 C :   -0.040986
   6 C :   -0.038629
   7 H :    0.028123
   8 H :    0.024100
   9 H :    0.023615
  10 H :    0.028422
  11 H :    0.018570
  12 H :    0.018758
  13 H :    0.023768
  14 H :    0.023233

  Mayer bond orders larger than 0.1
B(  0-C ,  1-C ) :   1.1475 B(  0-C ,  4-C ) :   1.0457 B(  0-C ,  7-H ) :   0.9093
B(  0-C ,  8-H ) :   0.9104 B(  1-C ,  2-C ) :   1.0454 B(  1-C ,  9-H ) :   0.9093
B(  1-C , 10-H ) :   0.9114 B(  2-C ,  3-O ) :   0.9948 B(  2-C ,  6-C ) :   0.9547
B(  2-C , 11-H ) :   0.9550 B(  3-O ,  4-C ) :   0.9945 B(  4-C ,  5-C ) :   0.9543
B(  4-C , 12-H ) :   0.9549 B(  5-C ,  6-C ) :   1.8122 B(  5-C , 13-H ) :   1.0045
B(  6-C , 14-H ) :   1.0023

FINAL SINGLE POINT ENERGY      -308.009455596931

DIPOLE MOMENT
-------------
                                X             Y             Z
Electronic contribution:     -2.12002      -1.30470      -2.55204
Nuclear contribution   :      2.29136       1.30400       3.14829
                        -----------------------------------------
Total Dipole Moment    :      0.17134      -0.00071       0.59625
                        -----------------------------------------
Magnitude (a.u.)       :      0.62038
Magnitude (Debye)      :      1.57689

                             ****ORCA TERMINATED NORMALLY****
TOTAL RUN TIME: 0 days 0 hours 0 minutes 6 seconds 863 msec
