                         Program Version 3.0.3 - RELEASE   -
|  1> ! RI PBE def2-SVP def2-SVP/J NBO PAL2
|  2> % maxcore 2000
|  3> % output
|  4>     # printlevel mini
|  5>     print[ P_Basis ] 0
|  6>     print[ P_SCFInfo ] 1
|  7>     print[ P_SCFIterInfo ] 1
|  8>     print[ P_OrbEn ] 0
|  9>     print[ P_Cartesian ] 0
| 10> end
| 11> *xyz 0 1
| 12>  C       -0.3706710000    -1.0259100000     1.1734590000
| 13>  C        0.8015150000    -1.2698710000     0.1994220000
| 14>  C        0.8938720000     0.1156790000    -0.4935600000
| 15>  O        0.5765840000     0.9890390000     0.5858160000
| 16>  C       -0.7164200000     0.4508490000     0.8445760000
| 17>  C       -1.3415530000     0.4472950000    -0.5340670000
| 18>  C       -0.3325080000     0.2372730000    -1.3725700000
| 19>  H       -0.0461740000    -1.1100700000     2.2115350000
| 20>  H       -1.2157670000    -1.6978970000     1.0196060000
| 21>  H        0.6224980000    -2.0805220000    -0.5078400000
| 22>  H        1.7265310000    -1.4789360000     0.7385150000
| 23>  H        1.8582380000     0.3703400000    -0.9281210000
| 24>  H       -1.2198450000     1.0110150000     1.6297340000
| 25>  H       -2.4008970000     0.4881790000    -0.7479300000
| 26>  H       -0.3650830000     0.0644470000    -2.4396630000
| 27> *
| 28>
| 29>                          ****END OF INPUT****
 Total Charge           Charge          ....    0
 Multiplicity           Mult            ....    1
 Number of Electrons    NEL             ....   52
 Basis Dimension        Dim             ....  138

MULLIKEN ATOMIC CHARGES
-----------------------
   0 C :    0.080585
   1 C :    0.098960
   2 C :    0.056114
   3 O :   -0.313246
   4 C :    0.050313
   5 C :   -0.010138
   6 C :   -0.011829
   7 H :    0.018799
   8 H :    0.008592
   9 H :    0.004538
  10 H :    0.014370
  11 H :    0.001324
  12 H :    0.006750
  13 H :   -0.002979
  14 H :   -0.002153
Sum of atomic charges:   -0.0000000

LOEWDIN ATOMIC CHARGES
----------------------
   0 C :   -0.040577
   1 C :   -0.038410
   2 C :    0.057461
   3 O :   -0.141978
   4 C :    0.055667
   5 C :   -0.039754
   6 C :   -0.040514
   7 H :    0.028548
   8 H :    0.024382
   9 H :    0.023829
  10 H :    0.027478
  11 H :    0.017798
  12 H :    0.018712
  13 H :    0.023602
  14 H :    0.023757

  Mayer bond orders larger than 0.1
B(  0-C ,  1-C ) :   1.1427 B(  0-C ,  4-C ) :   1.0472 B(  0-C ,  7-H ) :   0.9102
B(  0-C ,  8-H ) :   0.9114 B(  1-C ,  2-C ) :   1.0446 B(  1-C ,  9-H ) :   0.9093
B(  1-C , 10-H ) :   0.9121 B(  2-C ,  3-O ) :   0.9940 B(  2-C ,  6-C ) :   0.9511
B(  2-C , 11-H ) :   0.9557 B(  3-O ,  4-C ) :   0.9937 B(  4-C ,  5-C ) :   0.9522
B(  4-C , 12-H ) :   0.9546 B(  5-C ,  6-C ) :   1.8081 B(  5-C , 13-H ) :   1.0059
B(  6-C , 14-H ) :   1.0048

FINAL SINGLE POINT ENERGY      -308.009418911959

DIPOLE MOMENT
-------------
                                X             Y             Z
Electronic contribution:      0.34548       3.51851      -0.46448
Nuclear contribution   :     -0.60583      -4.05140       0.28572
                        -----------------------------------------
Total Dipole Moment    :     -0.26035      -0.53289      -0.17877
                        -----------------------------------------
Magnitude (a.u.)       :      0.61944
Magnitude (Debye)      :      1.57450

                             ****ORCA TERMINATED NORMALLY****
TOTAL RUN TIME: 0 days 0 hours 0 minutes 6 seconds 949 msec
