                         Program Version 3.0.3 - RELEASE   -
|  1> ! RI PBE def2-SVP def2-SVP/J NBO PAL2
|  2> % maxcore 2000
|  3> % output
|  4>     # printlevel mini
|  5>     print[ P_Basis ] 0
|  6>     print[ P_SCFInfo ] 1
|  7>     print[ P_SCFIterInfo ] 1
|  8>     print[ P_OrbEn ] 0
|  9>     print[ P_Cartesian ] 0
| 10> end
| 11> *xyz 0 1
| 12>  C       -1.5007130000     0.7837680000     0.2040070000
| 13>  C       -1.3673570000    -0.6874690000    -0.1550830000
| 14>  C        0.0226750000    -1.1920320000     0.1413930000
| 15>  O        1.0154250000    -0.9170870000    -0.8403520000
| 16>  C        1.0943970000    -0.2268570000     0.3903150000
| 17>  C        0.7803930000     1.2426480000     0.3612390000
| 18>  O       -0.4240250000     1.5426620000    -0.2934560000
| 19>  H       -1.5591080000     0.8971210000     1.2984820000
| 20>  H       -2.4072870000     1.2138230000    -0.2255030000
| 21>  H       -1.5757960000    -0.8399190000    -1.2178250000
| 22>  H       -2.1017960000    -1.2691650000     0.4095810000
| 23>  H        0.1055180000    -2.1865720000     0.5751770000
| 24>  H        1.9345960000    -0.5077350000     1.0249840000
| 25>  H        1.5670730000     1.7867780000    -0.1678470000
| 26>  H        0.7551950000     1.6056560000     1.4025890000
| 27> *
| 28>
| 29>                          ****END OF INPUT****
 Total Charge           Charge          ....    0
 Multiplicity           Mult            ....    1
 Number of Electrons    NEL             ....   54
 Basis Dimension        Dim             ....  138

MULLIKEN ATOMIC CHARGES
-----------------------
   0 C :    0.156920
   1 C :    0.095686
   2 C :    0.002986
   3 O :   -0.273039
   4 C :   -0.021286
   5 C :    0.281680
   6 O :   -0.336621
   7 H :   -0.006444
   8 H :    0.011327
   9 H :    0.028576
  10 H :    0.008973
  11 H :    0.016512
  12 H :    0.017766
  13 H :    0.024101
  14 H :   -0.007139
Sum of atomic charges:    0.0000000

LOEWDIN ATOMIC CHARGES
----------------------
   0 C :    0.062631
   1 C :   -0.065037
   2 C :    0.045655
   3 O :   -0.146376
   4 C :    0.018037
   5 C :    0.051731
   6 O :   -0.139642
   7 H :    0.004044
   8 H :    0.023279
   9 H :    0.038697
  10 H :    0.033762
  11 H :    0.015201
  12 H :    0.016780
  13 H :    0.031280
  14 H :    0.009956

  Mayer bond orders larger than 0.1
B(  0-C ,  1-C ) :   1.1001 B(  0-C ,  6-O ) :   1.0107 B(  0-C ,  7-H ) :   0.9223
B(  0-C ,  8-H ) :   0.9382 B(  1-C ,  2-C ) :   1.0340 B(  1-C ,  9-H ) :   0.8949
B(  1-C , 10-H ) :   0.9153 B(  2-C ,  3-O ) :   0.9599 B(  2-C ,  4-C ) :   1.0879
B(  2-C , 11-H ) :   0.9425 B(  3-O ,  4-C ) :   0.9812 B(  4-C ,  5-C ) :   1.0035
B(  4-C , 12-H ) :   0.9274 B(  5-C ,  6-O ) :   1.0500 B(  5-C , 13-H ) :   0.9216
B(  5-C , 14-H ) :   0.9206

FINAL SINGLE POINT ENERGY      -345.069778044253

DIPOLE MOMENT
-------------
                                X             Y             Z
Electronic contribution:      2.36305      -0.12997      -2.32414
Nuclear contribution   :     -2.65574      -0.06814       3.16990
                        -----------------------------------------
Total Dipole Moment    :     -0.29269      -0.19811       0.84576
                        -----------------------------------------
Magnitude (a.u.)       :      0.91664
Magnitude (Debye)      :      2.32991

                             ****ORCA TERMINATED NORMALLY****
TOTAL RUN TIME: 0 days 0 hours 0 minutes 6 seconds 990 msec
