                         Program Version 3.0.3 - RELEASE   -
|  1> ! RI PBE def2-SVP def2-SVP/J NBO PAL2
|  2> % maxcore 2000
|  3> % output
|  4>     # printlevel mini
|  5>     print[ P_Basis ] 0
|  6>     print[ P_SCFInfo ] 1
|  7>     print[ P_SCFIterInfo ] 1
|  8>     print[ P_OrbEn ] 0
|  9>     print[ P_Cartesian ] 0
| 10> end
| 11> *xyz 0 1
| 12>  C       -1.2818260000    -0.7759850000    -0.4951840000
| 13>  C       -1.2253920000     0.7693540000    -0.5400420000
| 14>  C        0.0454430000     1.0113110000     0.2735990000
| 15>  O        1.1710180000     0.6817990000    -0.5248980000
| 16>  C        1.2097910000    -0.7464820000    -0.5066030000
| 17>  C       -0.0259920000    -1.0787150000     0.3277120000
| 18>  O        0.0018020000     0.0085250000     1.2576530000
| 19>  H       -1.2519440000    -1.2382280000    -1.4831900000
| 20>  H       -2.1729800000    -1.1318420000     0.0229830000
| 21>  H       -2.0911820000     1.2250170000    -0.0566910000
| 22>  H       -1.1322410000     1.1749240000    -1.5472750000
| 23>  H        0.1847010000     1.9956360000     0.7166200000
| 24>  H        2.1356980000    -1.0813510000    -0.0296070000
| 25>  H        1.1585830000    -1.1425120000    -1.5249050000
| 26>  H       -0.0020990000    -2.0309610000     0.8531070000
| 27> *
| 28>
| 29>                          ****END OF INPUT****
 Total Charge           Charge          ....    0
 Multiplicity           Mult            ....    1
 Number of Electrons    NEL             ....   54
 Basis Dimension        Dim             ....  138

MULLIKEN ATOMIC CHARGES
-----------------------
   0 C :    0.077931
   1 C :    0.125540
   2 C :    0.139996
   3 O :   -0.332570
   4 C :    0.271170
   5 C :   -0.061126
   6 O :   -0.311420
   7 H :    0.006568
   8 H :    0.017369
   9 H :    0.016474
  10 H :    0.011822
  11 H :    0.009265
  12 H :    0.014435
  13 H :    0.003866
  14 H :    0.010679
Sum of atomic charges:    0.0000000

LOEWDIN ATOMIC CHARGES
----------------------
   0 C :   -0.041061
   1 C :   -0.056716
   2 C :    0.111301
   3 O :   -0.161360
   4 C :    0.063490
   5 C :    0.039965
   6 O :   -0.135212
   7 H :    0.025769
   8 H :    0.029270
   9 H :    0.027907
  10 H :    0.029389
  11 H :    0.016624
  12 H :    0.014532
  13 H :    0.012944
  14 H :    0.023156

  Mayer bond orders larger than 0.1
B(  0-C ,  1-C ) :   1.1274 B(  0-C ,  5-C ) :   1.0780 B(  0-C ,  7-H ) :   0.9008
B(  0-C ,  8-H ) :   0.9108 B(  1-C ,  2-C ) :   1.0766 B(  1-C ,  9-H ) :   0.9098
B(  1-C , 10-H ) :   0.8910 B(  2-C ,  3-O ) :   1.0301 B(  2-C ,  6-O ) :   1.0381
B(  2-C , 11-H ) :   0.9506 B(  3-O ,  4-C ) :   0.9998 B(  4-C ,  5-C ) :   1.0250
B(  4-C , 12-H ) :   0.9330 B(  4-C , 13-H ) :   0.9291 B(  5-C ,  6-O ) :   0.9640
B(  5-C , 14-H ) :   0.9467

FINAL SINGLE POINT ENERGY      -345.096815363766

DIPOLE MOMENT
-------------
                                X             Y             Z
Electronic contribution:      2.54001       1.55707       2.35301
Nuclear contribution   :     -2.97441      -2.00166      -2.65044
                        -----------------------------------------
Total Dipole Moment    :     -0.43440      -0.44460      -0.29743
                        -----------------------------------------
Magnitude (a.u.)       :      0.68908
Magnitude (Debye)      :      1.75150

                             ****ORCA TERMINATED NORMALLY****
TOTAL RUN TIME: 0 days 0 hours 0 minutes 6 seconds 863 msec
