                         Program Version 3.0.3 - RELEASE   -
|  1> ! RI PBE def2-SVP def2-SVP/J NBO PAL2
|  2> % maxcore 2000
|  3> % output
|  4>     # printlevel mini
|  5>     print[ P_Basis ] 0
|  6>     print[ P_SCFInfo ] 1
|  7>     print[ P_SCFIterInfo ] 1
|  8>     print[ P_OrbEn ] 0
|  9>     print[ P_Cartesian ] 0
| 10> end
| 11> *xyz 0 1
| 12>  C       -1.7045570000     0.6708480000     0.3586530000
| 13>  O       -1.7265270000    -0.6418700000    -0.2850670000
| 14>  C       -0.3073460000    -0.7229220000     0.0288330000
| 15>  C        0.9654850000    -1.1223850000    -0.6686110000
| 16>  C        1.8588970000     0.0015120000    -0.0035320000
| 17>  O        1.0113720000     1.0731210000     0.5111600000
| 18>  C       -0.2239920000     0.7459980000    -0.0611750000
| 19>  H       -1.8712000000     0.5801560000     1.4372840000
| 20>  H       -2.4145680000     1.3592940000    -0.0995130000
| 21>  H       -0.2335170000    -1.0322540000     1.0821610000
| 22>  H        0.9079260000    -0.9873020000    -1.7497070000
| 23>  H        1.3531540000    -2.1172890000    -0.4468120000
| 24>  H        2.5553290000     0.4224760000    -0.7325820000
| 25>  H        2.4287260000    -0.3917580000     0.8403740000
| 26>  H       -0.2416820000     1.0448860000    -1.1189430000
| 27> *
| 28>
| 29>                          ****END OF INPUT****
 Total Charge           Charge          ....    0
 Multiplicity           Mult            ....    1
 Number of Electrons    NEL             ....   54
 Basis Dimension        Dim             ....  138

MULLIKEN ATOMIC CHARGES
-----------------------
   0 C :    0.226011
   1 O :   -0.344530
   2 C :    0.076295
   3 C :   -0.000070
   4 C :    0.177442
   5 O :   -0.333718
   6 C :    0.038660
   7 H :    0.015423
   8 H :    0.024321
   9 H :    0.006593
  10 H :    0.032067
  11 H :    0.024147
  12 H :    0.021916
  13 H :    0.026671
  14 H :    0.008772
Sum of atomic charges:   -0.0000000

LOEWDIN ATOMIC CHARGES
----------------------
   0 C :    0.091085
   1 O :   -0.176400
   2 C :    0.041644
   3 C :   -0.056307
   4 C :    0.091069
   5 O :   -0.162171
   6 C :    0.016224
   7 H :    0.014474
   8 H :    0.017376
   9 H :    0.012708
  10 H :    0.031770
  11 H :    0.028147
  12 H :    0.019014
  13 H :    0.020558
  14 H :    0.010807

  Mayer bond orders larger than 0.1
B(  0-C ,  1-O ) :   0.9884 B(  0-C ,  6-C ) :   1.0445 B(  0-C ,  7-H ) :   0.9202
B(  0-C ,  8-H ) :   0.9371 B(  1-O ,  2-C ) :   0.9962 B(  2-C ,  3-C ) :   1.0695
B(  2-C ,  6-C ) :   1.0171 B(  2-C ,  9-H ) :   0.9191 B(  3-C ,  4-C ) :   1.0317
B(  3-C , 10-H ) :   0.9276 B(  3-C , 11-H ) :   0.9303 B(  4-C ,  5-O ) :   0.9874
B(  4-C , 12-H ) :   0.9445 B(  4-C , 13-H ) :   0.9498 B(  5-O ,  6-C ) :   1.0474
B(  6-C , 14-H ) :   0.9184

FINAL SINGLE POINT ENERGY      -345.010896582895

DIPOLE MOMENT
-------------
                                X             Y             Z
Electronic contribution:     -2.04766       0.98433       0.53755
Nuclear contribution   :      2.46071      -1.09428      -0.63555
                        -----------------------------------------
Total Dipole Moment    :      0.41304      -0.10996      -0.09800
                        -----------------------------------------
Magnitude (a.u.)       :      0.43852
Magnitude (Debye)      :      1.11463

                             ****ORCA TERMINATED NORMALLY****
TOTAL RUN TIME: 0 days 0 hours 0 minutes 6 seconds 979 msec
