                         Program Version 3.0.3 - RELEASE   -
|  1> ! RI PBE def2-SVP def2-SVP/J NBO PAL2
|  2> % maxcore 2000
|  3> % output
|  4>     # printlevel mini
|  5>     print[ P_Basis ] 0
|  6>     print[ P_SCFInfo ] 1
|  7>     print[ P_SCFIterInfo ] 1
|  8>     print[ P_OrbEn ] 0
|  9>     print[ P_Cartesian ] 0
| 10> end
| 11> *xyz 0 1
| 12>  C       -0.1739170000    -0.9850890000    -0.7014690000
| 13>  O        1.1615720000    -1.1134370000    -1.1626390000
| 14>  C        0.9261110000    -0.3293860000    -0.0012390000
| 15>  C        1.5097790000    -0.8047420000     1.2901860000
| 16>  C        0.8764880000    -0.3090010000     2.6088330000
| 17>  C        1.1986860000    -1.6857310000     3.2196400000
| 18>  C        1.3117450000    -2.2490210000     1.7896020000
| 19>  H       -0.6128300000    -1.8936200000    -0.2990300000
| 20>  H       -0.8300230000    -0.3936770000    -1.3361960000
| 21>  H        1.0403100000     0.7427380000    -0.1732780000
| 22>  H        2.5796950000    -0.5682490000     1.2900490000
| 23>  H       -0.2015000000    -0.1681280000     2.4927360000
| 24>  H        1.2991150000     0.5794600000     3.0803240000
| 25>  H        0.4604660000    -2.1323150000     3.8867950000
| 26>  H        2.1665830000    -1.6801910000     3.7254160000
| 27>  H        0.3595770000    -2.6663450000     1.4562050000
| 28>  H        2.1012430000    -2.9694560000     1.5762650000
| 29> *
| 30>
| 31>                          ****END OF INPUT****
 Total Charge           Charge          ....    0
 Multiplicity           Mult            ....    1
 Number of Electrons    NEL             ....   54
 Basis Dimension        Dim             ....  148

MULLIKEN ATOMIC CHARGES
-----------------------
   0 C :    0.134638
   1 O :   -0.292935
   2 C :    0.043406
   3 C :   -0.109222
   4 C :    0.038848
   5 C :   -0.026989
   6 C :    0.043781
   7 H :    0.023818
   8 H :    0.028831
   9 H :    0.016142
  10 H :    0.015373
  11 H :    0.007834
  12 H :    0.012748
  13 H :    0.014362
  14 H :    0.020902
  15 H :    0.003135
  16 H :    0.025330
Sum of atomic charges:    0.0000000

LOEWDIN ATOMIC CHARGES
----------------------
   0 C :    0.050882
   1 O :   -0.156601
   2 C :    0.034773
   3 C :   -0.044753
   4 C :   -0.025912
   5 C :   -0.034149
   6 C :   -0.025163
   7 H :    0.010777
   8 H :    0.015049
   9 H :    0.016316
  10 H :    0.033140
  11 H :    0.023139
  12 H :    0.016062
  13 H :    0.017327
  14 H :    0.025865
  15 H :    0.022015
  16 H :    0.021234

  Mayer bond orders larger than 0.1
B(  0-C ,  1-O ) :   1.0023 B(  0-C ,  2-C ) :   1.1030 B(  0-C ,  7-H ) :   0.9265
B(  0-C ,  8-H ) :   0.9331 B(  1-O ,  2-C ) :   0.9834 B(  2-C ,  3-C ) :   1.0210
B(  2-C ,  9-H ) :   0.9328 B(  3-C ,  4-C ) :   1.0704 B(  3-C ,  6-C ) :   1.0805
B(  3-C , 10-H ) :   0.8934 B(  4-C ,  5-C ) :   1.1224 B(  4-C , 11-H ) :   0.9243
B(  4-C , 12-H ) :   0.9345 B(  5-C ,  6-C ) :   1.1190 B(  5-C , 13-H ) :   0.9355
B(  5-C , 14-H ) :   0.9332 B(  6-C , 15-H ) :   0.9147 B(  6-C , 16-H ) :   0.9312

FINAL SINGLE POINT ENERGY      -309.182771710151

DIPOLE MOMENT
-------------
                                X             Y             Z
Electronic contribution:      0.87820       0.58601      -4.99170
Nuclear contribution   :     -1.21946      -0.37826       5.54131
                        -----------------------------------------
Total Dipole Moment    :     -0.34127       0.20776       0.54962
                        -----------------------------------------
Magnitude (a.u.)       :      0.67949
Magnitude (Debye)      :      1.72712

                             ****ORCA TERMINATED NORMALLY****
TOTAL RUN TIME: 0 days 0 hours 0 minutes 6 seconds 835 msec
