                         Program Version 3.0.3 - RELEASE   -
|  1> ! RI PBE def2-SVP def2-SVP/J NBO PAL2
|  2> % maxcore 2000
|  3> % output
|  4>     # printlevel mini
|  5>     print[ P_Basis ] 0
|  6>     print[ P_SCFInfo ] 1
|  7>     print[ P_SCFIterInfo ] 1
|  8>     print[ P_OrbEn ] 0
|  9>     print[ P_Cartesian ] 0
| 10> end
| 11> *xyz 0 1
| 12>  C        1.8197810000     0.0219190000    -0.8880000000
| 13>  O        1.6483530000    -0.1989400000     0.5031630000
| 14>  C        0.4860900000    -0.0156840000    -0.3019340000
| 15>  C       -0.3562620000     1.2194530000    -0.0078340000
| 16>  C       -1.8067650000     0.7345930000    -0.0825820000
| 17>  C       -1.7186460000    -0.7494770000     0.2740190000
| 18>  C       -0.4529230000    -1.1980870000    -0.4502640000
| 19>  H        2.1852140000    -0.8335300000    -1.4540950000
| 20>  H        2.2640690000     0.9785560000    -1.1566930000
| 21>  H       -0.1453370000     2.0453500000    -0.6899920000
| 22>  H       -0.1107430000     1.5590880000     1.0022340000
| 23>  H       -2.1882860000     0.8412210000    -1.1035180000
| 24>  H       -2.4746990000     1.2969520000     0.5725340000
| 25>  H       -2.6063550000    -1.3152410000    -0.0150210000
| 26>  H       -1.5898450000    -0.8657810000     1.3552480000
| 27>  H       -0.6719600000    -1.3589210000    -1.5118820000
| 28>  H       -0.0029660000    -2.1111780000    -0.0575730000
| 29> *
| 30>
| 31>                          ****END OF INPUT****
 Total Charge           Charge          ....    0
 Multiplicity           Mult            ....    1
 Number of Electrons    NEL             ....   54
 Basis Dimension        Dim             ....  148

MULLIKEN ATOMIC CHARGES
-----------------------
   0 C :    0.178998
   1 O :   -0.290696
   2 C :   -0.227963
   3 C :    0.137755
   4 C :   -0.031947
   5 C :   -0.024276
   6 C :    0.126175
   7 H :    0.016193
   8 H :    0.016729
   9 H :    0.008788
  10 H :    0.013373
  11 H :    0.011832
  12 H :    0.013942
  13 H :    0.009125
  14 H :    0.026273
  15 H :    0.012106
  16 H :    0.003594
Sum of atomic charges:    0.0000000

LOEWDIN ATOMIC CHARGES
----------------------
   0 C :    0.057133
   1 O :   -0.156837
   2 C :    0.011795
   3 C :   -0.039936
   4 C :   -0.040237
   5 C :   -0.040486
   6 C :   -0.039524
   7 H :    0.012166
   8 H :    0.012622
   9 H :    0.028091
  10 H :    0.035624
  11 H :    0.022941
  12 H :    0.025522
  13 H :    0.023079
  14 H :    0.027543
  15 H :    0.029728
  16 H :    0.030775

  Mayer bond orders larger than 0.1
B(  0-C ,  1-O ) :   1.0156 B(  0-C ,  2-C ) :   1.0961 B(  0-C ,  7-H ) :   0.9290
B(  0-C ,  8-H ) :   0.9264 B(  1-O ,  2-C ) :   0.9559 B(  2-C ,  3-C ) :   1.0389
B(  2-C ,  6-C ) :   1.0561 B(  3-C ,  4-C ) :   1.1073 B(  3-C ,  9-H ) :   0.9254
B(  3-C , 10-H ) :   0.8975 B(  4-C ,  5-C ) :   1.0914 B(  4-C , 11-H ) :   0.9346
B(  4-C , 12-H ) :   0.9318 B(  5-C ,  6-C ) :   1.0926 B(  5-C , 13-H ) :   0.9351
B(  5-C , 14-H ) :   0.9389 B(  6-C , 15-H ) :   0.9188 B(  6-C , 16-H ) :   0.9095

FINAL SINGLE POINT ENERGY      -309.217864817989

DIPOLE MOMENT
-------------
                                X             Y             Z
Electronic contribution:      4.24782      -0.37396       1.12443
Nuclear contribution   :     -4.66286       0.48623      -1.66274
                        -----------------------------------------
Total Dipole Moment    :     -0.41503       0.11227      -0.53831
                        -----------------------------------------
Magnitude (a.u.)       :      0.68894
Magnitude (Debye)      :      1.75114

                             ****ORCA TERMINATED NORMALLY****
TOTAL RUN TIME: 0 days 0 hours 0 minutes 7 seconds 600 msec
