                         Program Version 3.0.3 - RELEASE   -
|  1> ! RI PBE def2-SVP def2-SVP/J NBO PAL2
|  2> % maxcore 2000
|  3> % output
|  4>     # printlevel mini
|  5>     print[ P_Basis ] 0
|  6>     print[ P_SCFInfo ] 1
|  7>     print[ P_SCFIterInfo ] 1
|  8>     print[ P_OrbEn ] 0
|  9>     print[ P_Cartesian ] 0
| 10> end
| 11> *xyz 0 1
| 12>  C       -1.0167910000    -0.0439570000     1.1072810000
| 13>  C       -0.6374830000     0.9859830000     0.0358010000
| 14>  C        0.8607470000     1.2665440000     0.0096150000
| 15>  C        1.6039500000    -0.0407600000     0.0180660000
| 16>  C        0.9024290000    -1.1688020000     0.0144070000
| 17>  C       -0.5961680000    -1.0126400000    -0.0078630000
| 18>  O       -0.9378650000     0.0049270000    -0.9860360000
| 19>  H       -2.0927740000    -0.0558920000     1.2796630000
| 20>  H       -0.4630530000    -0.0664280000     2.0457260000
| 21>  H       -1.2427570000     1.8892890000    -0.0662060000
| 22>  H        1.1483700000     1.8838550000     0.8694250000
| 23>  H        1.1141900000     1.8441820000    -0.8868100000
| 24>  H        2.6891490000    -0.0345800000     0.0148910000
| 25>  H        1.3617910000    -2.1507400000     0.0289120000
| 26>  H       -1.1475250000    -1.9401710000    -0.1642640000
| 27> *
| 28>
| 29>                          ****END OF INPUT****
 Total Charge           Charge          ....    0
 Multiplicity           Mult            ....    1
 Number of Electrons    NEL             ....   52
 Basis Dimension        Dim             ....  138

MULLIKEN ATOMIC CHARGES
-----------------------
   0 C :    0.049412
   1 C :   -0.006504
   2 C :    0.192791
   3 C :   -0.147953
   4 C :    0.075854
   5 C :    0.078617
   6 O :   -0.324840
   7 H :    0.021613
   8 H :    0.023369
   9 H :    0.003459
  10 H :    0.022036
  11 H :    0.032191
  12 H :    0.001871
  13 H :   -0.019930
  14 H :   -0.001986
Sum of atomic charges:   -0.0000000

LOEWDIN ATOMIC CHARGES
----------------------
   0 C :   -0.038031
   1 C :    0.074111
   2 C :   -0.051107
   3 C :   -0.022121
   4 C :   -0.052043
   5 C :    0.072072
   6 O :   -0.177034
   7 H :    0.029526
   8 H :    0.018188
   9 H :    0.011567
  10 H :    0.035610
  11 H :    0.039148
  12 H :    0.024397
  13 H :    0.023072
  14 H :    0.012647

  Mayer bond orders larger than 0.1
B(  0-C ,  1-C ) :   1.0481 B(  0-C ,  5-C ) :   1.0380 B(  0-C ,  7-H ) :   0.9091
B(  0-C ,  8-H ) :   0.9512 B(  1-C ,  2-C ) :   1.0124 B(  1-C ,  6-O ) :   0.9881
B(  1-C ,  9-H ) :   0.9289 B(  2-C ,  3-C ) :   1.0130 B(  2-C , 10-H ) :   0.9098
B(  2-C , 11-H ) :   0.9043 B(  3-C ,  4-C ) :   1.8616 B(  3-C , 12-H ) :   0.9689
B(  4-C ,  5-C ) :   0.9471 B(  4-C , 13-H ) :   0.9837 B(  5-C ,  6-O ) :   0.9761
B(  5-C , 14-H ) :   0.9362

FINAL SINGLE POINT ENERGY      -307.993774957583

DIPOLE MOMENT
-------------
                                X             Y             Z
Electronic contribution:     -1.08368      -1.07817      -2.18501
Nuclear contribution   :      1.28573       1.18357       2.79555
                        -----------------------------------------
Total Dipole Moment    :      0.20205       0.10540       0.61053
                        -----------------------------------------
Magnitude (a.u.)       :      0.65168
Magnitude (Debye)      :      1.65644

                             ****ORCA TERMINATED NORMALLY****
TOTAL RUN TIME: 0 days 0 hours 0 minutes 7 seconds 65 msec
