                         Program Version 3.0.3 - RELEASE   -
|  1> ! RI PBE def2-SVP def2-SVP/J NBO PAL2
|  2> % maxcore 2000
|  3> % output
|  4>     # printlevel mini
|  5>     print[ P_Basis ] 0
|  6>     print[ P_SCFInfo ] 1
|  7>     print[ P_SCFIterInfo ] 1
|  8>     print[ P_OrbEn ] 0
|  9>     print[ P_Cartesian ] 0
| 10> end
| 11> *xyz 0 1
| 12>  C       -1.4700820000     0.7776140000    -0.0594500000
| 13>  C       -1.4708630000    -0.7775540000     0.0589370000
| 14>  C       -0.1808370000    -1.4521880000     0.6327410000
| 15>  C        0.8169920000    -0.6957670000    -0.1934450000
| 16>  O        2.0532470000    -0.0018190000    -0.0008600000
| 17>  C        0.8177950000     0.6934240000     0.1921800000
| 18>  C       -0.1795320000     1.4509360000    -0.6336250000
| 19>  H       -1.6355590000     1.1982380000     0.9384770000
| 20>  H       -2.3388020000     1.0722650000    -0.6549330000
| 21>  H       -1.6370620000    -1.1980090000    -0.9389430000
| 22>  H       -2.3397100000    -1.0713130000     0.6546740000
| 23>  H       -0.2172000000    -2.5331130000     0.4699130000
| 24>  H       -0.0666320000    -1.2643690000     1.7023530000
| 25>  H        0.6667750000    -0.8772060000    -1.2584740000
| 26>  H        0.6681660000     0.8750160000     1.2572670000
| 27>  H       -0.0658790000     1.2630640000    -1.7032860000
| 28>  H       -0.2147180000     2.5318900000    -0.4707250000
| 29> *
| 30>
| 31>                          ****END OF INPUT****
 Total Charge           Charge          ....    0
 Multiplicity           Mult            ....    1
 Number of Electrons    NEL             ....   54
 Basis Dimension        Dim             ....  148

MULLIKEN ATOMIC CHARGES
-----------------------
   0 C :   -0.056595
   1 C :   -0.056641
   2 C :    0.064579
   3 C :    0.037860
   4 O :   -0.251497
   5 C :    0.037921
   6 C :    0.064513
   7 H :    0.016318
   8 H :    0.016244
   9 H :    0.016316
  10 H :    0.016246
  11 H :    0.019304
  12 H :    0.020194
  13 H :    0.007868
  14 H :    0.007855
  15 H :    0.020204
  16 H :    0.019312
Sum of atomic charges:   -0.0000000

LOEWDIN ATOMIC CHARGES
----------------------
   0 C :   -0.033218
   1 C :   -0.033223
   2 C :   -0.043134
   3 C :    0.020956
   4 O :   -0.133816
   5 C :    0.020964
   6 C :   -0.043143
   7 H :    0.026314
   8 H :    0.029728
   9 H :    0.026315
  10 H :    0.029728
  11 H :    0.023264
  12 H :    0.029910
  13 H :    0.013090
  14 H :    0.013087
  15 H :    0.029910
  16 H :    0.023266

  Mayer bond orders larger than 0.1
B(  0-C ,  1-C ) :   1.1038 B(  0-C ,  6-C ) :   1.0545 B(  0-C ,  7-H ) :   0.9319
B(  0-C ,  8-H ) :   0.9233 B(  1-C ,  2-C ) :   1.0545 B(  1-C ,  9-H ) :   0.9319
B(  1-C , 10-H ) :   0.9233 B(  2-C ,  3-C ) :   1.0157 B(  2-C , 11-H ) :   0.9260
B(  2-C , 12-H ) :   0.9247 B(  3-C ,  4-O ) :   1.0273 B(  3-C ,  5-C ) :   1.0103
B(  3-C , 13-H ) :   0.9339 B(  4-O ,  5-C ) :   1.0274 B(  5-C ,  6-C ) :   1.0157
B(  5-C , 14-H ) :   0.9339 B(  6-C , 15-H ) :   0.9247 B(  6-C , 16-H ) :   0.9260

FINAL SINGLE POINT ENERGY      -309.166394327320

DIPOLE MOMENT
-------------
                                X             Y             Z
Electronic contribution:      6.26178      -0.00331      -0.00108
Nuclear contribution   :     -7.24201       0.00385       0.00127
                        -----------------------------------------
Total Dipole Moment    :     -0.98023       0.00054       0.00019
                        -----------------------------------------
Magnitude (a.u.)       :      0.98023
Magnitude (Debye)      :      2.49155

                             ****ORCA TERMINATED NORMALLY****
TOTAL RUN TIME: 0 days 0 hours 0 minutes 7 seconds 613 msec
