                         Program Version 3.0.3 - RELEASE   -
|  1> ! RI PBE def2-SVP def2-SVP/J NBO PAL2
|  2> % maxcore 2000
|  3> % output
|  4>     # printlevel mini
|  5>     print[ P_Basis ] 0
|  6>     print[ P_SCFInfo ] 1
|  7>     print[ P_SCFIterInfo ] 1
|  8>     print[ P_OrbEn ] 0
|  9>     print[ P_Cartesian ] 0
| 10> end
| 11> *xyz 0 1
| 12>  C       -0.0782160000     1.4575870000     0.6140790000
| 13>  C       -1.3826970000     0.7339610000     0.2529620000
| 14>  C       -1.4756650000    -0.4983200000    -0.2787780000
| 15>  C       -0.3001210000    -1.4457260000    -0.5547400000
| 16>  C        0.7383550000    -0.7670560000     0.2900130000
| 17>  O        2.0340300000    -0.1950400000     0.1067640000
| 18>  C        0.8774140000     0.5985610000    -0.1615230000
| 19>  H        0.0925730000     1.4404120000     1.6947860000
| 20>  H       -0.1189190000     2.5047540000     0.2984350000
| 21>  H       -2.3060130000     1.2860370000     0.4071880000
| 22>  H       -2.4701370000    -0.8771900000    -0.4991670000
| 23>  H       -0.0555090000    -1.4656440000    -1.6211230000
| 24>  H       -0.5489730000    -2.4668590000    -0.2494560000
| 25>  H        0.5277860000    -0.8824900000     1.3523090000
| 26>  H        0.7643910000     0.7432120000    -1.2350390000
| 27> *
| 28>
| 29>                          ****END OF INPUT****
 Total Charge           Charge          ....    0
 Multiplicity           Mult            ....    1
 Number of Electrons    NEL             ....   52
 Basis Dimension        Dim             ....  138

MULLIKEN ATOMIC CHARGES
-----------------------
   0 C :    0.147525
   1 C :   -0.107855
   2 C :   -0.104587
   3 C :    0.150932
   4 C :   -0.000560
   5 O :   -0.242891
   6 C :   -0.003989
   7 H :    0.035623
   8 H :    0.018372
   9 H :    0.000461
  10 H :   -0.003311
  11 H :    0.035961
  12 H :    0.014499
  13 H :    0.030373
  14 H :    0.029447
Sum of atomic charges:    0.0000000

LOEWDIN ATOMIC CHARGES
----------------------
   0 C :   -0.042828
   1 C :   -0.033490
   2 C :   -0.032542
   3 C :   -0.041682
   4 C :    0.023036
   5 O :   -0.128283
   6 C :    0.022996
   7 H :    0.042706
   8 H :    0.029931
   9 H :    0.026299
  10 H :    0.025634
  11 H :    0.042589
  12 H :    0.029342
  13 H :    0.018236
  14 H :    0.018055

  Mayer bond orders larger than 0.1
B(  0-C ,  1-C ) :   0.9996 B(  0-C ,  6-C ) :   1.0202 B(  0-C ,  7-H ) :   0.9009
B(  0-C ,  8-H ) :   0.9121 B(  1-C ,  2-C ) :   1.9309 B(  1-C ,  9-H ) :   0.9421
B(  2-C ,  3-C ) :   0.9972 B(  2-C , 10-H ) :   0.9427 B(  3-C ,  4-C ) :   1.0200
B(  3-C , 11-H ) :   0.9029 B(  3-C , 12-H ) :   0.9111 B(  4-C ,  5-O ) :   1.0331
B(  4-C ,  6-C ) :   0.9498 B(  4-C , 13-H ) :   0.9585 B(  5-O ,  6-C ) :   1.0346
B(  6-C , 14-H ) :   0.9590

FINAL SINGLE POINT ENERGY      -307.948309379641

DIPOLE MOMENT
-------------
                                X             Y             Z
Electronic contribution:      3.68655      -0.33394       0.12651
Nuclear contribution   :     -4.52859       0.40952      -0.15716
                        -----------------------------------------
Total Dipole Moment    :     -0.84204       0.07558      -0.03065
                        -----------------------------------------
Magnitude (a.u.)       :      0.84598
Magnitude (Debye)      :      2.15032

                             ****ORCA TERMINATED NORMALLY****
TOTAL RUN TIME: 0 days 0 hours 0 minutes 6 seconds 987 msec
