                         Program Version 3.0.3 - RELEASE   -
|  1> ! RI PBE def2-SVP def2-SVP/J NBO PAL2
|  2> % maxcore 2000
|  3> % output
|  4>     # printlevel mini
|  5>     print[ P_Basis ] 0
|  6>     print[ P_SCFInfo ] 1
|  7>     print[ P_SCFIterInfo ] 1
|  8>     print[ P_OrbEn ] 0
|  9>     print[ P_Cartesian ] 0
| 10> end
| 11> *xyz 0 1
| 12>  C        0.8636960000    -1.1119680000     0.3226030000
| 13>  C       -0.5162450000    -1.6303440000    -0.0493340000
| 14>  C       -1.5665480000    -0.5830030000    -0.2399760000
| 15>  C       -1.4511850000     0.7302270000    -0.0654830000
| 16>  C       -0.2292210000     1.4626770000     0.4128510000
| 17>  C        1.0524100000     1.1772480000    -0.3635110000
| 18>  O        1.3284780000    -0.1818280000    -0.6234640000
| 19>  H        1.5748710000    -1.9431000000     0.3205370000
| 20>  H        0.8685410000    -0.6947790000     1.3363660000
| 21>  H       -0.8491620000    -2.3546990000     0.7068350000
| 22>  H       -0.4274950000    -2.2010000000    -0.9822140000
| 23>  H       -2.5304160000    -0.9584330000    -0.5768840000
| 24>  H       -2.3299110000     1.3379980000    -0.2630750000
| 25>  H       -0.0731530000     1.2618110000     1.4779610000
| 26>  H       -0.3987870000     2.5413490000     0.3486350000
| 27>  H        1.8954730000     1.6315540000     0.1785760000
| 28>  H        0.9992520000     1.6535690000    -1.3465130000
| 29> *
| 30>
| 31>                          ****END OF INPUT****
 Total Charge           Charge          ....    0
 Multiplicity           Mult            ....    1
 Number of Electrons    NEL             ....   54
 Basis Dimension        Dim             ....  148

MULLIKEN ATOMIC CHARGES
-----------------------
   0 C :    0.162349
   1 C :    0.047575
   2 C :   -0.073310
   3 C :   -0.079287
   4 C :   -0.030875
   5 C :    0.217242
   6 O :   -0.344447
   7 H :    0.011822
   8 H :   -0.001718
   9 H :    0.015360
  10 H :    0.026042
  11 H :   -0.007123
  12 H :   -0.005949
  13 H :    0.037608
  14 H :    0.018380
  15 H :   -0.001955
  16 H :    0.008288
Sum of atomic charges:   -0.0000000

LOEWDIN ATOMIC CHARGES
----------------------
   0 C :    0.058236
   1 C :   -0.063915
   2 C :   -0.037058
   3 C :   -0.052696
   4 C :   -0.074466
   5 C :    0.066816
   6 O :   -0.151505
   7 H :    0.022866
   8 H :    0.007709
   9 H :    0.035136
  10 H :    0.037961
  11 H :    0.026099
  12 H :    0.025470
  13 H :    0.033654
  14 H :    0.039044
  15 H :    0.006464
  16 H :    0.020186

  Mayer bond orders larger than 0.1
B(  0-C ,  1-C ) :   1.0848 B(  0-C ,  6-O ) :   1.0381 B(  0-C ,  7-H ) :   0.9322
B(  0-C ,  8-H ) :   0.9277 B(  1-C ,  2-C ) :   1.0600 B(  1-C ,  9-H ) :   0.9033
B(  1-C , 10-H ) :   0.9034 B(  2-C ,  3-C ) :   1.9711 B(  2-C , 11-H ) :   0.9407
B(  3-C ,  4-C ) :   1.0287 B(  3-C , 12-H ) :   0.9450 B(  4-C ,  5-C ) :   1.0720
B(  4-C , 13-H ) :   0.9229 B(  4-C , 14-H ) :   0.9106 B(  5-C ,  6-O ) :   1.0331
B(  5-C , 15-H ) :   0.9339 B(  5-C , 16-H ) :   0.9388

FINAL SINGLE POINT ENERGY      -309.212489799226

DIPOLE MOMENT
-------------
                                X             Y             Z
Electronic contribution:      0.74254      -0.36625      -1.54183
Nuclear contribution   :     -0.96079       0.45511       1.93625
                        -----------------------------------------
Total Dipole Moment    :     -0.21825       0.08887       0.39442
                        -----------------------------------------
Magnitude (a.u.)       :      0.45945
Magnitude (Debye)      :      1.16784

                             ****ORCA TERMINATED NORMALLY****
TOTAL RUN TIME: 0 days 0 hours 0 minutes 7 seconds 399 msec
