                         Program Version 3.0.3 - RELEASE   -
|  1> ! RI PBE def2-SVP def2-SVP/J NBO PAL2
|  2> % maxcore 2000
|  3> % output
|  4>     # printlevel mini
|  5>     print[ P_Basis ] 0
|  6>     print[ P_SCFInfo ] 1
|  7>     print[ P_SCFIterInfo ] 1
|  8>     print[ P_OrbEn ] 0
|  9>     print[ P_Cartesian ] 0
| 10> end
| 11> *xyz 0 1
| 12>  C       -1.3923220000     0.6408890000     0.1317570000
| 13>  C       -1.4317500000    -0.8409610000    -0.2217460000
| 14>  C       -0.2904860000    -1.6244500000     0.3314180000
| 15>  C        0.9582580000    -1.1619670000     0.4574880000
| 16>  C        1.4748270000     0.1276460000     0.0440390000
| 17>  C        0.8370100000     1.1959330000    -0.4600480000
| 18>  O       -0.4755440000     1.4110990000    -0.6261980000
| 19>  H       -1.1627680000     0.7627640000     1.1952860000
| 20>  H       -2.3606210000     1.1000780000    -0.0712830000
| 21>  H       -1.4869330000    -0.9345410000    -1.3129050000
| 22>  H       -2.3741300000    -1.2473760000     0.1608490000
| 23>  H       -0.5025040000    -2.6305290000     0.6795740000
| 24>  H        1.6971050000    -1.8323620000     0.8869560000
| 25>  H        2.5515740000     0.2462230000     0.0968530000
| 26>  H        1.4068830000     2.0497560000    -0.8116380000
| 27> *
| 28>
| 29>                          ****END OF INPUT****
 Total Charge           Charge          ....    0
 Multiplicity           Mult            ....    1
 Number of Electrons    NEL             ....   52
 Basis Dimension        Dim             ....  138

MULLIKEN ATOMIC CHARGES
-----------------------
   0 C :    0.153831
   1 C :    0.036553
   2 C :   -0.099621
   3 C :    0.032662
   4 C :   -0.067328
   5 C :    0.095270
   6 O :   -0.246449
   7 H :    0.033002
   8 H :    0.017729
   9 H :    0.047194
  10 H :    0.008141
  11 H :   -0.009232
  12 H :   -0.010582
  13 H :   -0.000425
  14 H :    0.009255
Sum of atomic charges:   -0.0000000

LOEWDIN ATOMIC CHARGES
----------------------
   0 C :    0.074108
   1 C :   -0.061137
   2 C :   -0.056281
   3 C :   -0.050676
   4 C :   -0.126712
   5 C :    0.031508
   6 O :   -0.057898
   7 H :    0.023185
   8 H :    0.025741
   9 H :    0.044793
  10 H :    0.037913
  11 H :    0.023833
  12 H :    0.030661
  13 H :    0.037291
  14 H :    0.023672

  Mayer bond orders larger than 0.1
B(  0-C ,  1-C ) :   1.0774 B(  0-C ,  6-O ) :   0.9688 B(  0-C ,  7-H ) :   0.9452
B(  0-C ,  8-H ) :   0.9420 B(  1-C ,  2-C ) :   1.0710 B(  1-C ,  9-H ) :   0.9073
B(  1-C , 10-H ) :   0.9084 B(  2-C ,  3-C ) :   1.8282 B(  2-C , 11-H ) :   0.9463
B(  3-C ,  4-C ) :   1.1441 B(  3-C , 12-H ) :   0.9449 B(  4-C ,  5-C ) :   1.6895
B(  4-C , 13-H ) :   0.9331 B(  5-C ,  6-O ) :   1.1945 B(  5-C , 14-H ) :   0.9573

FINAL SINGLE POINT ENERGY      -308.017497883806

DIPOLE MOMENT
-------------
                                X             Y             Z
Electronic contribution:      1.19265       2.22060      -1.04693
Nuclear contribution   :     -1.47547      -2.31902       1.21648
                        -----------------------------------------
Total Dipole Moment    :     -0.28282      -0.09842       0.16955
                        -----------------------------------------
Magnitude (a.u.)       :      0.34412
Magnitude (Debye)      :      0.87468

                             ****ORCA TERMINATED NORMALLY****
TOTAL RUN TIME: 0 days 0 hours 0 minutes 7 seconds 617 msec
