                         Program Version 3.0.3 - RELEASE   -
|  1> ! RI PBE def2-SVP def2-SVP/J NBO PAL2
|  2> % maxcore 2000
|  3> % output
|  4>     # printlevel mini
|  5>     print[ P_Basis ] 0
|  6>     print[ P_SCFInfo ] 1
|  7>     print[ P_SCFIterInfo ] 1
|  8>     print[ P_OrbEn ] 0
|  9>     print[ P_Cartesian ] 0
| 10> end
| 11> *xyz 0 1
| 12>  C        1.6877130000    -0.0788530000     0.0111670000
| 13>  C        0.8177100000    -1.2206520000     0.5331560000
| 14>  C       -0.4096710000    -1.5151490000    -0.3240270000
| 15>  C       -1.4861960000    -0.4733650000    -0.1941810000
| 16>  C       -1.3334610000     0.8189960000     0.0897370000
| 17>  O       -0.1792570000     1.5209000000     0.1861090000
| 18>  C        0.8965950000     1.0505250000    -0.6159140000
| 19>  H        2.3776350000    -0.4481470000    -0.7568240000
| 20>  H        2.3080390000     0.3087240000     0.8246820000
| 21>  H        0.4707660000    -0.9775090000     1.5417040000
| 22>  H        1.4300460000    -2.1225740000     0.6262900000
| 23>  H       -0.8356020000    -2.4720630000    -0.0076500000
| 24>  H       -0.1186570000    -1.6635570000    -1.3727620000
| 25>  H       -2.5145880000    -0.8102510000    -0.2709280000
| 26>  H       -2.1930240000     1.4551520000     0.2771840000
| 27>  H        1.5393400000     1.9177880000    -0.7839380000
| 28>  H        0.4870230000     0.7415350000    -1.5845160000
| 29> *
| 30>
| 31>                          ****END OF INPUT****
 Total Charge           Charge          ....    0
 Multiplicity           Mult            ....    1
 Number of Electrons    NEL             ....   54
 Basis Dimension        Dim             ....  148

MULLIKEN ATOMIC CHARGES
-----------------------
   0 C :   -0.017668
   1 C :   -0.030072
   2 C :    0.071330
   3 C :   -0.143765
   4 C :    0.112764
   5 O :   -0.277169
   6 C :    0.162122
   7 H :    0.014134
   8 H :    0.017554
   9 H :    0.026777
  10 H :    0.011553
  11 H :    0.005015
  12 H :    0.019869
  13 H :   -0.004190
  14 H :   -0.000774
  15 H :    0.020424
  16 H :    0.012096
Sum of atomic charges:    0.0000000

LOEWDIN ATOMIC CHARGES
----------------------
   0 C :   -0.058949
   1 C :   -0.042482
   2 C :   -0.044887
   3 C :   -0.119657
   4 C :    0.019668
   5 O :   -0.088264
   6 C :    0.067335
   7 H :    0.030654
   8 H :    0.028344
   9 H :    0.029861
  10 H :    0.027339
  11 H :    0.033165
  12 H :    0.028013
  13 H :    0.029449
  14 H :    0.019992
  15 H :    0.024383
  16 H :    0.016036

  Mayer bond orders larger than 0.1
B(  0-C ,  1-C ) :   1.0974 B(  0-C ,  6-C ) :   1.1106 B(  0-C ,  7-H ) :   0.9226
B(  0-C ,  8-H ) :   0.9277 B(  1-C ,  2-C ) :   1.1153 B(  1-C ,  9-H ) :   0.9261
B(  1-C , 10-H ) :   0.9318 B(  2-C ,  3-C ) :   1.0356 B(  2-C , 11-H ) :   0.9159
B(  2-C , 12-H ) :   0.9199 B(  3-C ,  4-C ) :   1.8235 B(  3-C , 13-H ) :   0.9409
B(  4-C ,  5-O ) :   1.1389 B(  4-C , 14-H ) :   0.9630 B(  5-O ,  6-C ) :   0.9835
B(  6-C , 15-H ) :   0.9430 B(  6-C , 16-H ) :   0.9173

FINAL SINGLE POINT ENERGY      -309.222490746038

DIPOLE MOMENT
-------------
                                X             Y             Z
Electronic contribution:     -2.27279       3.78382       0.73056
Nuclear contribution   :      2.55709      -4.10232      -0.97547
                        -----------------------------------------
Total Dipole Moment    :      0.28430      -0.31850      -0.24491
                        -----------------------------------------
Magnitude (a.u.)       :      0.49219
Magnitude (Debye)      :      1.25105

                             ****ORCA TERMINATED NORMALLY****
TOTAL RUN TIME: 0 days 0 hours 0 minutes 8 seconds 45 msec
