                         Program Version 3.0.3 - RELEASE   -
|  1> ! RI PBE def2-SVP def2-SVP/J NBO PAL2
|  2> % maxcore 2000
|  3> % output
|  4>     # printlevel mini
|  5>     print[ P_Basis ] 0
|  6>     print[ P_SCFInfo ] 1
|  7>     print[ P_SCFIterInfo ] 1
|  8>     print[ P_OrbEn ] 0
|  9>     print[ P_Cartesian ] 0
| 10> end
| 11> *xyz 0 1
| 12>  C       -1.5765750000     0.7590810000     0.1737860000
| 13>  C       -1.4853730000    -0.6931690000    -0.2878520000
| 14>  C       -0.3653880000    -1.4662180000     0.4027200000
| 15>  C        1.0136640000    -1.2865880000    -0.2257820000
| 16>  O        1.2769990000    -0.0083610000    -0.7528580000
| 17>  C        0.9677100000     1.0870410000     0.0798160000
| 18>  C       -0.4090730000     1.6477030000    -0.2333670000
| 19>  H       -1.6680960000     0.7620770000     1.2676140000
| 20>  H       -2.5025690000     1.2023820000    -0.2068690000
| 21>  H       -1.3579700000    -0.7372320000    -1.3752850000
| 22>  H       -2.4390540000    -1.1820120000    -0.0664940000
| 23>  H       -0.5822630000    -2.5395350000     0.3952550000
| 24>  H       -0.3415440000    -1.1763360000     1.4589950000
| 25>  H        1.1202450000    -1.9615980000    -1.0793570000
| 26>  H        1.7874910000    -1.5628330000     0.5069390000
| 27>  H        1.7255720000     1.8508210000    -0.1201570000
| 28>  H        1.0574930000     0.8145300000     1.1411150000
| 29>  H       -0.4408580000     1.8306740000    -1.3130520000
| 30>  H       -0.5107090000     2.6248720000     0.2528450000
| 31> *
| 32>
| 33>                          ****END OF INPUT****
 Total Charge           Charge          ....    0
 Multiplicity           Mult            ....    1
 Number of Electrons    NEL             ....   56
 Basis Dimension        Dim             ....  158

MULLIKEN ATOMIC CHARGES
-----------------------
   0 C :   -0.017733
   1 C :   -0.007012
   2 C :   -0.072748
   3 C :    0.192987
   4 O :   -0.345877
   5 C :    0.161833
   6 C :    0.000637
   7 H :    0.005983
   8 H :    0.003822
   9 H :    0.017553
  10 H :    0.003645
  11 H :    0.017231
  12 H :    0.008511
  13 H :    0.011223
  14 H :   -0.000928
  15 H :    0.012208
  16 H :   -0.008861
  17 H :    0.015301
  18 H :    0.002226
Sum of atomic charges:   -0.0000000

LOEWDIN ATOMIC CHARGES
----------------------
   0 C :   -0.044021
   1 C :   -0.043192
   2 C :   -0.071574
   3 C :    0.055660
   4 O :   -0.152775
   5 C :    0.057560
   6 C :   -0.059402
   7 H :    0.020705
   8 H :    0.025200
   9 H :    0.026585
  10 H :    0.026200
  11 H :    0.033254
  12 H :    0.019742
  13 H :    0.020274
  14 H :    0.005155
  15 H :    0.020611
  16 H :    0.005783
  17 H :    0.027615
  18 H :    0.026621

  Mayer bond orders larger than 0.1
B(  0-C ,  1-C ) :   1.0998 B(  0-C ,  6-C ) :   1.1104 B(  0-C ,  7-H ) :   0.9329
B(  0-C ,  8-H ) :   0.9271 B(  1-C ,  2-C ) :   1.0817 B(  1-C ,  9-H ) :   0.9328
B(  1-C , 10-H ) :   0.9250 B(  2-C ,  3-C ) :   1.0651 B(  2-C , 11-H ) :   0.9216
B(  2-C , 12-H ) :   0.9329 B(  3-C ,  4-O ) :   1.0403 B(  3-C , 13-H ) :   0.9406
B(  3-C , 14-H ) :   0.9383 B(  4-O ,  5-C ) :   1.0182 B(  5-C ,  6-C ) :   1.0962
B(  5-C , 15-H ) :   0.9358 B(  5-C , 16-H ) :   0.9229 B(  6-C , 17-H ) :   0.9202
B(  6-C , 18-H ) :   0.9160

FINAL SINGLE POINT ENERGY      -310.435524877285

DIPOLE MOMENT
-------------
                                X             Y             Z
Electronic contribution:      2.91824       0.05124      -1.80104
Nuclear contribution   :     -3.19737      -0.11094       2.17763
                        -----------------------------------------
Total Dipole Moment    :     -0.27913      -0.05970       0.37658
                        -----------------------------------------
Magnitude (a.u.)       :      0.47254
Magnitude (Debye)      :      1.20110

                             ****ORCA TERMINATED NORMALLY****
TOTAL RUN TIME: 0 days 0 hours 0 minutes 8 seconds 297 msec
