                         Program Version 3.0.3 - RELEASE   -
|  1> ! RI PBE def2-SVP def2-SVP/J NBO PAL2
|  2> % maxcore 2000
|  3> % output
|  4>     # printlevel mini
|  5>     print[ P_Basis ] 0
|  6>     print[ P_SCFInfo ] 1
|  7>     print[ P_SCFIterInfo ] 1
|  8>     print[ P_OrbEn ] 0
|  9>     print[ P_Cartesian ] 0
| 10> end
| 11> *xyz 0 1
| 12>  C        1.1362880000     1.1793140000    -0.2854360000
| 13>  C       -0.1787400000     1.5955050000     0.3694590000
| 14>  C       -1.3509180000     0.7533550000    -0.0098550000
| 15>  C       -1.4334500000    -0.5623560000    -0.1829800000
| 16>  O       -0.4994440000    -1.5387550000    -0.0621210000
| 17>  C        0.8309760000    -1.3294220000     0.1006320000
| 18>  C        1.5590690000    -0.2202720000     0.0137440000
| 19>  H        1.9280530000     1.8603620000     0.0404280000
| 20>  H        1.0468030000     1.3191070000    -1.3686470000
| 21>  H       -0.3954060000     2.6347720000     0.1051090000
| 22>  H       -0.0465050000     1.5835490000     1.4572400000
| 23>  H       -2.2941820000     1.2677130000    -0.1636610000
| 24>  H       -2.3812990000    -1.0196450000    -0.4409160000
| 25>  H        1.3083260000    -2.2797270000     0.3082860000
| 26>  H        2.6186390000    -0.3868990000     0.1796290000
| 27> *
| 28>
| 29>                          ****END OF INPUT****
 Total Charge           Charge          ....    0
 Multiplicity           Mult            ....    1
 Number of Electrons    NEL             ....   52
 Basis Dimension        Dim             ....  138

MULLIKEN ATOMIC CHARGES
-----------------------
   0 C :    0.059910
   1 C :    0.060884
   2 C :   -0.126077
   3 C :    0.104929
   4 O :   -0.198355
   5 C :    0.104798
   6 C :   -0.131167
   7 H :    0.007361
   8 H :    0.040474
   9 H :    0.004741
  10 H :    0.043043
  11 H :    0.003411
  12 H :    0.008993
  13 H :    0.009171
  14 H :    0.007883
Sum of atomic charges:   -0.0000000

LOEWDIN ATOMIC CHARGES
----------------------
   0 C :   -0.041291
   1 C :   -0.041377
   2 C :   -0.104361
   3 C :    0.022600
   4 O :   -0.018224
   5 C :    0.022655
   6 C :   -0.105106
   7 H :    0.031920
   8 H :    0.039340
   9 H :    0.031561
  10 H :    0.039817
  11 H :    0.035526
  12 H :    0.025410
  13 H :    0.025350
  14 H :    0.036180

  Mayer bond orders larger than 0.1
B(  0-C ,  1-C ) :   1.0900 B(  0-C ,  6-C ) :   1.0633 B(  0-C ,  7-H ) :   0.9128
B(  0-C ,  8-H ) :   0.9224 B(  1-C ,  2-C ) :   1.0632 B(  1-C ,  9-H ) :   0.9121
B(  1-C , 10-H ) :   0.9233 B(  2-C ,  3-C ) :   1.8352 B(  2-C , 11-H ) :   0.9303
B(  3-C ,  4-O ) :   1.1097 B(  3-C , 12-H ) :   0.9597 B(  4-O ,  5-C ) :   1.1116
B(  5-C ,  6-C ) :   1.8362 B(  5-C , 13-H ) :   0.9600 B(  6-C , 14-H ) :   0.9314

FINAL SINGLE POINT ENERGY      -308.010672471320

DIPOLE MOMENT
-------------
                                X             Y             Z
Electronic contribution:     -1.50784      -4.51598      -0.15978
Nuclear contribution   :      1.62190       4.85129       0.17255
                        -----------------------------------------
Total Dipole Moment    :      0.11406       0.33531       0.01277
                        -----------------------------------------
Magnitude (a.u.)       :      0.35441
Magnitude (Debye)      :      0.90083

                             ****ORCA TERMINATED NORMALLY****
TOTAL RUN TIME: 0 days 0 hours 0 minutes 7 seconds 81 msec
