                         Program Version 3.0.3 - RELEASE   -
|  1> ! RI PBE def2-SVP def2-SVP/J NBO PAL2
|  2> % maxcore 2000
|  3> % output
|  4>     # printlevel mini
|  5>     print[ P_Basis ] 0
|  6>     print[ P_SCFInfo ] 1
|  7>     print[ P_SCFIterInfo ] 1
|  8>     print[ P_OrbEn ] 0
|  9>     print[ P_Cartesian ] 0
| 10> end
| 11> *xyz 0 1
| 12>  C        0.8079210000    -1.1148500000     0.5954400000
| 13>  C       -0.3647570000    -1.4596140000    -0.3067500000
| 14>  C       -1.4947810000    -0.4710610000    -0.2363570000
| 15>  C       -1.3886700000     0.8249990000     0.0451150000
| 16>  O       -0.2404600000     1.5290500000     0.2115940000
| 17>  C        0.8861850000     1.0130130000    -0.4683820000
| 18>  O        1.5660880000     0.0237660000     0.2127610000
| 19>  H        1.5179620000    -1.9451840000     0.6187650000
| 20>  H        0.4346220000    -0.9612190000     1.6148650000
| 21>  H       -0.7378670000    -2.4323410000     0.0294220000
| 22>  H       -0.0224640000    -1.6211470000    -1.3362430000
| 23>  H       -2.5019380000    -0.8457170000    -0.3805300000
| 24>  H       -2.2621610000     1.4558510000     0.1689160000
| 25>  H        1.5850280000     1.8427110000    -0.5726360000
| 26>  H        0.5490800000     0.6703410000    -1.4559800000
| 27> *
| 28>
| 29>                          ****END OF INPUT****
 Total Charge           Charge          ....    0
 Multiplicity           Mult            ....    1
 Number of Electrons    NEL             ....   54
 Basis Dimension        Dim             ....  138

MULLIKEN ATOMIC CHARGES
-----------------------
   0 C :    0.176498
   1 C :    0.013727
   2 C :   -0.142109
   3 C :    0.123648
   4 O :   -0.269736
   5 C :    0.292462
   6 O :   -0.329199
   7 H :    0.018951
   8 H :    0.024385
   9 H :    0.016473
  10 H :    0.035268
  11 H :    0.001733
  12 H :    0.004555
  13 H :    0.029702
  14 H :    0.003644
Sum of atomic charges:   -0.0000000

LOEWDIN ATOMIC CHARGES
----------------------
   0 C :    0.063857
   1 C :   -0.062379
   2 C :   -0.117351
   3 C :    0.025208
   4 O :   -0.089156
   5 C :    0.126510
   6 O :   -0.137150
   7 H :    0.024477
   8 H :    0.017191
   9 H :    0.042068
  10 H :    0.033620
  11 H :    0.031298
  12 H :    0.022754
  13 H :    0.021668
  14 H :   -0.002616

  Mayer bond orders larger than 0.1
B(  0-C ,  1-C ) :   1.0957 B(  0-C ,  6-O ) :   0.9912 B(  0-C ,  7-H ) :   0.9385
B(  0-C ,  8-H ) :   0.9425 B(  1-C ,  2-C ) :   1.0352 B(  1-C ,  9-H ) :   0.9094
B(  1-C , 10-H ) :   0.9124 B(  2-C ,  3-C ) :   1.8320 B(  2-C , 11-H ) :   0.9457
B(  3-C ,  4-O ) :   1.1237 B(  3-C , 12-H ) :   0.9666 B(  4-O ,  5-C ) :   0.9898
B(  5-C ,  6-O ) :   1.1134 B(  5-C , 13-H ) :   0.9514 B(  5-C , 14-H ) :   0.9281

FINAL SINGLE POINT ENERGY      -345.076048073098

DIPOLE MOMENT
-------------
                                X             Y             Z
Electronic contribution:      1.11502       3.61517       0.97665
Nuclear contribution   :     -1.41152      -4.06369      -1.30196
                        -----------------------------------------
Total Dipole Moment    :     -0.29650      -0.44852      -0.32531
                        -----------------------------------------
Magnitude (a.u.)       :      0.62842
Magnitude (Debye)      :      1.59731

                             ****ORCA TERMINATED NORMALLY****
TOTAL RUN TIME: 0 days 0 hours 0 minutes 7 seconds 204 msec
