                         Program Version 3.0.3 - RELEASE   -
|  1> ! RI PBE def2-SVP def2-SVP/J NBO PAL2
|  2> % maxcore 2000
|  3> % output
|  4>     # printlevel mini
|  5>     print[ P_Basis ] 0
|  6>     print[ P_SCFInfo ] 1
|  7>     print[ P_SCFIterInfo ] 1
|  8>     print[ P_OrbEn ] 0
|  9>     print[ P_Cartesian ] 0
| 10> end
| 11> *xyz 0 1
| 12>  C       -0.2576150000    -1.1287730000    -0.3688600000
| 13>  C        1.0331200000    -1.0772220000    -1.1316450000
| 14>  C        0.8328710000    -0.2017390000     0.0648480000
| 15>  C        1.6055530000    -0.4657210000     1.3202460000
| 16>  C        0.8846910000    -0.3166530000     2.6693130000
| 17>  C        1.3244020000    -1.7619590000     2.8976900000
| 18>  O        1.8361190000    -1.8666190000     1.5612620000
| 19>  H       -0.4288040000    -2.0119010000     0.2346870000
| 20>  H       -1.1436590000    -0.7014080000    -0.8214330000
| 21>  H        1.0402210000    -0.6161170000    -2.1112710000
| 22>  H        1.7005170000    -1.9218780000    -1.0142060000
| 23>  H        0.6804250000     0.8565710000    -0.1281910000
| 24>  H        2.5628240000     0.0721880000     1.2824010000
| 25>  H       -0.1926920000    -0.1861850000     2.5687800000
| 26>  H        1.2847310000     0.4292070000     3.3546000000
| 27>  H        0.5345290000    -2.4939420000     3.0903320000
| 28>  H        2.1190590000    -1.8898400000     3.6409470000
| 29> *
| 30>
| 31>                          ****END OF INPUT****
 Total Charge           Charge          ....    0
 Multiplicity           Mult            ....    1
 Number of Electrons    NEL             ....   54
 Basis Dimension        Dim             ....  148

MULLIKEN ATOMIC CHARGES
-----------------------
   0 C :   -0.036115
   1 C :   -0.023583
   2 C :   -0.115543
   3 C :    0.142882
   4 C :   -0.028543
   5 C :    0.180109
   6 O :   -0.353526
   7 H :    0.034494
   8 H :    0.025152
   9 H :    0.029324
  10 H :    0.045354
  11 H :    0.022244
  12 H :    0.001511
  13 H :    0.017931
  14 H :    0.025044
  15 H :    0.018225
  16 H :    0.015039
Sum of atomic charges:   -0.0000000

LOEWDIN ATOMIC CHARGES
----------------------
   0 C :   -0.046674
   1 C :   -0.038755
   2 C :   -0.064035
   3 C :    0.076839
   4 C :   -0.053114
   5 C :    0.082907
   6 O :   -0.178821
   7 H :    0.025625
   8 H :    0.024765
   9 H :    0.024979
  10 H :    0.031213
  11 H :    0.030596
  12 H :    0.012175
  13 H :    0.028203
  14 H :    0.024899
  15 H :    0.009737
  16 H :    0.009458

  Mayer bond orders larger than 0.1
B(  0-C ,  1-C ) :   1.0404 B(  0-C ,  2-C ) :   0.9858 B(  0-C ,  7-H ) :   0.9461
B(  0-C ,  8-H ) :   0.9447 B(  1-C ,  2-C ) :   1.0022 B(  1-C ,  9-H ) :   0.9479
B(  1-C , 10-H ) :   0.9428 B(  2-C ,  3-C ) :   1.0417 B(  2-C , 11-H ) :   0.9370
B(  3-C ,  4-C ) :   1.0893 B(  3-C ,  6-O ) :   1.0457 B(  3-C , 12-H ) :   0.9054
B(  4-C ,  5-C ) :   1.1195 B(  4-C , 13-H ) :   0.9227 B(  4-C , 14-H ) :   0.9383
B(  5-C ,  6-O ) :   1.0164 B(  5-C , 15-H ) :   0.9412 B(  5-C , 16-H ) :   0.9368

FINAL SINGLE POINT ENERGY      -309.185738372935

DIPOLE MOMENT
-------------
                                X             Y             Z
Electronic contribution:      1.89754      -0.92281       0.46868
Nuclear contribution   :     -2.15595       1.40296      -0.13944
                        -----------------------------------------
Total Dipole Moment    :     -0.25841       0.48015       0.32925
                        -----------------------------------------
Magnitude (a.u.)       :      0.63696
Magnitude (Debye)      :      1.61903

                             ****ORCA TERMINATED NORMALLY****
TOTAL RUN TIME: 0 days 0 hours 0 minutes 6 seconds 884 msec
