                         Program Version 3.0.3 - RELEASE   -
|  1> ! RI PBE def2-SVP def2-SVP/J NBO PAL2
|  2> % maxcore 2000
|  3> % output
|  4>     # printlevel mini
|  5>     print[ P_Basis ] 0
|  6>     print[ P_SCFInfo ] 1
|  7>     print[ P_SCFIterInfo ] 1
|  8>     print[ P_OrbEn ] 0
|  9>     print[ P_Cartesian ] 0
| 10> end
| 11> *xyz 0 1
| 12>  C       -0.0480220000    -1.2828920000    -0.5001470000
| 13>  O        1.2112790000    -0.9852140000    -1.0888970000
| 14>  C        0.8531400000    -0.3051060000     0.0968980000
| 15>  C        1.6578150000    -0.6000050000     1.3256080000
| 16>  C        1.0035170000    -0.2339540000     2.6653170000
| 17>  C        1.1922720000    -1.7173300000     2.9892800000
| 18>  O        1.7064890000    -1.9891760000     1.6772950000
| 19>  H       -0.1169750000    -2.2684690000    -0.0502760000
| 20>  H       -0.9141240000    -0.9415420000    -1.0618730000
| 21>  H        0.6357390000     0.7566490000    -0.0373980000
| 22>  H        2.6715900000    -0.2000460000     1.1936640000
| 23>  H       -0.0355620000     0.0850790000     2.5794540000
| 24>  H        1.5506490000     0.4700050000     3.2897690000
| 25>  H        0.2832310000    -2.2888640000     3.1985450000
| 26>  H        1.9361630000    -1.9323340000     3.7630730000
| 27> *
| 28>
| 29>                          ****END OF INPUT****
 Total Charge           Charge          ....    0
 Multiplicity           Mult            ....    1
 Number of Electrons    NEL             ....   54
 Basis Dimension        Dim             ....  138

MULLIKEN ATOMIC CHARGES
-----------------------
   0 C :    0.154218
   1 O :   -0.285070
   2 C :    0.009091
   3 C :    0.146615
   4 C :   -0.047444
   5 C :    0.192121
   6 O :   -0.343874
   7 H :    0.033516
   8 H :    0.023116
   9 H :    0.017127
  10 H :    0.014290
  11 H :    0.017554
  12 H :    0.031234
  13 H :    0.018042
  14 H :    0.019464
Sum of atomic charges:   -0.0000000

LOEWDIN ATOMIC CHARGES
----------------------
   0 C :    0.059752
   1 O :   -0.147829
   2 C :    0.015484
   3 C :    0.061484
   4 C :   -0.049191
   5 C :    0.087046
   6 O :   -0.170279
   7 H :    0.016320
   8 H :    0.013472
   9 H :    0.017114
  10 H :    0.018893
  11 H :    0.026818
  12 H :    0.028445
  13 H :    0.010682
  14 H :    0.011790

  Mayer bond orders larger than 0.1
B(  0-C ,  1-O ) :   1.0034 B(  0-C ,  2-C ) :   1.1070 B(  0-C ,  7-H ) :   0.9208
B(  0-C ,  8-H ) :   0.9334 B(  1-O ,  2-C ) :   0.9849 B(  2-C ,  3-C ) :   0.9949
B(  2-C ,  9-H ) :   0.9242 B(  3-C ,  4-C ) :   1.0852 B(  3-C ,  6-O ) :   1.0680
B(  3-C , 10-H ) :   0.8923 B(  4-C ,  5-C ) :   1.1119 B(  4-C , 11-H ) :   0.9305
B(  4-C , 12-H ) :   0.9339 B(  5-C ,  6-O ) :   1.0183 B(  5-C , 13-H ) :   0.9419
B(  5-C , 14-H ) :   0.9367

FINAL SINGLE POINT ENERGY      -345.034191634741

DIPOLE MOMENT
-------------
                                X             Y             Z
Electronic contribution:      1.89770      -1.22281      -3.56687
Nuclear contribution   :     -2.49841       1.82990       4.45707
                        -----------------------------------------
Total Dipole Moment    :     -0.60070       0.60709       0.89020
                        -----------------------------------------
Magnitude (a.u.)       :      1.23364
Magnitude (Debye)      :      3.13566

                             ****ORCA TERMINATED NORMALLY****
TOTAL RUN TIME: 0 days 0 hours 0 minutes 6 seconds 604 msec
