                         Program Version 3.0.3 - RELEASE   -
|  1> ! RI PBE def2-SVP def2-SVP/J NBO PAL2
|  2> % maxcore 2000
|  3> % output
|  4>     # printlevel mini
|  5>     print[ P_Basis ] 0
|  6>     print[ P_SCFInfo ] 1
|  7>     print[ P_SCFIterInfo ] 1
|  8>     print[ P_OrbEn ] 0
|  9>     print[ P_Cartesian ] 0
| 10> end
| 11> *xyz 0 1
| 12>  C        2.0719580000    -0.1161600000    -0.0147530000
| 13>  C        0.7335780000    -0.8150300000     0.1629590000
| 14>  C       -0.4162740000    -1.4765810000    -0.5539080000
| 15>  C       -1.5239340000    -0.4732580000    -0.2363160000
| 16>  C       -1.3192320000     0.7735890000     0.2280800000
| 17>  O       -0.1085250000     1.4152920000     0.3675980000
| 18>  C        0.7888480000     0.5800590000    -0.3135750000
| 19>  H        2.7159690000    -0.2619200000    -0.8757550000
| 20>  H        2.6014870000     0.0293840000     0.9187930000
| 21>  H        0.5217500000    -0.8104950000     1.2305270000
| 22>  H       -0.6739800000    -2.4651590000    -0.1601390000
| 23>  H       -0.2577120000    -1.5900840000    -1.6310720000
| 24>  H       -2.5592510000    -0.7930880000    -0.2897850000
| 25>  H       -2.1390510000     1.4165250000     0.5250750000
| 26>  H        0.6248710000     0.6723260000    -1.3861380000
| 27> *
| 28>
| 29>                          ****END OF INPUT****
 Total Charge           Charge          ....    0
 Multiplicity           Mult            ....    1
 Number of Electrons    NEL             ....   52
 Basis Dimension        Dim             ....  138

MULLIKEN ATOMIC CHARGES
-----------------------
   0 C :    0.064606
   1 C :   -0.193107
   2 C :    0.207392
   3 C :   -0.188957
   4 C :    0.138843
   5 O :   -0.232601
   6 C :    0.033107
   7 H :    0.030430
   8 H :    0.031643
   9 H :    0.047756
  10 H :    0.007000
  11 H :    0.020539
  12 H :    0.000283
  13 H :    0.000534
  14 H :    0.032532
Sum of atomic charges:   -0.0000000

LOEWDIN ATOMIC CHARGES
----------------------
   0 C :   -0.021791
   1 C :   -0.072100
   2 C :   -0.025909
   3 C :   -0.111797
   4 C :    0.033676
   5 O :   -0.073716
   6 C :    0.028480
   7 H :    0.034498
   8 H :    0.039262
   9 H :    0.037505
  10 H :    0.028198
  11 H :    0.031865
  12 H :    0.027538
  13 H :    0.023166
  14 H :    0.021125

  Mayer bond orders larger than 0.1
B(  0-C ,  1-C ) :   1.0072 B(  0-C ,  6-C ) :   1.0495 B(  0-C ,  7-H ) :   0.9173
B(  0-C ,  8-H ) :   0.9135 B(  1-C ,  2-C ) :   1.0809 B(  1-C ,  6-C ) :   0.9085
B(  1-C ,  9-H ) :   0.9426 B(  2-C ,  3-C ) :   1.0100 B(  2-C , 10-H ) :   0.9092
B(  2-C , 11-H ) :   0.9122 B(  3-C ,  4-C ) :   1.8009 B(  3-C ,  5-O ) :   0.1028
B(  3-C , 12-H ) :   0.9395 B(  4-C ,  5-O ) :   1.1202 B(  4-C , 13-H ) :   0.9663
B(  5-O ,  6-C ) :   1.0088 B(  6-C , 14-H ) :   0.9506

FINAL SINGLE POINT ENERGY      -307.953251854271

DIPOLE MOMENT
-------------
                                X             Y             Z
Electronic contribution:     -0.45801       3.25264       1.03643
Nuclear contribution   :      0.53625      -3.58287      -1.20483
                        -----------------------------------------
Total Dipole Moment    :      0.07824      -0.33023      -0.16840
                        -----------------------------------------
Magnitude (a.u.)       :      0.37885
Magnitude (Debye)      :      0.96296

                             ****ORCA TERMINATED NORMALLY****
TOTAL RUN TIME: 0 days 0 hours 0 minutes 6 seconds 786 msec
