                         Program Version 3.0.3 - RELEASE   -
|  1> ! RI PBE def2-SVP def2-SVP/J NBO PAL2
|  2> % maxcore 2000
|  3> % output
|  4>     # printlevel mini
|  5>     print[ P_Basis ] 0
|  6>     print[ P_SCFInfo ] 1
|  7>     print[ P_SCFIterInfo ] 1
|  8>     print[ P_OrbEn ] 0
|  9>     print[ P_Cartesian ] 0
| 10> end
| 11> *xyz 0 1
| 12>  C       -1.4923110000     0.7580560000     0.0698680000
| 13>  C       -1.4932590000    -0.7582170000    -0.0724480000
| 14>  C       -0.2218290000    -1.4311290000     0.4164050000
| 15>  O        0.8694560000    -1.0913000000    -0.4216840000
| 16>  C        1.6269960000    -0.0025010000     0.0042310000
| 17>  O        0.8697110000     1.0876310000     0.4272950000
| 18>  C       -0.2181580000     1.4290170000    -0.4145790000
| 19>  H       -1.6224010000     1.0339900000     1.1219450000
| 20>  H       -2.3451240000     1.1797250000    -0.4730810000
| 21>  H       -1.6201400000    -1.0339520000    -1.1249680000
| 22>  H       -2.3486040000    -1.1785470000     0.4675480000
| 23>  H       -0.3284500000    -2.5173140000     0.3565830000
| 24>  H       -0.0061760000    -1.1685010000     1.4596350000
| 25>  H        2.2594190000     0.2528060000    -0.8563910000
| 26>  H        2.2557240000    -0.2588660000     0.8672460000
| 27>  H        0.0007080000     1.1660520000    -1.4570540000
| 28>  H       -0.3233730000     2.5153610000    -0.3551480000
| 29> *
| 30>
| 31>                          ****END OF INPUT****
 Total Charge           Charge          ....    0
 Multiplicity           Mult            ....    1
 Number of Electrons    NEL             ....   56
 Basis Dimension        Dim             ....  148

MULLIKEN ATOMIC CHARGES
-----------------------
   0 C :   -0.009665
   1 C :   -0.009700
   2 C :    0.143236
   3 O :   -0.347552
   4 C :    0.315135
   5 O :   -0.347572
   6 C :    0.143224
   7 H :    0.013639
   8 H :    0.008243
   9 H :    0.013678
  10 H :    0.008169
  11 H :    0.020573
  12 H :    0.007886
  13 H :    0.006129
  14 H :    0.006136
  15 H :    0.007844
  16 H :    0.020596
Sum of atomic charges:   -0.0000000

LOEWDIN ATOMIC CHARGES
----------------------
   0 C :   -0.057782
   1 C :   -0.057778
   2 C :    0.058105
   3 O :   -0.150352
   4 C :    0.117794
   5 O :   -0.150383
   6 C :    0.058097
   7 H :    0.026841
   8 H :    0.029190
   9 H :    0.026846
  10 H :    0.029174
  11 H :    0.022113
  12 H :    0.011348
  13 H :    0.001669
  14 H :    0.001665
  15 H :    0.011334
  16 H :    0.022119

  Mayer bond orders larger than 0.1
B(  0-C ,  1-C ) :   1.1060 B(  0-C ,  6-C ) :   1.0961 B(  0-C ,  7-H ) :   0.9271
B(  0-C ,  8-H ) :   0.9222 B(  1-C ,  2-C ) :   1.0961 B(  1-C ,  9-H ) :   0.9271
B(  1-C , 10-H ) :   0.9222 B(  2-C ,  3-O ) :   0.9833 B(  2-C , 11-H ) :   0.9394
B(  2-C , 12-H ) :   0.9217 B(  3-O ,  4-C ) :   1.0368 B(  4-C ,  5-O ) :   1.0367
B(  4-C , 13-H ) :   0.9411 B(  4-C , 14-H ) :   0.9411 B(  5-O ,  6-C ) :   0.9833
B(  6-C , 15-H ) :   0.9217 B(  6-C , 16-H ) :   0.9394

FINAL SINGLE POINT ENERGY      -346.294410103051

DIPOLE MOMENT
-------------
                                X             Y             Z
Electronic contribution:      3.61557      -0.00261       0.00605
Nuclear contribution   :     -3.99511       0.00282      -0.00670
                        -----------------------------------------
Total Dipole Moment    :     -0.37954       0.00022      -0.00065
                        -----------------------------------------
Magnitude (a.u.)       :      0.37954
Magnitude (Debye)      :      0.96471

                             ****ORCA TERMINATED NORMALLY****
TOTAL RUN TIME: 0 days 0 hours 0 minutes 7 seconds 495 msec
