                         Program Version 3.0.3 - RELEASE   -
|  1> ! RI PBE def2-SVP def2-SVP/J NBO PAL2
|  2> % maxcore 2000
|  3> % output
|  4>     # printlevel mini
|  5>     print[ P_Basis ] 0
|  6>     print[ P_SCFInfo ] 1
|  7>     print[ P_SCFIterInfo ] 1
|  8>     print[ P_OrbEn ] 0
|  9>     print[ P_Cartesian ] 0
| 10> end
| 11> *xyz 0 1
| 12>  C        1.9289670000     0.0443320000    -0.5850580000
| 13>  C        1.6095810000    -0.1339620000     0.8824890000
| 14>  C        0.5239750000     0.0884280000    -0.1267000000
| 15>  C       -0.3594540000     1.3232940000    -0.1169990000
| 16>  C       -1.7782010000     0.7347390000     0.0043100000
| 17>  C       -1.5192320000    -0.7608630000     0.1859480000
| 18>  O       -0.2862140000    -1.0033910000    -0.4632190000
| 19>  H        2.2375070000    -0.8363830000    -1.1345220000
| 20>  H        2.3916850000     0.9702880000    -0.9053370000
| 21>  H        1.8603800000     0.6694200000     1.5654870000
| 22>  H        1.7075600000    -1.1341060000     1.2864160000
| 23>  H       -0.2481690000     1.8904170000    -1.0436360000
| 24>  H       -0.1087990000     1.9872770000     0.7116330000
| 25>  H       -2.3464560000     0.9130820000    -0.9099990000
| 26>  H       -2.3444100000     1.1569600000     0.8357880000
| 27>  H       -2.2736860000    -1.4009660000    -0.2727740000
| 28>  H       -1.4411340000    -1.0168660000     1.2523620000
| 29> *
| 30>
| 31>                          ****END OF INPUT****
 Total Charge           Charge          ....    0
 Multiplicity           Mult            ....    1
 Number of Electrons    NEL             ....   54
 Basis Dimension        Dim             ....  148

MULLIKEN ATOMIC CHARGES
-----------------------
   0 C :   -0.013568
   1 C :   -0.012122
   2 C :   -0.147697
   3 C :    0.142317
   4 C :   -0.072314
   5 C :    0.239053
   6 O :   -0.313844
   7 H :    0.041113
   8 H :    0.028947
   9 H :    0.027792
  10 H :    0.029447
  11 H :    0.013812
  12 H :    0.001780
  13 H :    0.022248
  14 H :    0.013777
  15 H :    0.014009
  16 H :   -0.014750
Sum of atomic charges:   -0.0000000

LOEWDIN ATOMIC CHARGES
----------------------
   0 C :   -0.046837
   1 C :   -0.058165
   2 C :    0.008017
   3 C :   -0.035509
   4 C :   -0.054064
   5 C :    0.066707
   6 O :   -0.131858
   7 H :    0.034999
   8 H :    0.027769
   9 H :    0.022684
  10 H :    0.029485
  11 H :    0.029145
  12 H :    0.028501
  13 H :    0.028292
  14 H :    0.027721
  15 H :    0.019405
  16 H :    0.003709

  Mayer bond orders larger than 0.1
B(  0-C ,  1-C ) :   1.0365 B(  0-C ,  2-C ) :   0.9908 B(  0-C ,  7-H ) :   0.9311
B(  0-C ,  8-H ) :   0.9419 B(  1-C ,  2-C ) :   0.9740 B(  1-C ,  9-H ) :   0.9377
B(  1-C , 10-H ) :   0.9319 B(  2-C ,  3-C ) :   1.0401 B(  2-C ,  6-O ) :   1.0684
B(  3-C ,  4-C ) :   1.1393 B(  3-C , 11-H ) :   0.9158 B(  3-C , 12-H ) :   0.9057
B(  4-C ,  5-C ) :   1.1354 B(  4-C , 13-H ) :   0.9243 B(  4-C , 14-H ) :   0.9215
B(  5-C ,  6-O ) :   1.0014 B(  5-C , 15-H ) :   0.9483 B(  5-C , 16-H ) :   0.9118

FINAL SINGLE POINT ENERGY      -309.211587336459

DIPOLE MOMENT
-------------
                                X             Y             Z
Electronic contribution:      0.28589      -2.29342      -1.35767
Nuclear contribution   :     -0.50826       2.72443       1.58818
                        -----------------------------------------
Total Dipole Moment    :     -0.22238       0.43101       0.23051
                        -----------------------------------------
Magnitude (a.u.)       :      0.53699
Magnitude (Debye)      :      1.36491

                             ****ORCA TERMINATED NORMALLY****
TOTAL RUN TIME: 0 days 0 hours 0 minutes 7 seconds 691 msec
