                         Program Version 3.0.3 - RELEASE   -
|  1> ! RI PBE def2-SVP def2-SVP/J NBO PAL2
|  2> % maxcore 2000
|  3> % output
|  4>     # printlevel mini
|  5>     print[ P_Basis ] 0
|  6>     print[ P_SCFInfo ] 1
|  7>     print[ P_SCFIterInfo ] 1
|  8>     print[ P_OrbEn ] 0
|  9>     print[ P_Cartesian ] 0
| 10> end
| 11> *xyz 0 1
| 12>  C       -1.6503660000     0.8524860000     0.5158070000
| 13>  C       -1.1439120000    -0.3067590000    -0.2946240000
| 14>  C       -0.3164960000    -1.4005290000     0.3386710000
| 15>  C        1.0812480000    -1.3604930000    -0.2760910000
| 16>  C        1.6987990000     0.0426760000    -0.1305270000
| 17>  O        0.7820210000     1.0026010000     0.3747480000
| 18>  C       -0.4235430000     1.0076340000    -0.3142030000
| 19>  H       -1.5071900000     0.8199120000     1.5894590000
| 20>  H       -2.5516540000     1.3536030000     0.1851790000
| 21>  H       -1.7115030000    -0.5814250000    -1.1774760000
| 22>  H       -0.7740870000    -2.3795190000     0.1801150000
| 23>  H       -0.2536250000    -1.2510830000     1.4194780000
| 24>  H        1.0028700000    -1.6287550000    -1.3336430000
| 25>  H        1.7329680000    -2.1048000000     0.1884730000
| 26>  H        2.1054500000     0.3889820000    -1.0901100000
| 27>  H        2.5186030000     0.0361010000     0.5900080000
| 28>  H       -0.4484730000     1.6395800000    -1.2006640000
| 29> *
| 30>
| 31>                          ****END OF INPUT****
 Total Charge           Charge          ....    0
 Multiplicity           Mult            ....    1
 Number of Electrons    NEL             ....   54
 Basis Dimension        Dim             ....  148

MULLIKEN ATOMIC CHARGES
-----------------------
   0 C :    0.022956
   1 C :   -0.164883
   2 C :    0.084715
   3 C :   -0.061795
   4 C :    0.211654
   5 O :   -0.306809
   6 C :    0.071747
   7 H :    0.037076
   8 H :    0.023711
   9 H :    0.016709
  10 H :    0.012781
  11 H :    0.013711
  12 H :    0.009925
  13 H :    0.014386
  14 H :   -0.009901
  15 H :    0.017981
  16 H :    0.006036
Sum of atomic charges:   -0.0000000

LOEWDIN ATOMIC CHARGES
----------------------
   0 C :   -0.046145
   1 C :   -0.057662
   2 C :   -0.030456
   3 C :   -0.060687
   4 C :    0.066306
   5 O :   -0.131041
   6 C :    0.034328
   7 H :    0.031752
   8 H :    0.028711
   9 H :    0.024217
  10 H :    0.029466
  11 H :    0.028881
  12 H :    0.023129
  13 H :    0.026882
  14 H :    0.005287
  15 H :    0.021022
  16 H :    0.006011

  Mayer bond orders larger than 0.1
B(  0-C ,  1-C ) :   1.0053 B(  0-C ,  6-C ) :   0.9998 B(  0-C ,  7-H ) :   0.9275
B(  0-C ,  8-H ) :   0.9339 B(  1-C ,  2-C ) :   1.0737 B(  1-C ,  6-C ) :   0.9453
B(  1-C ,  9-H ) :   0.9395 B(  2-C ,  3-C ) :   1.0882 B(  2-C , 10-H ) :   0.9341
B(  2-C , 11-H ) :   0.9197 B(  3-C ,  4-C ) :   1.0694 B(  3-C , 12-H ) :   0.9349
B(  3-C , 13-H ) :   0.9320 B(  4-C ,  5-O ) :   1.0244 B(  4-C , 14-H ) :   0.9383
B(  4-C , 15-H ) :   0.9489 B(  5-O ,  6-C ) :   1.1015 B(  6-C , 16-H ) :   0.9388

FINAL SINGLE POINT ENERGY      -309.208952434622

DIPOLE MOMENT
-------------
                                X             Y             Z
Electronic contribution:      0.16452       2.87858       0.60983
Nuclear contribution   :     -0.22353      -3.30166      -0.92978
                        -----------------------------------------
Total Dipole Moment    :     -0.05900      -0.42308      -0.31994
                        -----------------------------------------
Magnitude (a.u.)       :      0.53371
Magnitude (Debye)      :      1.35657

                             ****ORCA TERMINATED NORMALLY****
TOTAL RUN TIME: 0 days 0 hours 0 minutes 7 seconds 812 msec
