                         Program Version 3.0.3 - RELEASE   -
|  1> ! RI PBE def2-SVP def2-SVP/J NBO PAL2
|  2> % maxcore 2000
|  3> % output
|  4>     # printlevel mini
|  5>     print[ P_Basis ] 0
|  6>     print[ P_SCFInfo ] 1
|  7>     print[ P_SCFIterInfo ] 1
|  8>     print[ P_OrbEn ] 0
|  9>     print[ P_Cartesian ] 0
| 10> end
| 11> *xyz 0 1
| 12>  C       -1.3782600000     0.7773980000     0.5871430000
| 13>  C       -1.1489650000    -0.3151370000    -0.4246650000
| 14>  O       -0.3636220000    -1.3952580000    -0.0251760000
| 15>  C        0.9755810000    -1.2670840000    -0.4590930000
| 16>  C        1.5682420000     0.0230550000     0.0474700000
| 17>  O        0.8970080000     1.1447290000    -0.4918760000
| 18>  C       -0.4838540000     1.0132730000    -0.5936610000
| 19>  H       -0.9140820000     0.6101140000     1.5512650000
| 20>  H       -2.3344460000     1.2851960000     0.6169150000
| 21>  H       -1.9548600000    -0.5969610000    -1.0970480000
| 22>  H        1.0322220000    -1.3018820000    -1.5559850000
| 23>  H        1.5182230000    -2.1225070000    -0.0523310000
| 24>  H        2.6131970000     0.1178170000    -0.2560520000
| 25>  H        1.5249010000     0.0377230000     1.1454880000
| 26>  H       -0.8566960000     1.6661230000    -1.3739070000
| 27> *
| 28>
| 29>                          ****END OF INPUT****
 Total Charge           Charge          ....    0
 Multiplicity           Mult            ....    1
 Number of Electrons    NEL             ....   54
 Basis Dimension        Dim             ....  138

MULLIKEN ATOMIC CHARGES
-----------------------
   0 C :   -0.005335
   1 C :    0.035463
   2 O :   -0.308309
   3 C :    0.167375
   4 C :    0.140519
   5 O :   -0.301423
   6 C :    0.078054
   7 H :    0.037442
   8 H :    0.031853
   9 H :    0.022723
  10 H :    0.010082
  11 H :    0.021393
  12 H :    0.020799
  13 H :    0.019222
  14 H :    0.030143
Sum of atomic charges:   -0.0000000

LOEWDIN ATOMIC CHARGES
----------------------
   0 C :   -0.075673
   1 C :    0.024760
   2 O :   -0.128463
   3 C :    0.048638
   4 C :    0.043744
   5 O :   -0.124300
   6 C :    0.028456
   7 H :    0.034511
   8 H :    0.031030
   9 H :    0.014399
  10 H :    0.011783
  11 H :    0.027957
  12 H :    0.027708
  13 H :    0.010861
  14 H :    0.024589

  Mayer bond orders larger than 0.1
B(  0-C ,  1-C ) :   0.9511 B(  0-C ,  6-C ) :   0.9622 B(  0-C ,  7-H ) :   0.9250
B(  0-C ,  8-H ) :   0.9322 B(  1-C ,  2-O ) :   1.0670 B(  1-C ,  6-C ) :   0.9527
B(  1-C ,  9-H ) :   0.9418 B(  2-O ,  3-C ) :   1.0060 B(  3-C ,  4-C ) :   1.0843
B(  3-C , 10-H ) :   0.9225 B(  3-C , 11-H ) :   0.9367 B(  4-C ,  5-O ) :   1.0026
B(  4-C , 12-H ) :   0.9321 B(  4-C , 13-H ) :   0.9260 B(  5-O ,  6-C ) :   1.0711
B(  6-C , 14-H ) :   0.9498

FINAL SINGLE POINT ENERGY      -345.053698852179

DIPOLE MOMENT
-------------
                                X             Y             Z
Electronic contribution:     -0.23662       0.10120      -0.62175
Nuclear contribution   :      0.32994      -0.17378       0.49583
                        -----------------------------------------
Total Dipole Moment    :      0.09332      -0.07259      -0.12592
                        -----------------------------------------
Magnitude (a.u.)       :      0.17273
Magnitude (Debye)      :      0.43904

                             ****ORCA TERMINATED NORMALLY****
TOTAL RUN TIME: 0 days 0 hours 0 minutes 6 seconds 479 msec
