                         Program Version 3.0.3 - RELEASE   -
|  1> ! RI PBE def2-SVP def2-SVP/J NBO PAL2
|  2> % maxcore 2000
|  3> % output
|  4>     # printlevel mini
|  5>     print[ P_Basis ] 0
|  6>     print[ P_SCFInfo ] 1
|  7>     print[ P_SCFIterInfo ] 1
|  8>     print[ P_OrbEn ] 0
|  9>     print[ P_Cartesian ] 0
| 10> end
| 11> *xyz 0 1
| 12>  C        1.8683370000     0.0205970000    -0.6534780000
| 13>  C        1.5795680000    -0.0400400000     0.8454980000
| 14>  C        0.4837120000     0.0017580000    -0.1662700000
| 15>  O       -0.3154750000     1.1412560000    -0.2728960000
| 16>  C       -1.6622910000     0.7257330000    -0.0991890000
| 17>  C       -1.5461480000    -0.7633920000     0.2126450000
| 18>  O       -0.3126070000    -1.1096480000    -0.3881550000
| 19>  H        2.2420710000    -0.8760430000    -1.1315240000
| 20>  H        2.2377000000     0.9552040000    -1.0558800000
| 21>  H        1.7679050000     0.8555490000     1.4241460000
| 22>  H        1.7689120000    -0.9795860000     1.3498270000
| 23>  H       -2.2126040000     0.9083640000    -1.0272190000
| 24>  H       -2.1294160000     1.2907610000     0.7118100000
| 25>  H       -2.3334260000    -1.3714660000    -0.2316460000
| 26>  H       -1.5104300000    -0.9439460000     1.2945310000
| 27> *
| 28>
| 29>                          ****END OF INPUT****
 Total Charge           Charge          ....    0
 Multiplicity           Mult            ....    1
 Number of Electrons    NEL             ....   54
 Basis Dimension        Dim             ....  138

MULLIKEN ATOMIC CHARGES
-----------------------
   0 C :   -0.048196
   1 C :   -0.037983
   2 C :    0.125109
   3 O :   -0.314228
   4 C :    0.164949
   5 C :    0.167990
   6 O :   -0.298085
   7 H :    0.047950
   8 H :    0.045083
   9 H :    0.038146
  10 H :    0.034614
  11 H :    0.020854
  12 H :    0.018721
  13 H :    0.026648
  14 H :    0.008427
Sum of atomic charges:   -0.0000000

LOEWDIN ATOMIC CHARGES
----------------------
   0 C :   -0.051832
   1 C :   -0.070182
   2 C :    0.058067
   3 O :   -0.136351
   4 C :    0.057705
   5 C :    0.055857
   6 O :   -0.117568
   7 H :    0.036435
   8 H :    0.036857
   9 H :    0.030473
  10 H :    0.030038
  11 H :    0.015545
  12 H :    0.017566
  13 H :    0.026245
  14 H :    0.011148

  Mayer bond orders larger than 0.1
B(  0-C ,  1-C ) :   1.0115 B(  0-C ,  2-C ) :   1.0099 B(  0-C ,  7-H ) :   0.9356
B(  0-C ,  8-H ) :   0.9317 B(  1-C ,  2-C ) :   0.9769 B(  1-C ,  9-H ) :   0.9325
B(  1-C , 10-H ) :   0.9333 B(  2-C ,  3-O ) :   1.0662 B(  2-C ,  6-O ) :   1.0829
B(  3-O ,  4-C ) :   1.0006 B(  4-C ,  5-C ) :   1.0947 B(  4-C , 11-H ) :   0.9384
B(  4-C , 12-H ) :   0.9369 B(  5-C ,  6-O ) :   0.9962 B(  5-C , 13-H ) :   0.9461
B(  5-C , 14-H ) :   0.9256

FINAL SINGLE POINT ENERGY      -345.062224286170

DIPOLE MOMENT
-------------
                                X             Y             Z
Electronic contribution:     -0.38631       0.04082      -1.51306
Nuclear contribution   :     -0.05272      -0.12654       1.81073
                        -----------------------------------------
Total Dipole Moment    :     -0.43903      -0.08571       0.29767
                        -----------------------------------------
Magnitude (a.u.)       :      0.53731
Magnitude (Debye)      :      1.36573

                             ****ORCA TERMINATED NORMALLY****
TOTAL RUN TIME: 0 days 0 hours 0 minutes 6 seconds 876 msec
