                         Program Version 3.0.3 - RELEASE   -
|  1> ! RI PBE def2-SVP def2-SVP/J NBO PAL2
|  2> % maxcore 2000
|  3> % output
|  4>     # printlevel mini
|  5>     print[ P_Basis ] 0
|  6>     print[ P_SCFInfo ] 1
|  7>     print[ P_SCFIterInfo ] 1
|  8>     print[ P_OrbEn ] 0
|  9>     print[ P_Cartesian ] 0
| 10> end
| 11> *xyz 0 1
| 12>  C        0.7970420000    -1.2419780000     0.5253900000
| 13>  C        1.6626810000    -0.0960170000     0.0216840000
| 14>  O        0.9393780000     0.9785990000    -0.5278650000
| 15>  C       -0.0806360000     1.4967390000     0.2885750000
| 16>  C       -1.3813500000     0.7558460000     0.1784670000
| 17>  C       -1.5269310000    -0.5238520000    -0.1476010000
| 18>  C       -0.4183220000    -1.5148490000    -0.3552410000
| 19>  H        0.4472490000    -1.0351770000     1.5419010000
| 20>  H        1.4286900000    -2.1339220000     0.5923910000
| 21>  H        2.3056220000    -0.4419180000    -0.7921990000
| 22>  H        2.3166150000     0.2597720000     0.8329240000
| 23>  H       -0.2381150000     2.5274210000    -0.0438820000
| 24>  H        0.2511890000     1.5585040000     1.3383770000
| 25>  H       -2.2727380000     1.3554090000     0.3468060000
| 26>  H       -2.5388110000    -0.9073510000    -0.2500210000
| 27>  H       -0.1233170000    -1.5384460000    -1.4120380000
| 28>  H       -0.8064570000    -2.5130010000    -0.1317580000
| 29> *
| 30>
| 31>                          ****END OF INPUT****
 Total Charge           Charge          ....    0
 Multiplicity           Mult            ....    1
 Number of Electrons    NEL             ....   54
 Basis Dimension        Dim             ....  148

MULLIKEN ATOMIC CHARGES
-----------------------
   0 C :   -0.084881
   1 C :    0.188551
   2 O :   -0.336917
   3 C :    0.233207
   4 C :   -0.088623
   5 C :   -0.084662
   6 C :    0.079984
   7 H :    0.020353
   8 H :    0.015584
   9 H :    0.012068
  10 H :   -0.000697
  11 H :    0.016939
  12 H :    0.007105
  13 H :   -0.006586
  14 H :   -0.006961
  15 H :    0.031600
  16 H :    0.003936
Sum of atomic charges:   -0.0000000

LOEWDIN ATOMIC CHARGES
----------------------
   0 C :   -0.064724
   1 C :    0.055394
   2 O :   -0.145183
   3 C :    0.054848
   4 C :   -0.068046
   5 C :   -0.038790
   6 C :   -0.043152
   7 H :    0.025136
   8 H :    0.032243
   9 H :    0.021233
  10 H :    0.005542
  11 H :    0.029317
  12 H :    0.014684
  13 H :    0.026681
  14 H :    0.025106
  15 H :    0.038716
  16 H :    0.030997

  Mayer bond orders larger than 0.1
B(  0-C ,  1-C ) :   1.0688 B(  0-C ,  6-C ) :   1.0736 B(  0-C ,  7-H ) :   0.9385
B(  0-C ,  8-H ) :   0.9210 B(  1-C ,  2-O ) :   1.0482 B(  1-C ,  9-H ) :   0.9407
B(  1-C , 10-H ) :   0.9390 B(  2-O ,  3-C ) :   1.0364 B(  3-C ,  4-C ) :   1.0180
B(  3-C , 11-H ) :   0.9283 B(  3-C , 12-H ) :   0.9110 B(  4-C ,  5-C ) :   1.9598
B(  4-C , 13-H ) :   0.9400 B(  5-C ,  6-C ) :   1.0506 B(  5-C , 14-H ) :   0.9516
B(  6-C , 15-H ) :   0.9130 B(  6-C , 16-H ) :   0.9196

FINAL SINGLE POINT ENERGY      -309.214476637166

DIPOLE MOMENT
-------------
                                X             Y             Z
Electronic contribution:     -0.34888       2.33205      -1.54595
Nuclear contribution   :      0.31260      -2.60634       1.91510
                        -----------------------------------------
Total Dipole Moment    :     -0.03628      -0.27430       0.36914
                        -----------------------------------------
Magnitude (a.u.)       :      0.46133
Magnitude (Debye)      :      1.17260

                             ****ORCA TERMINATED NORMALLY****
TOTAL RUN TIME: 0 days 0 hours 0 minutes 7 seconds 719 msec
