                         Program Version 3.0.3 - RELEASE   -
|  1> ! RI PBE def2-SVP def2-SVP/J NBO PAL2
|  2> % maxcore 2000
|  3> % output
|  4>     # printlevel mini
|  5>     print[ P_Basis ] 0
|  6>     print[ P_SCFInfo ] 1
|  7>     print[ P_SCFIterInfo ] 1
|  8>     print[ P_OrbEn ] 0
|  9>     print[ P_Cartesian ] 0
| 10> end
| 11> *xyz 0 1
| 12>  C        1.6241610000    -0.1128590000    -0.0647380000
| 13>  C        0.7080380000    -1.1647010000     0.5205650000
| 14>  O       -0.4222530000    -1.4511090000    -0.2843090000
| 15>  C       -1.4316080000    -0.5561360000    -0.1765020000
| 16>  C       -1.3387970000     0.7220970000     0.1819560000
| 17>  C       -0.0672310000     1.5005770000     0.3799860000
| 18>  O        0.9793520000     1.0714610000    -0.4590320000
| 19>  H        2.1106460000    -0.4971990000    -0.9646120000
| 20>  H        2.4090770000     0.0934750000     0.6818280000
| 21>  H        0.3574520000    -0.8733890000     1.5174670000
| 22>  H        1.2650490000    -2.0998600000     0.6195460000
| 23>  H       -2.3852390000    -1.0082340000    -0.4274770000
| 24>  H       -2.2703310000     1.2725070000     0.2510360000
| 25>  H        0.2531380000     1.5111670000     1.4336580000
| 26>  H       -0.2521650000     2.5418120000     0.1052190000
| 27> *
| 28>
| 29>                          ****END OF INPUT****
 Total Charge           Charge          ....    0
 Multiplicity           Mult            ....    1
 Number of Electrons    NEL             ....   54
 Basis Dimension        Dim             ....  138

MULLIKEN ATOMIC CHARGES
-----------------------
   0 C :    0.197514
   1 C :    0.098310
   2 O :   -0.266465
   3 C :    0.121368
   4 C :   -0.159334
   5 C :    0.240571
   6 O :   -0.339277
   7 H :    0.019686
   8 H :    0.002342
   9 H :    0.022306
  10 H :    0.027629
  11 H :    0.005706
  12 H :    0.001631
  13 H :    0.007666
  14 H :    0.020347
Sum of atomic charges:   -0.0000000

LOEWDIN ATOMIC CHARGES
----------------------
   0 C :    0.043597
   1 C :    0.045843
   2 O :   -0.077905
   3 C :    0.031965
   4 C :   -0.139307
   5 C :    0.057012
   6 O :   -0.145174
   7 H :    0.025635
   8 H :    0.012029
   9 H :    0.017929
  10 H :    0.031588
  11 H :    0.022639
  12 H :    0.033211
  13 H :    0.009785
  14 H :    0.031155

  Mayer bond orders larger than 0.1
B(  0-C ,  1-C ) :   1.0698 B(  0-C ,  6-O ) :   1.0507 B(  0-C ,  7-H ) :   0.9309
B(  0-C ,  8-H ) :   0.9232 B(  1-C ,  2-O ) :   0.9740 B(  1-C ,  9-H ) :   0.9307
B(  1-C , 10-H ) :   0.9319 B(  2-O ,  3-C ) :   1.1439 B(  3-C ,  4-C ) :   1.8216
B(  3-C , 11-H ) :   0.9656 B(  4-C ,  5-C ) :   1.0134 B(  4-C , 12-H ) :   0.9351
B(  5-C ,  6-O ) :   1.0418 B(  5-C , 13-H ) :   0.9190 B(  5-C , 14-H ) :   0.9329

FINAL SINGLE POINT ENERGY      -345.065732622513

DIPOLE MOMENT
-------------
                                X             Y             Z
Electronic contribution:     -0.98152      -0.98808      -2.28412
Nuclear contribution   :      1.07713       0.91071       2.89736
                        -----------------------------------------
Total Dipole Moment    :      0.09561      -0.07736       0.61325
                        -----------------------------------------
Magnitude (a.u.)       :      0.62546
Magnitude (Debye)      :      1.58979

                             ****ORCA TERMINATED NORMALLY****
TOTAL RUN TIME: 0 days 0 hours 0 minutes 6 seconds 682 msec
