                         Program Version 3.0.3 - RELEASE   -
|  1> ! RI PBE def2-SVP def2-SVP/J NBO PAL2
|  2> % maxcore 2000
|  3> % output
|  4>     # printlevel mini
|  5>     print[ P_Basis ] 0
|  6>     print[ P_SCFInfo ] 1
|  7>     print[ P_SCFIterInfo ] 1
|  8>     print[ P_OrbEn ] 0
|  9>     print[ P_Cartesian ] 0
| 10> end
| 11> *xyz 0 1
| 12>  C       -1.4348460000     0.7139980000     0.1223550000
| 13>  C       -1.4474980000    -0.7844180000    -0.1168740000
| 14>  O       -0.2862530000    -1.4523050000     0.3225180000
| 15>  C        0.8419170000    -1.1655820000    -0.4625060000
| 16>  C        1.6547900000     0.0225630000     0.0219360000
| 17>  O        0.9392610000     1.2050260000     0.2905240000
| 18>  C       -0.2304690000     1.4440570000    -0.4539860000
| 19>  H       -1.4632760000     0.9184250000     1.1968640000
| 20>  H       -2.3495800000     1.1340560000    -0.3133590000
| 21>  H       -1.5964200000    -0.9864690000    -1.1899800000
| 22>  H       -2.2800960000    -1.2429620000     0.4217920000
| 23>  H        0.5392820000    -1.0296520000    -1.5104490000
| 24>  H        1.4986140000    -2.0417590000    -0.4325250000
| 25>  H        2.4378360000     0.2098420000    -0.7307250000
| 26>  H        2.1529010000    -0.2361820000     0.9601800000
| 27>  H       -0.0902950000     1.2061210000    -1.5187970000
| 28>  H       -0.3989380000     2.5221490000    -0.3903680000
| 29> *
| 30>
| 31>                          ****END OF INPUT****
 Total Charge           Charge          ....    0
 Multiplicity           Mult            ....    1
 Number of Electrons    NEL             ....   56
 Basis Dimension        Dim             ....  148

MULLIKEN ATOMIC CHARGES
-----------------------
   0 C :   -0.026888
   1 C :    0.171752
   2 O :   -0.335668
   3 C :    0.114108
   4 C :    0.199713
   5 O :   -0.343703
   6 C :    0.143937
   7 H :    0.024587
   8 H :    0.000672
   9 H :   -0.008039
  10 H :    0.013898
  11 H :   -0.005515
  12 H :    0.021837
  13 H :    0.000035
  14 H :    0.014670
  15 H :   -0.006840
  16 H :    0.021443
Sum of atomic charges:   -0.0000000

LOEWDIN ATOMIC CHARGES
----------------------
   0 C :   -0.078008
   1 C :    0.057341
   2 O :   -0.142048
   3 C :    0.031394
   4 C :    0.042445
   5 O :   -0.148987
   6 C :    0.053779
   7 H :    0.031211
   8 H :    0.031043
   9 H :    0.003664
  10 H :    0.022975
  11 H :    0.003852
  12 H :    0.029043
  13 H :    0.010790
  14 H :    0.022504
  15 H :    0.003506
  16 H :    0.025495

  Mayer bond orders larger than 0.1
B(  0-C ,  1-C ) :   1.0907 B(  0-C ,  6-C ) :   1.0907 B(  0-C ,  7-H ) :   0.9120
B(  0-C ,  8-H ) :   0.9059 B(  1-C ,  2-O ) :   1.0236 B(  1-C ,  9-H ) :   0.9263
B(  1-C , 10-H ) :   0.9418 B(  2-O ,  3-C ) :   1.0308 B(  3-C ,  4-C ) :   1.0628
B(  3-C , 11-H ) :   0.9131 B(  3-C , 12-H ) :   0.9288 B(  4-C ,  5-O ) :   1.0309
B(  4-C , 13-H ) :   0.9250 B(  4-C , 14-H ) :   0.9327 B(  5-O ,  6-C ) :   1.0305
B(  6-C , 15-H ) :   0.9268 B(  6-C , 16-H ) :   0.9387

FINAL SINGLE POINT ENERGY      -346.280430906327

DIPOLE MOMENT
-------------
                                X             Y             Z
Electronic contribution:      1.38319      -0.49394       2.27441
Nuclear contribution   :     -1.58133       0.48905      -2.87545
                        -----------------------------------------
Total Dipole Moment    :     -0.19814      -0.00489      -0.60104
                        -----------------------------------------
Magnitude (a.u.)       :      0.63288
Magnitude (Debye)      :      1.60865

                             ****ORCA TERMINATED NORMALLY****
TOTAL RUN TIME: 0 days 0 hours 0 minutes 7 seconds 454 msec
