                         Program Version 3.0.3 - RELEASE   -
|  1> ! RI PBE def2-SVP def2-SVP/J NBO PAL2
|  2> % maxcore 2000
|  3> % output
|  4>     # printlevel mini
|  5>     print[ P_Basis ] 0
|  6>     print[ P_SCFInfo ] 1
|  7>     print[ P_SCFIterInfo ] 1
|  8>     print[ P_OrbEn ] 0
|  9>     print[ P_Cartesian ] 0
| 10> end
| 11> *xyz 0 1
| 12>  C        1.6608840000    -0.1224990000    -0.0447540000
| 13>  C        0.7255490000    -1.1626830000     0.5459540000
| 14>  O       -0.4057110000    -1.4234600000    -0.2729180000
| 15>  C       -1.4131020000    -0.5168790000    -0.1472180000
| 16>  C       -1.2998160000     0.7857560000     0.1148580000
| 17>  O       -0.1513290000     1.5085490000     0.2214270000
| 18>  C        0.9039890000     1.0623950000    -0.6184920000
| 19>  H        2.2672380000    -0.5594200000    -0.8443660000
| 20>  H        2.3483780000     0.2037110000     0.7419410000
| 21>  H        0.3724020000    -0.8380430000     1.5306630000
| 22>  H        1.2384160000    -2.1192300000     0.6646820000
| 23>  H       -2.3965400000    -0.9511890000    -0.2807220000
| 24>  H       -2.1931010000     1.3800080000     0.2648470000
| 25>  H        1.5688890000     1.9187580000    -0.7475960000
| 26>  H        0.4826650000     0.8045270000    -1.5961170000
| 27> *
| 28>
| 29>                          ****END OF INPUT****
 Total Charge           Charge          ....    0
 Multiplicity           Mult            ....    1
 Number of Electrons    NEL             ....   54
 Basis Dimension        Dim             ....  138

MULLIKEN ATOMIC CHARGES
-----------------------
   0 C :   -0.028575
   1 C :    0.148679
   2 O :   -0.286831
   3 C :    0.070989
   4 C :    0.072057
   5 O :   -0.284634
   6 C :    0.143958
   7 H :    0.022323
   8 H :    0.024259
   9 H :    0.028389
  10 H :    0.024146
  11 H :    0.004761
  12 H :    0.005682
  13 H :    0.025967
  14 H :    0.028830
Sum of atomic charges:   -0.0000000

LOEWDIN ATOMIC CHARGES
----------------------
   0 C :   -0.074418
   1 C :    0.068693
   2 O :   -0.097039
   3 C :   -0.036216
   4 C :   -0.036220
   5 O :   -0.097052
   6 C :    0.067707
   7 H :    0.032979
   8 H :    0.033418
   9 H :    0.019180
  10 H :    0.025420
  11 H :    0.024086
  12 H :    0.024371
  13 H :    0.025867
  14 H :    0.019224

  Mayer bond orders larger than 0.1
B(  0-C ,  1-C ) :   1.0977 B(  0-C ,  6-C ) :   1.0956 B(  0-C ,  7-H ) :   0.9220
B(  0-C ,  8-H ) :   0.9216 B(  1-C ,  2-O ) :   0.9917 B(  1-C ,  9-H ) :   0.9258
B(  1-C , 10-H ) :   0.9483 B(  2-O ,  3-C ) :   1.1109 B(  3-C ,  4-C ) :   1.7289
B(  3-C , 11-H ) :   0.9598 B(  4-C ,  5-O ) :   1.1130 B(  4-C , 12-H ) :   0.9590
B(  5-O ,  6-C ) :   0.9934 B(  6-C , 13-H ) :   0.9479 B(  6-C , 14-H ) :   0.9256

FINAL SINGLE POINT ENERGY      -345.070583753462

DIPOLE MOMENT
-------------
                                X             Y             Z
Electronic contribution:     -2.88865       0.24352       0.03032
Nuclear contribution   :      3.32096      -0.28159      -0.03343
                        -----------------------------------------
Total Dipole Moment    :      0.43231      -0.03807      -0.00311
                        -----------------------------------------
Magnitude (a.u.)       :      0.43399
Magnitude (Debye)      :      1.10312

                             ****ORCA TERMINATED NORMALLY****
TOTAL RUN TIME: 0 days 0 hours 0 minutes 6 seconds 731 msec
