                         Program Version 3.0.3 - RELEASE   -
|  1> ! RI PBE def2-SVP def2-SVP/J NBO PAL2
|  2> % maxcore 2000
|  3> % output
|  4>     # printlevel mini
|  5>     print[ P_Basis ] 0
|  6>     print[ P_SCFInfo ] 1
|  7>     print[ P_SCFIterInfo ] 1
|  8>     print[ P_OrbEn ] 0
|  9>     print[ P_Cartesian ] 0
| 10> end
| 11> *xyz 0 1
| 12>  C       -2.6257600000     0.2699910000     0.6296200000
| 13>  O       -2.3122720000     0.2326190000    -0.7539660000
| 14>  C       -1.2435080000     0.1651500000     0.1840940000
| 15>  C       -0.4416190000    -1.1284940000     0.2102660000
| 16>  C        0.9520510000    -0.6630450000    -0.0836620000
| 17>  C        1.0480630000     0.6625130000    -0.0977120000
| 18>  C       -0.2635470000     1.3300120000     0.1842080000
| 19>  H       -3.1357550000    -0.6105270000     1.0161920000
| 20>  H       -3.0029680000     1.2227580000     0.9967600000
| 21>  H       -0.8318780000    -1.8310840000    -0.5322800000
| 22>  H       -0.5012540000    -1.6260430000     1.1858560000
| 23>  H        1.7767490000    -1.3459940000    -0.2494230000
| 24>  H        1.9623070000     1.2158550000    -0.2765770000
| 25>  H       -0.5496310000     2.0656870000    -0.5735830000
| 26>  H       -0.2493780000     1.8514200000     1.1489960000
| 27> *
| 28>
| 29>                          ****END OF INPUT****
 Total Charge           Charge          ....    0
 Multiplicity           Mult            ....    1
 Number of Electrons    NEL             ....   52
 Basis Dimension        Dim             ....  138

MULLIKEN ATOMIC CHARGES
-----------------------
   0 C :    0.190182
   1 O :   -0.282977
   2 C :   -0.252530
   3 C :    0.180939
   4 C :   -0.068571
   5 C :   -0.070412
   6 C :    0.183488
   7 H :    0.016930
   8 H :    0.016105
   9 H :    0.026768
  10 H :    0.028227
  11 H :   -0.010472
  12 H :   -0.011899
  13 H :    0.026864
  14 H :    0.027357
Sum of atomic charges:   -0.0000000

LOEWDIN ATOMIC CHARGES
----------------------
   0 C :    0.057562
   1 O :   -0.151730
   2 C :    0.022751
   3 C :   -0.040526
   4 C :   -0.036897
   5 C :   -0.037099
   6 C :   -0.039803
   7 H :    0.014002
   8 H :    0.013924
   9 H :    0.039688
  10 H :    0.036634
  11 H :    0.022900
  12 H :    0.022536
  13 H :    0.039647
  14 H :    0.036411

  Mayer bond orders larger than 0.1
B(  0-C ,  1-O ) :   1.0084 B(  0-C ,  2-C ) :   1.0950 B(  0-C ,  7-H ) :   0.9266
B(  0-C ,  8-H ) :   0.9258 B(  1-O ,  2-C ) :   0.9711 B(  2-C ,  3-C ) :   1.0264
B(  2-C ,  6-C ) :   1.0243 B(  3-C ,  4-C ) :   1.0362 B(  3-C ,  9-H ) :   0.8953
B(  3-C , 10-H ) :   0.9060 B(  4-C ,  5-C ) :   1.8581 B(  4-C , 11-H ) :   0.9848
B(  5-C ,  6-C ) :   1.0379 B(  5-C , 12-H ) :   0.9851 B(  6-C , 13-H ) :   0.8958
B(  6-C , 14-H ) :   0.9058

FINAL SINGLE POINT ENERGY      -307.999375472953

DIPOLE MOMENT
-------------
                                X             Y             Z
Electronic contribution:     -1.14539       0.06524      -1.67658
Nuclear contribution   :      1.38448      -0.07589       2.30156
                        -----------------------------------------
Total Dipole Moment    :      0.23909      -0.01065       0.62498
                        -----------------------------------------
Magnitude (a.u.)       :      0.66924
Magnitude (Debye)      :      1.70107

                             ****ORCA TERMINATED NORMALLY****
TOTAL RUN TIME: 0 days 0 hours 0 minutes 6 seconds 909 msec
