                         Program Version 3.0.3 - RELEASE   -
|  1> ! RI PBE def2-SVP def2-SVP/J NBO PAL2
|  2> % maxcore 2000
|  3> % output
|  4>     # printlevel mini
|  5>     print[ P_Basis ] 0
|  6>     print[ P_SCFInfo ] 1
|  7>     print[ P_SCFIterInfo ] 1
|  8>     print[ P_OrbEn ] 0
|  9>     print[ P_Cartesian ] 0
| 10> end
| 11> *xyz 0 1
| 12>  C        1.1766920000     0.2331050000     0.2017480000
| 13>  C        1.1697720000     1.6281720000     0.7552130000
| 14>  C       -0.0473720000     2.4273550000     0.8241960000
| 15>  O        0.4832800000     1.8125810000     1.9867920000
| 16>  C        2.1715870000    -0.6409720000     0.9079790000
| 17>  C        2.9012330000    -1.6972370000     0.2174630000
| 18>  O        3.5337830000    -0.4690860000     0.5379240000
| 19>  H        1.4229510000     0.2653440000    -0.8647310000
| 20>  H        0.1751900000    -0.1974020000     0.3052650000
| 21>  H        2.1221420000     2.1539610000     0.7011320000
| 22>  H       -0.9814190000     2.0041040000     0.4604860000
| 23>  H        0.0149430000     3.5124410000     0.8013490000
| 24>  H        2.0186550000    -0.7451770000     1.9813570000
| 25>  H        2.7187980000    -1.8627460000    -0.8423450000
| 26>  H        3.2558750000    -2.5624410000     0.7719610000
| 27> *
| 28>
| 29>                          ****END OF INPUT****
 Total Charge           Charge          ....    0
 Multiplicity           Mult            ....    1
 Number of Electrons    NEL             ....   54
 Basis Dimension        Dim             ....  138

MULLIKEN ATOMIC CHARGES
-----------------------
   0 C :    0.187195
   1 C :   -0.041806
   2 C :    0.146452
   3 O :   -0.292399
   4 C :   -0.035111
   5 C :    0.146220
   6 O :   -0.293768
   7 H :    0.008710
   8 H :    0.006015
   9 H :    0.029549
  10 H :    0.020125
  11 H :    0.035878
  12 H :    0.030558
  13 H :    0.022459
  14 H :    0.029925
Sum of atomic charges:   -0.0000000

LOEWDIN ATOMIC CHARGES
----------------------
   0 C :   -0.053897
   1 C :    0.041804
   2 C :    0.054940
   3 O :   -0.159923
   4 C :    0.042763
   5 C :    0.055109
   6 O :   -0.160625
   7 H :    0.039038
   8 H :    0.038110
   9 H :    0.020599
  10 H :    0.013170
  11 H :    0.017743
  12 H :    0.020877
  13 H :    0.013447
  14 H :    0.016845

  Mayer bond orders larger than 0.1
B(  0-C ,  1-C ) :   1.0481 B(  0-C ,  4-C ) :   1.0452 B(  0-C ,  7-H ) :   0.8956
B(  0-C ,  8-H ) :   0.8988 B(  1-C ,  2-C ) :   1.0901 B(  1-C ,  3-O ) :   0.9676
B(  1-C ,  9-H ) :   0.9371 B(  2-C ,  3-O ) :   1.0070 B(  2-C , 10-H ) :   0.9270
B(  2-C , 11-H ) :   0.9374 B(  4-C ,  5-C ) :   1.0921 B(  4-C ,  6-O ) :   0.9709
B(  4-C , 12-H ) :   0.9361 B(  5-C ,  6-O ) :   1.0036 B(  5-C , 13-H ) :   0.9290
B(  5-C , 14-H ) :   0.9361

FINAL SINGLE POINT ENERGY      -345.033353401889

DIPOLE MOMENT
-------------
                                X             Y             Z
Electronic contribution:      1.65584       0.87459       2.11076
Nuclear contribution   :     -2.17419      -1.14649      -2.77207
                        -----------------------------------------
Total Dipole Moment    :     -0.51835      -0.27190      -0.66131
                        -----------------------------------------
Magnitude (a.u.)       :      0.88315
Magnitude (Debye)      :      2.24478

                             ****ORCA TERMINATED NORMALLY****
TOTAL RUN TIME: 0 days 0 hours 0 minutes 6 seconds 432 msec
