                         Program Version 3.0.3 - RELEASE   -
|  1> ! RI PBE def2-SVP def2-SVP/J NBO PAL2
|  2> % maxcore 2000
|  3> % output
|  4>     # printlevel mini
|  5>     print[ P_Basis ] 0
|  6>     print[ P_SCFInfo ] 1
|  7>     print[ P_SCFIterInfo ] 1
|  8>     print[ P_OrbEn ] 0
|  9>     print[ P_Cartesian ] 0
| 10> end
| 11> *xyz 0 1
| 12>  C        0.2944960000     1.4077780000     0.5058820000
| 13>  O        1.1001840000     0.4412460000    -0.1602670000
| 14>  C        0.1859360000    -0.3463860000    -0.9621170000
| 15>  C       -0.8030440000     0.7118390000    -1.4326440000
| 16>  C       -1.1411330000     1.1005380000     0.0179900000
| 17>  C       -1.4647660000    -0.2550800000     0.5978880000
| 18>  C       -0.6654220000    -1.1413100000     0.0020920000
| 19>  H        0.6130200000     2.4128030000     0.2084020000
| 20>  H        0.4004210000     1.3041830000     1.5898380000
| 21>  H        0.7685860000    -0.8903810000    -1.7016990000
| 22>  H       -1.6591170000     0.3047750000    -1.9691100000
| 23>  H       -0.3245960000     1.5078180000    -2.0073710000
| 24>  H       -1.8603620000     1.9011260000     0.1807460000
| 25>  H       -2.1299430000    -0.4265750000     1.4350090000
| 26>  H       -0.5323690000    -2.1861830000     0.2493910000
| 27> *
| 28>
| 29>                          ****END OF INPUT****
 Total Charge           Charge          ....    0
 Multiplicity           Mult            ....    1
 Number of Electrons    NEL             ....   52
 Basis Dimension        Dim             ....  138

MULLIKEN ATOMIC CHARGES
-----------------------
   0 C :    0.282456
   1 O :   -0.334363
   2 C :    0.097835
   3 C :    0.072670
   4 C :   -0.195666
   5 C :    0.002851
   6 C :    0.022680
   7 H :    0.006793
   8 H :    0.009250
   9 H :   -0.001245
  10 H :    0.028039
  11 H :    0.020141
  12 H :    0.004377
  13 H :   -0.006251
  14 H :   -0.009565
Sum of atomic charges:   -0.0000000

LOEWDIN ATOMIC CHARGES
----------------------
   0 C :    0.077958
   1 O :   -0.163244
   2 C :    0.065013
   3 C :   -0.027162
   4 C :   -0.050225
   5 C :   -0.019880
   6 C :   -0.044443
   7 H :    0.013392
   8 H :    0.012345
   9 H :    0.017576
  10 H :    0.028427
  11 H :    0.023806
  12 H :    0.023225
  13 H :    0.021967
  14 H :    0.021245

  Mayer bond orders larger than 0.1
B(  0-C ,  1-O ) :   1.0107 B(  0-C ,  4-C ) :   0.9919 B(  0-C ,  7-H ) :   0.9305
B(  0-C ,  8-H ) :   0.9347 B(  1-O ,  2-C ) :   0.9712 B(  2-C ,  3-C ) :   1.0039
B(  2-C ,  6-C ) :   0.9648 B(  2-C ,  9-H ) :   0.9486 B(  3-C ,  4-C ) :   0.9868
B(  3-C , 10-H ) :   0.9396 B(  3-C , 11-H ) :   0.9317 B(  4-C ,  5-C ) :   0.9767
B(  4-C , 12-H ) :   0.9441 B(  5-C ,  6-C ) :   1.7728 B(  5-C , 13-H ) :   1.0023
B(  6-C , 14-H ) :   1.0071

FINAL SINGLE POINT ENERGY      -308.007066354839

DIPOLE MOMENT
-------------
                                X             Y             Z
Electronic contribution:      1.51271      -1.29742       0.30200
Nuclear contribution   :     -2.04352       1.44112      -0.33896
                        -----------------------------------------
Total Dipole Moment    :     -0.53081       0.14370      -0.03695
                        -----------------------------------------
Magnitude (a.u.)       :      0.55115
Magnitude (Debye)      :      1.40092

                             ****ORCA TERMINATED NORMALLY****
TOTAL RUN TIME: 0 days 0 hours 0 minutes 6 seconds 901 msec
