                         Program Version 3.0.3 - RELEASE   -
|  1> ! RI PBE def2-SVP def2-SVP/J NBO PAL2
|  2> % maxcore 2000
|  3> % output
|  4>     # printlevel mini
|  5>     print[ P_Basis ] 0
|  6>     print[ P_SCFInfo ] 1
|  7>     print[ P_SCFIterInfo ] 1
|  8>     print[ P_OrbEn ] 0
|  9>     print[ P_Cartesian ] 0
| 10> end
| 11> *xyz 0 1
| 12>  C       -1.2271540000    -0.7316470000    -0.4918600000
| 13>  O       -1.1563710000     0.7015490000    -0.4733300000
| 14>  C       -0.0051320000     1.0031270000     0.2820500000
| 15>  C       -0.0116600000    -0.0471350000     1.3800930000
| 16>  C       -0.0055870000    -1.1541920000     0.3227130000
| 17>  C        1.2255100000    -0.7318940000    -0.4775140000
| 18>  O        1.1548040000     0.7013160000    -0.4598120000
| 19>  H       -1.1901830000    -1.0861410000    -1.5264050000
| 20>  H       -2.1693800000    -1.0573220000    -0.0373870000
| 21>  H       -0.0064800000     2.0613820000     0.5307950000
| 22>  H       -0.9134930000    -0.0222820000     1.9920790000
| 23>  H        0.8829580000    -0.0224630000     2.0025870000
| 24>  H       -0.0076870000    -2.1879750000     0.6639620000
| 25>  H        1.2005730000    -1.0863830000    -1.5124210000
| 26>  H        2.1622900000    -1.0577590000    -0.0120510000
| 27> *
| 28>
| 29>                          ****END OF INPUT****
 Total Charge           Charge          ....    0
 Multiplicity           Mult            ....    1
 Number of Electrons    NEL             ....   54
 Basis Dimension        Dim             ....  138

MULLIKEN ATOMIC CHARGES
-----------------------
   0 C :    0.292301
   1 O :   -0.315314
   2 C :    0.197889
   3 C :    0.053920
   4 C :   -0.323084
   5 C :    0.291901
   6 O :   -0.315357
   7 H :    0.007694
   8 H :    0.008935
   9 H :    0.010455
  10 H :    0.029187
  11 H :    0.029317
  12 H :    0.015320
  13 H :    0.007777
  14 H :    0.009060
Sum of atomic charges:    0.0000000

LOEWDIN ATOMIC CHARGES
----------------------
   0 C :    0.081235
   1 O :   -0.153962
   2 C :    0.102856
   3 C :   -0.050050
   4 C :   -0.065486
   5 C :    0.081179
   6 O :   -0.153969
   7 H :    0.014191
   8 H :    0.012676
   9 H :    0.017192
  10 H :    0.029436
  11 H :    0.029460
  12 H :    0.028337
  13 H :    0.014207
  14 H :    0.012697

  Mayer bond orders larger than 0.1
B(  0-C ,  1-O ) :   0.9816 B(  0-C ,  4-C ) :   1.0182 B(  0-C ,  7-H ) :   0.9358
B(  0-C ,  8-H ) :   0.9397 B(  1-O ,  2-C ) :   1.0679 B(  2-C ,  3-C ) :   1.0226
B(  2-C ,  6-O ) :   1.0679 B(  2-C ,  9-H ) :   0.9393 B(  3-C ,  4-C ) :   0.9734
B(  3-C , 10-H ) :   0.9340 B(  3-C , 11-H ) :   0.9341 B(  4-C ,  5-C ) :   1.0182
B(  4-C , 12-H ) :   0.9256 B(  5-C ,  6-O ) :   0.9816 B(  5-C , 13-H ) :   0.9358
B(  5-C , 14-H ) :   0.9397

FINAL SINGLE POINT ENERGY      -345.094598151742

DIPOLE MOMENT
-------------
                                X             Y             Z
Electronic contribution:      0.00908       3.18344      -1.47482
Nuclear contribution   :     -0.01212      -4.01130       2.00370
                        -----------------------------------------
Total Dipole Moment    :     -0.00304      -0.82786       0.52888
                        -----------------------------------------
Magnitude (a.u.)       :      0.98238
Magnitude (Debye)      :      2.49702

                             ****ORCA TERMINATED NORMALLY****
TOTAL RUN TIME: 0 days 0 hours 0 minutes 6 seconds 898 msec
