                         Program Version 3.0.3 - RELEASE   -
|  1> ! RI PBE def2-SVP def2-SVP/J NBO PAL2
|  2> % maxcore 2000
|  3> % output
|  4>     # printlevel mini
|  5>     print[ P_Basis ] 0
|  6>     print[ P_SCFInfo ] 1
|  7>     print[ P_SCFIterInfo ] 1
|  8>     print[ P_OrbEn ] 0
|  9>     print[ P_Cartesian ] 0
| 10> end
| 11> *xyz 0 1
| 12>  C        0.7868890000    -1.2327890000     0.9035950000
| 13>  C        1.1305890000    -0.3360820000    -0.2328140000
| 14>  O        0.9989990000     1.0442590000    -0.1976490000
| 15>  C       -0.1427140000     1.5512060000     0.4669390000
| 16>  C       -1.3969080000     0.8099700000     0.1335520000
| 17>  C       -1.3655250000    -0.4616100000    -0.2548990000
| 18>  C       -0.0930760000    -1.1973450000    -0.3405620000
| 19>  H        0.3553030000    -0.8057080000     1.8002990000
| 20>  H        1.4087540000    -2.1043750000     1.0683260000
| 21>  H        1.9887220000    -0.5963160000    -0.8399590000
| 22>  H       -0.2209120000     2.5947580000     0.1519200000
| 23>  H        0.0291570000     1.5630450000     1.5552320000
| 24>  H       -2.3353400000     1.3484530000     0.2103340000
| 25>  H       -2.2810850000    -0.9795310000    -0.5217660000
| 26>  H       -0.0637340000    -2.0583360000    -0.9975390000
| 27> *
| 28>
| 29>                          ****END OF INPUT****
 Total Charge           Charge          ....    0
 Multiplicity           Mult            ....    1
 Number of Electrons    NEL             ....   52
 Basis Dimension        Dim             ....  138

MULLIKEN ATOMIC CHARGES
-----------------------
   0 C :   -0.019066
   1 C :    0.128204
   2 O :   -0.300907
   3 C :    0.246044
   4 C :   -0.167481
   5 C :    0.087291
   6 C :   -0.130478
   7 H :    0.044565
   8 H :    0.036422
   9 H :    0.024704
  10 H :    0.021966
  11 H :    0.020338
  12 H :   -0.000512
  13 H :   -0.013163
  14 H :    0.022072
Sum of atomic charges:   -0.0000000

LOEWDIN ATOMIC CHARGES
----------------------
   0 C :   -0.050017
   1 C :    0.051828
   2 O :   -0.119968
   3 C :    0.062514
   4 C :   -0.072870
   5 C :   -0.027398
   6 C :   -0.063451
   7 H :    0.032275
   8 H :    0.031120
   9 H :    0.026848
  10 H :    0.031197
  11 H :    0.013996
  12 H :    0.026847
  13 H :    0.028306
  14 H :    0.028771

  Mayer bond orders larger than 0.1
B(  0-C ,  1-C ) :   0.9869 B(  0-C ,  6-C ) :   0.9201 B(  0-C ,  7-H ) :   0.9417
B(  0-C ,  8-H ) :   0.9348 B(  1-C ,  2-O ) :   1.0842 B(  1-C ,  6-C ) :   0.9051
B(  1-C ,  9-H ) :   0.9456 B(  2-O ,  3-C ) :   1.0036 B(  3-C ,  4-C ) :   1.0328
B(  3-C , 10-H ) :   0.9295 B(  3-C , 11-H ) :   0.9176 B(  4-C ,  5-C ) :   1.8650
B(  4-C , 12-H ) :   0.9529 B(  5-C ,  6-C ) :   1.0747 B(  5-C , 13-H ) :   0.9780
B(  6-C , 14-H ) :   0.9364

FINAL SINGLE POINT ENERGY      -307.992923584285

DIPOLE MOMENT
-------------
                                X             Y             Z
Electronic contribution:      0.95805       1.08898      -1.51541
Nuclear contribution   :     -1.18178      -1.36922       1.69489
                        -----------------------------------------
Total Dipole Moment    :     -0.22373      -0.28024       0.17948
                        -----------------------------------------
Magnitude (a.u.)       :      0.40100
Magnitude (Debye)      :      1.01926

                             ****ORCA TERMINATED NORMALLY****
TOTAL RUN TIME: 0 days 0 hours 0 minutes 7 seconds 13 msec
