                         Program Version 3.0.3 - RELEASE   -
|  1> ! RI PBE def2-SVP def2-SVP/J NBO PAL2
|  2> % maxcore 2000
|  3> % output
|  4>     # printlevel mini
|  5>     print[ P_Basis ] 0
|  6>     print[ P_SCFInfo ] 1
|  7>     print[ P_SCFIterInfo ] 1
|  8>     print[ P_OrbEn ] 0
|  9>     print[ P_Cartesian ] 0
| 10> end
| 11> *xyz 0 1
| 12>  C       -1.6853030000     0.7064780000     0.3548040000
| 13>  C       -1.6854140000    -0.7043950000    -0.3566210000
| 14>  C       -0.2005910000    -0.7285560000     0.0750800000
| 15>  O        1.0507810000    -1.0966280000    -0.4594070000
| 16>  C        1.8710200000    -0.0023500000     0.0052760000
| 17>  O        1.0512560000     1.0935420000     0.4670100000
| 18>  C       -0.1989590000     0.7278330000    -0.0717870000
| 19>  H       -1.8379450000     0.6054910000     1.4293870000
| 20>  H       -2.3360420000     1.4801340000    -0.0482890000
| 21>  H       -1.8341670000    -0.6031220000    -1.4317220000
| 22>  H       -2.3389980000    -1.4768170000     0.0442280000
| 23>  H       -0.2145490000    -0.9763100000     1.1467440000
| 24>  H        2.4926670000     0.3143260000    -0.8375990000
| 25>  H        2.4890040000    -0.3202390000     0.8503870000
| 26>  H       -0.2087620000     0.9756130000    -1.1434900000
| 27> *
| 28>
| 29>                          ****END OF INPUT****
 Total Charge           Charge          ....    0
 Multiplicity           Mult            ....    1
 Number of Electrons    NEL             ....   54
 Basis Dimension        Dim             ....  138

MULLIKEN ATOMIC CHARGES
-----------------------
   0 C :   -0.015002
   1 C :   -0.015532
   2 C :    0.082042
   3 O :   -0.339706
   4 C :    0.363143
   5 O :   -0.339725
   6 C :    0.082009
   7 H :    0.037245
   8 H :    0.029237
   9 H :    0.037371
  10 H :    0.029318
  11 H :    0.006788
  12 H :    0.018046
  13 H :    0.017971
  14 H :    0.006795
Sum of atomic charges:   -0.0000000

LOEWDIN ATOMIC CHARGES
----------------------
   0 C :   -0.020559
   1 C :   -0.020648
   2 C :    0.022046
   3 O :   -0.163689
   4 C :    0.172846
   5 O :   -0.163702
   6 C :    0.022034
   7 H :    0.031587
   8 H :    0.024035
   9 H :    0.031611
  10 H :    0.024048
  11 H :    0.012337
  12 H :    0.007868
  13 H :    0.007850
  14 H :    0.012336

  Mayer bond orders larger than 0.1
B(  0-C ,  1-C ) :   1.0452 B(  0-C ,  6-C ) :   1.0087 B(  0-C ,  7-H ) :   0.9343
B(  0-C ,  8-H ) :   0.9351 B(  1-C ,  2-C ) :   1.0087 B(  1-C ,  9-H ) :   0.9343
B(  1-C , 10-H ) :   0.9351 B(  2-C ,  3-O ) :   1.0410 B(  2-C ,  6-C ) :   1.0451
B(  2-C , 11-H ) :   0.9287 B(  3-O ,  4-C ) :   0.9970 B(  4-C ,  5-O ) :   0.9970
B(  4-C , 12-H ) :   0.9474 B(  4-C , 13-H ) :   0.9474 B(  5-O ,  6-C ) :   1.0411
B(  6-C , 14-H ) :   0.9287

FINAL SINGLE POINT ENERGY      -345.019505422915

DIPOLE MOMENT
-------------
                                X             Y             Z
Electronic contribution:      3.58459      -0.00330       0.00600
Nuclear contribution   :     -4.05027       0.00377      -0.00683
                        -----------------------------------------
Total Dipole Moment    :     -0.46568       0.00047      -0.00083
                        -----------------------------------------
Magnitude (a.u.)       :      0.46568
Magnitude (Debye)      :      1.18366

                             ****ORCA TERMINATED NORMALLY****
TOTAL RUN TIME: 0 days 0 hours 0 minutes 6 seconds 490 msec
