                         Program Version 3.0.3 - RELEASE   -
|  1> ! RI PBE def2-SVP def2-SVP/J NBO PAL2
|  2> % maxcore 2000
|  3> % output
|  4>     # printlevel mini
|  5>     print[ P_Basis ] 0
|  6>     print[ P_SCFInfo ] 1
|  7>     print[ P_SCFIterInfo ] 1
|  8>     print[ P_OrbEn ] 0
|  9>     print[ P_Cartesian ] 0
| 10> end
| 11> *xyz 0 1
| 12>  C       -0.8036430000     0.0000310000    -1.2151200000
| 13>  C       -0.5755550000     1.0355810000    -0.0934630000
| 14>  C       -1.1768490000     0.0000160000     0.8767890000
| 15>  C       -0.5756650000    -1.0355810000    -0.0934980000
| 16>  O        0.8086720000    -1.1705740000     0.2001580000
| 17>  C        1.5162580000    -0.0001100000    -0.1128700000
| 18>  O        0.8087950000     1.1704180000     0.2001960000
| 19>  H       -0.1643530000     0.0000120000    -2.0980880000
| 20>  H       -1.8488650000     0.0000910000    -1.5245780000
| 21>  H       -0.9902480000     2.0403730000    -0.1685900000
| 22>  H       -2.2683050000     0.0000740000     0.8596860000
| 23>  H       -0.7981740000    -0.0000210000     1.8986370000
| 24>  H       -0.9904630000    -2.0403270000    -0.1686580000
| 25>  H        1.7721940000    -0.0001060000    -1.1820570000
| 26>  H        2.4326900000    -0.0001680000     0.4783460000
| 27> *
| 28>
| 29>                          ****END OF INPUT****
 Total Charge           Charge          ....    0
 Multiplicity           Mult            ....    1
 Number of Electrons    NEL             ....   54
 Basis Dimension        Dim             ....  138

MULLIKEN ATOMIC CHARGES
-----------------------
   0 C :    0.033085
   1 C :    0.009429
   2 C :    0.120479
   3 C :    0.009426
   4 O :   -0.319483
   5 C :    0.340123
   6 O :   -0.319484
   7 H :    0.030601
   8 H :    0.028999
   9 H :    0.008299
  10 H :    0.020499
  11 H :    0.017653
  12 H :    0.008301
  13 H :   -0.010542
  14 H :    0.022614
Sum of atomic charges:   -0.0000000

LOEWDIN ATOMIC CHARGES
----------------------
   0 C :   -0.058326
   1 C :    0.067099
   2 C :   -0.057104
   3 C :    0.067099
   4 O :   -0.144611
   5 C :    0.132472
   6 O :   -0.144611
   7 H :    0.022064
   8 H :    0.036411
   9 H :    0.010950
  10 H :    0.027399
  11 H :    0.020932
  12 H :    0.010950
  13 H :   -0.009831
  14 H :    0.019109

  Mayer bond orders larger than 0.1
B(  0-C ,  1-C ) :   0.9886 B(  0-C ,  3-C ) :   0.9886 B(  0-C ,  7-H ) :   0.9242
B(  0-C ,  8-H ) :   0.9304 B(  1-C ,  2-C ) :   0.9780 B(  1-C ,  6-O ) :   1.0110
B(  1-C ,  9-H ) :   0.9363 B(  2-C ,  3-C ) :   0.9780 B(  2-C , 10-H ) :   0.9352
B(  2-C , 11-H ) :   0.9113 B(  3-C ,  4-O ) :   1.0110 B(  3-C , 12-H ) :   0.9363
B(  4-O ,  5-C ) :   1.0396 B(  5-C ,  6-O ) :   1.0396 B(  5-C , 13-H ) :   0.9325
B(  5-C , 14-H ) :   0.9524

FINAL SINGLE POINT ENERGY      -345.060159315507

DIPOLE MOMENT
-------------
                                X             Y             Z
Electronic contribution:      2.41877      -0.00015       1.14318
Nuclear contribution   :     -2.92573       0.00018      -1.54224
                        -----------------------------------------
Total Dipole Moment    :     -0.50696       0.00003      -0.39906
                        -----------------------------------------
Magnitude (a.u.)       :      0.64518
Magnitude (Debye)      :      1.63991

                             ****ORCA TERMINATED NORMALLY****
TOTAL RUN TIME: 0 days 0 hours 0 minutes 6 seconds 816 msec
