                         Program Version 3.0.3 - RELEASE   -
|  1> ! RI PBE def2-SVP def2-SVP/J NBO PAL2
|  2> % maxcore 2000
|  3> % output
|  4>     # printlevel mini
|  5>     print[ P_Basis ] 0
|  6>     print[ P_SCFInfo ] 1
|  7>     print[ P_SCFIterInfo ] 1
|  8>     print[ P_OrbEn ] 0
|  9>     print[ P_Cartesian ] 0
| 10> end
| 11> *xyz 0 1
| 12>  C        1.5617750000    -0.4373390000     0.2393890000
| 13>  O        0.7738750000    -1.5773680000    -0.1345310000
| 14>  C       -0.1822120000    -0.7271680000    -0.8027010000
| 15>  C       -1.4127590000    -0.4473340000     0.0003120000
| 16>  C       -1.3835790000     0.7703800000     0.5335160000
| 17>  C       -0.1476000000     1.5449500000     0.1720340000
| 18>  C        0.6942430000     0.5208990000    -0.5864040000
| 19>  H        2.6019970000    -0.5485660000    -0.0803130000
| 20>  H        1.5330440000    -0.2556930000     1.3205460000
| 21>  H       -0.3794520000    -1.0884960000    -1.8167870000
| 22>  H       -2.2090520000    -1.1704760000     0.1305500000
| 23>  H       -2.1628870000     1.1852130000     1.1639440000
| 24>  H        0.3670770000     1.9344540000     1.0580790000
| 25>  H       -0.3937830000     2.4157830000    -0.4459620000
| 26>  H        1.1912930000     0.9217720000    -1.4681730000
| 27> *
| 28>
| 29>                          ****END OF INPUT****
 Total Charge           Charge          ....    0
 Multiplicity           Mult            ....    1
 Number of Electrons    NEL             ....   52
 Basis Dimension        Dim             ....  138

MULLIKEN ATOMIC CHARGES
-----------------------
   0 C :    0.270102
   1 O :   -0.347054
   2 C :    0.170814
   3 C :    0.019141
   4 C :   -0.102620
   5 C :    0.163045
   6 C :   -0.256085
   7 H :    0.013075
   8 H :    0.003981
   9 H :    0.009488
  10 H :    0.000538
  11 H :   -0.000573
  12 H :    0.017764
  13 H :    0.027602
  14 H :    0.010783
Sum of atomic charges:    0.0000000

LOEWDIN ATOMIC CHARGES
----------------------
   0 C :    0.089394
   1 O :   -0.181395
   2 C :    0.070419
   3 C :   -0.047542
   4 C :   -0.017585
   5 C :   -0.037612
   6 C :   -0.045850
   7 H :    0.012106
   8 H :    0.008177
   9 H :    0.011504
  10 H :    0.025942
  11 H :    0.022931
  12 H :    0.030855
  13 H :    0.033355
  14 H :    0.025302

  Mayer bond orders larger than 0.1
B(  0-C ,  1-O ) :   1.0349 B(  0-C ,  6-C ) :   1.0688 B(  0-C ,  7-H ) :   0.9347
B(  0-C ,  8-H ) :   0.9229 B(  1-O ,  2-C ) :   1.0384 B(  2-C ,  3-C ) :   0.9795
B(  2-C ,  6-C ) :   1.0770 B(  2-C ,  9-H ) :   0.9122 B(  3-C ,  4-C ) :   1.8364
B(  3-C , 10-H ) :   0.9881 B(  4-C ,  5-C ) :   1.0271 B(  4-C , 11-H ) :   0.9830
B(  5-C ,  6-C ) :   1.0430 B(  5-C , 12-H ) :   0.9123 B(  5-C , 13-H ) :   0.9134
B(  6-C , 14-H ) :   0.9147

FINAL SINGLE POINT ENERGY      -307.999019863374

DIPOLE MOMENT
-------------
                                X             Y             Z
Electronic contribution:     -0.40711      -2.95260      -0.55600
Nuclear contribution   :      0.33157       3.71698       0.46476
                        -----------------------------------------
Total Dipole Moment    :     -0.07554       0.76438      -0.09124
                        -----------------------------------------
Magnitude (a.u.)       :      0.77350
Magnitude (Debye)      :      1.96609

                             ****ORCA TERMINATED NORMALLY****
TOTAL RUN TIME: 0 days 0 hours 0 minutes 6 seconds 760 msec
