                         Program Version 3.0.3 - RELEASE   -
|  1> ! RI PBE def2-SVP def2-SVP/J NBO PAL2
|  2> % maxcore 2000
|  3> % output
|  4>     # printlevel mini
|  5>     print[ P_Basis ] 0
|  6>     print[ P_SCFInfo ] 1
|  7>     print[ P_SCFIterInfo ] 1
|  8>     print[ P_OrbEn ] 0
|  9>     print[ P_Cartesian ] 0
| 10> end
| 11> *xyz 0 1
| 12>  C        0.7596940000    -1.3846800000     0.6793020000
| 13>  O        1.3334280000    -0.1037210000     0.9704860000
| 14>  C        0.7188890000     0.4892630000    -0.1868640000
| 15>  C       -0.2377680000     1.6225020000     0.1614490000
| 16>  C       -1.5522020000     0.9160690000     0.3306700000
| 17>  C       -1.4920960000    -0.3701870000    -0.0019240000
| 18>  C       -0.1197310000    -0.7829490000    -0.4264880000
| 19>  H        0.2425020000    -1.8113620000     1.5438910000
| 20>  H        1.5162660000    -2.0910100000     0.3176100000
| 21>  H        1.4694090000     0.7533560000    -0.9380610000
| 22>  H       -0.2844340000     2.3844330000    -0.6254950000
| 23>  H        0.0968470000     2.1248640000     1.0749730000
| 24>  H       -2.4463750000     1.4180610000     0.6828220000
| 25>  H       -2.3268880000    -1.0607100000     0.0424980000
| 26>  H       -0.0778210000    -1.2766380000    -1.3989780000
| 27> *
| 28>
| 29>                          ****END OF INPUT****
 Total Charge           Charge          ....    0
 Multiplicity           Mult            ....    1
 Number of Electrons    NEL             ....   52
 Basis Dimension        Dim             ....  138

MULLIKEN ATOMIC CHARGES
-----------------------
   0 C :    0.275122
   1 O :   -0.338197
   2 C :    0.057274
   3 C :    0.158311
   4 C :   -0.093635
   5 C :    0.022234
   6 C :   -0.161430
   7 H :    0.008450
   8 H :    0.006907
   9 H :    0.000256
  10 H :    0.025033
  11 H :    0.029898
  12 H :   -0.005514
  13 H :   -0.004346
  14 H :    0.019638
Sum of atomic charges:    0.0000000

LOEWDIN ATOMIC CHARGES
----------------------
   0 C :    0.093298
   1 O :   -0.178356
   2 C :    0.082872
   3 C :   -0.052452
   4 C :   -0.024744
   5 C :   -0.037602
   6 C :   -0.052694
   7 H :    0.009955
   8 H :    0.007537
   9 H :    0.008285
  10 H :    0.032824
  11 H :    0.040635
  12 H :    0.022571
  13 H :    0.023393
  14 H :    0.024478

  Mayer bond orders larger than 0.1
B(  0-C ,  1-O ) :   1.0377 B(  0-C ,  6-C ) :   1.0626 B(  0-C ,  7-H ) :   0.9293
B(  0-C ,  8-H ) :   0.9295 B(  1-O ,  2-C ) :   1.0698 B(  2-C ,  3-C ) :   1.0323
B(  2-C ,  6-C ) :   1.0647 B(  2-C ,  9-H ) :   0.9192 B(  3-C ,  4-C ) :   1.0154
B(  3-C , 10-H ) :   0.9109 B(  3-C , 11-H ) :   0.8959 B(  4-C ,  5-C ) :   1.8631
B(  4-C , 12-H ) :   0.9803 B(  5-C ,  6-C ) :   0.9760 B(  5-C , 13-H ) :   0.9845
B(  6-C , 14-H ) :   0.9185

FINAL SINGLE POINT ENERGY      -308.000821950970

DIPOLE MOMENT
-------------
                                X             Y             Z
Electronic contribution:      1.00236      -0.17743       0.69372
Nuclear contribution   :     -1.39790       0.04681      -1.12199
                        -----------------------------------------
Total Dipole Moment    :     -0.39554      -0.13062      -0.42827
                        -----------------------------------------
Magnitude (a.u.)       :      0.59744
Magnitude (Debye)      :      1.51857

                             ****ORCA TERMINATED NORMALLY****
TOTAL RUN TIME: 0 days 0 hours 0 minutes 6 seconds 513 msec
