                         Program Version 3.0.3 - RELEASE   -
|  1> ! RI PBE def2-SVP def2-SVP/J NBO PAL2
|  2> % maxcore 2000
|  3> % output
|  4>     # printlevel mini
|  5>     print[ P_Basis ] 0
|  6>     print[ P_SCFInfo ] 1
|  7>     print[ P_SCFIterInfo ] 1
|  8>     print[ P_OrbEn ] 0
|  9>     print[ P_Cartesian ] 0
| 10> end
| 11> *xyz 0 1
| 12>  C        1.5789100000    -0.2480230000     0.1549530000
| 13>  O        0.8427970000    -1.4816070000     0.1081370000
| 14>  C       -0.1902740000    -0.8786460000    -0.7011020000
| 15>  C       -1.4042880000    -0.4159160000     0.0356970000
| 16>  C       -1.2918230000     0.8945290000     0.2375180000
| 17>  O       -0.1748070000     1.4819080000    -0.2642730000
| 18>  C        0.6126850000     0.4282390000    -0.8136420000
| 19>  H        2.6069950000    -0.3764930000    -0.1959340000
| 20>  H        1.5810490000     0.2046780000     1.1517370000
| 21>  H       -0.3900850000    -1.4887960000    -1.5858610000
| 22>  H       -2.2347830000    -1.0327940000     0.3414030000
| 23>  H       -1.9698880000     1.5760780000     0.7336360000
| 24>  H        1.0076930000     0.7519530000    -1.7743690000
| 25> *
| 26>
| 27>                          ****END OF INPUT****
 Total Charge           Charge          ....    0
 Multiplicity           Mult            ....    1
 Number of Electrons    NEL             ....   52
 Basis Dimension        Dim             ....  128

MULLIKEN ATOMIC CHARGES
-----------------------
   0 C :    0.268677
   1 O :   -0.340844
   2 C :    0.138849
   3 C :   -0.050189
   4 C :    0.133385
   5 O :   -0.253173
   6 C :    0.001707
   7 H :    0.020608
   8 H :    0.015943
   9 H :    0.020052
  10 H :    0.004631
  11 H :    0.014635
  12 H :    0.025718
Sum of atomic charges:    0.0000000

LOEWDIN ATOMIC CHARGES
----------------------
   0 C :    0.080140
   1 O :   -0.182207
   2 C :    0.061314
   3 C :   -0.122035
   4 C :    0.059311
   5 O :   -0.078057
   6 C :    0.054948
   7 H :    0.016066
   8 H :    0.017647
   9 H :    0.015453
  10 H :    0.030321
  11 H :    0.024697
  12 H :    0.022402

  Mayer bond orders larger than 0.1
B(  0-C ,  1-O ) :   1.0385 B(  0-C ,  6-C ) :   1.0692 B(  0-C ,  7-H ) :   0.9345
B(  0-C ,  8-H ) :   0.9043 B(  1-O ,  2-C ) :   1.0509 B(  2-C ,  3-C ) :   0.9928
B(  2-C ,  6-C ) :   1.0625 B(  2-C ,  9-H ) :   0.9205 B(  3-C ,  4-C ) :   1.7045
B(  3-C ,  5-O ) :   0.1159 B(  3-C , 10-H ) :   0.9907 B(  4-C ,  5-O ) :   1.1094
B(  4-C , 11-H ) :   0.9891 B(  5-O ,  6-C ) :   0.9832 B(  6-C , 12-H ) :   0.9273

FINAL SINGLE POINT ENERGY      -343.854833608346

DIPOLE MOMENT
-------------
                                X             Y             Z
Electronic contribution:     -0.49326       0.48781       0.00192
Nuclear contribution   :      0.40367      -0.16952      -0.27533
                        -----------------------------------------
Total Dipole Moment    :     -0.08959       0.31829      -0.27341
                        -----------------------------------------
Magnitude (a.u.)       :      0.42906
Magnitude (Debye)      :      1.09058

                             ****ORCA TERMINATED NORMALLY****
TOTAL RUN TIME: 0 days 0 hours 0 minutes 6 seconds 61 msec
