                         Program Version 3.0.3 - RELEASE   -
|  1> ! RI PBE def2-SVP def2-SVP/J NBO PAL2
|  2> % maxcore 2000
|  3> % output
|  4>     # printlevel mini
|  5>     print[ P_Basis ] 0
|  6>     print[ P_SCFInfo ] 1
|  7>     print[ P_SCFIterInfo ] 1
|  8>     print[ P_OrbEn ] 0
|  9>     print[ P_Cartesian ] 0
| 10> end
| 11> *xyz 0 1
| 12>  C       -1.1837910000    -0.7046600000    -0.4973710000
| 13>  O       -1.1811350000     0.7297940000    -0.4411360000
| 14>  C       -0.0292060000     1.0778750000     0.3255350000
| 15>  C        1.2010840000     0.7095230000    -0.4901780000
| 16>  O        1.1983450000    -0.7253090000    -0.4445970000
| 17>  C        0.0451690000    -1.0790640000     0.3175910000
| 18>  C        0.0071040000    -0.0045910000     1.3984880000
| 19>  H       -1.0916930000    -1.0408030000    -1.5336130000
| 20>  H       -2.1161530000    -1.0908020000    -0.0701700000
| 21>  H       -0.1065600000     2.1188830000     0.6335410000
| 22>  H        2.1327450000     1.0924780000    -0.0586040000
| 23>  H        1.1106720000     1.0533480000    -1.5240450000
| 24>  H        0.1220270000    -2.1223290000     0.6179870000
| 25>  H        0.9058710000    -0.0002780000     2.0149530000
| 26>  H       -0.8926680000    -0.0134750000     2.0134390000
| 27> *
| 28>
| 29>                          ****END OF INPUT****
 Total Charge           Charge          ....    0
 Multiplicity           Mult            ....    1
 Number of Electrons    NEL             ....   54
 Basis Dimension        Dim             ....  138

MULLIKEN ATOMIC CHARGES
-----------------------
   0 C :    0.288816
   1 O :   -0.336264
   2 C :   -0.040346
   3 C :    0.288619
   4 O :   -0.336174
   5 C :   -0.040804
   6 C :    0.056341
   7 H :    0.012470
   8 H :    0.006631
   9 H :    0.010073
  10 H :    0.006628
  11 H :    0.012477
  12 H :    0.010186
  13 H :    0.030667
  14 H :    0.030680
Sum of atomic charges:   -0.0000000

LOEWDIN ATOMIC CHARGES
----------------------
   0 C :    0.062811
   1 O :   -0.160621
   2 C :    0.040896
   3 C :    0.062802
   4 O :   -0.160604
   5 C :    0.040831
   6 C :   -0.052674
   7 H :    0.017369
   8 H :    0.012829
   9 H :    0.022038
  10 H :    0.012831
  11 H :    0.017360
  12 H :    0.022056
  13 H :    0.031035
  14 H :    0.031041

  Mayer bond orders larger than 0.1
B(  0-C ,  1-O ) :   0.9827 B(  0-C ,  5-C ) :   1.0267 B(  0-C ,  7-H ) :   0.9206
B(  0-C ,  8-H ) :   0.9313 B(  1-O ,  2-C ) :   1.0196 B(  2-C ,  3-C ) :   1.0267
B(  2-C ,  5-C ) :   0.1019 B(  2-C ,  6-C ) :   0.9940 B(  2-C ,  9-H ) :   0.9343
B(  3-C ,  4-O ) :   0.9826 B(  3-C , 10-H ) :   0.9313 B(  3-C , 11-H ) :   0.9207
B(  4-O ,  5-C ) :   1.0197 B(  5-C ,  6-C ) :   0.9940 B(  5-C , 12-H ) :   0.9343
B(  6-C , 13-H ) :   0.9312 B(  6-C , 14-H ) :   0.9311

FINAL SINGLE POINT ENERGY      -345.085167854960

DIPOLE MOMENT
-------------
                                X             Y             Z
Electronic contribution:      0.00115       0.00528      -1.38033
Nuclear contribution   :     -0.00156      -0.00707       1.90582
                        -----------------------------------------
Total Dipole Moment    :     -0.00040      -0.00179       0.52549
                        -----------------------------------------
Magnitude (a.u.)       :      0.52550
Magnitude (Debye)      :      1.33571

                             ****ORCA TERMINATED NORMALLY****
TOTAL RUN TIME: 0 days 0 hours 0 minutes 6 seconds 737 msec
