                         Program Version 3.0.3 - RELEASE   -
|  1> ! RI PBE def2-SVP def2-SVP/J NBO PAL2
|  2> % maxcore 2000
|  3> % output
|  4>     # printlevel mini
|  5>     print[ P_Basis ] 0
|  6>     print[ P_SCFInfo ] 1
|  7>     print[ P_SCFIterInfo ] 1
|  8>     print[ P_OrbEn ] 0
|  9>     print[ P_Cartesian ] 0
| 10> end
| 11> *xyz 0 1
| 12>  C        1.1629550000    -0.5694210000    -0.1045370000
| 13>  O        2.1383810000     0.5241150000    -0.3051200000
| 14>  C        3.0163120000    -0.4274370000    -0.7780840000
| 15>  C        4.2091180000    -0.8013110000    -1.2818610000
| 16>  O        4.1251240000    -2.1654820000    -1.4564440000
| 17>  C        2.8975320000    -2.6057270000    -1.0625960000
| 18>  C        2.1861410000    -1.5447100000    -0.6355490000
| 19>  H        0.2774120000    -0.4043040000    -0.7190330000
| 20>  H        0.9036700000    -0.6565880000     0.9510340000
| 21>  H        5.1389360000    -0.3398310000    -1.5608290000
| 22>  H        2.7347190000    -3.6658130000    -1.1616810000
| 23> *
| 24>
| 25>                          ****END OF INPUT****
 Total Charge           Charge          ....    0
 Multiplicity           Mult            ....    1
 Number of Electrons    NEL             ....   50
 Basis Dimension        Dim             ....  118

MULLIKEN ATOMIC CHARGES
-----------------------
   0 C :    0.270132
   1 O :   -0.289011
   2 C :    0.219401
   3 C :   -0.028503
   4 O :   -0.196419
   5 C :   -0.005470
   6 C :   -0.096789
   7 H :    0.052294
   8 H :    0.051225
   9 H :    0.008821
  10 H :    0.014321
Sum of atomic charges:   -0.0000000

LOEWDIN ATOMIC CHARGES
----------------------
   0 C :    0.133748
   1 O :   -0.116061
   2 C :   -0.003312
   3 C :   -0.033146
   4 O :    0.015021
   5 C :    0.017405
   6 C :   -0.124352
   7 H :    0.033355
   8 H :    0.033327
   9 H :    0.022403
  10 H :    0.021611

  Mayer bond orders larger than 0.1
B(  0-C ,  1-O ) :   0.9876 B(  0-C ,  6-C ) :   1.0491 B(  0-C ,  7-H ) :   0.9270
B(  0-C ,  8-H ) :   0.9266 B(  1-O ,  2-C ) :   1.0743 B(  2-C ,  3-C ) :   1.4690
B(  2-C ,  6-C ) :   1.2607 B(  3-C ,  4-O ) :   1.0794 B(  3-C ,  5-C ) :   0.1146
B(  3-C ,  9-H ) :   1.0230 B(  4-O ,  5-C ) :   1.1562 B(  5-C ,  6-C ) :   1.5000
B(  5-C , 10-H ) :   1.0062

FINAL SINGLE POINT ENERGY      -342.623117178492

DIPOLE MOMENT
-------------
                                X             Y             Z
Electronic contribution:      1.60065       0.40426      -0.54379
Nuclear contribution   :     -2.08595      -0.73034       0.67189
                        -----------------------------------------
Total Dipole Moment    :     -0.48531      -0.32608       0.12810
                        -----------------------------------------
Magnitude (a.u.)       :      0.59855
Magnitude (Debye)      :      1.52139

                             ****ORCA TERMINATED NORMALLY****
TOTAL RUN TIME: 0 days 0 hours 0 minutes 5 seconds 194 msec
