                         Program Version 3.0.3 - RELEASE   -
|  1> ! RI PBE def2-SVP def2-SVP/J NBO PAL2
|  2> % maxcore 2000
|  3> % output
|  4>     # printlevel mini
|  5>     print[ P_Basis ] 0
|  6>     print[ P_SCFInfo ] 1
|  7>     print[ P_SCFIterInfo ] 1
|  8>     print[ P_OrbEn ] 0
|  9>     print[ P_Cartesian ] 0
| 10> end
| 11> *xyz 0 1
| 12>  C        0.3729290000     1.3102250000     0.4530660000
| 13>  O        1.2688470000     0.2423310000     0.1671890000
| 14>  C        0.5115890000    -0.6109150000    -0.7083710000
| 15>  O       -0.2558030000     0.2882110000    -1.4586120000
| 16>  C       -0.8963950000     0.8731960000    -0.3214580000
| 17>  C       -1.4150090000    -0.3404170000     0.4151870000
| 18>  C       -0.5250430000    -1.2951940000     0.1622460000
| 19>  H        0.7777350000     2.2415910000     0.0492840000
| 20>  H        0.2119660000     1.4036490000     1.5298750000
| 21>  H        1.1865300000    -1.1999650000    -1.3229380000
| 22>  H       -1.5907610000     1.6581960000    -0.6081290000
| 23>  H       -2.2458110000    -0.3504100000     1.1069140000
| 24>  H       -0.4445750000    -2.2850980000     0.5877450000
| 25> *
| 26>
| 27>                          ****END OF INPUT****
 Total Charge           Charge          ....    0
 Multiplicity           Mult            ....    1
 Number of Electrons    NEL             ....   52
 Basis Dimension        Dim             ....  128

MULLIKEN ATOMIC CHARGES
-----------------------
   0 C :    0.268056
   1 O :   -0.324132
   2 C :    0.236430
   3 O :   -0.285279
   4 C :    0.014018
   5 C :   -0.015775
   6 C :    0.028937
   7 H :    0.023872
   8 H :    0.016262
   9 H :    0.014030
  10 H :    0.017376
  11 H :    0.005617
  12 H :    0.000590
Sum of atomic charges:   -0.0000000

LOEWDIN ATOMIC CHARGES
----------------------
   0 C :    0.066468
   1 O :   -0.156970
   2 C :    0.120174
   3 O :   -0.122715
   4 C :    0.045502
   5 C :   -0.037081
   6 C :   -0.046982
   7 H :    0.019905
   8 H :    0.016210
   9 H :    0.018415
  10 H :    0.024174
  11 H :    0.026706
  12 H :    0.026195

  Mayer bond orders larger than 0.1
B(  0-C ,  1-O ) :   1.0124 B(  0-C ,  4-C ) :   0.9987 B(  0-C ,  7-H ) :   0.9296
B(  0-C ,  8-H ) :   0.9309 B(  1-O ,  2-C ) :   0.9839 B(  2-C ,  3-O ) :   1.0466
B(  2-C ,  6-C ) :   0.9525 B(  2-C ,  9-H ) :   0.9581 B(  3-O ,  4-C ) :   0.9661
B(  4-C ,  5-C ) :   0.9558 B(  4-C , 10-H ) :   0.9565 B(  5-C ,  6-C ) :   1.7746
B(  5-C , 11-H ) :   1.0023 B(  6-C , 12-H ) :   1.0069

FINAL SINGLE POINT ENERGY      -343.860328210487

DIPOLE MOMENT
-------------
                                X             Y             Z
Electronic contribution:      0.94578      -0.78176      -1.92117
Nuclear contribution   :     -1.41998       0.85381       2.35389
                        -----------------------------------------
Total Dipole Moment    :     -0.47420       0.07205       0.43272
                        -----------------------------------------
Magnitude (a.u.)       :      0.64599
Magnitude (Debye)      :      1.64198

                             ****ORCA TERMINATED NORMALLY****
TOTAL RUN TIME: 0 days 0 hours 0 minutes 6 seconds 338 msec
