                         Program Version 3.0.3 - RELEASE   -
|  1> ! RI PBE def2-SVP def2-SVP/J NBO PAL2
|  2> % maxcore 2000
|  3> % output
|  4>     # printlevel mini
|  5>     print[ P_Basis ] 0
|  6>     print[ P_SCFInfo ] 1
|  7>     print[ P_SCFIterInfo ] 1
|  8>     print[ P_OrbEn ] 0
|  9>     print[ P_Cartesian ] 0
| 10> end
| 11> *xyz 0 1
| 12>  C       -0.2631200000    -0.9922930000    -0.5687180000
| 13>  O        1.0148950000    -1.2251190000    -1.1433820000
| 14>  C        0.9289050000    -0.3412880000    -0.0378120000
| 15>  C        1.5946820000    -0.7569070000     1.2398450000
| 16>  C        0.8116650000    -0.3987360000     2.5133310000
| 17>  O        0.4621620000    -1.7704150000     2.7328260000
| 18>  C        1.3614640000    -2.1972870000     1.6986700000
| 19>  H       -0.6992590000    -1.8350680000    -0.0388300000
| 20>  H       -0.9519580000    -0.4218920000    -1.1866200000
| 21>  H        1.0776090000     0.7062270000    -0.3025510000
| 22>  H        2.6388470000    -0.4395560000     1.2298530000
| 23>  H       -0.0704600000     0.2353110000     2.3794710000
| 24>  H        1.4248680000    -0.0009230000     3.3295820000
| 25>  H        0.8902780000    -2.8743220000     0.9819820000
| 26>  H        2.2521330000    -2.6811220000     2.1136440000
| 27> *
| 28>
| 29>                          ****END OF INPUT****
 Total Charge           Charge          ....    0
 Multiplicity           Mult            ....    1
 Number of Electrons    NEL             ....   54
 Basis Dimension        Dim             ....  138

MULLIKEN ATOMIC CHARGES
-----------------------
   0 C :    0.132714
   1 O :   -0.287970
   2 C :    0.043294
   3 C :   -0.185144
   4 C :    0.248408
   5 O :   -0.364260
   6 C :    0.242753
   7 H :    0.038085
   8 H :    0.033748
   9 H :    0.020643
  10 H :    0.022041
  11 H :    0.012648
  12 H :    0.009405
  13 H :    0.022768
  14 H :    0.010868
Sum of atomic charges:   -0.0000000

LOEWDIN ATOMIC CHARGES
----------------------
   0 C :    0.054580
   1 O :   -0.151502
   2 C :    0.039352
   3 C :   -0.064789
   4 C :    0.092278
   5 O :   -0.185262
   6 C :    0.091341
   7 H :    0.016108
   8 H :    0.017885
   9 H :    0.017799
  10 H :    0.029355
  11 H :    0.009972
  12 H :    0.009573
  13 H :    0.010953
  14 H :    0.012357

  Mayer bond orders larger than 0.1
B(  0-C ,  1-O ) :   0.9930 B(  0-C ,  2-C ) :   1.0988 B(  0-C ,  7-H ) :   0.9241
B(  0-C ,  8-H ) :   0.9364 B(  1-O ,  2-C ) :   0.9943 B(  2-C ,  3-C ) :   0.9971
B(  2-C ,  9-H ) :   0.9348 B(  3-C ,  4-C ) :   1.0626 B(  3-C ,  6-C ) :   1.0837
B(  3-C , 10-H ) :   0.9168 B(  4-C ,  5-O ) :   1.0360 B(  4-C , 11-H ) :   0.9371
B(  4-C , 12-H ) :   0.9259 B(  5-O ,  6-C ) :   1.0247 B(  6-C , 13-H ) :   0.9268
B(  6-C , 14-H ) :   0.9245

FINAL SINGLE POINT ENERGY      -345.030179493678

DIPOLE MOMENT
-------------
                                X             Y             Z
Electronic contribution:      0.16767      -0.89227      -1.01392
Nuclear contribution   :     -0.10599       1.49446       1.06490
                        -----------------------------------------
Total Dipole Moment    :      0.06167       0.60220       0.05098
                        -----------------------------------------
Magnitude (a.u.)       :      0.60749
Magnitude (Debye)      :      1.54412

                             ****ORCA TERMINATED NORMALLY****
TOTAL RUN TIME: 0 days 0 hours 0 minutes 6 seconds 860 msec
