                         Program Version 3.0.3 - RELEASE   -
|  1> ! RI PBE def2-SVP def2-SVP/J NBO PAL2
|  2> % maxcore 2000
|  3> % output
|  4>     # printlevel mini
|  5>     print[ P_Basis ] 0
|  6>     print[ P_SCFInfo ] 1
|  7>     print[ P_SCFIterInfo ] 1
|  8>     print[ P_OrbEn ] 0
|  9>     print[ P_Cartesian ] 0
| 10> end
| 11> *xyz 0 1
| 12>  C       -0.7590380000     0.0000440000    -1.1666790000
| 13>  C       -0.6240080000     1.0439120000    -0.0417380000
| 14>  C       -1.2320170000     0.0001310000     0.9143470000
| 15>  C       -0.6242230000    -1.0438110000    -0.0417000000
| 16>  C        0.8394320000    -1.2226630000     0.2909160000
| 17>  O        1.5384250000    -0.0001630000     0.4461930000
| 18>  C        0.8396830000     1.2224750000     0.2908710000
| 19>  H       -0.0054280000    -0.0000480000    -1.9588990000
| 20>  H       -1.7580570000     0.0001390000    -1.6059690000
| 21>  H       -1.1098640000     2.0156520000    -0.1521100000
| 22>  H       -2.3227770000     0.0002420000     0.8787370000
| 23>  H       -0.8948730000     0.0001150000     1.9544990000
| 24>  H       -1.1102780000    -2.0154550000    -0.1520360000
| 25>  H        1.3336380000    -1.7960000000    -0.5047030000
| 26>  H        0.9410990000    -1.7923630000     1.2243030000
| 27>  H        1.3340080000     1.7956820000    -0.5047690000
| 28>  H        0.9414680000     1.7921890000     1.2242360000
| 29> *
| 30>
| 31>                          ****END OF INPUT****
 Total Charge           Charge          ....    0
 Multiplicity           Mult            ....    1
 Number of Electrons    NEL             ....   54
 Basis Dimension        Dim             ....  148

MULLIKEN ATOMIC CHARGES
-----------------------
   0 C :    0.097962
   1 C :   -0.250734
   2 C :    0.102777
   3 C :   -0.250741
   4 C :    0.298578
   5 O :   -0.377198
   6 C :    0.298582
   7 H :    0.017907
   8 H :    0.014198
   9 H :    0.004843
  10 H :    0.016630
  11 H :    0.014113
  12 H :    0.004847
  13 H :    0.001942
  14 H :    0.002177
  15 H :    0.001942
  16 H :    0.002176
Sum of atomic charges:   -0.0000000

LOEWDIN ATOMIC CHARGES
----------------------
   0 C :   -0.027827
   1 C :   -0.047449
   2 C :   -0.028202
   3 C :   -0.047449
   4 C :    0.075675
   5 O :   -0.166111
   6 C :    0.075675
   7 H :    0.016303
   8 H :    0.025492
   9 H :    0.018993
  10 H :    0.025800
  11 H :    0.015468
  12 H :    0.018993
  13 H :    0.011165
  14 H :    0.011154
  15 H :    0.011165
  16 H :    0.011154

  Mayer bond orders larger than 0.1
B(  0-C ,  1-C ) :   1.0021 B(  0-C ,  3-C ) :   1.0021 B(  0-C ,  7-H ) :   0.9393
B(  0-C ,  8-H ) :   0.9340 B(  1-C ,  2-C ) :   1.0030 B(  1-C ,  6-C ) :   1.0456
B(  1-C ,  9-H ) :   0.9222 B(  2-C ,  3-C ) :   1.0030 B(  2-C , 10-H ) :   0.9336
B(  2-C , 11-H ) :   0.9383 B(  3-C ,  4-C ) :   1.0456 B(  3-C , 12-H ) :   0.9222
B(  4-C ,  5-O ) :   1.0047 B(  4-C , 13-H ) :   0.9303 B(  4-C , 14-H ) :   0.9303
B(  5-O ,  6-C ) :   1.0047 B(  6-C , 15-H ) :   0.9303 B(  6-C , 16-H ) :   0.9303

FINAL SINGLE POINT ENERGY      -309.209044053296

DIPOLE MOMENT
-------------
                                X             Y             Z
Electronic contribution:      2.19160      -0.00022       0.48636
Nuclear contribution   :     -2.77096       0.00027      -0.62034
                        -----------------------------------------
Total Dipole Moment    :     -0.57935       0.00006      -0.13398
                        -----------------------------------------
Magnitude (a.u.)       :      0.59464
Magnitude (Debye)      :      1.51146

                             ****ORCA TERMINATED NORMALLY****
TOTAL RUN TIME: 0 days 0 hours 0 minutes 7 seconds 663 msec
