                         Program Version 3.0.3 - RELEASE   -
|  1> ! RI PBE def2-SVP def2-SVP/J NBO PAL2
|  2> % maxcore 2000
|  3> % output
|  4>     # printlevel mini
|  5>     print[ P_Basis ] 0
|  6>     print[ P_SCFInfo ] 1
|  7>     print[ P_SCFIterInfo ] 1
|  8>     print[ P_OrbEn ] 0
|  9>     print[ P_Cartesian ] 0
| 10> end
| 11> *xyz 0 1
| 12>  C       -1.2026550000     0.0001540000     1.0442590000
| 13>  C       -0.6205260000    -0.9946560000     0.0372930000
| 14>  C        0.8577430000    -1.1897060000     0.2907830000
| 15>  O        1.4341520000    -0.0001610000     0.7995970000
| 16>  C        0.8580240000     1.1895060000     0.2907500000
| 17>  C       -0.6202910000     0.9947980000     0.0372660000
| 18>  O       -0.7453190000     0.0000720000    -1.0097290000
| 19>  H       -0.8108500000     0.0001210000     2.0610320000
| 20>  H       -2.2911890000     0.0002820000     1.0340970000
| 21>  H       -1.1454520000    -1.9238130000    -0.1940210000
| 22>  H        1.3395190000    -1.4893610000    -0.6501080000
| 23>  H        1.0363080000    -1.9649410000     1.0416350000
| 24>  H        1.3398710000     1.4890210000    -0.6501490000
| 25>  H        1.0367720000     1.9647190000     1.0415800000
| 26>  H       -1.1449980000     1.9240730000    -0.1940740000
| 27> *
| 28>
| 29>                          ****END OF INPUT****
 Total Charge           Charge          ....    0
 Multiplicity           Mult            ....    1
 Number of Electrons    NEL             ....   54
 Basis Dimension        Dim             ....  138

MULLIKEN ATOMIC CHARGES
-----------------------
   0 C :    0.053097
   1 C :   -0.048347
   2 C :    0.302597
   3 O :   -0.366845
   4 C :    0.302604
   5 C :   -0.048345
   6 O :   -0.329118
   7 H :    0.033135
   8 H :    0.032077
   9 H :    0.011901
  10 H :    0.007320
  11 H :    0.015356
  12 H :    0.007321
  13 H :    0.015352
  14 H :    0.011897
Sum of atomic charges:   -0.0000000

LOEWDIN ATOMIC CHARGES
----------------------
   0 C :   -0.043015
   1 C :    0.051195
   2 C :    0.057758
   3 O :   -0.155594
   4 C :    0.057759
   5 C :    0.051195
   6 O :   -0.179815
   7 H :    0.023228
   8 H :    0.033036
   9 H :    0.015463
  10 H :    0.013454
  11 H :    0.023210
  12 H :    0.013454
  13 H :    0.023209
  14 H :    0.015462

  Mayer bond orders larger than 0.1
B(  0-C ,  1-C ) :   1.0358 B(  0-C ,  5-C ) :   1.0358 B(  0-C ,  7-H ) :   0.9459
B(  0-C ,  8-H ) :   0.9155 B(  1-C ,  2-C ) :   1.0227 B(  1-C ,  6-O ) :   0.9797
B(  1-C ,  9-H ) :   0.9309 B(  2-C ,  3-O ) :   1.0032 B(  2-C , 10-H ) :   0.9144
B(  2-C , 11-H ) :   0.9305 B(  3-O ,  4-C ) :   1.0032 B(  4-C ,  5-C ) :   1.0227
B(  4-C , 12-H ) :   0.9144 B(  4-C , 13-H ) :   0.9305 B(  5-C ,  6-O ) :   0.9797
B(  5-C , 14-H ) :   0.9309

FINAL SINGLE POINT ENERGY      -345.063337876052

DIPOLE MOMENT
-------------
                                X             Y             Z
Electronic contribution:      0.37217      -0.00006      -1.34986
Nuclear contribution   :     -0.71332       0.00011       1.72231
                        -----------------------------------------
Total Dipole Moment    :     -0.34115       0.00004       0.37245
                        -----------------------------------------
Magnitude (a.u.)       :      0.50508
Magnitude (Debye)      :      1.28381

                             ****ORCA TERMINATED NORMALLY****
TOTAL RUN TIME: 0 days 0 hours 0 minutes 7 seconds 54 msec
