                         Program Version 3.0.3 - RELEASE   -
|  1> ! RI PBE def2-SVP def2-SVP/J NBO PAL2
|  2> % maxcore 2000
|  3> % output
|  4>     # printlevel mini
|  5>     print[ P_Basis ] 0
|  6>     print[ P_SCFInfo ] 1
|  7>     print[ P_SCFIterInfo ] 1
|  8>     print[ P_OrbEn ] 0
|  9>     print[ P_Cartesian ] 0
| 10> end
| 11> *xyz 0 1
| 12>  C       -1.6339080000     0.8245360000     0.4201640000
| 13>  C       -1.0579420000    -0.3737550000    -0.2833740000
| 14>  C       -0.2262680000    -1.3588360000     0.4989230000
| 15>  O        1.1283640000    -1.3251120000     0.0805510000
| 16>  C        1.6859380000    -0.0323940000     0.0086990000
| 17>  O        0.8078810000     0.9793750000     0.4139430000
| 18>  C       -0.3655640000     0.9520800000    -0.3406220000
| 19>  H       -1.5652390000     0.8583050000     1.5009560000
| 20>  H       -2.5182610000     1.2841940000    -0.0021890000
| 21>  H       -1.5549860000    -0.7378660000    -1.1744370000
| 22>  H       -0.5537130000    -2.3850380000     0.3301890000
| 23>  H       -0.3000670000    -1.1535600000     1.5736470000
| 24>  H        2.0107190000     0.1347350000    -1.0292480000
| 25>  H        2.5468610000     0.0277220000     0.6808850000
| 26>  H       -0.3323960000     1.5283150000    -1.2622580000
| 27> *
| 28>
| 29>                          ****END OF INPUT****
 Total Charge           Charge          ....    0
 Multiplicity           Mult            ....    1
 Number of Electrons    NEL             ....   54
 Basis Dimension        Dim             ....  138

MULLIKEN ATOMIC CHARGES
-----------------------
   0 C :    0.033031
   1 C :   -0.203760
   2 C :    0.282796
   3 O :   -0.374009
   4 C :    0.369976
   5 O :   -0.303921
   6 C :    0.060988
   7 H :    0.042758
   8 H :    0.028917
   9 H :    0.025818
  10 H :    0.017483
  11 H :    0.001442
  12 H :   -0.014267
  13 H :    0.014606
  14 H :    0.018143
Sum of atomic charges:   -0.0000000

LOEWDIN ATOMIC CHARGES
----------------------
   0 C :   -0.039748
   1 C :   -0.075102
   2 C :    0.073697
   3 O :   -0.169014
   4 C :    0.143535
   5 O :   -0.122025
   6 C :    0.041776
   7 H :    0.033749
   8 H :    0.032573
   9 H :    0.026895
  10 H :    0.027926
  11 H :    0.010558
  12 H :   -0.006444
  13 H :    0.009545
  14 H :    0.012079

  Mayer bond orders larger than 0.1
B(  0-C ,  1-C ) :   0.9888 B(  0-C ,  6-C ) :   1.0062 B(  0-C ,  7-H ) :   0.9273
B(  0-C ,  8-H ) :   0.9315 B(  1-C ,  2-C ) :   1.0755 B(  1-C ,  6-C ) :   0.9502
B(  1-C ,  9-H ) :   0.9399 B(  2-C ,  3-O ) :   0.9953 B(  2-C , 10-H ) :   0.9438
B(  2-C , 11-H ) :   0.9177 B(  3-O ,  4-C ) :   1.0187 B(  4-C ,  5-O ) :   1.0329
B(  4-C , 12-H ) :   0.9295 B(  4-C , 13-H ) :   0.9485 B(  5-O ,  6-C ) :   1.0695
B(  6-C , 14-H ) :   0.9409

FINAL SINGLE POINT ENERGY      -345.059888770676

DIPOLE MOMENT
-------------
                                X             Y             Z
Electronic contribution:      2.35972       0.06575       0.08989
Nuclear contribution   :     -2.81344       0.01851      -0.33021
                        -----------------------------------------
Total Dipole Moment    :     -0.45372       0.08426      -0.24032
                        -----------------------------------------
Magnitude (a.u.)       :      0.52031
Magnitude (Debye)      :      1.32252

                             ****ORCA TERMINATED NORMALLY****
TOTAL RUN TIME: 0 days 0 hours 0 minutes 6 seconds 749 msec
