                         Program Version 3.0.3 - RELEASE   -
|  1> ! RI PBE def2-SVP def2-SVP/J NBO PAL2
|  2> % maxcore 2000
|  3> % output
|  4>     # printlevel mini
|  5>     print[ P_Basis ] 0
|  6>     print[ P_SCFInfo ] 1
|  7>     print[ P_SCFIterInfo ] 1
|  8>     print[ P_OrbEn ] 0
|  9>     print[ P_Cartesian ] 0
| 10> end
| 11> *xyz 0 1
| 12>  C        1.9014080000     0.0729570000    -0.6265370000
| 13>  C        1.6696400000    -0.1493820000     0.8514470000
| 14>  C        0.5270320000     0.0643540000    -0.0890970000
| 15>  C       -0.4083180000     1.2528710000    -0.0145300000
| 16>  O       -1.6834000000     0.6630280000     0.1890570000
| 17>  C       -1.4832720000    -0.7253440000     0.2941360000
| 18>  O       -0.3063120000    -1.0163360000    -0.4038610000
| 19>  H        2.1994060000    -0.7841170000    -1.2174150000
| 20>  H        2.3186700000     1.0191600000    -0.9501330000
| 21>  H        1.9303410000     0.6461580000     1.5397280000
| 22>  H        1.8158950000    -1.1547070000     1.2263940000
| 23>  H       -0.4296860000     1.8199220000    -0.9508080000
| 24>  H       -0.1585820000     1.9277590000     0.8102300000
| 25>  H       -2.3166100000    -1.2527510000    -0.1729850000
| 26>  H       -1.3837210000    -1.0141810000     1.3533750000
| 27> *
| 28>
| 29>                          ****END OF INPUT****
 Total Charge           Charge          ....    0
 Multiplicity           Mult            ....    1
 Number of Electrons    NEL             ....   54
 Basis Dimension        Dim             ....  138

MULLIKEN ATOMIC CHARGES
-----------------------
   0 C :   -0.013810
   1 C :   -0.002246
   2 C :   -0.196038
   3 C :    0.327640
   4 O :   -0.366154
   5 C :    0.377478
   6 O :   -0.302392
   7 H :    0.050105
   8 H :    0.035817
   9 H :    0.035690
  10 H :    0.035406
  11 H :    0.013414
  12 H :    0.001423
  13 H :    0.021546
  14 H :   -0.017878
Sum of atomic charges:   -0.0000000

LOEWDIN ATOMIC CHARGES
----------------------
   0 C :   -0.041647
   1 C :   -0.051843
   2 C :   -0.008898
   3 C :    0.071138
   4 O :   -0.159889
   5 C :    0.145000
   6 O :   -0.119681
   7 H :    0.039009
   8 H :    0.031308
   9 H :    0.026565
  10 H :    0.032526
  11 H :    0.017614
  12 H :    0.016364
  13 H :    0.014175
  14 H :   -0.011740

  Mayer bond orders larger than 0.1
B(  0-C ,  1-C ) :   1.0390 B(  0-C ,  2-C ) :   0.9900 B(  0-C ,  7-H ) :   0.9316
B(  0-C ,  8-H ) :   0.9414 B(  1-C ,  2-C ) :   0.9646 B(  1-C ,  9-H ) :   0.9383
B(  1-C , 10-H ) :   0.9319 B(  2-C ,  3-C ) :   1.0205 B(  2-C ,  6-O ) :   1.0443
B(  3-C ,  4-O ) :   1.0150 B(  3-C , 11-H ) :   0.9273 B(  3-C , 12-H ) :   0.9208
B(  4-O ,  5-C ) :   1.0299 B(  5-C ,  6-O ) :   1.0357 B(  5-C , 13-H ) :   0.9523
B(  5-C , 14-H ) :   0.9261

FINAL SINGLE POINT ENERGY      -345.062651535515

DIPOLE MOMENT
-------------
                                X             Y             Z
Electronic contribution:     -3.34111      -0.87103      -1.10387
Nuclear contribution   :      3.80012       0.99526       1.29275
                        -----------------------------------------
Total Dipole Moment    :      0.45901       0.12423       0.18887
                        -----------------------------------------
Magnitude (a.u.)       :      0.51166
Magnitude (Debye)      :      1.30055

                             ****ORCA TERMINATED NORMALLY****
TOTAL RUN TIME: 0 days 0 hours 0 minutes 6 seconds 648 msec
