                         Program Version 3.0.3 - RELEASE   -
|  1> ! RI PBE def2-SVP def2-SVP/J NBO PAL2
|  2> % maxcore 2000
|  3> % output
|  4>     # printlevel mini
|  5>     print[ P_Basis ] 0
|  6>     print[ P_SCFInfo ] 1
|  7>     print[ P_SCFIterInfo ] 1
|  8>     print[ P_OrbEn ] 0
|  9>     print[ P_Cartesian ] 0
| 10> end
| 11> *xyz 0 1
| 12>  C       -1.7864420000     0.6416170000     0.2761850000
| 13>  O       -1.7191080000    -0.6779070000    -0.3386830000
| 14>  C       -0.3273080000    -0.6896100000     0.0452990000
| 15>  C        0.9725720000    -1.0341870000    -0.6300890000
| 16>  O        1.8216290000    -0.0462100000    -0.0005300000
| 17>  C        1.0667490000     1.0464050000     0.6003260000
| 18>  C       -0.2844980000     0.8055920000    -0.0076840000
| 19>  H       -2.0477060000     0.5605310000     1.3374160000
| 20>  H       -2.4816480000     1.2990710000    -0.2460230000
| 21>  H       -0.2719450000    -1.0463990000     1.0856360000
| 22>  H        0.9406990000    -0.8926740000    -1.7160500000
| 23>  H        1.3898970000    -2.0145970000    -0.3949960000
| 24>  H        1.5564510000     1.9773550000     0.3106260000
| 25>  H        1.0866720000     0.9474190000     1.6906050000
| 26>  H       -0.2241030000     1.0785030000    -1.0663380000
| 27> *
| 28>
| 29>                          ****END OF INPUT****
 Total Charge           Charge          ....    0
 Multiplicity           Mult            ....    1
 Number of Electrons    NEL             ....   54
 Basis Dimension        Dim             ....  138

MULLIKEN ATOMIC CHARGES
-----------------------
   0 C :    0.265081
   1 O :   -0.336153
   2 C :   -0.004545
   3 C :    0.304515
   4 O :   -0.401712
   5 C :    0.318202
   6 C :   -0.262299
   7 H :    0.009348
   8 H :    0.022109
   9 H :    0.014358
  10 H :    0.011453
  11 H :    0.009711
  12 H :    0.005906
  13 H :    0.009567
  14 H :    0.034459
Sum of atomic charges:   -0.0000000

LOEWDIN ATOMIC CHARGES
----------------------
   0 C :    0.101760
   1 O :   -0.177023
   2 C :    0.042311
   3 C :    0.072030
   4 O :   -0.184272
   5 C :    0.083762
   6 C :   -0.082027
   7 H :    0.013050
   8 H :    0.017778
   9 H :    0.013950
  10 H :    0.012476
  11 H :    0.019484
  12 H :    0.017730
  13 H :    0.012629
  14 H :    0.036363

  Mayer bond orders larger than 0.1
B(  0-C ,  1-O ) :   0.9983 B(  0-C ,  6-C ) :   1.0501 B(  0-C ,  7-H ) :   0.9228
B(  0-C ,  8-H ) :   0.9348 B(  1-O ,  2-C ) :   1.0141 B(  2-C ,  3-C ) :   1.0606
B(  2-C ,  6-C ) :   1.0109 B(  2-C ,  9-H ) :   0.9174 B(  3-C ,  4-O ) :   0.9726
B(  3-C , 10-H ) :   0.9237 B(  3-C , 11-H ) :   0.9244 B(  4-O ,  5-C ) :   0.9593
B(  5-C ,  6-C ) :   1.0685 B(  5-C , 12-H ) :   0.9238 B(  5-C , 13-H ) :   0.9336
B(  6-C , 14-H ) :   0.9019

FINAL SINGLE POINT ENERGY      -345.015180929241

DIPOLE MOMENT
-------------
                                X             Y             Z
Electronic contribution:     -0.31975      -1.34818      -0.77525
Nuclear contribution   :      0.15796       1.81165       1.00974
                        -----------------------------------------
Total Dipole Moment    :     -0.16179       0.46348       0.23450
                        -----------------------------------------
Magnitude (a.u.)       :      0.54404
Magnitude (Debye)      :      1.38283

                             ****ORCA TERMINATED NORMALLY****
TOTAL RUN TIME: 0 days 0 hours 0 minutes 6 seconds 765 msec
