                         Program Version 3.0.3 - RELEASE   -
|  1> ! RI PBE def2-SVP def2-SVP/J NBO PAL2
|  2> % maxcore 2000
|  3> % output
|  4>     # printlevel mini
|  5>     print[ P_Basis ] 0
|  6>     print[ P_SCFInfo ] 1
|  7>     print[ P_SCFIterInfo ] 1
|  8>     print[ P_OrbEn ] 0
|  9>     print[ P_Cartesian ] 0
| 10> end
| 11> *xyz 0 1
| 12>  C        0.8112940000    -1.1171690000     0.9087950000
| 13>  C        1.1051180000    -0.3733840000    -0.3481880000
| 14>  C        0.8663720000     1.1063360000    -0.4704880000
| 15>  O       -0.3032070000     1.5666180000     0.1959730000
| 16>  C       -1.4161030000     0.8097780000     0.0221610000
| 17>  C       -1.3979440000    -0.4977420000    -0.2247180000
| 18>  C       -0.1217490000    -1.2341870000    -0.2801690000
| 19>  H        0.4383340000    -0.5601510000     1.7599310000
| 20>  H        1.4363650000    -1.9677070000     1.1524820000
| 21>  H        1.9318160000    -0.7292200000    -0.9551730000
| 22>  H        0.7832510000     1.3616070000    -1.5356860000
| 23>  H        1.6873390000     1.6854720000    -0.0427430000
| 24>  H       -2.3250250000     1.3873730000     0.1436590000
| 25>  H       -2.3366910000    -1.0253140000    -0.3334430000
| 26>  H       -0.1172520000    -2.1749100000    -0.8176740000
| 27> *
| 28>
| 29>                          ****END OF INPUT****
 Total Charge           Charge          ....    0
 Multiplicity           Mult            ....    1
 Number of Electrons    NEL             ....   52
 Basis Dimension        Dim             ....  138

MULLIKEN ATOMIC CHARGES
-----------------------
   0 C :    0.032327
   1 C :   -0.201719
   2 C :    0.300190
   3 O :   -0.285672
   4 C :    0.081082
   5 C :   -0.002877
   6 C :   -0.059057
   7 H :    0.044659
   8 H :    0.030545
   9 H :    0.025418
  10 H :    0.010357
  11 H :    0.018756
  12 H :    0.002017
  13 H :   -0.011537
  14 H :    0.015510
Sum of atomic charges:    0.0000000

LOEWDIN ATOMIC CHARGES
----------------------
   0 C :   -0.029963
   1 C :   -0.058897
   2 C :    0.083683
   3 O :   -0.089154
   4 C :    0.022033
   5 C :   -0.104229
   6 C :   -0.036367
   7 H :    0.031255
   8 H :    0.028734
   9 H :    0.032581
  10 H :    0.017143
  11 H :    0.025407
  12 H :    0.019293
  13 H :    0.030886
  14 H :    0.027594

  Mayer bond orders larger than 0.1
B(  0-C ,  1-C ) :   0.9895 B(  0-C ,  6-C ) :   0.9491 B(  0-C ,  7-H ) :   0.9471
B(  0-C ,  8-H ) :   0.9400 B(  1-C ,  2-C ) :   1.0614 B(  1-C ,  6-C ) :   0.9482
B(  1-C ,  9-H ) :   0.9228 B(  2-C ,  3-O ) :   0.9811 B(  2-C , 10-H ) :   0.9298
B(  2-C , 11-H ) :   0.9410 B(  3-O ,  4-C ) :   1.1226 B(  4-C ,  5-C ) :   1.7637
B(  4-C , 12-H ) :   0.9699 B(  5-C ,  6-C ) :   1.0687 B(  5-C , 13-H ) :   0.9668
B(  6-C , 14-H ) :   0.9473

FINAL SINGLE POINT ENERGY      -308.004562420176

DIPOLE MOMENT
-------------
                                X             Y             Z
Electronic contribution:     -1.51105       2.13579       0.18149
Nuclear contribution   :      1.80616      -2.44840      -0.41369
                        -----------------------------------------
Total Dipole Moment    :      0.29512      -0.31261      -0.23220
                        -----------------------------------------
Magnitude (a.u.)       :      0.48861
Magnitude (Debye)      :      1.24194

                             ****ORCA TERMINATED NORMALLY****
TOTAL RUN TIME: 0 days 0 hours 0 minutes 7 seconds 161 msec
