                         Program Version 3.0.3 - RELEASE   -
|  1> ! RI PBE def2-SVP def2-SVP/J NBO PAL2
|  2> % maxcore 2000
|  3> % output
|  4>     # printlevel mini
|  5>     print[ P_Basis ] 0
|  6>     print[ P_SCFInfo ] 1
|  7>     print[ P_SCFIterInfo ] 1
|  8>     print[ P_OrbEn ] 0
|  9>     print[ P_Cartesian ] 0
| 10> end
| 11> *xyz 0 1
| 12>  C        0.6774940000    -1.2325230000     0.5069770000
| 13>  O       -0.6211300000    -1.5302720000     0.0069430000
| 14>  C       -1.5356550000    -0.5480300000    -0.0504210000
| 15>  C       -1.2816410000     0.7587110000     0.0126170000
| 16>  C        0.1079990000     1.2153540000     0.1281710000
| 17>  O        1.0148470000     0.7876010000    -0.9152180000
| 18>  C        1.1200500000     0.1929240000     0.3566560000
| 19>  H        1.3579310000    -1.9095680000    -0.0150650000
| 20>  H        0.7037740000    -1.4790900000     1.5765820000
| 21>  H       -2.5321090000    -0.9513430000    -0.1906940000
| 22>  H       -2.0940440000     1.4659120000    -0.0798540000
| 23>  H        0.2905600000     2.2290100000     0.4712710000
| 24>  H        2.0241140000     0.4337840000     0.9169260000
| 25> *
| 26>
| 27>                          ****END OF INPUT****
 Total Charge           Charge          ....    0
 Multiplicity           Mult            ....    1
 Number of Electrons    NEL             ....   52
 Basis Dimension        Dim             ....  128

MULLIKEN ATOMIC CHARGES
-----------------------
   0 C :    0.283087
   1 O :   -0.267055
   2 C :    0.114394
   3 C :   -0.035398
   4 C :    0.117687
   5 O :   -0.275439
   6 C :   -0.034757
   7 H :    0.031618
   8 H :    0.019785
   9 H :    0.013255
  10 H :   -0.003011
  11 H :    0.014439
  12 H :    0.021396
Sum of atomic charges:    0.0000000

LOEWDIN ATOMIC CHARGES
----------------------
   0 C :    0.070824
   1 O :   -0.064992
   2 C :    0.055564
   3 C :   -0.136260
   4 C :    0.050835
   5 O :   -0.154056
   6 C :    0.020194
   7 H :    0.032498
   8 H :    0.025693
   9 H :    0.025199
  10 H :    0.033625
  11 H :    0.020522
  12 H :    0.020354

  Mayer bond orders larger than 0.1
B(  0-C ,  1-O ) :   0.9754 B(  0-C ,  6-C ) :   1.0335 B(  0-C ,  7-H ) :   0.9259
B(  0-C ,  8-H ) :   0.9266 B(  1-O ,  2-C ) :   1.1612 B(  1-O ,  3-C ) :   0.1057
B(  2-C ,  3-C ) :   1.7187 B(  2-C ,  9-H ) :   0.9664 B(  3-C ,  4-C ) :   1.0455
B(  3-C , 10-H ) :   0.9657 B(  4-C ,  5-O ) :   0.9480 B(  4-C ,  6-C ) :   1.0421
B(  4-C , 11-H ) :   0.9522 B(  5-O ,  6-C ) :   0.9942 B(  6-C , 12-H ) :   0.9169

FINAL SINGLE POINT ENERGY      -343.857988047334

DIPOLE MOMENT
-------------
                                X             Y             Z
Electronic contribution:     -0.05134      -0.22904      -1.75497
Nuclear contribution   :      0.05435       0.22072       2.52158
                        -----------------------------------------
Total Dipole Moment    :      0.00301      -0.00832       0.76661
                        -----------------------------------------
Magnitude (a.u.)       :      0.76666
Magnitude (Debye)      :      1.94870

                             ****ORCA TERMINATED NORMALLY****
TOTAL RUN TIME: 0 days 0 hours 0 minutes 6 seconds 1 msec
