                         Program Version 3.0.3 - RELEASE   -
|  1> ! RI PBE def2-SVP def2-SVP/J NBO PAL2
|  2> % maxcore 2000
|  3> % output
|  4>     # printlevel mini
|  5>     print[ P_Basis ] 0
|  6>     print[ P_SCFInfo ] 1
|  7>     print[ P_SCFIterInfo ] 1
|  8>     print[ P_OrbEn ] 0
|  9>     print[ P_Cartesian ] 0
| 10> end
| 11> *xyz 0 1
| 12>  C        1.0503710000     1.1211230000    -0.4379970000
| 13>  O       -0.1398200000     1.6048870000     0.1631650000
| 14>  C       -1.2718410000     0.8905410000    -0.0113520000
| 15>  C       -1.4449270000    -0.4222170000    -0.1444930000
| 16>  C       -0.4885780000    -1.5643120000    -0.0282500000
| 17>  C        0.9502940000    -1.2952540000     0.2616430000
| 18>  C        1.6110650000    -0.1553170000     0.1087420000
| 19>  H        1.7722440000     1.9278040000    -0.3051550000
| 20>  H        0.8686470000     1.0126750000    -1.5162470000
| 21>  H       -2.1372090000     1.5468060000    -0.0268150000
| 22>  H       -2.4791470000    -0.7162420000    -0.2964940000
| 23>  H       -0.5425950000    -2.1883040000    -0.9342840000
| 24>  H       -0.8712050000    -2.2250770000     0.7614760000
| 25>  H        1.5075650000    -2.1554660000     0.6250390000
| 26>  H        2.6695560000    -0.1385570000     0.3527220000
| 27> *
| 28>
| 29>                          ****END OF INPUT****
 Total Charge           Charge          ....    0
 Multiplicity           Mult            ....    1
 Number of Electrons    NEL             ....   52
 Basis Dimension        Dim             ....  138

MULLIKEN ATOMIC CHARGES
-----------------------
   0 C :    0.238977
   1 O :   -0.264657
   2 C :    0.097836
   3 C :   -0.143630
   4 C :    0.147596
   5 C :   -0.073110
   6 C :   -0.115699
   7 H :    0.018320
   8 H :    0.027787
   9 H :    0.001519
  10 H :   -0.001085
  11 H :    0.035931
  12 H :    0.030064
  13 H :   -0.000484
  14 H :    0.000635
Sum of atomic charges:    0.0000000

LOEWDIN ATOMIC CHARGES
----------------------
   0 C :    0.064959
   1 O :   -0.080759
   2 C :    0.016853
   3 C :   -0.117836
   4 C :   -0.047832
   5 C :   -0.025213
   6 C :   -0.075612
   7 H :    0.028739
   8 H :    0.026797
   9 H :    0.021527
  10 H :    0.033110
  11 H :    0.048767
  12 H :    0.047915
  13 H :    0.029222
  14 H :    0.029363

  Mayer bond orders larger than 0.1
B(  0-C ,  1-O ) :   0.9808 B(  0-C ,  6-C ) :   1.0413 B(  0-C ,  7-H ) :   0.9378
B(  0-C ,  8-H ) :   0.9149 B(  1-O ,  2-C ) :   1.1611 B(  2-C ,  3-C ) :   1.8278
B(  2-C ,  9-H ) :   0.9586 B(  3-C ,  4-C ) :   1.0368 B(  3-C , 10-H ) :   0.9298
B(  4-C ,  5-C ) :   1.0546 B(  4-C , 11-H ) :   0.8861 B(  4-C , 12-H ) :   0.8980
B(  5-C ,  6-C ) :   1.9571 B(  5-C , 13-H ) :   0.9446 B(  6-C , 14-H ) :   0.9405

FINAL SINGLE POINT ENERGY      -308.000496481017

DIPOLE MOMENT
-------------
                                X             Y             Z
Electronic contribution:     -0.29584       2.77119       0.86277
Nuclear contribution   :      0.46810      -3.16885      -1.11658
                        -----------------------------------------
Total Dipole Moment    :      0.17226      -0.39766      -0.25381
                        -----------------------------------------
Magnitude (a.u.)       :      0.50223
Magnitude (Debye)      :      1.27656

                             ****ORCA TERMINATED NORMALLY****
TOTAL RUN TIME: 0 days 0 hours 0 minutes 7 seconds 609 msec
