                         Program Version 3.0.3 - RELEASE   -
|  1> ! RI PBE def2-SVP def2-SVP/J NBO PAL2
|  2> % maxcore 2000
|  3> % output
|  4>     # printlevel mini
|  5>     print[ P_Basis ] 0
|  6>     print[ P_SCFInfo ] 1
|  7>     print[ P_SCFIterInfo ] 1
|  8>     print[ P_OrbEn ] 0
|  9>     print[ P_Cartesian ] 0
| 10> end
| 11> *xyz 0 1
| 12>  C       -0.4628080000     1.4533770000    -0.4221390000
| 13>  O       -1.3040320000     0.5673860000     0.2556410000
| 14>  C       -1.3036180000    -0.7587510000    -0.2346210000
| 15>  C       -0.2243480000    -1.6089570000     0.3544650000
| 16>  C        1.0513180000    -1.2276680000     0.4499360000
| 17>  C        1.6213290000     0.0191300000    -0.0349380000
| 18>  C        0.9922740000     1.1268680000    -0.4429800000
| 19>  H       -0.5921240000     2.4151860000     0.0878900000
| 20>  H       -0.8077740000     1.6119450000    -1.4591300000
| 21>  H       -1.2211110000    -0.7542810000    -1.3328020000
| 22>  H       -2.2832750000    -1.1733750000     0.0137870000
| 23>  H       -0.5121240000    -2.5849270000     0.7334690000
| 24>  H        1.7578030000    -1.9220910000     0.8955580000
| 25>  H        2.7064050000     0.0312900000    -0.0942690000
| 26>  H        1.6074730000     1.9390790000    -0.8255660000
| 27> *
| 28>
| 29>                          ****END OF INPUT****
 Total Charge           Charge          ....    0
 Multiplicity           Mult            ....    1
 Number of Electrons    NEL             ....   52
 Basis Dimension        Dim             ....  138

MULLIKEN ATOMIC CHARGES
-----------------------
   0 C :    0.273826
   1 O :   -0.334539
   2 C :    0.244050
   3 C :   -0.088509
   4 C :    0.004038
   5 C :    0.008285
   6 C :   -0.144757
   7 H :    0.025606
   8 H :    0.001274
   9 H :    0.016298
  10 H :    0.010579
  11 H :   -0.008490
  12 H :   -0.007435
  13 H :   -0.003677
  14 H :    0.003451
Sum of atomic charges:    0.0000000

LOEWDIN ATOMIC CHARGES
----------------------
   0 C :    0.051451
   1 O :   -0.138901
   2 C :    0.058761
   3 C :   -0.049207
   4 C :   -0.040917
   5 C :   -0.056155
   6 C :   -0.048531
   7 H :    0.037719
   8 H :    0.015066
   9 H :    0.022991
  10 H :    0.026559
  11 H :    0.026455
  12 H :    0.030932
  13 H :    0.032411
  14 H :    0.031367

  Mayer bond orders larger than 0.1
B(  0-C ,  1-O ) :   1.0637 B(  0-C ,  6-C ) :   1.0264 B(  0-C ,  7-H ) :   0.9141
B(  0-C ,  8-H ) :   0.9083 B(  1-O ,  2-C ) :   0.9994 B(  2-C ,  3-C ) :   1.0529
B(  2-C ,  9-H ) :   0.8965 B(  2-C , 10-H ) :   0.9322 B(  3-C ,  4-C ) :   1.8270
B(  3-C ,  6-C ) :   0.1062 B(  3-C , 11-H ) :   0.9467 B(  4-C ,  5-C ) :   1.1264
B(  4-C , 12-H ) :   0.9510 B(  5-C ,  6-C ) :   1.8305 B(  5-C , 13-H ) :   0.9495
B(  6-C , 14-H ) :   0.9266

FINAL SINGLE POINT ENERGY      -308.001287195906

DIPOLE MOMENT
-------------
                                X             Y             Z
Electronic contribution:     -0.44389       0.10270       1.33267
Nuclear contribution   :      0.60287      -0.14156      -1.70821
                        -----------------------------------------
Total Dipole Moment    :      0.15898      -0.03886      -0.37554
                        -----------------------------------------
Magnitude (a.u.)       :      0.40966
Magnitude (Debye)      :      1.04126

                             ****ORCA TERMINATED NORMALLY****
TOTAL RUN TIME: 0 days 0 hours 0 minutes 6 seconds 827 msec
