                         Program Version 3.0.3 - RELEASE   -
|  1> ! RI PBE def2-SVP def2-SVP/J NBO PAL2
|  2> % maxcore 2000
|  3> % output
|  4>     # printlevel mini
|  5>     print[ P_Basis ] 0
|  6>     print[ P_SCFInfo ] 1
|  7>     print[ P_SCFIterInfo ] 1
|  8>     print[ P_OrbEn ] 0
|  9>     print[ P_Cartesian ] 0
| 10> end
| 11> *xyz 0 1
| 12>  C       -1.3015240000     0.6378410000     0.2252430000
| 13>  O       -1.4037280000    -0.7455320000     0.0176260000
| 14>  C       -0.3506490000    -1.4947370000     0.4218600000
| 15>  C        0.9258260000    -1.1006930000     0.4822760000
| 16>  C        1.4898430000     0.1617010000     0.0485800000
| 17>  C        0.8532810000     1.1999260000    -0.5038590000
| 18>  O       -0.4829810000     1.3153550000    -0.6903080000
| 19>  H       -0.9339970000     0.8220520000     1.2395100000
| 20>  H       -2.3032140000     1.0353810000     0.0797110000
| 21>  H       -0.6556300000    -2.4930500000     0.7123440000
| 22>  H        1.6218540000    -1.8391740000     0.8625850000
| 23>  H        2.5643960000     0.2704180000     0.1377980000
| 24>  H        1.3854130000     2.0752030000    -0.8570560000
| 25> *
| 26>
| 27>                          ****END OF INPUT****
 Total Charge           Charge          ....    0
 Multiplicity           Mult            ....    1
 Number of Electrons    NEL             ....   52
 Basis Dimension        Dim             ....  128

MULLIKEN ATOMIC CHARGES
-----------------------
   0 C :    0.295947
   1 O :   -0.252683
   2 C :    0.100039
   3 C :   -0.036913
   4 C :   -0.034196
   5 C :    0.096005
   6 O :   -0.253618
   7 H :    0.027459
   8 H :    0.035233
   9 H :    0.008557
  10 H :    0.001276
  11 H :    0.003047
  12 H :    0.009848
Sum of atomic charges:   -0.0000000

LOEWDIN ATOMIC CHARGES
----------------------
   0 C :    0.144493
   1 O :   -0.070590
   2 C :    0.024739
   3 C :   -0.106395
   4 C :   -0.107104
   5 C :    0.024063
   6 O :   -0.070628
   7 H :    0.012798
   8 H :    0.023844
   9 H :    0.022761
  10 H :    0.039394
  11 H :    0.039652
  12 H :    0.022974

  Mayer bond orders larger than 0.1
B(  0-C ,  1-O ) :   1.0237 B(  0-C ,  6-O ) :   1.0216 B(  0-C ,  7-H ) :   0.9418
B(  0-C ,  8-H ) :   0.9569 B(  1-O ,  2-C ) :   1.1344 B(  2-C ,  3-C ) :   1.7183
B(  2-C ,  9-H ) :   0.9642 B(  3-C ,  4-C ) :   1.1353 B(  3-C , 10-H ) :   0.9373
B(  4-C ,  5-C ) :   1.7179 B(  4-C , 11-H ) :   0.9392 B(  5-C ,  6-O ) :   1.1347
B(  5-C , 12-H ) :   0.9642

FINAL SINGLE POINT ENERGY      -343.877778929796

DIPOLE MOMENT
-------------
                                X             Y             Z
Electronic contribution:     -1.94029       0.32340      -1.57347
Nuclear contribution   :      2.07054      -0.21822       2.05779
                        -----------------------------------------
Total Dipole Moment    :      0.13025       0.10519       0.48432
                        -----------------------------------------
Magnitude (a.u.)       :      0.51244
Magnitude (Debye)      :      1.30252

                             ****ORCA TERMINATED NORMALLY****
TOTAL RUN TIME: 0 days 0 hours 0 minutes 5 seconds 967 msec
