                         Program Version 3.0.3 - RELEASE   -
|  1> ! RI PBE def2-SVP def2-SVP/J NBO PAL2
|  2> % maxcore 2000
|  3> % output
|  4>     # printlevel mini
|  5>     print[ P_Basis ] 0
|  6>     print[ P_SCFInfo ] 1
|  7>     print[ P_SCFIterInfo ] 1
|  8>     print[ P_OrbEn ] 0
|  9>     print[ P_Cartesian ] 0
| 10> end
| 11> *xyz 0 1
| 12>  C        1.5939980000    -0.1643350000    -0.0573130000
| 13>  O        0.7500900000    -1.1583820000     0.4296970000
| 14>  C       -0.3440080000    -1.4602030000    -0.4135020000
| 15>  C       -1.5012140000    -0.5304930000    -0.1990090000
| 16>  C       -1.3837030000     0.7314060000     0.1938960000
| 17>  C       -0.0763360000     1.4462340000     0.3638200000
| 18>  O        0.9183870000     0.9622160000    -0.5164480000
| 19>  H        2.1784110000    -0.5132520000    -0.9189600000
| 20>  H        2.2611310000     0.0748670000     0.7814730000
| 21>  H       -0.6470180000    -2.4795050000    -0.1605490000
| 22>  H       -0.0316230000    -1.4659790000    -1.4683090000
| 23>  H       -2.4916580000    -0.9517190000    -0.3468500000
| 24>  H       -2.2800510000     1.3173740000     0.3771020000
| 25>  H        0.2694090000     1.3955860000     1.4070380000
| 26>  H       -0.2072260000     2.5031860000     0.1179240000
| 27> *
| 28>
| 29>                          ****END OF INPUT****
 Total Charge           Charge          ....    0
 Multiplicity           Mult            ....    1
 Number of Electrons    NEL             ....   54
 Basis Dimension        Dim             ....  138

MULLIKEN ATOMIC CHARGES
-----------------------
   0 C :    0.325379
   1 O :   -0.346844
   2 C :    0.234788
   3 C :   -0.087235
   4 C :   -0.085754
   5 C :    0.226204
   6 O :   -0.345341
   7 H :    0.002454
   8 H :    0.002145
   9 H :    0.017256
  10 H :    0.018558
  11 H :   -0.003129
  12 H :   -0.000155
  13 H :    0.019445
  14 H :    0.022230
Sum of atomic charges:   -0.0000000

LOEWDIN ATOMIC CHARGES
----------------------
   0 C :    0.116031
   1 O :   -0.143460
   2 C :    0.059543
   3 C :   -0.055674
   4 C :   -0.055673
   5 C :    0.057779
   6 O :   -0.142794
   7 H :    0.002344
   8 H :    0.002426
   9 H :    0.028860
  10 H :    0.021754
  11 H :    0.028311
  12 H :    0.028907
  13 H :    0.021861
  14 H :    0.029786

  Mayer bond orders larger than 0.1
B(  0-C ,  1-O ) :   1.0438 B(  0-C ,  6-O ) :   1.0419 B(  0-C ,  7-H ) :   0.9379
B(  0-C ,  8-H ) :   0.9374 B(  1-O ,  2-C ) :   0.9952 B(  2-C ,  3-C ) :   1.0348
B(  2-C ,  9-H ) :   0.9320 B(  2-C , 10-H ) :   0.9076 B(  3-C ,  4-C ) :   1.9558
B(  3-C , 11-H ) :   0.9501 B(  4-C ,  5-C ) :   1.0349 B(  4-C , 12-H ) :   0.9482
B(  5-C ,  6-O ) :   0.9981 B(  5-C , 13-H ) :   0.9072 B(  5-C , 14-H ) :   0.9318

FINAL SINGLE POINT ENERGY      -345.069904016036

DIPOLE MOMENT
-------------
                                X             Y             Z
Electronic contribution:      1.01557      -0.08723      -0.01836
Nuclear contribution   :     -1.25544       0.10987       0.02246
                        -----------------------------------------
Total Dipole Moment    :     -0.23987       0.02264       0.00409
                        -----------------------------------------
Magnitude (a.u.)       :      0.24098
Magnitude (Debye)      :      0.61251

                             ****ORCA TERMINATED NORMALLY****
TOTAL RUN TIME: 0 days 0 hours 0 minutes 6 seconds 891 msec
