                         Program Version 3.0.3 - RELEASE   -
|  1> ! RI PBE def2-SVP def2-SVP/J NBO PAL2
|  2> % maxcore 2000
|  3> % output
|  4>     # printlevel mini
|  5>     print[ P_Basis ] 0
|  6>     print[ P_SCFInfo ] 1
|  7>     print[ P_SCFIterInfo ] 1
|  8>     print[ P_OrbEn ] 0
|  9>     print[ P_Cartesian ] 0
| 10> end
| 11> *xyz 0 1
| 12>  C        1.0752700000     1.1721510000    -0.3547880000
| 13>  O       -0.1895190000     1.5904190000     0.1290450000
| 14>  C       -1.2606590000     0.8055460000    -0.0931930000
| 15>  C       -1.3908680000    -0.5202060000    -0.1378740000
| 16>  O       -0.4909670000    -1.5247780000     0.0360840000
| 17>  C        0.8355010000    -1.3169920000     0.1472560000
| 18>  C        1.5351020000    -0.1947460000     0.0155370000
| 19>  H        1.7798990000     1.9086590000     0.0351630000
| 20>  H        1.0689830000     1.2765480000    -1.4479510000
| 21>  H       -2.1695250000     1.3810280000    -0.2319610000
| 22>  H       -2.3768750000    -0.9255460000    -0.3180810000
| 23>  H        1.3299040000    -2.2537110000     0.3744670000
| 24>  H        2.6058450000    -0.3054730000     0.1470960000
| 25> *
| 26>
| 27>                          ****END OF INPUT****
 Total Charge           Charge          ....    0
 Multiplicity           Mult            ....    1
 Number of Electrons    NEL             ....   52
 Basis Dimension        Dim             ....  128

MULLIKEN ATOMIC CHARGES
-----------------------
   0 C :    0.258343
   1 O :   -0.263596
   2 C :    0.074399
   3 C :    0.063773
   4 O :   -0.190876
   5 C :    0.120946
   6 C :   -0.190648
   7 H :    0.023211
   8 H :    0.040246
   9 H :    0.016158
  10 H :    0.015341
  11 H :    0.013384
  12 H :    0.019318
Sum of atomic charges:    0.0000000

LOEWDIN ATOMIC CHARGES
----------------------
   0 C :    0.069680
   1 O :   -0.078969
   2 C :   -0.026966
   3 C :   -0.037984
   4 O :   -0.010470
   5 C :    0.029935
   6 C :   -0.142156
   7 H :    0.033316
   8 H :    0.031978
   9 H :    0.030620
  10 H :    0.031451
  11 H :    0.027854
  12 H :    0.041710

  Mayer bond orders larger than 0.1
B(  0-C ,  1-O ) :   0.9820 B(  0-C ,  6-C ) :   1.0398 B(  0-C ,  7-H ) :   0.9320
B(  0-C ,  8-H ) :   0.9266 B(  1-O ,  2-C ) :   1.1535 B(  2-C ,  3-C ) :   1.7383
B(  2-C ,  9-H ) :   0.9495 B(  3-C ,  4-O ) :   1.0790 B(  3-C , 10-H ) :   0.9543
B(  4-O ,  5-C ) :   1.1383 B(  5-C ,  6-C ) :   1.8158 B(  5-C , 11-H ) :   0.9624
B(  6-C , 12-H ) :   0.9269

FINAL SINGLE POINT ENERGY      -343.857688865043

DIPOLE MOMENT
-------------
                                X             Y             Z
Electronic contribution:     -1.74966      -0.92653       0.85529
Nuclear contribution   :      2.03731       0.92974      -1.12521
                        -----------------------------------------
Total Dipole Moment    :      0.28765       0.00321      -0.26991
                        -----------------------------------------
Magnitude (a.u.)       :      0.39447
Magnitude (Debye)      :      1.00266

                             ****ORCA TERMINATED NORMALLY****
TOTAL RUN TIME: 0 days 0 hours 0 minutes 6 seconds 368 msec
