                         Program Version 3.0.3 - RELEASE   -
|  1> ! RI PBE def2-SVP def2-SVP/J NBO PAL2
|  2> % maxcore 2000
|  3> % output
|  4>     # printlevel mini
|  5>     print[ P_Basis ] 0
|  6>     print[ P_SCFInfo ] 1
|  7>     print[ P_SCFIterInfo ] 1
|  8>     print[ P_OrbEn ] 0
|  9>     print[ P_Cartesian ] 0
| 10> end
| 11> *xyz 0 1
| 12>  C        1.5043690000    -0.2082380000    -0.3583370000
| 13>  C        2.9134640000     0.0031820000     0.0916060000
| 14>  C        3.7151720000    -1.0497680000     0.7877080000
| 15>  C        4.1329770000    -0.5481890000    -0.5742870000
| 16>  C        5.1480060000     0.5783750000    -0.6104400000
| 17>  C        4.2960940000     1.7994590000    -0.2574130000
| 18>  O        3.2012640000     1.3170510000     0.5078230000
| 19>  H        1.3534530000    -1.2410040000    -0.6790820000
| 20>  H        1.2598850000     0.4534010000    -1.1932980000
| 21>  H        0.8066290000    -0.0002200000     0.4568540000
| 22>  H        3.3034780000    -2.0509000000     0.8489470000
| 23>  H        4.3035940000    -0.7373510000     1.6428830000
| 24>  H        4.0494570000    -1.2196120000    -1.4201580000
| 25>  H        5.6067470000     0.6792510000    -1.5959540000
| 26>  H        5.9508050000     0.4235380000     0.1157460000
| 27>  H        3.9262560000     2.2870650000    -1.1704670000
| 28>  H        4.8215510000     2.5458810000     0.3413700000
| 29> *
| 30>
| 31>                          ****END OF INPUT****
 Total Charge           Charge          ....    0
 Multiplicity           Mult            ....    1
 Number of Electrons    NEL             ....   54
 Basis Dimension        Dim             ....  148

MULLIKEN ATOMIC CHARGES
-----------------------
   0 C :    0.130124
   1 C :   -0.111731
   2 C :    0.072809
   3 C :   -0.163342
   4 C :    0.048998
   5 C :    0.213885
   6 O :   -0.328932
   7 H :    0.000864
   8 H :    0.014371
   9 H :    0.031876
  10 H :    0.016693
  11 H :    0.017217
  12 H :    0.015173
  13 H :    0.012373
  14 H :    0.018803
  15 H :   -0.003655
  16 H :    0.014473
Sum of atomic charges:   -0.0000000

LOEWDIN ATOMIC CHARGES
----------------------
   0 C :   -0.057283
   1 C :    0.016266
   2 C :   -0.043154
   3 C :   -0.051267
   4 C :   -0.044660
   5 C :    0.073568
   6 O :   -0.143167
   7 H :    0.030569
   8 H :    0.029373
   9 H :    0.034749
  10 H :    0.025790
  11 H :    0.025729
  12 H :    0.023189
  13 H :    0.030500
  14 H :    0.026615
  15 H :    0.005523
  16 H :    0.017660

  Mayer bond orders larger than 0.1
B(  0-C ,  1-C ) :   1.0985 B(  0-C ,  7-H ) :   0.9356 B(  0-C ,  8-H ) :   0.9460
B(  0-C ,  9-H ) :   0.9486 B(  1-C ,  2-C ) :   0.9822 B(  1-C ,  3-C ) :   0.9291
B(  1-C ,  6-O ) :   1.0265 B(  2-C ,  3-C ) :   0.9576 B(  2-C , 10-H ) :   0.9317
B(  2-C , 11-H ) :   0.9206 B(  3-C ,  4-C ) :   1.0925 B(  3-C , 12-H ) :   0.9477
B(  4-C ,  5-C ) :   1.1151 B(  4-C , 13-H ) :   0.9280 B(  4-C , 14-H ) :   0.9100
B(  5-C ,  6-O ) :   1.0014 B(  5-C , 15-H ) :   0.9261 B(  5-C , 16-H ) :   0.9436

FINAL SINGLE POINT ENERGY      -309.213679668994

DIPOLE MOMENT
-------------
                                X             Y             Z
Electronic contribution:      0.27893       1.45252       1.52096
Nuclear contribution   :     -0.04199      -1.69941      -1.94415
                        -----------------------------------------
Total Dipole Moment    :      0.23694      -0.24689      -0.42319
                        -----------------------------------------
Magnitude (a.u.)       :      0.54423
Magnitude (Debye)      :      1.38332

                             ****ORCA TERMINATED NORMALLY****
TOTAL RUN TIME: 0 days 0 hours 0 minutes 7 seconds 758 msec
