                         Program Version 3.0.3 - RELEASE   -
|  1> ! RI PBE def2-SVP def2-SVP/J NBO PAL2
|  2> % maxcore 2000
|  3> % output
|  4>     # printlevel mini
|  5>     print[ P_Basis ] 0
|  6>     print[ P_SCFInfo ] 1
|  7>     print[ P_SCFIterInfo ] 1
|  8>     print[ P_OrbEn ] 0
|  9>     print[ P_Cartesian ] 0
| 10> end
| 11> *xyz 0 1
| 12>  C        1.3679480000     0.2133860000     0.4690030000
| 13>  C        2.7090450000    -0.0114550000    -0.1430480000
| 14>  C        3.4611680000     1.0484770000    -0.8730160000
| 15>  C        4.0469770000     0.4520510000     0.3923930000
| 16>  C        4.9125210000    -0.7279580000     0.1761610000
| 17>  C        4.1841080000    -1.6690630000    -0.4225280000
| 18>  O        2.8794230000    -1.3386620000    -0.6122990000
| 19>  H        1.2914580000     1.2348950000     0.8445660000
| 20>  H        1.1988570000    -0.4765590000     1.2986960000
| 21>  H        0.5779810000     0.0630490000    -0.2713190000
| 22>  H        3.0503710000     2.0485580000    -0.8049790000
| 23>  H        3.9426050000     0.8007910000    -1.8114000000
| 24>  H        4.1437880000     1.0673180000     1.2793820000
| 25>  H        5.9538310000    -0.8113310000     0.4464820000
| 26>  H        4.4631210000    -2.6505880000    -0.7780050000
| 27> *
| 28>
| 29>                          ****END OF INPUT****
 Total Charge           Charge          ....    0
 Multiplicity           Mult            ....    1
 Number of Electrons    NEL             ....   52
 Basis Dimension        Dim             ....  138

MULLIKEN ATOMIC CHARGES
-----------------------
   0 C :    0.122889
   1 C :   -0.105841
   2 C :    0.059553
   3 C :   -0.066750
   4 C :   -0.026332
   5 C :    0.128497
   6 O :   -0.241335
   7 H :    0.005890
   8 H :    0.027887
   9 H :    0.033083
  10 H :    0.026097
  11 H :    0.029079
  12 H :    0.013783
  13 H :   -0.007322
  14 H :    0.000822
Sum of atomic charges:   -0.0000000

LOEWDIN ATOMIC CHARGES
----------------------
   0 C :   -0.054386
   1 C :    0.028306
   2 C :   -0.044583
   3 C :   -0.039963
   4 C :   -0.101230
   5 C :    0.038061
   6 O :   -0.063411
   7 H :    0.034659
   8 H :    0.033200
   9 H :    0.036710
  10 H :    0.029711
  11 H :    0.030599
  12 H :    0.023877
  13 H :    0.027968
  14 H :    0.020481

  Mayer bond orders larger than 0.1
B(  0-C ,  1-C ) :   1.0963 B(  0-C ,  7-H ) :   0.9358 B(  0-C ,  8-H ) :   0.9512
B(  0-C ,  9-H ) :   0.9471 B(  1-C ,  2-C ) :   0.9881 B(  1-C ,  3-C ) :   0.8856
B(  1-C ,  6-O ) :   0.9958 B(  2-C ,  3-C ) :   0.9465 B(  2-C , 10-H ) :   0.9365
B(  2-C , 11-H ) :   0.9190 B(  3-C ,  4-C ) :   1.0386 B(  3-C , 12-H ) :   0.9534
B(  4-C ,  5-C ) :   1.6990 B(  4-C ,  6-O ) :   0.1080 B(  4-C , 13-H ) :   0.9958
B(  5-C ,  6-O ) :   1.1034 B(  5-C , 14-H ) :   0.9894

FINAL SINGLE POINT ENERGY      -308.005378414335

DIPOLE MOMENT
-------------
                                X             Y             Z
Electronic contribution:      1.86194      -3.11434      -1.12477
Nuclear contribution   :     -1.83621       3.40491       1.30893
                        -----------------------------------------
Total Dipole Moment    :      0.02573       0.29058       0.18416
                        -----------------------------------------
Magnitude (a.u.)       :      0.34498
Magnitude (Debye)      :      0.87688

                             ****ORCA TERMINATED NORMALLY****
TOTAL RUN TIME: 0 days 0 hours 0 minutes 7 seconds 221 msec
