                         Program Version 3.0.3 - RELEASE   -
|  1> ! RI PBE def2-SVP def2-SVP/J NBO PAL2
|  2> % maxcore 2000
|  3> % output
|  4>     # printlevel mini
|  5>     print[ P_Basis ] 0
|  6>     print[ P_SCFInfo ] 1
|  7>     print[ P_SCFIterInfo ] 1
|  8>     print[ P_OrbEn ] 0
|  9>     print[ P_Cartesian ] 0
| 10> end
| 11> *xyz 0 1
| 12>  C        1.3334340000    -0.2100160000    -0.3027310000
| 13>  C        2.7793800000    -0.0197490000     0.0122890000
| 14>  C        3.6593320000    -1.0915600000     0.5931440000
| 15>  C        3.9394160000    -0.5241890000    -0.7714270000
| 16>  O        4.8856770000     0.5108480000    -0.8112650000
| 17>  C        4.1524620000     1.6716020000    -0.5008880000
| 18>  O        3.1452450000     1.2888260000     0.4018720000
| 19>  H        1.1477110000    -1.2284650000    -0.6491390000
| 20>  H        1.0105680000     0.4856090000    -1.0808870000
| 21>  H        0.7228420000    -0.0381700000     0.5871670000
| 22>  H        3.2608440000    -2.0986400000     0.6457470000
| 23>  H        4.3346840000    -0.8016920000     1.3878640000
| 24>  H        3.8571560000    -1.1205810000    -1.6730070000
| 25>  H        3.7048090000     2.0922650000    -1.4160940000
| 26>  H        4.8106090000     2.3987230000    -0.0232440000
| 27> *
| 28>
| 29>                          ****END OF INPUT****
 Total Charge           Charge          ....    0
 Multiplicity           Mult            ....    1
 Number of Electrons    NEL             ....   54
 Basis Dimension        Dim             ....  138

MULLIKEN ATOMIC CHARGES
-----------------------
   0 C :    0.138594
   1 C :   -0.155749
   2 C :    0.074343
   3 C :    0.053145
   4 O :   -0.312841
   5 C :    0.364429
   6 O :   -0.314894
   7 H :    0.006141
   8 H :    0.020496
   9 H :    0.035693
  10 H :    0.022953
  11 H :    0.026562
  12 H :    0.022132
  13 H :   -0.010236
  14 H :    0.029232
Sum of atomic charges:   -0.0000000

LOEWDIN ATOMIC CHARGES
----------------------
   0 C :   -0.055864
   1 C :    0.003523
   2 C :   -0.052853
   3 C :    0.035884
   4 O :   -0.135643
   5 C :    0.151143
   6 O :   -0.135365
   7 H :    0.033586
   8 H :    0.032134
   9 H :    0.037139
  10 H :    0.029927
  11 H :    0.035349
  12 H :    0.016488
  13 H :   -0.010375
  14 H :    0.014930

  Mayer bond orders larger than 0.1
B(  0-C ,  1-C ) :   1.0906 B(  0-C ,  7-H ) :   0.9352 B(  0-C ,  8-H ) :   0.9451
B(  0-C ,  9-H ) :   0.9456 B(  1-C ,  2-C ) :   0.9744 B(  1-C ,  3-C ) :   0.9338
B(  1-C ,  6-O ) :   1.0118 B(  2-C ,  3-C ) :   0.9576 B(  2-C , 10-H ) :   0.9274
B(  2-C , 11-H ) :   0.8979 B(  3-C ,  4-O ) :   1.0414 B(  3-C , 12-H ) :   0.9557
B(  4-O ,  5-C ) :   1.0277 B(  5-C ,  6-O ) :   1.0284 B(  5-C , 13-H ) :   0.9272
B(  5-C , 14-H ) :   0.9554

FINAL SINGLE POINT ENERGY      -345.063625511019

DIPOLE MOMENT
-------------
                                X             Y             Z
Electronic contribution:      3.76484       1.99187       0.28927
Nuclear contribution   :     -4.18881      -2.25132      -0.55231
                        -----------------------------------------
Total Dipole Moment    :     -0.42397      -0.25945      -0.26304
                        -----------------------------------------
Magnitude (a.u.)       :      0.56237
Magnitude (Debye)      :      1.42942

                             ****ORCA TERMINATED NORMALLY****
TOTAL RUN TIME: 0 days 0 hours 0 minutes 6 seconds 677 msec
