                         Program Version 3.0.3 - RELEASE   -
|  1> ! RI PBE def2-SVP def2-SVP/J NBO PAL2
|  2> % maxcore 2000
|  3> % output
|  4>     # printlevel mini
|  5>     print[ P_Basis ] 0
|  6>     print[ P_SCFInfo ] 1
|  7>     print[ P_SCFIterInfo ] 1
|  8>     print[ P_OrbEn ] 0
|  9>     print[ P_Cartesian ] 0
| 10> end
| 11> *xyz 0 1
| 12>  C        1.4541440000     0.3572080000    -0.1087770000
| 13>  C        2.8011700000    -0.2805480000    -0.0087140000
| 14>  C        2.9428820000    -1.7837830000     0.0626730000
| 15>  C        4.4501640000    -2.0335480000    -0.0665400000
| 16>  C        4.9886290000    -0.8559820000    -0.8929400000
| 17>  C        4.0353670000     0.2632690000    -0.5740810000
| 18>  O        3.7567270000     0.3906540000     0.8189270000
| 19>  H        0.9075210000    -0.0247250000    -0.9747580000
| 20>  H        1.5467700000     1.4400640000    -0.2013230000
| 21>  H        0.8607760000     0.1413430000     0.7841700000
| 22>  H        2.3911870000    -2.2244780000    -0.7751530000
| 23>  H        2.5240040000    -2.1975430000     0.9841250000
| 24>  H        4.6783440000    -3.0003030000    -0.5181690000
| 25>  H        4.9067600000    -2.0189310000     0.9233040000
| 26>  H        4.9404090000    -1.0625630000    -1.9679580000
| 27>  H        6.0261920000    -0.6116340000    -0.6516790000
| 28>  H        4.0587650000     1.1975990000    -1.1291170000
| 29> *
| 30>
| 31>                          ****END OF INPUT****
 Total Charge           Charge          ....    0
 Multiplicity           Mult            ....    1
 Number of Electrons    NEL             ....   54
 Basis Dimension        Dim             ....  148

MULLIKEN ATOMIC CHARGES
-----------------------
   0 C :    0.115175
   1 C :   -0.192110
   2 C :    0.125264
   3 C :   -0.034957
   4 C :    0.076390
   5 C :    0.029882
   6 O :   -0.278832
   7 H :    0.020172
   8 H :    0.018611
   9 H :    0.027909
  10 H :    0.008408
  11 H :    0.011500
  12 H :    0.005937
  13 H :    0.026650
  14 H :    0.019404
  15 H :    0.018778
  16 H :    0.001820
Sum of atomic charges:   -0.0000000

LOEWDIN ATOMIC CHARGES
----------------------
   0 C :   -0.061217
   1 C :    0.007770
   2 C :   -0.036305
   3 C :   -0.035886
   4 C :   -0.046455
   5 C :    0.043669
   6 O :   -0.157738
   7 H :    0.033934
   8 H :    0.035280
   9 H :    0.035161
  10 H :    0.027736
  11 H :    0.028672
  12 H :    0.023988
  13 H :    0.029685
  14 H :    0.029934
  15 H :    0.029779
  16 H :    0.011993

  Mayer bond orders larger than 0.1
B(  0-C ,  1-C ) :   1.1045 B(  0-C ,  7-H ) :   0.9455 B(  0-C ,  8-H ) :   0.9385
B(  0-C ,  9-H ) :   0.9439 B(  1-C ,  2-C ) :   1.0317 B(  1-C ,  5-C ) :   1.0222
B(  1-C ,  6-O ) :   0.9549 B(  2-C ,  3-C ) :   1.0825 B(  2-C , 10-H ) :   0.9166
B(  2-C , 11-H ) :   0.9204 B(  3-C ,  4-C ) :   1.0869 B(  3-C , 12-H ) :   0.9368
B(  3-C , 13-H ) :   0.9280 B(  4-C ,  5-C ) :   1.0239 B(  4-C , 14-H ) :   0.9228
B(  4-C , 15-H ) :   0.9200 B(  5-C ,  6-O ) :   1.0079 B(  5-C , 16-H ) :   0.9533

FINAL SINGLE POINT ENERGY      -309.229854390477

DIPOLE MOMENT
-------------
                                X             Y             Z
Electronic contribution:      1.59915       2.36421       1.79490
Nuclear contribution   :     -1.83007      -2.64677      -2.38393
                        -----------------------------------------
Total Dipole Moment    :     -0.23092      -0.28256      -0.58903
                        -----------------------------------------
Magnitude (a.u.)       :      0.69291
Magnitude (Debye)      :      1.76123

                             ****ORCA TERMINATED NORMALLY****
TOTAL RUN TIME: 0 days 0 hours 0 minutes 7 seconds 773 msec
