                         Program Version 3.0.3 - RELEASE   -
|  1> ! RI PBE def2-SVP def2-SVP/J NBO PAL2
|  2> % maxcore 2000
|  3> % output
|  4>     # printlevel mini
|  5>     print[ P_Basis ] 0
|  6>     print[ P_SCFInfo ] 1
|  7>     print[ P_SCFIterInfo ] 1
|  8>     print[ P_OrbEn ] 0
|  9>     print[ P_Cartesian ] 0
| 10> end
| 11> *xyz 0 1
| 12>  C        1.3356520000     0.3516920000    -0.2701820000
| 13>  C        2.6147880000    -0.2968780000     0.1482970000
| 14>  C        2.8131280000    -1.7958670000    -0.0081990000
| 15>  C        4.3042940000    -1.9477750000    -0.1232390000
| 16>  C        4.9304750000    -0.7729700000    -0.1074490000
| 17>  C        3.9458180000     0.3208770000     0.0853390000
| 18>  O        3.2287840000     0.2164070000     1.3253420000
| 19>  H        0.5016880000    -0.0184470000     0.3329390000
| 20>  H        1.1156550000     0.1355390000    -1.3185420000
| 21>  H        1.3951360000     1.4329130000    -0.1398220000
| 22>  H        2.2982180000    -2.1749810000    -0.8984900000
| 23>  H        2.4068850000    -2.3390200000     0.8517390000
| 24>  H        4.7909310000    -2.9143980000    -0.1810090000
| 25>  H        5.9999330000    -0.6211740000    -0.1774740000
| 26>  H        4.1209150000     1.3347800000    -0.2602480000
| 27> *
| 28>
| 29>                          ****END OF INPUT****
 Total Charge           Charge          ....    0
 Multiplicity           Mult            ....    1
 Number of Electrons    NEL             ....   52
 Basis Dimension        Dim             ....  138

MULLIKEN ATOMIC CHARGES
-----------------------
   0 C :    0.115663
   1 C :   -0.207857
   2 C :    0.205510
   3 C :   -0.109858
   4 C :    0.058846
   5 C :    0.106860
   6 O :   -0.277927
   7 H :    0.025626
   8 H :    0.021746
   9 H :    0.019694
  10 H :    0.020889
  11 H :    0.035165
  12 H :   -0.004886
  13 H :   -0.010614
  14 H :    0.001142
Sum of atomic charges:   -0.0000000

LOEWDIN ATOMIC CHARGES
----------------------
   0 C :   -0.060099
   1 C :    0.014377
   2 C :   -0.037052
   3 C :   -0.010527
   4 C :   -0.048492
   5 C :    0.046920
   6 O :   -0.151506
   7 H :    0.035060
   8 H :    0.033725
   9 H :    0.036093
  10 H :    0.035875
  11 H :    0.045083
  12 H :    0.022172
  13 H :    0.025032
  14 H :    0.013341

  Mayer bond orders larger than 0.1
B(  0-C ,  1-C ) :   1.0997 B(  0-C ,  7-H ) :   0.9447 B(  0-C ,  8-H ) :   0.9453
B(  0-C ,  9-H ) :   0.9393 B(  1-C ,  2-C ) :   1.0103 B(  1-C ,  5-C ) :   1.0196
B(  1-C ,  6-O ) :   0.9562 B(  2-C ,  3-C ) :   1.0180 B(  2-C , 10-H ) :   0.9132
B(  2-C , 11-H ) :   0.8918 B(  3-C ,  4-C ) :   1.8052 B(  3-C , 12-H ) :   0.9755
B(  4-C ,  5-C ) :   0.9677 B(  4-C , 13-H ) :   1.0025 B(  5-C ,  6-O ) :   0.9696
B(  5-C , 14-H ) :   0.9585

FINAL SINGLE POINT ENERGY      -308.003830371120

DIPOLE MOMENT
-------------
                                X             Y             Z
Electronic contribution:      3.13982       0.59554       2.26366
Nuclear contribution   :     -3.28756      -0.81495      -2.91937
                        -----------------------------------------
Total Dipole Moment    :     -0.14774      -0.21941      -0.65571
                        -----------------------------------------
Magnitude (a.u.)       :      0.70705
Magnitude (Debye)      :      1.79717

                             ****ORCA TERMINATED NORMALLY****
TOTAL RUN TIME: 0 days 0 hours 0 minutes 6 seconds 931 msec
