                         Program Version 3.0.3 - RELEASE   -
|  1> ! RI PBE def2-SVP def2-SVP/J NBO PAL2
|  2> % maxcore 2000
|  3> % output
|  4>     # printlevel mini
|  5>     print[ P_Basis ] 0
|  6>     print[ P_SCFInfo ] 1
|  7>     print[ P_SCFIterInfo ] 1
|  8>     print[ P_OrbEn ] 0
|  9>     print[ P_Cartesian ] 0
| 10> end
| 11> *xyz 0 1
| 12>  C        1.1400830000    -0.1767730000     0.0343640000
| 13>  C        2.6102730000     0.0604570000    -0.0665030000
| 14>  C        3.5196650000    -0.5728340000    -1.1337140000
| 15>  C        4.5055070000    -0.3713670000     0.0179180000
| 16>  C        4.6589750000     1.1493370000     0.1038290000
| 17>  C        3.1527560000     1.4953550000     0.0376480000
| 18>  O        3.4170700000    -0.6210920000     0.9444280000
| 19>  H        0.6193700000     0.3298840000    -0.7820700000
| 20>  H        0.7555400000     0.2167080000     0.9787650000
| 21>  H        0.9125460000    -1.2429230000    -0.0153310000
| 22>  H        3.6824370000    -0.0470740000    -2.0770310000
| 23>  H        3.2818770000    -1.6246530000    -1.2897220000
| 24>  H        5.3789370000    -1.0021040000     0.1762410000
| 25>  H        5.2419690000     1.5633630000    -0.7215130000
| 26>  H        5.1219060000     1.4496080000     1.0442930000
| 27>  H        2.8803590000     2.1104770000    -0.8226580000
| 28>  H        2.7893210000     1.9820310000     0.9440560000
| 29> *
| 30>
| 31>                          ****END OF INPUT****
 Total Charge           Charge          ....    0
 Multiplicity           Mult            ....    1
 Number of Electrons    NEL             ....   54
 Basis Dimension        Dim             ....  148

MULLIKEN ATOMIC CHARGES
-----------------------
   0 C :    0.122439
   1 C :   -0.230739
   2 C :    0.088765
   3 C :    0.013179
   4 C :    0.110023
   5 C :    0.120751
   6 O :   -0.330272
   7 H :    0.018224
   8 H :    0.022570
   9 H :    0.018302
  10 H :    0.011163
  11 H :    0.013895
  12 H :   -0.007586
  13 H :    0.005414
  14 H :    0.011608
  15 H :    0.004963
  16 H :    0.007302
Sum of atomic charges:    0.0000000

LOEWDIN ATOMIC CHARGES
----------------------
   0 C :   -0.061518
   1 C :    0.035790
   2 C :   -0.037973
   3 C :    0.073971
   4 C :   -0.043609
   5 C :   -0.036408
   6 O :   -0.179799
   7 H :    0.036810
   8 H :    0.035712
   9 H :    0.032473
  10 H :    0.014060
  11 H :    0.026578
  12 H :    0.009087
  13 H :    0.022575
  14 H :    0.025916
  15 H :    0.021850
  16 H :    0.024484

  Mayer bond orders larger than 0.1
B(  0-C ,  1-C ) :   1.1288 B(  0-C ,  7-H ) :   0.9414 B(  0-C ,  8-H ) :   0.9421
B(  0-C ,  9-H ) :   0.9410 B(  1-C ,  2-C ) :   1.0119 B(  1-C ,  5-C ) :   1.0539
B(  1-C ,  6-O ) :   0.9561 B(  2-C ,  3-C ) :   1.0291 B(  2-C , 10-H ) :   0.9377
B(  2-C , 11-H ) :   0.9068 B(  3-C ,  4-C ) :   1.0527 B(  3-C ,  6-O ) :   0.9804
B(  3-C , 12-H ) :   0.9664 B(  4-C ,  5-C ) :   1.1315 B(  4-C , 13-H ) :   0.9079
B(  4-C , 14-H ) :   0.9031 B(  5-C , 15-H ) :   0.9086 B(  5-C , 16-H ) :   0.9019

FINAL SINGLE POINT ENERGY      -309.212064266877

DIPOLE MOMENT
-------------
                                X             Y             Z
Electronic contribution:      1.86248      -2.00340       1.88017
Nuclear contribution   :     -1.89887       2.26436      -2.43416
                        -----------------------------------------
Total Dipole Moment    :     -0.03639       0.26096      -0.55398
                        -----------------------------------------
Magnitude (a.u.)       :      0.61345
Magnitude (Debye)      :      1.55926

                             ****ORCA TERMINATED NORMALLY****
TOTAL RUN TIME: 0 days 0 hours 0 minutes 7 seconds 562 msec
