                         Program Version 3.0.3 - RELEASE   -
|  1> ! RI PBE def2-SVP def2-SVP/J NBO PAL2
|  2> % maxcore 2000
|  3> % output
|  4>     # printlevel mini
|  5>     print[ P_Basis ] 0
|  6>     print[ P_SCFInfo ] 1
|  7>     print[ P_SCFIterInfo ] 1
|  8>     print[ P_OrbEn ] 0
|  9>     print[ P_Cartesian ] 0
| 10> end
| 11> *xyz 0 1
| 12>  C        1.0693590000    -0.0339730000    -0.1700130000
| 13>  C        2.5597120000     0.0138970000    -0.1023570000
| 14>  C        3.5140410000    -0.4379830000    -1.2265070000
| 15>  C        4.5460670000    -0.2979480000    -0.0823950000
| 16>  C        3.4321560000    -0.8265000000     0.8522240000
| 17>  C        4.4341330000     1.1937330000     0.1919930000
| 18>  O        3.0092250000     1.3529900000     0.1656280000
| 19>  H        0.7267380000    -1.0500750000    -0.3734170000
| 20>  H        0.7035410000     0.6228810000    -0.9625260000
| 21>  H        0.6350640000     0.2979950000     0.7757880000
| 22>  H        3.6060450000     0.2178780000    -2.0948550000
| 23>  H        3.3582060000    -1.4742570000    -1.5267740000
| 24>  H        5.5422300000    -0.7347620000    -0.1247950000
| 25>  H        3.4485620000    -0.5293200000     1.9029670000
| 26>  H        3.2686860000    -1.8990000000     0.7457810000
| 27>  H        4.8971870000     1.8142060000    -0.5820850000
| 28>  H        4.8281470000     1.4866390000     1.1705420000
| 29> *
| 30>
| 31>                          ****END OF INPUT****
 Total Charge           Charge          ....    0
 Multiplicity           Mult            ....    1
 Number of Electrons    NEL             ....   54
 Basis Dimension        Dim             ....  148

MULLIKEN ATOMIC CHARGES
-----------------------
   0 C :    0.129475
   1 C :   -0.172452
   2 C :    0.103807
   3 C :   -0.216615
   4 C :    0.097377
   5 C :    0.280161
   6 O :   -0.334897
   7 H :    0.009333
   8 H :    0.024179
   9 H :    0.021942
  10 H :    0.009046
  11 H :    0.015302
  12 H :   -0.010421
  13 H :    0.012374
  14 H :    0.017757
  15 H :    0.007823
  16 H :    0.005809
Sum of atomic charges:   -0.0000000

LOEWDIN ATOMIC CHARGES
----------------------
   0 C :   -0.063265
   1 C :    0.034563
   2 C :   -0.029842
   3 C :   -0.039033
   4 C :   -0.031800
   5 C :    0.077560
   6 O :   -0.168318
   7 H :    0.032107
   8 H :    0.035580
   9 H :    0.035172
  10 H :    0.016603
  11 H :    0.023606
  12 H :    0.013502
  13 H :    0.017224
  14 H :    0.023937
  15 H :    0.011304
  16 H :    0.011099

  Mayer bond orders larger than 0.1
B(  0-C ,  1-C ) :   1.1170 B(  0-C ,  7-H ) :   0.9431 B(  0-C ,  8-H ) :   0.9395
B(  0-C ,  9-H ) :   0.9387 B(  1-C ,  2-C ) :   0.9817 B(  1-C ,  4-C ) :   0.9839
B(  1-C ,  6-O ) :   1.0004 B(  2-C ,  3-C ) :   0.9785 B(  2-C , 10-H ) :   0.9171
B(  2-C , 11-H ) :   0.9352 B(  3-C ,  4-C ) :   0.9773 B(  3-C ,  5-C ) :   1.0221
B(  3-C , 12-H ) :   0.9487 B(  4-C , 13-H ) :   0.9174 B(  4-C , 14-H ) :   0.9352
B(  5-C ,  6-O ) :   0.9899 B(  5-C , 15-H ) :   0.9381 B(  5-C , 16-H ) :   0.9382

FINAL SINGLE POINT ENERGY      -309.208221217992

DIPOLE MOMENT
-------------
                                X             Y             Z
Electronic contribution:      1.16768       2.13957       0.43972
Nuclear contribution   :     -0.94891      -2.65563      -0.53373
                        -----------------------------------------
Total Dipole Moment    :      0.21876      -0.51607      -0.09400
                        -----------------------------------------
Magnitude (a.u.)       :      0.56835
Magnitude (Debye)      :      1.44463

                             ****ORCA TERMINATED NORMALLY****
TOTAL RUN TIME: 0 days 0 hours 0 minutes 7 seconds 830 msec
