                         Program Version 3.0.3 - RELEASE   -
|  1> ! RI PBE def2-SVP def2-SVP/J NBO PAL2
|  2> % maxcore 2000
|  3> % output
|  4>     # printlevel mini
|  5>     print[ P_Basis ] 0
|  6>     print[ P_SCFInfo ] 1
|  7>     print[ P_SCFIterInfo ] 1
|  8>     print[ P_OrbEn ] 0
|  9>     print[ P_Cartesian ] 0
| 10> end
| 11> *xyz 0 1
| 12>  C        1.0812400000     0.1425390000    -0.4914710000
| 13>  C        2.2273480000     0.0185410000     0.4568440000
| 14>  C        2.6071650000    -1.2753300000     1.2290840000
| 15>  C        3.9492510000    -0.5169610000     1.1575070000
| 16>  O        3.5532130000    -0.0521100000    -0.1610640000
| 17>  C        3.6524650000     0.7101600000     2.0234210000
| 18>  C        2.4704230000     1.0795970000     1.5425640000
| 19>  H        1.0723430000    -0.6883940000    -1.1984020000
| 20>  H        1.1530670000     1.0758490000    -1.0546410000
| 21>  H        0.1360250000     0.1444170000     0.0565230000
| 22>  H        2.5878290000    -2.1586110000     0.5874530000
| 23>  H        2.1560700000    -1.4560330000     2.2049110000
| 24>  H        4.9242370000    -0.9975890000     1.1986640000
| 25>  H        4.2631020000     1.1302080000     2.8090280000
| 26>  H        1.8177290000     1.8975080000     1.8125890000
| 27> *
| 28>
| 29>                          ****END OF INPUT****
 Total Charge           Charge          ....    0
 Multiplicity           Mult            ....    1
 Number of Electrons    NEL             ....   52
 Basis Dimension        Dim             ....  138

MULLIKEN ATOMIC CHARGES
-----------------------
   0 C :    0.100033
   1 C :   -0.104617
   2 C :    0.093358
   3 C :    0.114086
   4 O :   -0.318962
   5 C :    0.018830
   6 C :    0.035533
   7 H :    0.025390
   8 H :    0.033293
   9 H :    0.018186
  10 H :    0.014556
  11 H :    0.015134
  12 H :   -0.011884
  13 H :   -0.012768
  14 H :   -0.020168
Sum of atomic charges:   -0.0000000

LOEWDIN ATOMIC CHARGES
----------------------
   0 C :   -0.064891
   1 C :    0.038470
   2 C :   -0.017201
   3 C :    0.074959
   4 O :   -0.178231
   5 C :   -0.028436
   6 C :   -0.022930
   7 H :    0.035231
   8 H :    0.038765
   9 H :    0.037027
  10 H :    0.021855
  11 H :    0.013373
  12 H :    0.009885
  13 H :    0.021492
  14 H :    0.020632

  Mayer bond orders larger than 0.1
B(  0-C ,  1-C ) :   1.1282 B(  0-C ,  7-H ) :   0.9441 B(  0-C ,  8-H ) :   0.9473
B(  0-C ,  9-H ) :   0.9403 B(  1-C ,  2-C ) :   1.0002 B(  1-C ,  4-O ) :   0.9582
B(  1-C ,  6-C ) :   0.9000 B(  2-C ,  3-C ) :   1.0141 B(  2-C , 10-H ) :   0.9105
B(  2-C , 11-H ) :   0.9371 B(  3-C ,  4-O ) :   0.9803 B(  3-C ,  5-C ) :   0.9071
B(  3-C , 12-H ) :   0.9772 B(  5-C ,  6-C ) :   1.7652 B(  5-C , 13-H ) :   1.0234
B(  6-C , 14-H ) :   1.0301

FINAL SINGLE POINT ENERGY      -307.965631583475

DIPOLE MOMENT
-------------
                                X             Y             Z
Electronic contribution:      3.46599       0.85435       0.34291
Nuclear contribution   :     -3.85465      -0.98908       0.15207
                        -----------------------------------------
Total Dipole Moment    :     -0.38866      -0.13473       0.49497
                        -----------------------------------------
Magnitude (a.u.)       :      0.64359
Magnitude (Debye)      :      1.63587

                             ****ORCA TERMINATED NORMALLY****
TOTAL RUN TIME: 0 days 0 hours 0 minutes 7 seconds 38 msec
