                         Program Version 3.0.3 - RELEASE   -
|  1> ! RI PBE def2-SVP def2-SVP/J NBO PAL2
|  2> % maxcore 2000
|  3> % output
|  4>     # printlevel mini
|  5>     print[ P_Basis ] 0
|  6>     print[ P_SCFInfo ] 1
|  7>     print[ P_SCFIterInfo ] 1
|  8>     print[ P_OrbEn ] 0
|  9>     print[ P_Cartesian ] 0
| 10> end
| 11> *xyz 0 1
| 12>  C        1.3677900000    -0.1451950000    -0.3022240000
| 13>  C        2.7935230000     0.1713150000     0.0416300000
| 14>  C        3.6947970000    -0.9038770000     0.5968420000
| 15>  C        3.9566630000    -0.3214690000    -0.7563150000
| 16>  O        4.9464350000     0.6637140000    -0.8162360000
| 17>  C        4.3313690000     1.9103760000    -0.5181090000
| 18>  C        3.1693000000     1.5989070000     0.4249950000
| 19>  H        1.2719920000    -1.1652280000    -0.6819270000
| 20>  H        0.9841320000     0.5345710000    -1.0690360000
| 21>  H        0.7212060000    -0.0591420000     0.5763110000
| 22>  H        3.2945320000    -1.9106430000     0.6485880000
| 23>  H        4.3930160000    -0.6409120000     1.3831770000
| 24>  H        3.8466890000    -0.9180240000    -1.6564530000
| 25>  H        3.9610540000     2.3716670000    -1.4444290000
| 26>  H        5.0908490000     2.5650060000    -0.0865680000
| 27>  H        2.3313970000     2.2824340000     0.2700000000
| 28>  H        3.4700660000     1.6713200000     1.4736440000
| 29> *
| 30>
| 31>                          ****END OF INPUT****
 Total Charge           Charge          ....    0
 Multiplicity           Mult            ....    1
 Number of Electrons    NEL             ....   54
 Basis Dimension        Dim             ....  148

MULLIKEN ATOMIC CHARGES
-----------------------
   0 C :    0.116865
   1 C :   -0.363240
   2 C :    0.063725
   3 C :    0.095632
   4 O :   -0.324081
   5 C :    0.210789
   6 C :    0.068708
   7 H :    0.004439
   8 H :    0.018212
   9 H :    0.025240
  10 H :    0.018308
  11 H :    0.019872
  12 H :    0.012873
  13 H :   -0.000067
  14 H :    0.014381
  15 H :    0.006149
  16 H :    0.012195
Sum of atomic charges:    0.0000000

LOEWDIN ATOMIC CHARGES
----------------------
   0 C :   -0.049367
   1 C :   -0.073774
   2 C :   -0.047056
   3 C :    0.046005
   4 O :   -0.142777
   5 C :    0.075118
   6 C :   -0.037669
   7 H :    0.028349
   8 H :    0.027424
   9 H :    0.030080
  10 H :    0.026192
  11 H :    0.026426
  12 H :    0.012393
  13 H :    0.006005
  14 H :    0.017882
  15 H :    0.028442
  16 H :    0.026327

  Mayer bond orders larger than 0.1
B(  0-C ,  1-C ) :   1.1026 B(  0-C ,  7-H ) :   0.9426 B(  0-C ,  8-H ) :   0.9492
B(  0-C ,  9-H ) :   0.9509 B(  1-C ,  2-C ) :   0.9573 B(  1-C ,  3-C ) :   0.9292
B(  1-C ,  6-C ) :   1.0762 B(  2-C ,  3-C ) :   0.9773 B(  2-C , 10-H ) :   0.9311
B(  2-C , 11-H ) :   0.9172 B(  3-C ,  4-O ) :   1.0638 B(  3-C , 12-H ) :   0.9513
B(  4-O ,  5-C ) :   0.9953 B(  5-C ,  6-C ) :   1.1037 B(  5-C , 13-H ) :   0.9291
B(  5-C , 14-H ) :   0.9445 B(  6-C , 15-H ) :   0.9277 B(  6-C , 16-H ) :   0.9083

FINAL SINGLE POINT ENERGY      -309.210258341895

DIPOLE MOMENT
-------------
                                X             Y             Z
Electronic contribution:      4.39152      -0.17649      -1.19777
Nuclear contribution   :     -4.99761       0.31868       1.33455
                        -----------------------------------------
Total Dipole Moment    :     -0.60609       0.14219       0.13677
                        -----------------------------------------
Magnitude (a.u.)       :      0.63740
Magnitude (Debye)      :      1.62013

                             ****ORCA TERMINATED NORMALLY****
TOTAL RUN TIME: 0 days 0 hours 0 minutes 7 seconds 531 msec
