                         Program Version 3.0.3 - RELEASE   -
|  1> ! RI PBE def2-SVP def2-SVP/J NBO PAL2
|  2> % maxcore 2000
|  3> % output
|  4>     # printlevel mini
|  5>     print[ P_Basis ] 0
|  6>     print[ P_SCFInfo ] 1
|  7>     print[ P_SCFIterInfo ] 1
|  8>     print[ P_OrbEn ] 0
|  9>     print[ P_Cartesian ] 0
| 10> end
| 11> *xyz 0 1
| 12>  C        1.4402590000    -0.2164410000    -0.4560630000
| 13>  C        2.8396870000     0.0010890000     0.0333630000
| 14>  C        3.6437960000    -1.1139570000     0.6293130000
| 15>  C        4.0644070000    -0.5052120000    -0.6748490000
| 16>  C        5.0847390000     0.5981690000    -0.5765680000
| 17>  O        4.6453560000     1.4240140000     0.4881140000
| 18>  C        3.2325160000     1.3767380000     0.5226870000
| 19>  H        1.3182890000    -1.2229440000    -0.8622080000
| 20>  H        1.1800220000     0.4971680000    -1.2437590000
| 21>  H        0.7137680000    -0.0986690000     0.3537720000
| 22>  H        3.2068090000    -2.1048210000     0.5952490000
| 23>  H        4.2500690000    -0.9076030000     1.5051870000
| 24>  H        3.9889010000    -1.0793430000    -1.5904270000
| 25>  H        5.1270400000     1.1604930000    -1.5215630000
| 26>  H        6.0947610000     0.2603830000    -0.3289440000
| 27>  H        2.7931740000     2.1399700000    -0.1397190000
| 28>  H        2.9218880000     1.5910570000     1.5495250000
| 29> *
| 30>
| 31>                          ****END OF INPUT****
 Total Charge           Charge          ....    0
 Multiplicity           Mult            ....    1
 Number of Electrons    NEL             ....   54
 Basis Dimension        Dim             ....  148

MULLIKEN ATOMIC CHARGES
-----------------------
   0 C :    0.109638
   1 C :   -0.390602
   2 C :    0.071153
   3 C :   -0.171890
   4 C :    0.295883
   5 O :   -0.363707
   6 C :    0.335626
   7 H :    0.007006
   8 H :    0.018459
   9 H :    0.026304
  10 H :    0.019401
  11 H :    0.025539
  12 H :    0.011214
  13 H :   -0.002411
  14 H :    0.013125
  15 H :   -0.012736
  16 H :    0.007997
Sum of atomic charges:   -0.0000000

LOEWDIN ATOMIC CHARGES
----------------------
   0 C :   -0.048270
   1 C :   -0.079258
   2 C :   -0.033860
   3 C :   -0.054681
   4 C :    0.075300
   5 O :   -0.154634
   6 C :    0.079131
   7 H :    0.029821
   8 H :    0.027779
   9 H :    0.031053
  10 H :    0.027033
  11 H :    0.026790
  12 H :    0.024028
  13 H :    0.006912
  14 H :    0.019086
  15 H :    0.004939
  16 H :    0.018830

  Mayer bond orders larger than 0.1
B(  0-C ,  1-C ) :   1.0953 B(  0-C ,  7-H ) :   0.9429 B(  0-C ,  8-H ) :   0.9510
B(  0-C ,  9-H ) :   0.9551 B(  1-C ,  2-C ) :   0.9578 B(  1-C ,  3-C ) :   0.9408
B(  1-C ,  6-C ) :   1.0478 B(  2-C ,  3-C ) :   0.9743 B(  2-C , 10-H ) :   0.9371
B(  2-C , 11-H ) :   0.9281 B(  3-C ,  4-C ) :   1.0600 B(  3-C , 12-H ) :   0.9477
B(  4-C ,  5-O ) :   1.0102 B(  4-C , 13-H ) :   0.9223 B(  4-C , 14-H ) :   0.9326
B(  5-O ,  6-C ) :   1.0097 B(  6-C , 15-H ) :   0.9137 B(  6-C , 16-H ) :   0.9297

FINAL SINGLE POINT ENERGY      -309.217692029388

DIPOLE MOMENT
-------------
                                X             Y             Z
Electronic contribution:      3.40426       1.77232       1.21218
Nuclear contribution   :     -3.80485      -2.12326      -1.55648
                        -----------------------------------------
Total Dipole Moment    :     -0.40059      -0.35095      -0.34430
                        -----------------------------------------
Magnitude (a.u.)       :      0.63417
Magnitude (Debye)      :      1.61194

                             ****ORCA TERMINATED NORMALLY****
TOTAL RUN TIME: 0 days 0 hours 0 minutes 7 seconds 503 msec
