                         Program Version 3.0.3 - RELEASE   -
|  1> ! RI PBE def2-SVP def2-SVP/J NBO PAL2
|  2> % maxcore 2000
|  3> % output
|  4>     # printlevel mini
|  5>     print[ P_Basis ] 0
|  6>     print[ P_SCFInfo ] 1
|  7>     print[ P_SCFIterInfo ] 1
|  8>     print[ P_OrbEn ] 0
|  9>     print[ P_Cartesian ] 0
| 10> end
| 11> *xyz 0 1
| 12>  C        1.0063330000    -0.1005230000    -0.0434740000
| 13>  C        2.4916550000     0.0812900000     0.0564970000
| 14>  C        3.5065100000    -0.5196880000    -0.9564610000
| 15>  C        4.4809670000    -0.1715620000     0.1761690000
| 16>  C        3.3718500000    -0.5801750000     1.1541790000
| 17>  O        4.4460300000     1.2567580000     0.2148740000
| 18>  C        3.0366810000     1.5050520000     0.1320710000
| 19>  H        0.7390960000    -1.1588380000    -0.0908610000
| 20>  H        0.6101390000     0.3849310000    -0.9403780000
| 21>  H        0.4977030000     0.3344070000     0.8220920000
| 22>  H        3.6483940000    -0.0134060000    -1.9136550000
| 23>  H        3.3669840000    -1.5927630000    -1.0921840000
| 24>  H        5.5096440000    -0.5202130000     0.2318080000
| 25>  H        3.2201250000    -1.6587290000     1.2096600000
| 26>  H        3.3891980000    -0.1298320000     2.1489470000
| 27>  H        2.8079960000     2.0980120000    -0.7603210000
| 28>  H        2.6943750000     2.0469780000     1.0205550000
| 29> *
| 30>
| 31>                          ****END OF INPUT****
 Total Charge           Charge          ....    0
 Multiplicity           Mult            ....    1
 Number of Electrons    NEL             ....   54
 Basis Dimension        Dim             ....  148

MULLIKEN ATOMIC CHARGES
-----------------------
   0 C :    0.123788
   1 C :   -0.475382
   2 C :    0.101843
   3 C :    0.073963
   4 C :    0.101360
   5 O :   -0.331864
   6 C :    0.297085
   7 H :    0.013260
   8 H :    0.016913
   9 H :    0.018028
  10 H :    0.011791
  11 H :    0.016169
  12 H :   -0.008777
  13 H :    0.017112
  14 H :    0.012951
  15 H :    0.006101
  16 H :    0.005660
Sum of atomic charges:   -0.0000000

LOEWDIN ATOMIC CHARGES
----------------------
   0 C :   -0.058042
   1 C :   -0.067409
   2 C :   -0.032732
   3 C :    0.072875
   4 C :   -0.033001
   5 O :   -0.166169
   6 C :    0.080530
   7 H :    0.029606
   8 H :    0.031250
   9 H :    0.031380
  10 H :    0.017044
  11 H :    0.023720
  12 H :    0.008668
  13 H :    0.023705
  14 H :    0.017418
  15 H :    0.010649
  16 H :    0.010510

  Mayer bond orders larger than 0.1
B(  0-C ,  1-C ) :   1.1083 B(  0-C ,  7-H ) :   0.9447 B(  0-C ,  8-H ) :   0.9464
B(  0-C ,  9-H ) :   0.9466 B(  1-C ,  2-C ) :   0.9548 B(  1-C ,  4-C ) :   0.9543
B(  1-C ,  6-C ) :   1.0206 B(  2-C ,  3-C ) :   0.9962 B(  2-C , 10-H ) :   0.9187
B(  2-C , 11-H ) :   0.9351 B(  3-C ,  4-C ) :   0.9966 B(  3-C ,  5-O ) :   1.0145
B(  3-C , 12-H ) :   0.9571 B(  4-C , 13-H ) :   0.9358 B(  4-C , 14-H ) :   0.9178
B(  5-O ,  6-C ) :   0.9933 B(  6-C , 15-H ) :   0.9348 B(  6-C , 16-H ) :   0.9352

FINAL SINGLE POINT ENERGY      -309.205008822127

DIPOLE MOMENT
-------------
                                X             Y             Z
Electronic contribution:      4.48401       1.88932       0.33894
Nuclear contribution   :     -5.03130      -2.32931      -0.38774
                        -----------------------------------------
Total Dipole Moment    :     -0.54729      -0.43999      -0.04881
                        -----------------------------------------
Magnitude (a.u.)       :      0.70391
Magnitude (Debye)      :      1.78920

                             ****ORCA TERMINATED NORMALLY****
TOTAL RUN TIME: 0 days 0 hours 0 minutes 7 seconds 617 msec
