                         Program Version 3.0.3 - RELEASE   -
|  1> ! RI PBE def2-SVP def2-SVP/J NBO PAL2
|  2> % maxcore 2000
|  3> % output
|  4>     # printlevel mini
|  5>     print[ P_Basis ] 0
|  6>     print[ P_SCFInfo ] 1
|  7>     print[ P_SCFIterInfo ] 1
|  8>     print[ P_OrbEn ] 0
|  9>     print[ P_Cartesian ] 0
| 10> end
| 11> *xyz 0 1
| 12>  C        1.4055970000     0.1350500000    -0.2067650000
| 13>  C        2.8061100000    -0.2454450000     0.1405310000
| 14>  C        3.1354900000    -1.6234110000     0.6577980000
| 15>  O        4.5403540000    -1.7536760000     0.5777510000
| 16>  C        5.0466110000    -0.8584320000    -0.3950980000
| 17>  C        4.0214800000     0.2302190000    -0.5104100000
| 18>  O        3.6261890000     0.7493690000     0.7523330000
| 19>  H        0.9877850000    -0.5524830000    -0.9460260000
| 20>  H        1.3761920000     1.1469640000    -0.6116560000
| 21>  H        0.7678160000     0.1053420000     0.6807150000
| 22>  H        2.6252070000    -2.3767110000     0.0385790000
| 23>  H        2.8415360000    -1.7694270000     1.7011330000
| 24>  H        5.1736660000    -1.3497120000    -1.3718280000
| 25>  H        6.0218050000    -0.5047980000    -0.0502870000
| 26>  H        4.0246620000     0.9246610000    -1.3454700000
| 27> *
| 28>
| 29>                          ****END OF INPUT****
 Total Charge           Charge          ....    0
 Multiplicity           Mult            ....    1
 Number of Electrons    NEL             ....   54
 Basis Dimension        Dim             ....  138

MULLIKEN ATOMIC CHARGES
-----------------------
   0 C :    0.114734
   1 C :   -0.227790
   2 C :    0.330538
   3 O :   -0.358985
   4 C :    0.297200
   5 C :   -0.014811
   6 O :   -0.268337
   7 H :    0.028700
   8 H :    0.019473
   9 H :    0.035017
  10 H :   -0.006559
  11 H :    0.015759
  12 H :   -0.000025
  13 H :    0.021230
  14 H :    0.013858
Sum of atomic charges:   -0.0000000

LOEWDIN ATOMIC CHARGES
----------------------
   0 C :   -0.058479
   1 C :   -0.006918
   2 C :    0.067323
   3 O :   -0.152396
   4 C :    0.062926
   5 C :    0.028321
   6 O :   -0.142311
   7 H :    0.036914
   8 H :    0.038131
   9 H :    0.038135
  10 H :    0.009351
  11 H :    0.025329
  12 H :    0.010685
  13 H :    0.025729
  14 H :    0.017260

  Mayer bond orders larger than 0.1
B(  0-C ,  1-C ) :   1.0918 B(  0-C ,  7-H ) :   0.9456 B(  0-C ,  8-H ) :   0.9352
B(  0-C ,  9-H ) :   0.9463 B(  1-C ,  2-C ) :   1.0166 B(  1-C ,  5-C ) :   1.0408
B(  1-C ,  6-O ) :   0.9394 B(  2-C ,  3-O ) :   1.0202 B(  2-C , 10-H ) :   0.9139
B(  2-C , 11-H ) :   0.9151 B(  3-O ,  4-C ) :   1.0195 B(  4-C ,  5-C ) :   1.0138
B(  4-C , 12-H ) :   0.9138 B(  4-C , 13-H ) :   0.9178 B(  5-C ,  6-O ) :   0.9942
B(  5-C , 14-H ) :   0.9478

FINAL SINGLE POINT ENERGY      -345.072573537901

DIPOLE MOMENT
-------------
                                X             Y             Z
Electronic contribution:      3.47724       0.43101       2.15699
Nuclear contribution   :     -4.01247      -0.44398      -2.94067
                        -----------------------------------------
Total Dipole Moment    :     -0.53523      -0.01297      -0.78368
                        -----------------------------------------
Magnitude (a.u.)       :      0.94910
Magnitude (Debye)      :      2.41243

                             ****ORCA TERMINATED NORMALLY****
TOTAL RUN TIME: 0 days 0 hours 0 minutes 6 seconds 913 msec
