                         Program Version 3.0.3 - RELEASE   -
|  1> ! RI PBE def2-SVP def2-SVP/J NBO PAL2
|  2> % maxcore 2000
|  3> % output
|  4>     # printlevel mini
|  5>     print[ P_Basis ] 0
|  6>     print[ P_SCFInfo ] 1
|  7>     print[ P_SCFIterInfo ] 1
|  8>     print[ P_OrbEn ] 0
|  9>     print[ P_Cartesian ] 0
| 10> end
| 11> *xyz 0 1
| 12>  C        1.1315590000    -0.0677040000     0.0471830000
| 13>  C        2.6395500000    -0.0634830000    -0.0181410000
| 14>  C        3.2679650000    -1.0360470000    -1.0329030000
| 15>  C        4.7734490000    -0.8395970000    -0.8404230000
| 16>  C        4.7685210000     0.7117300000    -0.8539300000
| 17>  C        3.2618310000     0.8952330000    -1.0497210000
| 18>  O        2.9705540000    -0.0804370000    -2.0857750000
| 19>  H        0.7654420000    -0.9459740000     0.5857040000
| 20>  H        0.7025610000    -0.0777990000    -0.9562040000
| 21>  H        0.7598420000     0.8174640000     0.5703570000
| 22>  H        3.0903210000    -0.0533650000     0.9793350000
| 23>  H        2.8794790000    -2.0380280000    -1.2159430000
| 24>  H        5.3400710000    -1.2672720000    -1.6678680000
| 25>  H        5.1403020000    -1.2680290000     0.0945180000
| 26>  H        5.3324680000     1.1285260000    -1.6887220000
| 27>  H        5.1325870000     1.1586960000     0.0733940000
| 28>  H        2.8669990000     1.8913860000    -1.2501620000
| 29> *
| 30>
| 31>                          ****END OF INPUT****
 Total Charge           Charge          ....    0
 Multiplicity           Mult            ....    1
 Number of Electrons    NEL             ....   54
 Basis Dimension        Dim             ....  148

MULLIKEN ATOMIC CHARGES
-----------------------
   0 C :    0.084992
   1 C :   -0.156936
   2 C :    0.030812
   3 C :    0.119014
   4 C :    0.118816
   5 C :    0.031549
   6 O :   -0.329713
   7 H :    0.019728
   8 H :    0.019520
   9 H :    0.019622
  10 H :    0.006853
  11 H :   -0.004362
  12 H :    0.016644
  13 H :    0.005674
  14 H :    0.016467
  15 H :    0.005933
  16 H :   -0.004612
Sum of atomic charges:   -0.0000000

LOEWDIN ATOMIC CHARGES
----------------------
   0 C :   -0.058878
   1 C :   -0.050305
   2 C :    0.077216
   3 C :   -0.042638
   4 C :   -0.042679
   5 C :    0.077308
   6 O :   -0.176465
   7 H :    0.027924
   8 H :    0.029719
   9 H :    0.027910
  10 H :    0.014748
  11 H :    0.008905
  12 H :    0.026437
  13 H :    0.022736
  14 H :    0.026390
  15 H :    0.022804
  16 H :    0.008869

  Mayer bond orders larger than 0.1
B(  0-C ,  1-C ) :   1.0851 B(  0-C ,  7-H ) :   0.9596 B(  0-C ,  8-H ) :   0.9443
B(  0-C ,  9-H ) :   0.9596 B(  1-C ,  2-C ) :   0.9659 B(  1-C ,  5-C ) :   0.9659
B(  1-C , 10-H ) :   0.9311 B(  2-C ,  3-C ) :   1.0542 B(  2-C ,  6-O ) :   0.9648
B(  2-C , 11-H ) :   0.9679 B(  3-C ,  4-C ) :   1.1044 B(  3-C , 12-H ) :   0.9080
B(  3-C , 13-H ) :   0.9087 B(  4-C ,  5-C ) :   1.0546 B(  4-C , 14-H ) :   0.9081
B(  4-C , 15-H ) :   0.9086 B(  5-C ,  6-O ) :   0.9645 B(  5-C , 16-H ) :   0.9677

FINAL SINGLE POINT ENERGY      -309.204763284414

DIPOLE MOMENT
-------------
                                X             Y             Z
Electronic contribution:      0.52139      -0.02534      -3.08797
Nuclear contribution   :     -0.38273       0.03107       3.70706
                        -----------------------------------------
Total Dipole Moment    :      0.13866       0.00573       0.61908
                        -----------------------------------------
Magnitude (a.u.)       :      0.63445
Magnitude (Debye)      :      1.61263

                             ****ORCA TERMINATED NORMALLY****
TOTAL RUN TIME: 0 days 0 hours 0 minutes 7 seconds 556 msec
