                         Program Version 3.0.3 - RELEASE   -
|  1> ! RI PBE def2-SVP def2-SVP/J NBO PAL2
|  2> % maxcore 2000
|  3> % output
|  4>     # printlevel mini
|  5>     print[ P_Basis ] 0
|  6>     print[ P_SCFInfo ] 1
|  7>     print[ P_SCFIterInfo ] 1
|  8>     print[ P_OrbEn ] 0
|  9>     print[ P_Cartesian ] 0
| 10> end
| 11> *xyz 0 1
| 12>  C        0.7056300000     0.1070570000    -0.1011210000
| 13>  C        2.1815790000     0.0749940000     0.1665910000
| 14>  C        3.1142910000    -0.9426060000    -0.4544120000
| 15>  C        2.6430950000    -1.6992150000    -1.6827050000
| 16>  C        2.7902270000    -0.6619740000    -2.7992110000
| 17>  O        2.7165430000     0.6153130000    -2.1766370000
| 18>  C        3.1850460000     0.4936050000    -0.8659030000
| 19>  H        0.1874400000    -0.7014460000     0.4219630000
| 20>  H        0.4883660000     0.0217140000    -1.1664780000
| 21>  H        0.2782220000     1.0533850000     0.2395090000
| 22>  H        2.4592080000     0.3440030000     1.1823170000
| 23>  H        3.8801580000    -1.3853510000     0.1696620000
| 24>  H        1.6097550000    -2.0421420000    -1.5847620000
| 25>  H        3.2645950000    -2.5774430000    -1.8661440000
| 26>  H        2.0013070000    -0.7118470000    -3.5528830000
| 27>  H        3.7599460000    -0.7708640000    -3.3039240000
| 28>  H        4.0127040000     1.1497180000    -0.6176730000
| 29> *
| 30>
| 31>                          ****END OF INPUT****
 Total Charge           Charge          ....    0
 Multiplicity           Mult            ....    1
 Number of Electrons    NEL             ....   54
 Basis Dimension        Dim             ....  148

MULLIKEN ATOMIC CHARGES
-----------------------
   0 C :    0.096265
   1 C :   -0.127673
   2 C :   -0.153974
   3 C :    0.044760
   4 C :    0.207258
   5 O :   -0.325868
   6 C :    0.114670
   7 H :    0.020945
   8 H :    0.010124
   9 H :    0.020773
  10 H :    0.010557
  11 H :    0.017798
  12 H :    0.016815
  13 H :    0.015279
  14 H :    0.015775
  15 H :    0.001704
  16 H :    0.014791
Sum of atomic charges:    0.0000000

LOEWDIN ATOMIC CHARGES
----------------------
   0 C :   -0.057056
   1 C :   -0.052596
   2 C :   -0.054395
   3 C :   -0.046036
   4 C :    0.071933
   5 O :   -0.141300
   6 C :    0.044913
   7 H :    0.028627
   8 H :    0.026459
   9 H :    0.033110
  10 H :    0.028790
  11 H :    0.023966
  12 H :    0.025637
  13 H :    0.031812
  14 H :    0.017086
  15 H :    0.007234
  16 H :    0.011818

  Mayer bond orders larger than 0.1
B(  0-C ,  1-C ) :   1.1056 B(  0-C ,  7-H ) :   0.9578 B(  0-C ,  8-H ) :   0.9360
B(  0-C ,  9-H ) :   0.9545 B(  1-C ,  2-C ) :   0.9284 B(  1-C ,  6-C ) :   0.9324
B(  1-C , 10-H ) :   0.9281 B(  2-C ,  3-C ) :   1.1019 B(  2-C ,  6-C ) :   0.9547
B(  2-C , 11-H ) :   0.9480 B(  3-C ,  4-C ) :   1.1047 B(  3-C , 12-H ) :   0.9107
B(  3-C , 13-H ) :   0.9277 B(  4-C ,  5-O ) :   0.9888 B(  4-C , 14-H ) :   0.9428
B(  4-C , 15-H ) :   0.9318 B(  5-O ,  6-C ) :   1.0703 B(  6-C , 16-H ) :   0.9483

FINAL SINGLE POINT ENERGY      -309.208986531376

DIPOLE MOMENT
-------------
                                X             Y             Z
Electronic contribution:      2.58551       2.13771      -1.20233
Nuclear contribution   :     -2.46543      -2.64159       1.41622
                        -----------------------------------------
Total Dipole Moment    :      0.12007      -0.50388       0.21389
                        -----------------------------------------
Magnitude (a.u.)       :      0.56041
Magnitude (Debye)      :      1.42446

                             ****ORCA TERMINATED NORMALLY****
TOTAL RUN TIME: 0 days 0 hours 0 minutes 7 seconds 535 msec
