                         Program Version 3.0.3 - RELEASE   -
|  1> ! RI PBE def2-SVP def2-SVP/J NBO PAL2
|  2> % maxcore 2000
|  3> % output
|  4>     # printlevel mini
|  5>     print[ P_Basis ] 0
|  6>     print[ P_SCFInfo ] 1
|  7>     print[ P_SCFIterInfo ] 1
|  8>     print[ P_OrbEn ] 0
|  9>     print[ P_Cartesian ] 0
| 10> end
| 11> *xyz 0 1
| 12>  C        0.9770270000     0.0645540000    -0.0021370000
| 13>  C        2.4825820000     0.0756620000    -0.1318270000
| 14>  C        3.1242350000     1.1177470000    -1.0967670000
| 15>  C        2.8079320000     0.1295700000    -2.2480530000
| 16>  C        3.1537220000    -0.8785450000    -1.1434350000
| 17>  O        4.5461860000    -0.6463710000    -0.9198940000
| 18>  C        4.5934800000     0.7919710000    -0.8772400000
| 19>  H        0.6376870000     0.9190670000     0.5895770000
| 20>  H        0.6423180000    -0.8408490000     0.5115420000
| 21>  H        0.4616630000     0.1068460000    -0.9630740000
| 22>  H        2.9449450000     0.0324990000     0.8596880000
| 23>  H        2.8317540000     2.1672230000    -1.1151620000
| 24>  H        3.4567960000     0.1372410000    -3.1255560000
| 25>  H        1.7614960000     0.1288150000    -2.5432750000
| 26>  H        2.9599940000    -1.9483990000    -1.2000790000
| 27>  H        5.2496330000     1.1685260000    -1.6682870000
| 28>  H        4.9717520000     1.1252520000     0.0943780000
| 29> *
| 30>
| 31>                          ****END OF INPUT****
 Total Charge           Charge          ....    0
 Multiplicity           Mult            ....    1
 Number of Electrons    NEL             ....   54
 Basis Dimension        Dim             ....  148

MULLIKEN ATOMIC CHARGES
-----------------------
   0 C :    0.085961
   1 C :   -0.120062
   2 C :   -0.216162
   3 C :    0.088148
   4 C :    0.083790
   5 O :   -0.330856
   6 C :    0.292391
   7 H :    0.022451
   8 H :    0.024798
   9 H :    0.005808
  10 H :    0.012490
  11 H :   -0.001438
  12 H :    0.016280
  13 H :    0.021071
  14 H :   -0.001604
  15 H :    0.009588
  16 H :    0.007348
Sum of atomic charges:    0.0000000

LOEWDIN ATOMIC CHARGES
----------------------
   0 C :   -0.059045
   1 C :   -0.042717
   2 C :   -0.036360
   3 C :   -0.035908
   4 C :    0.072287
   5 O :   -0.168015
   6 C :    0.079012
   7 H :    0.030613
   8 H :    0.031176
   9 H :    0.024123
  10 H :    0.020123
  11 H :    0.013543
  12 H :    0.019230
  13 H :    0.021056
  14 H :    0.008630
  15 H :    0.011177
  16 H :    0.011075

  Mayer bond orders larger than 0.1
B(  0-C ,  1-C ) :   1.0963 B(  0-C ,  7-H ) :   0.9517 B(  0-C ,  8-H ) :   0.9564
B(  0-C ,  9-H ) :   0.9465 B(  1-C ,  2-C ) :   0.9216 B(  1-C ,  4-C ) :   0.9397
B(  1-C , 10-H ) :   0.9157 B(  2-C ,  3-C ) :   0.9675 B(  2-C ,  6-C ) :   1.0385
B(  2-C , 11-H ) :   0.9463 B(  3-C ,  4-C ) :   0.9861 B(  3-C , 12-H ) :   0.9215
B(  3-C , 13-H ) :   0.9437 B(  4-C ,  5-O ) :   1.0306 B(  4-C , 14-H ) :   0.9526
B(  5-O ,  6-C ) :   0.9711 B(  6-C , 15-H ) :   0.9391 B(  6-C , 16-H ) :   0.9393

FINAL SINGLE POINT ENERGY      -309.198486061299

DIPOLE MOMENT
-------------
                                X             Y             Z
Electronic contribution:      4.24768      -1.60063      -0.53057
Nuclear contribution   :     -4.79106       2.00632       0.51468
                        -----------------------------------------
Total Dipole Moment    :     -0.54338       0.40569      -0.01590
                        -----------------------------------------
Magnitude (a.u.)       :      0.67830
Magnitude (Debye)      :      1.72411

                             ****ORCA TERMINATED NORMALLY****
TOTAL RUN TIME: 0 days 0 hours 0 minutes 7 seconds 293 msec
