                         Program Version 3.0.3 - RELEASE   -
|  1> ! RI PBE def2-SVP def2-SVP/J NBO PAL2
|  2> % maxcore 2000
|  3> % output
|  4>     # printlevel mini
|  5>     print[ P_Basis ] 0
|  6>     print[ P_SCFInfo ] 1
|  7>     print[ P_SCFIterInfo ] 1
|  8>     print[ P_OrbEn ] 0
|  9>     print[ P_Cartesian ] 0
| 10> end
| 11> *xyz 0 1
| 12>  C        0.6761040000     0.0857870000     0.0400310000
| 13>  C        2.1793270000     0.1058790000     0.1053170000
| 14>  C        3.0683520000    -0.8602100000    -0.6245990000
| 15>  C        2.4988030000    -1.5901040000    -1.8125080000
| 16>  O        1.8899900000    -0.6108810000    -2.6367410000
| 17>  C        2.4942740000     0.6486270000    -2.3972230000
| 18>  C        3.0654090000     0.5950070000    -1.0046750000
| 19>  H        0.2709300000    -0.6405420000     0.7499530000
| 20>  H        0.3115580000    -0.1745620000    -0.9539500000
| 21>  H        0.2674820000     1.0649660000     0.3045030000
| 22>  H        2.5626870000     0.3635880000     1.0890550000
| 23>  H        3.9080550000    -1.3070010000    -0.1062110000
| 24>  H        1.7275420000    -2.3251370000    -1.5620140000
| 25>  H        3.3051170000    -2.1104520000    -2.3494660000
| 26>  H        1.7199880000     1.4093480000    -2.5373920000
| 27>  H        3.2991420000     0.8429930000    -3.1208500000
| 28>  H        3.9029020000     1.2414050000    -0.7718100000
| 29> *
| 30>
| 31>                          ****END OF INPUT****
 Total Charge           Charge          ....    0
 Multiplicity           Mult            ....    1
 Number of Electrons    NEL             ....   54
 Basis Dimension        Dim             ....  148

MULLIKEN ATOMIC CHARGES
-----------------------
   0 C :    0.083212
   1 C :   -0.113331
   2 C :   -0.163090
   3 C :    0.293779
   4 O :   -0.364933
   5 C :    0.290226
   6 C :   -0.171757
   7 H :    0.019369
   8 H :    0.026794
   9 H :    0.017409
  10 H :    0.010372
  11 H :    0.016792
  12 H :    0.015211
  13 H :    0.001389
  14 H :    0.016454
  15 H :    0.002489
  16 H :    0.019616
Sum of atomic charges:    0.0000000

LOEWDIN ATOMIC CHARGES
----------------------
   0 C :   -0.061874
   1 C :   -0.039302
   2 C :   -0.055066
   3 C :    0.071864
   4 O :   -0.156691
   5 C :    0.071238
   6 C :   -0.056831
   7 H :    0.029836
   8 H :    0.028804
   9 H :    0.029326
  10 H :    0.030294
  11 H :    0.025398
  12 H :    0.018158
  13 H :    0.010069
  14 H :    0.018404
  15 H :    0.010494
  16 H :    0.025880

  Mayer bond orders larger than 0.1
B(  0-C ,  1-C ) :   1.1052 B(  0-C ,  7-H ) :   0.9563 B(  0-C ,  8-H ) :   0.9276
B(  0-C ,  9-H ) :   0.9565 B(  1-C ,  2-C ) :   0.9420 B(  1-C ,  6-C ) :   0.9384
B(  1-C , 10-H ) :   0.9266 B(  2-C ,  3-C ) :   1.0792 B(  2-C ,  6-C ) :   0.9676
B(  2-C , 11-H ) :   0.9378 B(  3-C ,  4-O ) :   1.0001 B(  3-C , 12-H ) :   0.9292
B(  3-C , 13-H ) :   0.9242 B(  4-O ,  5-C ) :   1.0008 B(  5-C ,  6-C ) :   1.0783
B(  5-C , 14-H ) :   0.9298 B(  5-C , 15-H ) :   0.9229 B(  6-C , 16-H ) :   0.9379

FINAL SINGLE POINT ENERGY      -309.214283515606

DIPOLE MOMENT
-------------
                                X             Y             Z
Electronic contribution:      1.42405      -0.61044      -2.33923
Nuclear contribution   :     -1.03916       0.71745       2.75499
                        -----------------------------------------
Total Dipole Moment    :      0.38489       0.10701       0.41576
                        -----------------------------------------
Magnitude (a.u.)       :      0.57658
Magnitude (Debye)      :      1.46555

                             ****ORCA TERMINATED NORMALLY****
TOTAL RUN TIME: 0 days 0 hours 0 minutes 7 seconds 558 msec
