                         Program Version 3.0.3 - RELEASE   -
|  1> ! RI PBE def2-SVP def2-SVP/J NBO PAL2
|  2> % maxcore 2000
|  3> % output
|  4>     # printlevel mini
|  5>     print[ P_Basis ] 0
|  6>     print[ P_SCFInfo ] 1
|  7>     print[ P_SCFIterInfo ] 1
|  8>     print[ P_OrbEn ] 0
|  9>     print[ P_Cartesian ] 0
| 10> end
| 11> *xyz 0 1
| 12>  C        0.9174010000     0.0012890000    -0.1416220000
| 13>  C        2.3905350000     0.1969340000     0.0970780000
| 14>  C        3.4935760000    -0.6828150000    -0.5605430000
| 15>  O        4.4146960000     0.4171900000    -0.3215970000
| 16>  C        3.2603990000     1.2242820000    -0.6845980000
| 17>  C        3.0422430000     0.8025550000    -2.1382390000
| 18>  C        3.2033200000    -0.5148620000    -2.0525420000
| 19>  H        0.5624790000    -0.8976980000     0.3695500000
| 20>  H        0.6869210000    -0.0959860000    -1.2038070000
| 21>  H        0.3492140000     0.8465320000     0.2560880000
| 22>  H        2.6121560000     0.2934030000     1.1635340000
| 23>  H        3.8171310000    -1.6456180000    -0.1686660000
| 24>  H        3.3373370000     2.2785000000    -0.4239250000
| 25>  H        2.8162400000     1.4339620000    -2.9846850000
| 26>  H        3.1486530000    -1.2847770000    -2.8078340000
| 27> *
| 28>
| 29>                          ****END OF INPUT****
 Total Charge           Charge          ....    0
 Multiplicity           Mult            ....    1
 Number of Electrons    NEL             ....   52
 Basis Dimension        Dim             ....  138

MULLIKEN ATOMIC CHARGES
-----------------------
   0 C :    0.090614
   1 C :   -0.155694
   2 C :    0.140018
   3 O :   -0.305861
   4 C :    0.129412
   5 C :    0.025041
   6 C :    0.020254
   7 H :    0.021139
   8 H :    0.013677
   9 H :    0.023154
  10 H :    0.026107
  11 H :   -0.006570
  12 H :   -0.002258
  13 H :   -0.009923
  14 H :   -0.009112
Sum of atomic charges:   -0.0000000

LOEWDIN ATOMIC CHARGES
----------------------
   0 C :   -0.071149
   1 C :   -0.031620
   2 C :    0.074763
   3 O :   -0.171374
   4 C :    0.073318
   5 C :   -0.027591
   6 C :   -0.028447
   7 H :    0.032115
   8 H :    0.024327
   9 H :    0.032371
  10 H :    0.028257
  11 H :    0.009815
  12 H :    0.010574
  13 H :    0.022242
  14 H :    0.022398

  Mayer bond orders larger than 0.1
B(  0-C ,  1-C ) :   1.0643 B(  0-C ,  7-H ) :   0.9511 B(  0-C ,  8-H ) :   0.9400
B(  0-C ,  9-H ) :   0.9511 B(  1-C ,  2-C ) :   0.9722 B(  1-C ,  4-C ) :   0.9692
B(  1-C , 10-H ) :   0.9135 B(  2-C ,  3-O ) :   0.9718 B(  2-C ,  6-C ) :   0.9147
B(  2-C , 11-H ) :   0.9698 B(  3-O ,  4-C ) :   0.9743 B(  4-C ,  5-C ) :   0.9138
B(  4-C , 12-H ) :   0.9720 B(  5-C ,  6-C ) :   1.7578 B(  5-C , 13-H ) :   1.0228
B(  6-C , 14-H ) :   1.0233

FINAL SINGLE POINT ENERGY      -307.960154357647

DIPOLE MOMENT
-------------
                                X             Y             Z
Electronic contribution:      5.15997       0.58662      -0.68409
Nuclear contribution   :     -5.89094      -0.68362       0.56350
                        -----------------------------------------
Total Dipole Moment    :     -0.73097      -0.09700      -0.12060
                        -----------------------------------------
Magnitude (a.u.)       :      0.74717
Magnitude (Debye)      :      1.89916

                             ****ORCA TERMINATED NORMALLY****
TOTAL RUN TIME: 0 days 0 hours 0 minutes 6 seconds 262 msec
