                         Program Version 3.0.3 - RELEASE   -
|  1> ! RI PBE def2-SVP def2-SVP/J NBO PAL2
|  2> % maxcore 2000
|  3> % output
|  4>     # printlevel mini
|  5>     print[ P_Basis ] 0
|  6>     print[ P_SCFInfo ] 1
|  7>     print[ P_SCFIterInfo ] 1
|  8>     print[ P_OrbEn ] 0
|  9>     print[ P_Cartesian ] 0
| 10> end
| 11> *xyz 0 1
| 12>  C        0.8846430000    -0.0202840000    -0.3589980000
| 13>  C        2.2122630000    -0.0050930000     0.3369130000
| 14>  C        3.4026540000     0.7293210000    -0.1820560000
| 15>  O        3.4145930000     1.1185740000    -1.5377560000
| 16>  C        3.4386860000    -0.0217440000    -2.2793770000
| 17>  C        3.4814370000    -1.1444680000    -1.5644780000
| 18>  C        3.4310610000    -0.7858370000    -0.1304740000
| 19>  H        0.3330040000     0.9012350000    -0.1564570000
| 20>  H        0.2772120000    -0.8611840000    -0.0142950000
| 21>  H        0.9962610000    -0.1102980000    -1.4400110000
| 22>  H        2.1504300000     0.0471060000     1.4201390000
| 23>  H        3.9833250000     1.3943720000     0.4442700000
| 24>  H        3.4154950000     0.1304020000    -3.3490820000
| 25>  H        3.5404140000    -2.1441400000    -1.9661160000
| 26>  H        4.0089420000    -1.3435510000     0.5968790000
| 27> *
| 28>
| 29>                          ****END OF INPUT****
 Total Charge           Charge          ....    0
 Multiplicity           Mult            ....    1
 Number of Electrons    NEL             ....   52
 Basis Dimension        Dim             ....  138

MULLIKEN ATOMIC CHARGES
-----------------------
   0 C :    0.092927
   1 C :   -0.169230
   2 C :    0.131542
   3 O :   -0.237330
   4 C :    0.117468
   5 C :   -0.033933
   6 C :   -0.046930
   7 H :    0.026777
   8 H :    0.023615
   9 H :    0.020367
  10 H :    0.026679
  11 H :    0.023936
  12 H :    0.009530
  13 H :   -0.006241
  14 H :    0.020822
Sum of atomic charges:    0.0000000

LOEWDIN ATOMIC CHARGES
----------------------
   0 C :   -0.058952
   1 C :   -0.058418
   2 C :    0.060345
   3 O :   -0.061226
   4 C :    0.035983
   5 C :   -0.100756
   6 C :   -0.041885
   7 H :    0.032330
   8 H :    0.031868
   9 H :    0.031178
  10 H :    0.034920
  11 H :    0.018657
  12 H :    0.021868
  13 H :    0.028633
  14 H :    0.025456

  Mayer bond orders larger than 0.1
B(  0-C ,  1-C ) :   1.0896 B(  0-C ,  7-H ) :   0.9587 B(  0-C ,  8-H ) :   0.9568
B(  0-C ,  9-H ) :   0.9351 B(  1-C ,  2-C ) :   0.9434 B(  1-C ,  6-C ) :   0.9103
B(  1-C , 10-H ) :   0.9306 B(  2-C ,  3-O ) :   1.0298 B(  2-C ,  6-C ) :   0.9146
B(  2-C , 11-H ) :   0.9567 B(  3-O ,  4-C ) :   1.1039 B(  3-O ,  5-C ) :   0.1044
B(  4-C ,  5-C ) :   1.6911 B(  4-C , 12-H ) :   0.9883 B(  5-C ,  6-C ) :   1.0451
B(  5-C , 13-H ) :   1.0012 B(  6-C , 14-H ) :   0.9484

FINAL SINGLE POINT ENERGY      -308.000048683001

DIPOLE MOMENT
-------------
                                X             Y             Z
Electronic contribution:      3.93949       1.65682      -1.76187
Nuclear contribution   :     -3.98294      -1.91738       1.99153
                        -----------------------------------------
Total Dipole Moment    :     -0.04345      -0.26056       0.22966
                        -----------------------------------------
Magnitude (a.u.)       :      0.35003
Magnitude (Debye)      :      0.88970

                             ****ORCA TERMINATED NORMALLY****
TOTAL RUN TIME: 0 days 0 hours 0 minutes 6 seconds 752 msec
