                         Program Version 3.0.3 - RELEASE   -
|  1> ! RI PBE def2-SVP def2-SVP/J NBO PAL2
|  2> % maxcore 2000
|  3> % output
|  4>     # printlevel mini
|  5>     print[ P_Basis ] 0
|  6>     print[ P_SCFInfo ] 1
|  7>     print[ P_SCFIterInfo ] 1
|  8>     print[ P_OrbEn ] 0
|  9>     print[ P_Cartesian ] 0
| 10> end
| 11> *xyz 0 1
| 12>  C        0.9001900000    -0.0680210000    -0.1289580000
| 13>  C        2.3775080000    -0.0021770000     0.1152530000
| 14>  C        3.3494680000    -0.9486800000    -0.5401560000
| 15>  O        2.8764020000    -1.6479630000    -1.6611420000
| 16>  C        3.0569240000    -0.7679630000    -2.7444140000
| 17>  O        2.8743290000     0.5353040000    -2.2457600000
| 18>  C        3.3487340000     0.4909830000    -0.9258640000
| 19>  H        0.4337060000    -0.8095110000     0.5237070000
| 20>  H        0.6834410000    -0.3435640000    -1.1601620000
| 21>  H        0.4331650000     0.8999560000     0.0667940000
| 22>  H        2.6683350000     0.2686490000     1.1274440000
| 23>  H        4.1417950000    -1.4399230000     0.0122770000
| 24>  H        2.3019440000    -0.9723240000    -3.5056480000
| 25>  H        4.0715870000    -0.8781000000    -3.1595140000
| 26>  H        4.1406710000     1.1933140000    -0.6937480000
| 27> *
| 28>
| 29>                          ****END OF INPUT****
 Total Charge           Charge          ....    0
 Multiplicity           Mult            ....    1
 Number of Electrons    NEL             ....   54
 Basis Dimension        Dim             ....  138

MULLIKEN ATOMIC CHARGES
-----------------------
   0 C :    0.101189
   1 C :   -0.143658
   2 C :    0.085510
   3 O :   -0.317381
   4 C :    0.361407
   5 O :   -0.317260
   6 C :    0.077811
   7 H :    0.025781
   8 H :    0.011364
   9 H :    0.023424
  10 H :    0.015890
  11 H :    0.024022
  12 H :    0.030539
  13 H :   -0.003554
  14 H :    0.024916
Sum of atomic charges:   -0.0000000

LOEWDIN ATOMIC CHARGES
----------------------
   0 C :   -0.051419
   1 C :   -0.062411
   2 C :    0.034294
   3 O :   -0.134375
   4 C :    0.150066
   5 O :   -0.134512
   6 C :    0.033273
   7 H :    0.032982
   8 H :    0.028828
   9 H :    0.032340
  10 H :    0.032998
  11 H :    0.015723
  12 H :    0.014049
  13 H :   -0.007782
  14 H :    0.015946

  Mayer bond orders larger than 0.1
B(  0-C ,  1-C ) :   1.0848 B(  0-C ,  7-H ) :   0.9590 B(  0-C ,  8-H ) :   0.9423
B(  0-C ,  9-H ) :   0.9597 B(  1-C ,  2-C ) :   0.9157 B(  1-C ,  6-C ) :   0.9136
B(  1-C , 10-H ) :   0.9224 B(  2-C ,  3-O ) :   1.0548 B(  2-C ,  6-C ) :   0.9577
B(  2-C , 11-H ) :   0.9575 B(  3-O ,  4-C ) :   1.0169 B(  4-C ,  5-O ) :   1.0192
B(  4-C , 12-H ) :   0.9534 B(  4-C , 13-H ) :   0.9294 B(  5-O ,  6-C ) :   1.0519
B(  6-C , 14-H ) :   0.9580

FINAL SINGLE POINT ENERGY      -345.059237981027

DIPOLE MOMENT
-------------
                                X             Y             Z
Electronic contribution:      2.64015      -0.62762      -2.32808
Nuclear contribution   :     -2.34493       0.69982       2.61096
                        -----------------------------------------
Total Dipole Moment    :      0.29522       0.07220       0.28288
                        -----------------------------------------
Magnitude (a.u.)       :      0.41520
Magnitude (Debye)      :      1.05535

                             ****ORCA TERMINATED NORMALLY****
TOTAL RUN TIME: 0 days 0 hours 0 minutes 6 seconds 710 msec
