                         Program Version 3.0.3 - RELEASE   -
|  1> ! RI PBE def2-SVP def2-SVP/J NBO PAL2
|  2> % maxcore 2000
|  3> % output
|  4>     # printlevel mini
|  5>     print[ P_Basis ] 0
|  6>     print[ P_SCFInfo ] 1
|  7>     print[ P_SCFIterInfo ] 1
|  8>     print[ P_OrbEn ] 0
|  9>     print[ P_Cartesian ] 0
| 10> end
| 11> *xyz 0 1
| 12>  C        0.9812350000     0.3238040000    -0.2480460000
| 13>  C        2.4804060000     0.2878160000    -0.1668870000
| 14>  C        3.2564930000    -0.7835100000    -0.8717030000
| 15>  C        3.3109140000     0.6361850000    -1.3604620000
| 16>  C        4.5709840000     1.4156330000    -1.2223980000
| 17>  C        4.6539780000     2.6442260000    -0.4372470000
| 18>  O        5.1877800000     1.4249390000     0.0555540000
| 19>  H        0.5289390000    -0.3344370000     0.4987850000
| 20>  H        0.6342550000    -0.0050230000    -1.2315460000
| 21>  H        0.5951530000     1.3332800000    -0.0805690000
| 22>  H        2.9059240000     0.5949070000     0.7836390000
| 23>  H        2.7081370000    -1.5056520000    -1.4655520000
| 24>  H        4.1388120000    -1.1719720000    -0.3773390000
| 25>  H        2.7698610000     0.8469400000    -2.2791300000
| 26>  H        5.2791890000     1.2992390000    -2.0433110000
| 27>  H        3.7637900000     2.9988370000     0.0768890000
| 28>  H        5.3898390000     3.4038060000    -0.6894870000
| 29> *
| 30>
| 31>                          ****END OF INPUT****
 Total Charge           Charge          ....    0
 Multiplicity           Mult            ....    1
 Number of Electrons    NEL             ....   54
 Basis Dimension        Dim             ....  148

MULLIKEN ATOMIC CHARGES
-----------------------
   0 C :    0.089580
   1 C :   -0.190505
   2 C :    0.019914
   3 C :   -0.051754
   4 C :    0.065635
   5 C :    0.135686
   6 O :   -0.289638
   7 H :    0.024922
   8 H :   -0.000398
   9 H :    0.017906
  10 H :    0.029055
  11 H :    0.021828
  12 H :    0.035506
  13 H :    0.016649
  14 H :    0.018100
  15 H :    0.026085
  16 H :    0.031427
Sum of atomic charges:    0.0000000

LOEWDIN ATOMIC CHARGES
----------------------
   0 C :   -0.053568
   1 C :   -0.042033
   2 C :   -0.035076
   3 C :   -0.057400
   4 C :    0.046546
   5 C :    0.055800
   6 O :   -0.154873
   7 H :    0.029939
   8 H :    0.024897
   9 H :    0.027296
  10 H :    0.027288
  11 H :    0.024031
  12 H :    0.030280
  13 H :    0.029971
  14 H :    0.017502
  15 H :    0.013809
  16 H :    0.015591

  Mayer bond orders larger than 0.1
B(  0-C ,  1-C ) :   1.0915 B(  0-C ,  7-H ) :   0.9588 B(  0-C ,  8-H ) :   0.9468
B(  0-C ,  9-H ) :   0.9610 B(  1-C ,  2-C ) :   1.0023 B(  1-C ,  3-C ) :   0.9375
B(  1-C , 10-H ) :   0.9338 B(  2-C ,  3-C ) :   0.9903 B(  2-C , 11-H ) :   0.9401
B(  2-C , 12-H ) :   0.9410 B(  3-C ,  4-C ) :   1.0439 B(  3-C , 13-H ) :   0.9355
B(  4-C ,  5-C ) :   1.0901 B(  4-C ,  6-O ) :   0.9837 B(  4-C , 14-H ) :   0.9364
B(  5-C ,  6-O ) :   0.9947 B(  5-C , 15-H ) :   0.9271 B(  5-C , 16-H ) :   0.9394

FINAL SINGLE POINT ENERGY      -309.185585767469

DIPOLE MOMENT
-------------
                                X             Y             Z
Electronic contribution:      5.45300       1.35867       0.42960
Nuclear contribution   :     -5.84334      -1.08537      -0.86149
                        -----------------------------------------
Total Dipole Moment    :     -0.39034       0.27329      -0.43189
                        -----------------------------------------
Magnitude (a.u.)       :      0.64310
Magnitude (Debye)      :      1.63464

                             ****ORCA TERMINATED NORMALLY****
TOTAL RUN TIME: 0 days 0 hours 0 minutes 7 seconds 557 msec
