                         Program Version 3.0.3 - RELEASE   -
|  1> ! RI PBE def2-SVP def2-SVP/J NBO PAL2
|  2> % maxcore 2000
|  3> % output
|  4>     # printlevel mini
|  5>     print[ P_Basis ] 0
|  6>     print[ P_SCFInfo ] 1
|  7>     print[ P_SCFIterInfo ] 1
|  8>     print[ P_OrbEn ] 0
|  9>     print[ P_Cartesian ] 0
| 10> end
| 11> *xyz 0 1
| 12>  C        0.8315660000     0.1376360000    -0.2868340000
| 13>  C        2.3151360000     0.1008510000    -0.0516180000
| 14>  C        3.1507840000    -0.9651620000    -0.6903540000
| 15>  C        3.2818130000     0.4558370000    -1.1509010000
| 16>  C        4.5377110000     1.2365950000    -0.8680900000
| 17>  C        4.3260970000     2.7395070000    -0.9231170000
| 18>  O        3.4176390000     3.2061900000     0.0511700000
| 19>  H        0.3063880000    -0.5480860000     0.3837150000
| 20>  H        0.5936090000    -0.1556650000    -1.3127760000
| 21>  H        0.4169560000     1.1377510000    -0.1252590000
| 22>  H        2.6283390000     0.3931010000     0.9471570000
| 23>  H        2.6512240000    -1.6697420000    -1.3451300000
| 24>  H        3.9720480000    -1.3851410000    -0.1211960000
| 25>  H        2.8231700000     0.6743980000    -2.1135160000
| 26>  H        5.3121780000     0.9668730000    -1.5961750000
| 27>  H        4.9225680000     0.9646360000     0.1211370000
| 28>  H        3.9942740000     3.0276760000    -1.9324130000
| 29>  H        5.2677210000     3.2598260000    -0.7322320000
| 30>  H        2.6124880000     2.6881200000    -0.0349590000
| 31> *
| 32>
| 33>                          ****END OF INPUT****
 Total Charge           Charge          ....    0
 Multiplicity           Mult            ....    1
 Number of Electrons    NEL             ....   56
 Basis Dimension        Dim             ....  158

MULLIKEN ATOMIC CHARGES
-----------------------
   0 C :    0.089068
   1 C :   -0.199901
   2 C :    0.030846
   3 C :   -0.163174
   4 C :    0.056395
   5 C :    0.186327
   6 O :   -0.292741
   7 H :    0.028095
   8 H :    0.005613
   9 H :    0.013060
  10 H :    0.025854
  11 H :    0.023142
  12 H :    0.024474
  13 H :    0.011703
  14 H :    0.009402
  15 H :   -0.000936
  16 H :   -0.011968
  17 H :    0.007606
  18 H :    0.157135
Sum of atomic charges:    0.0000000

LOEWDIN ATOMIC CHARGES
----------------------
   0 C :   -0.055683
   1 C :   -0.056566
   2 C :   -0.039316
   3 C :   -0.051797
   4 C :   -0.054832
   5 C :    0.058338
   6 O :   -0.123324
   7 H :    0.031591
   8 H :    0.027126
   9 H :    0.023649
  10 H :    0.024686
  11 H :    0.025686
  12 H :    0.026574
  13 H :    0.022870
  14 H :    0.030749
  15 H :    0.026184
  16 H :    0.001060
  17 H :    0.019845
  18 H :    0.063161

  Mayer bond orders larger than 0.1
B(  0-C ,  1-C ) :   1.0960 B(  0-C ,  7-H ) :   0.9561 B(  0-C ,  8-H ) :   0.9475
B(  0-C ,  9-H ) :   0.9596 B(  1-C ,  2-C ) :   1.0141 B(  1-C ,  3-C ) :   0.9338
B(  1-C , 10-H ) :   0.9366 B(  2-C ,  3-C ) :   0.9895 B(  2-C , 11-H ) :   0.9389
B(  2-C , 12-H ) :   0.9368 B(  3-C ,  4-C ) :   1.0677 B(  3-C , 13-H ) :   0.9413
B(  4-C ,  5-C ) :   1.0783 B(  4-C , 14-H ) :   0.9090 B(  4-C , 15-H ) :   0.9114
B(  5-C ,  6-O ) :   1.0675 B(  5-C , 16-H ) :   0.9320 B(  5-C , 17-H ) :   0.9363
B(  6-O , 18-H ) :   0.9839

FINAL SINGLE POINT ENERGY      -310.413594786163

DIPOLE MOMENT
-------------
                                X             Y             Z
Electronic contribution:      1.58400       2.48507       0.87891
Nuclear contribution   :     -1.75641      -3.02034      -1.20717
                        -----------------------------------------
Total Dipole Moment    :     -0.17241      -0.53527      -0.32826
                        -----------------------------------------
Magnitude (a.u.)       :      0.65115
Magnitude (Debye)      :      1.65510

                             ****ORCA TERMINATED NORMALLY****
TOTAL RUN TIME: 0 days 0 hours 0 minutes 7 seconds 675 msec
