                         Program Version 3.0.3 - RELEASE   -
|  1> ! RI PBE def2-SVP def2-SVP/J NBO PAL2
|  2> % maxcore 2000
|  3> % output
|  4>     # printlevel mini
|  5>     print[ P_Basis ] 0
|  6>     print[ P_SCFInfo ] 1
|  7>     print[ P_SCFIterInfo ] 1
|  8>     print[ P_OrbEn ] 0
|  9>     print[ P_Cartesian ] 0
| 10> end
| 11> *xyz 0 1
| 12>  C        0.7935730000    -0.4979630000    -0.9240680000
| 13>  C        1.7431170000     0.5852090000    -0.4949530000
| 14>  C        3.1787360000     0.2913060000    -0.1582680000
| 15>  C        2.8485930000     1.1088620000    -1.3696990000
| 16>  C        3.0807470000     0.5258760000    -2.7385730000
| 17>  C        3.1662220000     2.5909800000    -1.3352140000
| 18>  O        2.9878590000     3.2153910000    -0.0843400000
| 19>  H        0.3460010000    -0.9828920000    -0.0521410000
| 20>  H        1.2947780000    -1.2750120000    -1.5035890000
| 21>  H       -0.0214560000    -0.1010640000    -1.5364900000
| 22>  H        1.2845430000     1.3262840000     0.1549860000
| 23>  H        3.5335200000    -0.7210980000    -0.3190770000
| 24>  H        3.6107230000     0.8033040000     0.6930570000
| 25>  H        2.9223230000    -0.5524530000    -2.7592860000
| 26>  H        4.1103880000     0.7090800000    -3.0618770000
| 27>  H        2.4153720000     0.9755240000    -3.4827860000
| 28>  H        2.5803430000     3.1021020000    -2.1137610000
| 29>  H        4.2225860000     2.7289040000    -1.5878900000
| 30>  H        2.0473230000     3.3300710000     0.0677680000
| 31> *
| 32>
| 33>                          ****END OF INPUT****
 Total Charge           Charge          ....    0
 Multiplicity           Mult            ....    1
 Number of Electrons    NEL             ....   56
 Basis Dimension        Dim             ....  158

MULLIKEN ATOMIC CHARGES
-----------------------
   0 C :    0.092693
   1 C :   -0.175480
   2 C :    0.055617
   3 C :   -0.301461
   4 C :    0.087777
   5 C :    0.260644
   6 O :   -0.278774
   7 H :    0.019013
   8 H :    0.001772
   9 H :    0.020285
  10 H :   -0.011136
  11 H :    0.014045
  12 H :    0.023793
  13 H :    0.006748
  14 H :    0.016206
  15 H :    0.017035
  16 H :   -0.005949
  17 H :    0.000670
  18 H :    0.156502
Sum of atomic charges:   -0.0000000

LOEWDIN ATOMIC CHARGES
----------------------
   0 C :   -0.056215
   1 C :   -0.048126
   2 C :   -0.037544
   3 C :   -0.084445
   4 C :   -0.046796
   5 C :    0.067881
   6 O :   -0.109810
   7 H :    0.030400
   8 H :    0.024486
   9 H :    0.027835
  10 H :    0.012912
  11 H :    0.021449
  12 H :    0.024831
  13 H :    0.026113
  14 H :    0.028825
  15 H :    0.026769
  16 H :    0.005660
  17 H :    0.020433
  18 H :    0.065340

  Mayer bond orders larger than 0.1
B(  0-C ,  1-C ) :   1.1173 B(  0-C ,  7-H ) :   0.9520 B(  0-C ,  8-H ) :   0.9453
B(  0-C ,  9-H ) :   0.9578 B(  1-C ,  2-C ) :   0.9785 B(  1-C ,  3-C ) :   0.9248
B(  1-C , 10-H ) :   0.9249 B(  2-C ,  3-C ) :   0.9771 B(  2-C , 11-H ) :   0.9441
B(  2-C , 12-H ) :   0.9273 B(  3-C ,  4-C ) :   1.0969 B(  3-C ,  5-C ) :   1.0061
B(  4-C , 13-H ) :   0.9382 B(  4-C , 14-H ) :   0.9530 B(  4-C , 15-H ) :   0.9516
B(  5-C ,  6-O ) :   1.0733 B(  5-C , 16-H ) :   0.9393 B(  5-C , 17-H ) :   0.9276
B(  6-O , 18-H ) :   0.9804

FINAL SINGLE POINT ENERGY      -310.414225672862

DIPOLE MOMENT
-------------
                                X             Y             Z
Electronic contribution:      1.49913       4.12602       2.81628
Nuclear contribution   :     -1.97948      -4.26113      -3.14279
                        -----------------------------------------
Total Dipole Moment    :     -0.48034      -0.13511      -0.32651
                        -----------------------------------------
Magnitude (a.u.)       :      0.59632
Magnitude (Debye)      :      1.51572

                             ****ORCA TERMINATED NORMALLY****
TOTAL RUN TIME: 0 days 0 hours 0 minutes 8 seconds 501 msec
