                         Program Version 3.0.3 - RELEASE   -
|  1> ! RI PBE def2-SVP def2-SVP/J NBO PAL2
|  2> % maxcore 2000
|  3> % output
|  4>     # printlevel mini
|  5>     print[ P_Basis ] 0
|  6>     print[ P_SCFInfo ] 1
|  7>     print[ P_SCFIterInfo ] 1
|  8>     print[ P_OrbEn ] 0
|  9>     print[ P_Cartesian ] 0
| 10> end
| 11> *xyz 0 1
| 12>  C        0.8661980000     0.1853520000    -0.1895390000
| 13>  C        2.3507590000     0.1256770000     0.0261230000
| 14>  C        3.2180950000    -0.7107210000    -0.8390830000
| 15>  C        3.2658210000     0.7928760000    -0.9810060000
| 16>  C        4.4384340000     1.5892790000    -0.5489490000
| 17>  C        5.3548150000     1.0302010000     0.5120370000
| 18>  O        4.6687130000     2.6619410000    -1.0595860000
| 19>  H        0.3623710000    -0.6258000000     0.3430430000
| 20>  H        0.6218970000     0.0895630000    -1.2502730000
| 21>  H        0.4509950000     1.1314700000     0.1659960000
| 22>  H        2.6630120000     0.2141900000     1.0617770000
| 23>  H        2.7551170000    -1.2553580000    -1.6533910000
| 24>  H        4.0748480000    -1.2039070000    -0.3973130000
| 25>  H        2.7752090000     1.2224420000    -1.8469890000
| 26>  H        4.8292050000     0.4654920000     1.2838960000
| 27>  H        5.9146960000     1.8476140000     0.9629560000
| 28>  H        6.0661860000     0.3483880000     0.0356910000
| 29> *
| 30>
| 31>                          ****END OF INPUT****
 Total Charge           Charge          ....    0
 Multiplicity           Mult            ....    1
 Number of Electrons    NEL             ....   54
 Basis Dimension        Dim             ....  148

MULLIKEN ATOMIC CHARGES
-----------------------
   0 C :    0.077802
   1 C :   -0.179315
   2 C :    0.035688
   3 C :   -0.097040
   4 C :    0.015937
   5 C :    0.003192
   6 O :   -0.171054
   7 H :    0.030659
   8 H :    0.010985
   9 H :    0.031421
  10 H :    0.038764
  11 H :    0.037098
  12 H :    0.033481
  13 H :    0.017769
  14 H :    0.026543
  15 H :    0.038160
  16 H :    0.049911
Sum of atomic charges:   -0.0000000

LOEWDIN ATOMIC CHARGES
----------------------
   0 C :   -0.050294
   1 C :   -0.028056
   2 C :   -0.028914
   3 C :   -0.061028
   4 C :    0.053896
   5 C :   -0.090507
   6 O :   -0.136342
   7 H :    0.033002
   8 H :    0.029243
   9 H :    0.033439
  10 H :    0.027027
  11 H :    0.032512
  12 H :    0.027575
  13 H :    0.033961
  14 H :    0.030862
  15 H :    0.041922
  16 H :    0.051701

  Mayer bond orders larger than 0.1
B(  0-C ,  1-C ) :   1.1032 B(  0-C ,  7-H ) :   0.9585 B(  0-C ,  8-H ) :   0.9499
B(  0-C ,  9-H ) :   0.9602 B(  1-C ,  2-C ) :   1.0144 B(  1-C ,  3-C ) :   0.8721
B(  1-C , 10-H ) :   0.9431 B(  2-C ,  3-C ) :   0.9358 B(  2-C , 11-H ) :   0.9375
B(  2-C , 12-H ) :   0.9332 B(  3-C ,  4-C ) :   1.0066 B(  3-C , 13-H ) :   0.9376
B(  4-C ,  5-C ) :   1.0435 B(  4-C ,  6-O ) :   2.1591 B(  5-C , 14-H ) :   0.9410
B(  5-C , 15-H ) :   0.9424 B(  5-C , 16-H ) :   0.9287

FINAL SINGLE POINT ENERGY      -309.230052015197

DIPOLE MOMENT
-------------
                                X             Y             Z
Electronic contribution:      3.41183       4.57448      -2.38501
Nuclear contribution   :     -3.81734      -5.62216       2.84112
                        -----------------------------------------
Total Dipole Moment    :     -0.40551      -1.04768       0.45611
                        -----------------------------------------
Magnitude (a.u.)       :      1.21248
Magnitude (Debye)      :      3.08189

                             ****ORCA TERMINATED NORMALLY****
TOTAL RUN TIME: 0 days 0 hours 0 minutes 8 seconds 21 msec
