                         Program Version 3.0.3 - RELEASE   -
|  1> ! RI PBE def2-SVP def2-SVP/J NBO PAL2
|  2> % maxcore 2000
|  3> % output
|  4>     # printlevel mini
|  5>     print[ P_Basis ] 0
|  6>     print[ P_SCFInfo ] 1
|  7>     print[ P_SCFIterInfo ] 1
|  8>     print[ P_OrbEn ] 0
|  9>     print[ P_Cartesian ] 0
| 10> end
| 11> *xyz 0 1
| 12>  C        0.8516490000     0.3182360000    -0.5891630000
| 13>  C        2.2801550000     0.1964050000    -0.1441320000
| 14>  C        3.1231810000    -0.9613740000    -0.5897590000
| 15>  C        3.3967870000     0.4175070000    -1.1155340000
| 16>  C        4.6368870000     1.1461250000    -0.6986790000
| 17>  C        4.5790910000     2.6368220000    -0.8682480000
| 18>  O        3.6529190000     3.2449620000    -1.3286920000
| 19>  H        0.1828400000    -0.2560420000     0.0578970000
| 20>  H        0.7299130000    -0.0576050000    -1.6085290000
| 21>  H        0.5236790000     1.3606960000    -0.5788570000
| 22>  H        2.4725380000     0.5478430000     0.8662830000
| 23>  H        2.6747240000    -1.6823620000    -1.2633500000
| 24>  H        3.8302080000    -1.3874160000     0.1131670000
| 25>  H        3.0875410000     0.6117070000    -2.1374750000
| 26>  H        5.5210510000     0.8030580000    -1.2564990000
| 27>  H        4.8819660000     0.9489160000     0.3538930000
| 28>  H        5.4953910000     3.1746330000    -0.5354340000
| 29> *
| 30>
| 31>                          ****END OF INPUT****
 Total Charge           Charge          ....    0
 Multiplicity           Mult            ....    1
 Number of Electrons    NEL             ....   54
 Basis Dimension        Dim             ....  148

MULLIKEN ATOMIC CHARGES
-----------------------
   0 C :    0.080932
   1 C :   -0.151634
   2 C :    0.020733
   3 C :   -0.127881
   4 C :    0.082926
   5 C :    0.082249
   6 O :   -0.156375
   7 H :    0.022733
   8 H :    0.001965
   9 H :    0.030063
  10 H :    0.012566
  11 H :    0.023596
  12 H :    0.018293
  13 H :    0.021998
  14 H :    0.035464
  15 H :    0.017289
  16 H :   -0.014917
Sum of atomic charges:   -0.0000000

LOEWDIN ATOMIC CHARGES
----------------------
   0 C :   -0.052981
   1 C :   -0.039241
   2 C :   -0.043527
   3 C :   -0.040677
   4 C :   -0.075692
   5 C :    0.091765
   6 O :   -0.107301
   7 H :    0.028573
   8 H :    0.026497
   9 H :    0.032233
  10 H :    0.023237
  11 H :    0.026000
  12 H :    0.023444
  13 H :    0.028884
  14 H :    0.048309
  15 H :    0.045071
  16 H :   -0.014593

  Mayer bond orders larger than 0.1
B(  0-C ,  1-C ) :   1.1049 B(  0-C ,  7-H ) :   0.9572 B(  0-C ,  8-H ) :   0.9463
B(  0-C ,  9-H ) :   0.9609 B(  1-C ,  2-C ) :   1.0085 B(  1-C ,  3-C ) :   0.9506
B(  1-C , 10-H ) :   0.9398 B(  2-C ,  3-C ) :   0.9906 B(  2-C , 11-H ) :   0.9369
B(  2-C , 12-H ) :   0.9370 B(  3-C ,  4-C ) :   1.0577 B(  3-C , 13-H ) :   0.9422
B(  4-C ,  5-C ) :   0.9661 B(  4-C , 14-H ) :   0.8946 B(  4-C , 15-H ) :   0.8933
B(  5-C ,  6-O ) :   2.1965 B(  5-C , 16-H ) :   0.9231

FINAL SINGLE POINT ENERGY      -309.217455120772

DIPOLE MOMENT
-------------
                                X             Y             Z
Electronic contribution:      2.98165       5.20989      -1.26886
Nuclear contribution   :     -2.49346      -5.81908       1.58107
                        -----------------------------------------
Total Dipole Moment    :      0.48818      -0.60919       0.31221
                        -----------------------------------------
Magnitude (a.u.)       :      0.84078
Magnitude (Debye)      :      2.13709

                             ****ORCA TERMINATED NORMALLY****
TOTAL RUN TIME: 0 days 0 hours 0 minutes 7 seconds 266 msec
