                         Program Version 3.0.3 - RELEASE   -
|  1> ! RI PBE def2-SVP def2-SVP/J NBO PAL2
|  2> % maxcore 2000
|  3> % output
|  4>     # printlevel mini
|  5>     print[ P_Basis ] 0
|  6>     print[ P_SCFInfo ] 1
|  7>     print[ P_SCFIterInfo ] 1
|  8>     print[ P_OrbEn ] 0
|  9>     print[ P_Cartesian ] 0
| 10> end
| 11> *xyz 0 1
| 12>  C        1.0022670000    -0.0279190000    -0.1560010000
| 13>  C        2.5005630000    -0.0615420000    -0.0735940000
| 14>  C        3.3023730000    -0.8523690000    -1.0381720000
| 15>  C        3.3079170000     0.6566000000    -1.1334100000
| 16>  C        4.5073820000     1.4288620000    -0.7724660000
| 17>  O        5.2232460000     0.8654190000     0.2242150000
| 18>  O        4.8409200000     2.4626410000    -1.2901780000
| 19>  H        0.5649830000    -0.8682800000     0.3895710000
| 20>  H        0.6650210000    -0.0940060000    -1.1935720000
| 21>  H        0.6007400000     0.8951100000     0.2692270000
| 22>  H        2.9169850000     0.0078710000     0.9253580000
| 23>  H        2.7812400000    -1.3760220000    -1.8307830000
| 24>  H        4.2115380000    -1.3238680000    -0.6896530000
| 25>  H        2.7577990000     1.1088190000    -1.9481830000
| 26>  H        5.9734270000     1.4550030000     0.3789200000
| 27> *
| 28>
| 29>                          ****END OF INPUT****
 Total Charge           Charge          ....    0
 Multiplicity           Mult            ....    1
 Number of Electrons    NEL             ....   54
 Basis Dimension        Dim             ....  138

MULLIKEN ATOMIC CHARGES
-----------------------
   0 C :    0.077919
   1 C :   -0.151674
   2 C :    0.041496
   3 C :   -0.145252
   4 C :    0.128324
   5 O :   -0.150885
   6 O :   -0.181109
   7 H :    0.031072
   8 H :    0.007868
   9 H :    0.030663
  10 H :    0.039268
  11 H :    0.035421
  12 H :    0.043121
  13 H :    0.027930
  14 H :    0.165839
Sum of atomic charges:    0.0000000

LOEWDIN ATOMIC CHARGES
----------------------
   0 C :   -0.051400
   1 C :   -0.025506
   2 C :   -0.021110
   3 C :   -0.067282
   4 C :    0.041823
   5 O :   -0.025771
   6 O :   -0.161720
   7 H :    0.033281
   8 H :    0.028043
   9 H :    0.032710
  10 H :    0.031220
  11 H :    0.030698
  12 H :    0.031936
  13 H :    0.038246
  14 H :    0.084831

  Mayer bond orders larger than 0.1
B(  0-C ,  1-C ) :   1.0985 B(  0-C ,  7-H ) :   0.9598 B(  0-C ,  8-H ) :   0.9494
B(  0-C ,  9-H ) :   0.9608 B(  1-C ,  2-C ) :   1.0161 B(  1-C ,  3-C ) :   0.8842
B(  1-C , 10-H ) :   0.9425 B(  2-C ,  3-C ) :   0.9416 B(  2-C , 11-H ) :   0.9400
B(  2-C , 12-H ) :   0.9387 B(  3-C ,  4-C ) :   1.0114 B(  3-C , 13-H ) :   0.9486
B(  4-C ,  5-O ) :   1.2382 B(  4-C ,  6-O ) :   2.1163 B(  5-O , 14-H ) :   0.9495

FINAL SINGLE POINT ENERGY      -345.124078153972

DIPOLE MOMENT
-------------
                                X             Y             Z
Electronic contribution:      7.27792       4.52051      -0.53352
Nuclear contribution   :     -7.53303      -5.16043       0.94686
                        -----------------------------------------
Total Dipole Moment    :     -0.25511      -0.63992       0.41335
                        -----------------------------------------
Magnitude (a.u.)       :      0.80339
Magnitude (Debye)      :      2.04205

                             ****ORCA TERMINATED NORMALLY****
TOTAL RUN TIME: 0 days 0 hours 0 minutes 7 seconds 185 msec
