                         Program Version 3.0.3 - RELEASE   -
|  1> ! RI PBE def2-SVP def2-SVP/J NBO PAL2
|  2> % maxcore 2000
|  3> % output
|  4>     # printlevel mini
|  5>     print[ P_Basis ] 0
|  6>     print[ P_SCFInfo ] 1
|  7>     print[ P_SCFIterInfo ] 1
|  8>     print[ P_OrbEn ] 0
|  9>     print[ P_Cartesian ] 0
| 10> end
| 11> *xyz 0 1
| 12>  C        0.7608340000     0.1665080000    -0.1471780000
| 13>  C        2.2464900000    -0.0373690000    -0.0698240000
| 14>  C        2.9692920000    -0.8332290000    -1.1249140000
| 15>  C        3.1612830000     0.6369470000    -1.0428210000
| 16>  O        4.4202230000     1.0683090000    -0.6205230000
| 17>  C        4.4275830000     2.2374570000     0.0625540000
| 18>  C        5.5478650000     2.8672750000     0.3859150000
| 19>  H        0.2219150000    -0.6983750000     0.2488770000
| 20>  H        0.4391620000     0.3066150000    -1.1825710000
| 21>  H        0.4471080000     1.0463850000     0.4210510000
| 22>  H        2.6579950000    -0.1376540000     0.9298240000
| 23>  H        2.3991350000    -1.2279730000    -1.9574930000
| 24>  H        3.8051870000    -1.4442070000    -0.8085990000
| 25>  H        2.7171470000     1.2623440000    -1.8147720000
| 26>  H        3.4460950000     2.6163880000     0.3398840000
| 27>  H        6.5179090000     2.4785410000     0.1028520000
| 28>  H        5.4982690000     3.7873460000     0.9503600000
| 29> *
| 30>
| 31>                          ****END OF INPUT****
 Total Charge           Charge          ....    0
 Multiplicity           Mult            ....    1
 Number of Electrons    NEL             ....   54
 Basis Dimension        Dim             ....  148

MULLIKEN ATOMIC CHARGES
-----------------------
   0 C :    0.077050
   1 C :   -0.183301
   2 C :    0.019191
   3 C :    0.055065
   4 O :   -0.230073
   5 C :    0.100570
   6 C :   -0.076324
   7 H :    0.029181
   8 H :    0.007453
   9 H :    0.025466
  10 H :    0.034389
  11 H :    0.027058
  12 H :    0.045269
  13 H :    0.019846
  14 H :   -0.000001
  15 H :    0.023946
  16 H :    0.025215
Sum of atomic charges:   -0.0000000

LOEWDIN ATOMIC CHARGES
----------------------
   0 C :   -0.055139
   1 C :   -0.058206
   2 C :   -0.045356
   3 C :    0.040057
   4 O :   -0.058414
   5 C :    0.033939
   6 C :   -0.128450
   7 H :    0.031963
   8 H :    0.027057
   9 H :    0.030107
  10 H :    0.032713
  11 H :    0.029009
  12 H :    0.036738
  13 H :    0.013347
  14 H :    0.012457
  15 H :    0.027562
  16 H :    0.030616

  Mayer bond orders larger than 0.1
B(  0-C ,  1-C ) :   1.0914 B(  0-C ,  7-H ) :   0.9556 B(  0-C ,  8-H ) :   0.9510
B(  0-C ,  9-H ) :   0.9614 B(  1-C ,  2-C ) :   0.9925 B(  1-C ,  3-C ) :   0.9481
B(  1-C , 10-H ) :   0.9373 B(  2-C ,  3-C ) :   1.0008 B(  2-C , 11-H ) :   0.9346
B(  2-C , 12-H ) :   0.9373 B(  3-C ,  4-O ) :   1.0342 B(  3-C , 13-H ) :   0.9422
B(  4-O ,  5-C ) :   1.1014 B(  5-C ,  6-C ) :   1.9268 B(  5-C , 14-H ) :   0.9436
B(  6-C , 15-H ) :   0.9490 B(  6-C , 16-H ) :   0.9380

FINAL SINGLE POINT ENERGY      -309.187533340196

DIPOLE MOMENT
-------------
                                X             Y             Z
Electronic contribution:      4.29763       0.59446      -0.83502
Nuclear contribution   :     -4.99190      -0.68915       0.83602
                        -----------------------------------------
Total Dipole Moment    :     -0.69427      -0.09469       0.00100
                        -----------------------------------------
Magnitude (a.u.)       :      0.70070
Magnitude (Debye)      :      1.78104

                             ****ORCA TERMINATED NORMALLY****
TOTAL RUN TIME: 0 days 0 hours 0 minutes 7 seconds 105 msec
