                         Program Version 3.0.3 - RELEASE   -
|  1> ! RI PBE def2-SVP def2-SVP/J NBO PAL2
|  2> % maxcore 2000
|  3> % output
|  4>     # printlevel mini
|  5>     print[ P_Basis ] 0
|  6>     print[ P_SCFInfo ] 1
|  7>     print[ P_SCFIterInfo ] 1
|  8>     print[ P_OrbEn ] 0
|  9>     print[ P_Cartesian ] 0
| 10> end
| 11> *xyz 0 1
| 12>  C        1.0285720000     0.2441880000    -0.0862440000
| 13>  C        2.5273400000     0.1602270000    -0.0860030000
| 14>  C        3.2428040000    -0.7418250000    -1.0624670000
| 15>  C        3.3400810000     0.7452990000    -1.1929040000
| 16>  O        2.6174620000     1.3827480000    -2.2137280000
| 17>  C        4.6313520000     1.4478270000    -0.8886750000
| 18>  O        4.4257710000     2.7943410000    -0.5357280000
| 19>  H        0.5931870000    -0.5901770000     0.4696880000
| 20>  H        0.6359950000     0.2218870000    -1.1035170000
| 21>  H        0.6895360000     1.1728300000     0.3794820000
| 22>  H        2.9884080000     0.2432910000     0.8937250000
| 23>  H        2.6221980000    -1.2525310000    -1.7905210000
| 24>  H        4.1147980000    -1.2966230000    -0.7355530000
| 25>  H        3.0077260000     1.1333410000    -3.0569710000
| 26>  H        5.2991980000     1.3712840000    -1.7632900000
| 27>  H        5.1356760000     0.9634570000    -0.0488160000
| 28>  H        3.7732970000     3.1409360000    -1.1539760000
| 29> *
| 30>
| 31>                          ****END OF INPUT****
 Total Charge           Charge          ....    0
 Multiplicity           Mult            ....    1
 Number of Electrons    NEL             ....   56
 Basis Dimension        Dim             ....  148

MULLIKEN ATOMIC CHARGES
-----------------------
   0 C :    0.088143
   1 C :   -0.148698
   2 C :    0.007936
   3 C :   -0.129207
   4 O :   -0.241262
   5 C :    0.297389
   6 O :   -0.279568
   7 H :    0.020229
   8 H :    0.009144
   9 H :    0.026036
  10 H :    0.025669
  11 H :    0.021227
  12 H :    0.024524
  13 H :    0.163087
  14 H :   -0.022957
  15 H :   -0.010006
  16 H :    0.148313
Sum of atomic charges:    0.0000000

LOEWDIN ATOMIC CHARGES
----------------------
   0 C :   -0.053364
   1 C :   -0.041675
   2 C :   -0.056784
   3 C :   -0.017041
   4 O :   -0.086993
   5 C :    0.051477
   6 O :   -0.121489
   7 H :    0.029333
   8 H :    0.026085
   9 H :    0.032133
  10 H :    0.029173
  11 H :    0.027816
  12 H :    0.026218
  13 H :    0.075810
  14 H :   -0.001197
  15 H :    0.021287
  16 H :    0.059211

  Mayer bond orders larger than 0.1
B(  0-C ,  1-C ) :   1.1060 B(  0-C ,  7-H ) :   0.9569 B(  0-C ,  8-H ) :   0.9452
B(  0-C ,  9-H ) :   0.9615 B(  1-C ,  2-C ) :   0.9800 B(  1-C ,  3-C ) :   0.9018
B(  1-C , 10-H ) :   0.9362 B(  2-C ,  3-C ) :   0.9723 B(  2-C , 11-H ) :   0.9272
B(  2-C , 12-H ) :   0.9327 B(  3-C ,  4-O ) :   1.0697 B(  3-C ,  5-C ) :   1.0443
B(  4-O , 13-H ) :   0.9752 B(  5-C ,  6-O ) :   1.0917 B(  5-C , 14-H ) :   0.9062
B(  5-C , 15-H ) :   0.9102 B(  6-O , 16-H ) :   0.9702

FINAL SINGLE POINT ENERGY      -346.275374673054

DIPOLE MOMENT
-------------
                                X             Y             Z
Electronic contribution:      2.19651       3.26456      -1.59424
Nuclear contribution   :     -2.23180      -3.83279       0.99718
                        -----------------------------------------
Total Dipole Moment    :     -0.03530      -0.56824      -0.59705
                        -----------------------------------------
Magnitude (a.u.)       :      0.82499
Magnitude (Debye)      :      2.09697

                             ****ORCA TERMINATED NORMALLY****
TOTAL RUN TIME: 0 days 0 hours 0 minutes 7 seconds 67 msec
