                         Program Version 3.0.3 - RELEASE   -
|  1> ! RI PBE def2-SVP def2-SVP/J NBO PAL2
|  2> % maxcore 2000
|  3> % output
|  4>     # printlevel mini
|  5>     print[ P_Basis ] 0
|  6>     print[ P_SCFInfo ] 1
|  7>     print[ P_SCFIterInfo ] 1
|  8>     print[ P_OrbEn ] 0
|  9>     print[ P_Cartesian ] 0
| 10> end
| 11> *xyz 0 1
| 12>  C        0.7739010000    -0.2475870000    -0.3694460000
| 13>  C        2.2546810000    -0.2125460000    -0.1227760000
| 14>  C        3.2151180000    -0.9126550000    -1.0503620000
| 15>  C        3.1455820000     0.5758060000    -1.0083540000
| 16>  O        4.1962260000     1.2679500000    -0.3654670000
| 17>  C        5.0876110000     1.8576850000    -1.1645390000
| 18>  O        5.0693920000     1.8664490000    -2.3591920000
| 19>  H        0.3317080000    -1.1647910000     0.0277490000
| 20>  H        0.5538870000    -0.2121250000    -1.4394690000
| 21>  H        0.2724340000     0.6010100000     0.1028930000
| 22>  H        2.5563670000    -0.2156480000     0.9200610000
| 23>  H        2.8240910000    -1.4094470000    -1.9304040000
| 24>  H        4.0884290000    -1.3769580000    -0.6100300000
| 25>  H        2.7359380000     1.1094170000    -1.8568620000
| 26>  H        5.8484350000     2.3525380000    -0.5431940000
| 27> *
| 28>
| 29>                          ****END OF INPUT****
 Total Charge           Charge          ....    0
 Multiplicity           Mult            ....    1
 Number of Electrons    NEL             ....   54
 Basis Dimension        Dim             ....  138

MULLIKEN ATOMIC CHARGES
-----------------------
   0 C :    0.076847
   1 C :   -0.184026
   2 C :    0.008786
   3 C :    0.077178
   4 O :   -0.216487
   5 C :    0.215018
   6 O :   -0.203071
   7 H :    0.028316
   8 H :    0.009838
   9 H :    0.030781
  10 H :    0.040106
  11 H :    0.038188
  12 H :    0.038491
  13 H :    0.034804
  14 H :    0.005231
Sum of atomic charges:    0.0000000

LOEWDIN ATOMIC CHARGES
----------------------
   0 C :   -0.052551
   1 C :   -0.050061
   2 C :   -0.045602
   3 C :    0.050513
   4 O :   -0.045180
   5 C :    0.072254
   6 O :   -0.138701
   7 H :    0.032042
   8 H :    0.028232
   9 H :    0.032693
  10 H :    0.034578
  11 H :    0.031910
  12 H :    0.034470
  13 H :    0.021241
  14 H :   -0.005837

  Mayer bond orders larger than 0.1
B(  0-C ,  1-C ) :   1.0968 B(  0-C ,  7-H ) :   0.9591 B(  0-C ,  8-H ) :   0.9516
B(  0-C ,  9-H ) :   0.9605 B(  1-C ,  2-C ) :   0.9920 B(  1-C ,  3-C ) :   0.9408
B(  1-C , 10-H ) :   0.9364 B(  2-C ,  3-C ) :   1.0138 B(  2-C , 11-H ) :   0.9412
B(  2-C , 12-H ) :   0.9336 B(  3-C ,  4-O ) :   0.9554 B(  3-C , 13-H ) :   0.9437
B(  4-O ,  5-C ) :   1.1796 B(  4-O ,  6-O ) :   0.1066 B(  5-C ,  6-O ) :   2.0500
B(  5-C , 14-H ) :   0.9371

FINAL SINGLE POINT ENERGY      -345.096686657021

DIPOLE MOMENT
-------------
                                X             Y             Z
Electronic contribution:      7.07915       4.62082      -1.42634
Nuclear contribution   :     -7.54037      -4.95916       2.00370
                        -----------------------------------------
Total Dipole Moment    :     -0.46123      -0.33834       0.57736
                        -----------------------------------------
Magnitude (a.u.)       :      0.81274
Magnitude (Debye)      :      2.06582

                             ****ORCA TERMINATED NORMALLY****
TOTAL RUN TIME: 0 days 0 hours 0 minutes 6 seconds 452 msec
