                         Program Version 3.0.3 - RELEASE   -
|  1> ! RI PBE def2-SVP def2-SVP/J NBO PAL2
|  2> % maxcore 2000
|  3> % output
|  4>     # printlevel mini
|  5>     print[ P_Basis ] 0
|  6>     print[ P_SCFInfo ] 1
|  7>     print[ P_SCFIterInfo ] 1
|  8>     print[ P_OrbEn ] 0
|  9>     print[ P_Cartesian ] 0
| 10> end
| 11> *xyz 0 1
| 12>  C        0.9671330000    -0.0381590000    -0.0916920000
| 13>  C        2.4814980000    -0.0657450000    -0.0770120000
| 14>  C        3.0983030000    -1.2019640000     0.7857590000
| 15>  C        3.8712790000    -0.3172900000     1.7654010000
| 16>  C        4.5776220000     0.6962050000     0.8580150000
| 17>  C        3.1100140000     1.1031240000     0.6994950000
| 18>  O        2.8936090000     0.7111110000     2.0823740000
| 19>  H        0.5593610000    -0.9540280000    -0.5271890000
| 20>  H        0.5905860000     0.8050650000    -0.6776580000
| 21>  H        0.5804780000     0.0528930000     0.9261120000
| 22>  H        2.8655650000    -0.0896950000    -1.1015280000
| 23>  H        3.7439750000    -1.8798990000     0.2237990000
| 24>  H        2.3350510000    -1.7900960000     1.2989300000
| 25>  H        4.3390640000    -0.7716230000     2.6378870000
| 26>  H        5.1279440000     0.3374120000    -0.0141810000
| 27>  H        5.1473070000     1.4288410000     1.4276120000
| 28>  H        2.7862120000     2.1176480000     0.4670670000
| 29> *
| 30>
| 31>                          ****END OF INPUT****
 Total Charge           Charge          ....    0
 Multiplicity           Mult            ....    1
 Number of Electrons    NEL             ....   54
 Basis Dimension        Dim             ....  148

MULLIKEN ATOMIC CHARGES
-----------------------
   0 C :    0.062794
   1 C :   -0.120054
   2 C :    0.180841
   3 C :   -0.021143
   4 C :    0.073000
   5 C :    0.048622
   6 O :   -0.331563
   7 H :    0.019943
   8 H :    0.014107
   9 H :    0.019028
  10 H :    0.003856
  11 H :    0.004511
  12 H :    0.010197
  13 H :    0.000283
  14 H :    0.014267
  15 H :    0.026535
  16 H :   -0.005225
Sum of atomic charges:   -0.0000000

LOEWDIN ATOMIC CHARGES
----------------------
   0 C :   -0.060730
   1 C :   -0.050263
   2 C :   -0.037239
   3 C :    0.077231
   4 C :   -0.043385
   5 C :    0.078254
   6 O :   -0.176580
   7 H :    0.026812
   8 H :    0.024964
   9 H :    0.026438
  10 H :    0.021888
  11 H :    0.023440
  12 H :    0.025444
  13 H :    0.009668
  14 H :    0.015477
  15 H :    0.029269
  16 H :    0.009314

  Mayer bond orders larger than 0.1
B(  0-C ,  1-C ) :   1.0830 B(  0-C ,  7-H ) :   0.9608 B(  0-C ,  8-H ) :   0.9601
B(  0-C ,  9-H ) :   0.9495 B(  1-C ,  2-C ) :   1.0567 B(  1-C ,  5-C ) :   1.0044
B(  1-C , 10-H ) :   0.8909 B(  2-C ,  3-C ) :   1.0534 B(  2-C , 11-H ) :   0.8994
B(  2-C , 12-H ) :   0.9070 B(  3-C ,  4-C ) :   1.0250 B(  3-C ,  6-O ) :   0.9660
B(  3-C , 13-H ) :   0.9665 B(  4-C ,  5-C ) :   1.0165 B(  4-C , 14-H ) :   0.9368
B(  4-C , 15-H ) :   0.9194 B(  5-C ,  6-O ) :   0.9694 B(  5-C , 16-H ) :   0.9707

FINAL SINGLE POINT ENERGY      -309.204770900166

DIPOLE MOMENT
-------------
                                X             Y             Z
Electronic contribution:      1.92964       1.71760       3.26489
Nuclear contribution   :     -1.58008      -1.90709      -3.76680
                        -----------------------------------------
Total Dipole Moment    :      0.34955      -0.18949      -0.50190
                        -----------------------------------------
Magnitude (a.u.)       :      0.64031
Magnitude (Debye)      :      1.62755

                             ****ORCA TERMINATED NORMALLY****
TOTAL RUN TIME: 0 days 0 hours 0 minutes 7 seconds 568 msec
