                         Program Version 3.0.3 - RELEASE   -
|  1> ! RI PBE def2-SVP def2-SVP/J NBO PAL2
|  2> % maxcore 2000
|  3> % output
|  4>     # printlevel mini
|  5>     print[ P_Basis ] 0
|  6>     print[ P_SCFInfo ] 1
|  7>     print[ P_SCFIterInfo ] 1
|  8>     print[ P_OrbEn ] 0
|  9>     print[ P_Cartesian ] 0
| 10> end
| 11> *xyz 0 1
| 12>  C        1.0304950000     0.0854100000     0.0509580000
| 13>  C        2.3519290000     0.0489790000     0.0435640000
| 14>  C        3.3201110000    -1.1194170000     0.0838300000
| 15>  C        4.6006180000    -0.2740970000     0.0160760000
| 16>  C        4.3159100000     0.7381230000    -1.0988430000
| 17>  C        3.3308200000     1.1919550000    -0.0072790000
| 18>  O        4.3165580000     0.7725920000     0.9840970000
| 19>  H        0.4337790000    -0.8193470000     0.0888490000
| 20>  H        0.4954880000     1.0285440000     0.0226720000
| 21>  H        3.2055500000    -1.8109800000    -0.7544350000
| 22>  H        3.2624730000    -1.6799760000     1.0187760000
| 23>  H        5.5633710000    -0.7629620000     0.1534620000
| 24>  H        3.9234060000     0.3871110000    -2.0548260000
| 25>  H        5.1318240000     1.4487920000    -1.2236260000
| 26>  H        2.9709760000     2.2126730000     0.1043950000
| 27> *
| 28>
| 29>                          ****END OF INPUT****
 Total Charge           Charge          ....    0
 Multiplicity           Mult            ....    1
 Number of Electrons    NEL             ....   52
 Basis Dimension        Dim             ....  138

MULLIKEN ATOMIC CHARGES
-----------------------
   0 C :   -0.067136
   1 C :   -0.105568
   2 C :    0.226816
   3 C :   -0.025053
   4 C :    0.076621
   5 C :    0.089822
   6 O :   -0.318560
   7 H :    0.011057
   8 H :    0.010511
   9 H :    0.024854
  10 H :    0.033201
  11 H :    0.003623
  12 H :    0.025852
  13 H :    0.028738
  14 H :   -0.014779
Sum of atomic charges:    0.0000000

LOEWDIN ATOMIC CHARGES
----------------------
   0 C :   -0.080101
   1 C :   -0.033034
   2 C :   -0.038370
   3 C :    0.077562
   4 C :   -0.036930
   5 C :    0.084430
   6 O :   -0.171456
   7 H :    0.025177
   8 H :    0.024790
   9 H :    0.032811
  10 H :    0.038248
  11 H :    0.011510
  12 H :    0.019476
  13 H :    0.031156
  14 H :    0.014730

  Mayer bond orders larger than 0.1
B(  0-C ,  1-C ) :   2.0397 B(  0-C ,  7-H ) :   0.9251 B(  0-C ,  8-H ) :   0.9302
B(  1-C ,  2-C ) :   0.9795 B(  1-C ,  5-C ) :   0.9752 B(  2-C ,  3-C ) :   1.0011
B(  2-C ,  9-H ) :   0.9018 B(  2-C , 10-H ) :   0.8933 B(  3-C ,  4-C ) :   1.0293
B(  3-C ,  6-O ) :   0.9772 B(  3-C , 11-H ) :   0.9637 B(  4-C ,  5-C ) :   0.9939
B(  4-C , 12-H ) :   0.9410 B(  4-C , 13-H ) :   0.9112 B(  5-C ,  6-O ) :   0.9527
B(  5-C , 14-H ) :   0.9768

FINAL SINGLE POINT ENERGY      -307.980114924992

DIPOLE MOMENT
-------------
                                X             Y             Z
Electronic contribution:      1.66215       1.36206       2.03674
Nuclear contribution   :     -1.67284      -1.58269      -2.63317
                        -----------------------------------------
Total Dipole Moment    :     -0.01069      -0.22062      -0.59643
                        -----------------------------------------
Magnitude (a.u.)       :      0.63602
Magnitude (Debye)      :      1.61663

                             ****ORCA TERMINATED NORMALLY****
TOTAL RUN TIME: 0 days 0 hours 0 minutes 6 seconds 773 msec
