                         Program Version 3.0.3 - RELEASE   -
|  1> ! RI PBE def2-SVP def2-SVP/J NBO PAL2
|  2> % maxcore 2000
|  3> % output
|  4>     # printlevel mini
|  5>     print[ P_Basis ] 0
|  6>     print[ P_SCFInfo ] 1
|  7>     print[ P_SCFIterInfo ] 1
|  8>     print[ P_OrbEn ] 0
|  9>     print[ P_Cartesian ] 0
| 10> end
| 11> *xyz 0 1
| 12>  C        1.0655600000     0.0573380000     0.0763960000
| 13>  C        2.5261960000    -0.1717320000     0.1113490000
| 14>  C        3.2921510000    -1.2222390000    -0.1806660000
| 15>  C        4.6873570000    -0.6760700000     0.1182950000
| 16>  C        4.6421990000     0.6994670000    -0.5860640000
| 17>  C        3.5963630000     0.8442070000     0.5428190000
| 18>  O        4.4673350000     0.0301560000     1.3763650000
| 19>  H        0.5308490000    -0.8271090000    -0.2731370000
| 20>  H        0.8113640000     0.8927300000    -0.5848460000
| 21>  H        0.6856460000     0.3171410000     1.0701400000
| 22>  H        3.0304890000    -2.2107840000    -0.5294710000
| 23>  H        5.5517180000    -1.3371410000     0.1111180000
| 24>  H        4.3072690000     0.7445270000    -1.6225510000
| 25>  H        5.5373760000     1.2975260000    -0.4068470000
| 26>  H        3.2973290000     1.7947840000     0.9831110000
| 27> *
| 28>
| 29>                          ****END OF INPUT****
 Total Charge           Charge          ....    0
 Multiplicity           Mult            ....    1
 Number of Electrons    NEL             ....   52
 Basis Dimension        Dim             ....  138

MULLIKEN ATOMIC CHARGES
-----------------------
   0 C :    0.092033
   1 C :   -0.028935
   2 C :   -0.060855
   3 C :    0.100285
   4 C :    0.074260
   5 C :    0.062799
   6 O :   -0.316870
   7 H :    0.020653
   8 H :    0.028401
   9 H :    0.034078
  10 H :   -0.027000
  11 H :   -0.004861
  12 H :    0.022156
  13 H :    0.022826
  14 H :   -0.018970
Sum of atomic charges:    0.0000000

LOEWDIN ATOMIC CHARGES
----------------------
   0 C :   -0.061345
   1 C :   -0.033725
   2 C :   -0.051774
   3 C :    0.076141
   4 C :   -0.023728
   5 C :    0.077658
   6 O :   -0.177814
   7 H :    0.036880
   8 H :    0.039490
   9 H :    0.041399
  10 H :    0.019160
  11 H :    0.010690
  12 H :    0.014722
  13 H :    0.023577
  14 H :    0.008668

  Mayer bond orders larger than 0.1
B(  0-C ,  1-C ) :   1.1509 B(  0-C ,  7-H ) :   0.9441 B(  0-C ,  8-H ) :   0.9317
B(  0-C ,  9-H ) :   0.9337 B(  1-C ,  2-C ) :   1.7623 B(  1-C ,  5-C ) :   0.9174
B(  2-C ,  3-C ) :   0.9058 B(  2-C , 10-H ) :   1.0319 B(  3-C ,  4-C ) :   1.0148
B(  3-C ,  6-O ) :   0.9616 B(  3-C , 11-H ) :   0.9749 B(  4-C ,  5-C ) :   1.0065
B(  4-C , 12-H ) :   0.9394 B(  4-C , 13-H ) :   0.9169 B(  5-C ,  6-O ) :   0.9800
B(  5-C , 14-H ) :   0.9789

FINAL SINGLE POINT ENERGY      -307.964640725933

DIPOLE MOMENT
-------------
                                X             Y             Z
Electronic contribution:      3.36225      -0.86308       2.21773
Nuclear contribution   :     -3.72846       0.98060      -2.85577
                        -----------------------------------------
Total Dipole Moment    :     -0.36621       0.11752      -0.63803
                        -----------------------------------------
Magnitude (a.u.)       :      0.74499
Magnitude (Debye)      :      1.89361

                             ****ORCA TERMINATED NORMALLY****
TOTAL RUN TIME: 0 days 0 hours 0 minutes 6 seconds 937 msec
