                         Program Version 3.0.3 - RELEASE   -
|  1> ! RI PBE def2-SVP def2-SVP/J NBO PAL2
|  2> % maxcore 2000
|  3> % output
|  4>     # printlevel mini
|  5>     print[ P_Basis ] 0
|  6>     print[ P_SCFInfo ] 1
|  7>     print[ P_SCFIterInfo ] 1
|  8>     print[ P_OrbEn ] 0
|  9>     print[ P_Cartesian ] 0
| 10> end
| 11> *xyz 0 1
| 12>  C        1.0816120000     0.0734040000     0.3629680000
| 13>  C        2.5099730000    -0.0294050000    -0.1334940000
| 14>  C        2.8935380000    -1.4530660000    -0.5698190000
| 15>  C        2.6691040000    -1.4335680000    -2.0697840000
| 16>  C        3.7118590000    -0.7440270000    -2.9116820000
| 17>  C        2.5131800000     0.0059200000    -2.4329730000
| 18>  O        2.6950240000     0.7906450000    -1.2921180000
| 19>  H        0.9525180000    -0.4885240000     1.2919540000
| 20>  H        0.3875440000    -0.3288920000    -0.3803780000
| 21>  H        0.8188690000     1.1161710000     0.5497290000
| 22>  H        3.1939940000     0.3581690000     0.6265650000
| 23>  H        2.2655860000    -2.2002200000    -0.0805190000
| 24>  H        3.9332110000    -1.6800480000    -0.3196290000
| 25>  H        2.0552540000    -2.1987640000    -2.5269940000
| 26>  H        3.7637790000    -1.0072390000    -3.9617370000
| 27>  H        4.6599040000    -0.4984200000    -2.4467300000
| 28>  H        1.7636380000     0.3702450000    -3.1267590000
| 29> *
| 30>
| 31>                          ****END OF INPUT****
 Total Charge           Charge          ....    0
 Multiplicity           Mult            ....    1
 Number of Electrons    NEL             ....   54
 Basis Dimension        Dim             ....  148

MULLIKEN ATOMIC CHARGES
-----------------------
   0 C :    0.047244
   1 C :    0.041637
   2 C :    0.122653
   3 C :   -0.181940
   4 C :    0.037237
   5 C :    0.088092
   6 O :   -0.317722
   7 H :    0.013930
   8 H :    0.011948
   9 H :    0.028654
  10 H :    0.005619
  11 H :    0.006319
  12 H :    0.008455
  13 H :    0.019708
  14 H :    0.027077
  15 H :    0.020862
  16 H :    0.020229
Sum of atomic charges:   -0.0000000

LOEWDIN ATOMIC CHARGES
----------------------
   0 C :   -0.074320
   1 C :    0.058702
   2 C :   -0.035290
   3 C :   -0.055008
   4 C :   -0.051387
   5 C :    0.043218
   6 O :   -0.138574
   7 H :    0.027371
   8 H :    0.026776
   9 H :    0.030546
  10 H :    0.017904
  11 H :    0.029780
  12 H :    0.026858
  13 H :    0.024284
  14 H :    0.029100
  15 H :    0.026916
  16 H :    0.013123

  Mayer bond orders larger than 0.1
B(  0-C ,  1-C ) :   1.0888 B(  0-C ,  7-H ) :   0.9497 B(  0-C ,  8-H ) :   0.9484
B(  0-C ,  9-H ) :   0.9553 B(  1-C ,  2-C ) :   1.0713 B(  1-C ,  6-O ) :   0.9851
B(  1-C , 10-H ) :   0.9214 B(  2-C ,  3-C ) :   1.0912 B(  2-C , 11-H ) :   0.9293
B(  2-C , 12-H ) :   0.9067 B(  3-C ,  4-C ) :   0.9713 B(  3-C ,  5-C ) :   0.9498
B(  3-C , 13-H ) :   0.9483 B(  4-C ,  5-C ) :   0.9931 B(  4-C , 14-H ) :   0.9352
B(  4-C , 15-H ) :   0.9225 B(  5-C ,  6-O ) :   1.0559 B(  5-C , 16-H ) :   0.9488

FINAL SINGLE POINT ENERGY      -309.212018867416

DIPOLE MOMENT
-------------
                                X             Y             Z
Electronic contribution:      1.57513       2.05559      -2.05469
Nuclear contribution   :     -1.74679      -2.60097       2.14585
                        -----------------------------------------
Total Dipole Moment    :     -0.17166      -0.54539       0.09116
                        -----------------------------------------
Magnitude (a.u.)       :      0.57899
Magnitude (Debye)      :      1.47167

                             ****ORCA TERMINATED NORMALLY****
TOTAL RUN TIME: 0 days 0 hours 0 minutes 7 seconds 469 msec
