                         Program Version 3.0.3 - RELEASE   -
|  1> ! RI PBE def2-SVP def2-SVP/J NBO PAL2
|  2> % maxcore 2000
|  3> % output
|  4>     # printlevel mini
|  5>     print[ P_Basis ] 0
|  6>     print[ P_SCFInfo ] 1
|  7>     print[ P_SCFIterInfo ] 1
|  8>     print[ P_OrbEn ] 0
|  9>     print[ P_Cartesian ] 0
| 10> end
| 11> *xyz 0 1
| 12>  C        1.3805500000     0.1560740000     0.6556080000
| 13>  C        2.3408820000    -0.1040930000    -0.2221140000
| 14>  C        3.0712810000    -1.4064360000    -0.4502180000
| 15>  C        4.2773070000    -0.9959810000    -1.2569350000
| 16>  C        5.1263550000     0.1130020000    -0.6884860000
| 17>  C        4.0212440000     0.4214740000    -1.6418470000
| 18>  O        2.8078800000     0.8499260000    -1.0801370000
| 19>  H        1.0126950000    -0.6281410000     1.3021230000
| 20>  H        0.9391720000     1.1410930000     0.7259940000
| 21>  H        2.4463960000    -2.0903440000    -1.0332910000
| 22>  H        3.3122040000    -1.8988700000     0.4937500000
| 23>  H        4.7194380000    -1.6999440000    -1.9493820000
| 24>  H        6.1429380000     0.1989090000    -1.0516810000
| 25>  H        4.9814390000     0.3925910000     0.3494610000
| 26>  H        4.1988080000     0.8410420000    -2.6224340000
| 27> *
| 28>
| 29>                          ****END OF INPUT****
 Total Charge           Charge          ....    0
 Multiplicity           Mult            ....    1
 Number of Electrons    NEL             ....   52
 Basis Dimension        Dim             ....  138

MULLIKEN ATOMIC CHARGES
-----------------------
   0 C :   -0.093468
   1 C :   -0.026251
   2 C :    0.208095
   3 C :   -0.209266
   4 C :    0.019568
   5 C :    0.113415
   6 O :   -0.231637
   7 H :    0.005330
   8 H :    0.018029
   9 H :    0.040376
  10 H :    0.032520
  11 H :    0.020892
  12 H :    0.035160
  13 H :    0.045261
  14 H :    0.021976
Sum of atomic charges:    0.0000000

LOEWDIN ATOMIC CHARGES
----------------------
   0 C :   -0.140196
   1 C :    0.028775
   2 C :   -0.032421
   3 C :   -0.054570
   4 C :   -0.052514
   5 C :    0.054486
   6 O :   -0.061610
   7 H :    0.026944
   8 H :    0.028674
   9 H :    0.044564
  10 H :    0.040207
  11 H :    0.028086
  12 H :    0.033637
  13 H :    0.034811
  14 H :    0.021128

  Mayer bond orders larger than 0.1
B(  0-C ,  1-C ) :   1.9294 B(  0-C ,  7-H ) :   0.9281 B(  0-C ,  8-H ) :   0.9244
B(  1-C ,  2-C ) :   0.9858 B(  1-C ,  6-O ) :   1.1114 B(  2-C ,  3-C ) :   1.0652
B(  2-C ,  9-H ) :   0.9019 B(  2-C , 10-H ) :   0.9136 B(  3-C ,  4-C ) :   0.9705
B(  3-C ,  5-C ) :   0.9388 B(  3-C , 11-H ) :   0.9391 B(  4-C ,  5-C ) :   0.9813
B(  4-C , 12-H ) :   0.9364 B(  4-C , 13-H ) :   0.9243 B(  5-C ,  6-O ) :   1.0121
B(  5-C , 14-H ) :   0.9658

FINAL SINGLE POINT ENERGY      -308.002177315718

DIPOLE MOMENT
-------------
                                X             Y             Z
Electronic contribution:     -0.82638       2.03391      -1.70056
Nuclear contribution   :      1.37900      -2.56189       1.46941
                        -----------------------------------------
Total Dipole Moment    :      0.55261      -0.52798      -0.23116
                        -----------------------------------------
Magnitude (a.u.)       :      0.79848
Magnitude (Debye)      :      2.02958

                             ****ORCA TERMINATED NORMALLY****
TOTAL RUN TIME: 0 days 0 hours 0 minutes 6 seconds 949 msec
