                         Program Version 3.0.3 - RELEASE   -
|  1> ! RI PBE def2-SVP def2-SVP/J NBO PAL2
|  2> % maxcore 2000
|  3> % output
|  4>     # printlevel mini
|  5>     print[ P_Basis ] 0
|  6>     print[ P_SCFInfo ] 1
|  7>     print[ P_SCFIterInfo ] 1
|  8>     print[ P_OrbEn ] 0
|  9>     print[ P_Cartesian ] 0
| 10> end
| 11> *xyz 0 1
| 12>  C        1.0830000000    -0.0303890000    -0.3228350000
| 13>  C        2.5092890000     0.1556480000     0.0184890000
| 14>  C        3.2543240000     1.2567780000     0.1531240000
| 15>  C        4.6510680000     0.8616610000     0.4396950000
| 16>  C        5.3046570000     0.0136460000    -0.6303580000
| 17>  C        4.5469170000    -0.6427820000     0.4714710000
| 18>  O        3.2060970000    -1.0007220000     0.2419850000
| 19>  H        0.5853320000     0.9344880000    -0.4129680000
| 20>  H        0.5797580000    -0.6198570000     0.4485340000
| 21>  H        0.9753320000    -0.5701770000    -1.2676710000
| 22>  H        2.8940880000     2.2693110000     0.0536360000
| 23>  H        5.2667270000     1.4292530000     1.1271500000
| 24>  H        6.3812920000    -0.0987360000    -0.5906620000
| 25>  H        4.8714050000     0.0341050000    -1.6230320000
| 26>  H        5.0383120000    -1.2904160000     1.1851120000
| 27> *
| 28>
| 29>                          ****END OF INPUT****
 Total Charge           Charge          ....    0
 Multiplicity           Mult            ....    1
 Number of Electrons    NEL             ....   52
 Basis Dimension        Dim             ....  138

MULLIKEN ATOMIC CHARGES
-----------------------
   0 C :    0.096677
   1 C :   -0.001127
   2 C :   -0.064778
   3 C :   -0.076018
   4 C :   -0.000627
   5 C :    0.101839
   6 O :   -0.248005
   7 H :    0.019649
   8 H :    0.038427
   9 H :    0.036081
  10 H :   -0.022373
  11 H :    0.019825
  12 H :    0.039814
  13 H :    0.037840
  14 H :    0.022777
Sum of atomic charges:    0.0000000

LOEWDIN ATOMIC CHARGES
----------------------
   0 C :   -0.063151
   1 C :    0.026620
   2 C :   -0.111203
   3 C :   -0.042861
   4 C :   -0.057534
   5 C :    0.057471
   6 O :   -0.068459
   7 H :    0.040333
   8 H :    0.042648
   9 H :    0.042308
  10 H :    0.025222
  11 H :    0.025345
  12 H :    0.032802
  13 H :    0.031115
  14 H :    0.019346

  Mayer bond orders larger than 0.1
B(  0-C ,  1-C ) :   1.1191 B(  0-C ,  7-H ) :   0.9463 B(  0-C ,  8-H ) :   0.9314
B(  0-C ,  9-H ) :   0.9304 B(  1-C ,  2-C ) :   1.7040 B(  1-C ,  6-O ) :   1.0958
B(  2-C ,  3-C ) :   1.0305 B(  2-C , 10-H ) :   1.0026 B(  3-C ,  4-C ) :   0.9572
B(  3-C ,  5-C ) :   0.9157 B(  3-C , 11-H ) :   0.9460 B(  4-C ,  5-C ) :   0.9985
B(  4-C , 12-H ) :   0.9406 B(  4-C , 13-H ) :   0.9237 B(  5-C ,  6-O ) :   1.0113
B(  5-C , 14-H ) :   0.9617

FINAL SINGLE POINT ENERGY      -308.007552110806

DIPOLE MOMENT
-------------
                                X             Y             Z
Electronic contribution:      1.22280      -1.31663       1.35040
Nuclear contribution   :     -1.17438       1.51486      -1.34903
                        -----------------------------------------
Total Dipole Moment    :      0.04842       0.19824       0.00137
                        -----------------------------------------
Magnitude (a.u.)       :      0.20407
Magnitude (Debye)      :      0.51871

                             ****ORCA TERMINATED NORMALLY****
TOTAL RUN TIME: 0 days 0 hours 0 minutes 6 seconds 867 msec
