                         Program Version 3.0.3 - RELEASE   -
|  1> ! RI PBE def2-SVP def2-SVP/J NBO PAL2
|  2> % maxcore 2000
|  3> % output
|  4>     # printlevel mini
|  5>     print[ P_Basis ] 0
|  6>     print[ P_SCFInfo ] 1
|  7>     print[ P_SCFIterInfo ] 1
|  8>     print[ P_OrbEn ] 0
|  9>     print[ P_Cartesian ] 0
| 10> end
| 11> *xyz 0 1
| 12>  C        1.2289040000     0.1403930000     0.8302970000
| 13>  C        2.3758490000    -0.1049390000    -0.1306300000
| 14>  C        2.3965780000    -1.5195900000    -0.7361000000
| 15>  C        3.1061250000    -1.3527200000    -2.0514750000
| 16>  O        4.2962910000    -0.5742500000    -1.9664160000
| 17>  C        3.1028870000     0.0607460000    -2.4162080000
| 18>  C        2.3911730000     0.8401930000    -1.3450220000
| 19>  H        1.2636500000    -0.5524530000     1.6752150000
| 20>  H        0.2636250000     0.0094870000     0.3315610000
| 21>  H        1.2597370000     1.1556990000     1.2344400000
| 22>  H        3.3186100000     0.0351450000     0.4038770000
| 23>  H        1.3776230000    -1.8761230000    -0.9310850000
| 24>  H        2.8785340000    -2.2472380000    -0.0777090000
| 25>  H        3.1259490000    -2.1506760000    -2.7881340000
| 26>  H        3.1201010000     0.4027070000    -3.4470130000
| 27>  H        1.3709130000     1.0534850000    -1.6870460000
| 28>  H        2.8692700000     1.7976230000    -1.1214520000
| 29> *
| 30>
| 31>                          ****END OF INPUT****
 Total Charge           Charge          ....    0
 Multiplicity           Mult            ....    1
 Number of Electrons    NEL             ....   54
 Basis Dimension        Dim             ....  148

MULLIKEN ATOMIC CHARGES
-----------------------
   0 C :    0.047719
   1 C :   -0.250021
   2 C :    0.161961
   3 C :    0.001227
   4 O :   -0.277362
   5 C :    0.007529
   6 C :    0.164002
   7 H :    0.020753
   8 H :    0.011404
   9 H :    0.016371
  10 H :    0.026045
  11 H :    0.004972
  12 H :    0.019277
  13 H :    0.014912
  14 H :    0.011156
  15 H :    0.002615
  16 H :    0.017439
Sum of atomic charges:   -0.0000000

LOEWDIN ATOMIC CHARGES
----------------------
   0 C :   -0.058059
   1 C :   -0.041356
   2 C :   -0.040096
   3 C :    0.041393
   4 O :   -0.155756
   5 C :    0.042303
   6 C :   -0.039309
   7 H :    0.027748
   8 H :    0.021485
   9 H :    0.027140
  10 H :    0.029866
  11 H :    0.028373
  12 H :    0.030064
  13 H :    0.014525
  14 H :    0.013746
  15 H :    0.028085
  16 H :    0.029847

  Mayer bond orders larger than 0.1
B(  0-C ,  1-C ) :   1.1014 B(  0-C ,  7-H ) :   0.9582 B(  0-C ,  8-H ) :   0.9563
B(  0-C ,  9-H ) :   0.9573 B(  1-C ,  2-C ) :   1.0364 B(  1-C ,  6-C ) :   1.0425
B(  1-C , 10-H ) :   0.9027 B(  2-C ,  3-C ) :   1.0256 B(  2-C , 11-H ) :   0.9161
B(  2-C , 12-H ) :   0.9178 B(  3-C ,  4-O ) :   0.9922 B(  3-C ,  5-C ) :   1.0284
B(  3-C , 13-H ) :   0.9576 B(  4-O ,  5-C ) :   0.9909 B(  5-C ,  6-C ) :   1.0272
B(  5-C , 14-H ) :   0.9596 B(  6-C , 15-H ) :   0.9152 B(  6-C , 16-H ) :   0.9163

FINAL SINGLE POINT ENERGY      -309.223182441636

DIPOLE MOMENT
-------------
                                X             Y             Z
Electronic contribution:      5.08659      -1.10327      -4.32652
Nuclear contribution   :     -5.76130       1.10061       4.31637
                        -----------------------------------------
Total Dipole Moment    :     -0.67471      -0.00266      -0.01015
                        -----------------------------------------
Magnitude (a.u.)       :      0.67479
Magnitude (Debye)      :      1.71517

                             ****ORCA TERMINATED NORMALLY****
TOTAL RUN TIME: 0 days 0 hours 0 minutes 7 seconds 771 msec
