                         Program Version 3.0.3 - RELEASE   -
|  1> ! RI PBE def2-SVP def2-SVP/J NBO PAL2
|  2> % maxcore 2000
|  3> % output
|  4>     # printlevel mini
|  5>     print[ P_Basis ] 0
|  6>     print[ P_SCFInfo ] 1
|  7>     print[ P_SCFIterInfo ] 1
|  8>     print[ P_OrbEn ] 0
|  9>     print[ P_Cartesian ] 0
| 10> end
| 11> *xyz 0 1
| 12>  C        1.2198390000     0.0173770000     0.9794360000
| 13>  C        2.2304290000    -0.0052530000     0.1239540000
| 14>  C        2.9079820000    -1.2495950000    -0.4045230000
| 15>  C        4.2696690000    -0.7680730000    -0.8288140000
| 16>  O        4.9441410000    -0.0246880000     0.1787180000
| 17>  C        4.2806500000     0.6928930000    -0.8544870000
| 18>  C        2.9264660000     1.2094320000    -0.4477340000
| 19>  H        0.7811440000    -0.8974690000     1.3625560000
| 20>  H        0.7950430000     0.9516060000     1.3300640000
| 21>  H        2.3776300000    -1.6422000000    -1.2813170000
| 22>  H        2.9511760000    -2.0477010000     0.3401320000
| 23>  H        4.9053850000    -1.3736960000    -1.4675050000
| 24>  H        4.9252280000     1.2660810000    -1.5138930000
| 25>  H        2.4018420000     1.5789180000    -1.3379200000
| 26>  H        2.9818450000     2.0324680000     0.2684330000
| 27> *
| 28>
| 29>                          ****END OF INPUT****
 Total Charge           Charge          ....    0
 Multiplicity           Mult            ....    1
 Number of Electrons    NEL             ....   52
 Basis Dimension        Dim             ....  138

MULLIKEN ATOMIC CHARGES
-----------------------
   0 C :   -0.021641
   1 C :   -0.278254
   2 C :    0.214366
   3 C :   -0.003539
   4 O :   -0.266795
   5 C :   -0.005195
   6 C :    0.216193
   7 H :    0.004813
   8 H :    0.004675
   9 H :    0.026999
  10 H :    0.029534
  11 H :    0.011716
  12 H :    0.011788
  13 H :    0.026772
  14 H :    0.028568
Sum of atomic charges:   -0.0000000

LOEWDIN ATOMIC CHARGES
----------------------
   0 C :   -0.070789
   1 C :   -0.024119
   2 C :   -0.040341
   3 C :    0.042619
   4 O :   -0.149203
   5 C :    0.042415
   6 C :   -0.039999
   7 H :    0.022917
   8 H :    0.022891
   9 H :    0.041500
  10 H :    0.040166
  11 H :    0.015235
  12 H :    0.015206
  13 H :    0.041470
  14 H :    0.040031

  Mayer bond orders larger than 0.1
B(  0-C ,  1-C ) :   2.0202 B(  0-C ,  7-H ) :   0.9271 B(  0-C ,  8-H ) :   0.9271
B(  1-C ,  2-C ) :   1.0144 B(  1-C ,  6-C ) :   1.0149 B(  2-C ,  3-C ) :   1.0119
B(  2-C ,  9-H ) :   0.8927 B(  2-C , 10-H ) :   0.8975 B(  3-C ,  4-O ) :   0.9980
B(  3-C ,  5-C ) :   1.0284 B(  3-C , 11-H ) :   0.9580 B(  4-O ,  5-C ) :   0.9977
B(  5-C ,  6-C ) :   1.0116 B(  5-C , 12-H ) :   0.9586 B(  6-C , 13-H ) :   0.8928
B(  6-C , 14-H ) :   0.8970

FINAL SINGLE POINT ENERGY      -308.001624407804

DIPOLE MOMENT
-------------
                                X             Y             Z
Electronic contribution:      3.52738      -0.02227       0.22470
Nuclear contribution   :     -3.86567       0.01410      -0.85131
                        -----------------------------------------
Total Dipole Moment    :     -0.33829      -0.00818      -0.62661
                        -----------------------------------------
Magnitude (a.u.)       :      0.71214
Magnitude (Debye)      :      1.81012

                             ****ORCA TERMINATED NORMALLY****
TOTAL RUN TIME: 0 days 0 hours 0 minutes 6 seconds 951 msec
