                         Program Version 3.0.3 - RELEASE   -
|  1> ! RI PBE def2-SVP def2-SVP/J NBO PAL2
|  2> % maxcore 2000
|  3> % output
|  4>     # printlevel mini
|  5>     print[ P_Basis ] 0
|  6>     print[ P_SCFInfo ] 1
|  7>     print[ P_SCFIterInfo ] 1
|  8>     print[ P_OrbEn ] 0
|  9>     print[ P_Cartesian ] 0
| 10> end
| 11> *xyz 0 1
| 12>  C        0.9581000000     0.0183380000    -0.0341990000
| 13>  C        2.4392390000     0.0506980000     0.0722110000
| 14>  C        3.2262480000     1.1283160000     0.1226410000
| 15>  C        4.6554330000     0.7338160000     0.1066390000
| 16>  O        5.0334660000     0.0187140000    -1.0808880000
| 17>  C        4.6859590000    -0.7299040000     0.0717000000
| 18>  C        3.2569250000    -1.2201030000     0.0899850000
| 19>  H        0.5306350000     1.0210100000     0.0088270000
| 20>  H        0.5185960000    -0.5809690000     0.7701090000
| 21>  H        0.6456720000    -0.4446530000    -0.9761770000
| 22>  H        2.8825610000     2.1555010000     0.1213360000
| 23>  H        5.4388630000     1.3444640000     0.5421420000
| 24>  H        5.4869560000    -1.3218140000     0.5036140000
| 25>  H        3.0513450000    -1.8127320000     0.9892500000
| 26>  H        3.0359030000    -1.8595030000    -0.7716690000
| 27> *
| 28>
| 29>                          ****END OF INPUT****
 Total Charge           Charge          ....    0
 Multiplicity           Mult            ....    1
 Number of Electrons    NEL             ....   52
 Basis Dimension        Dim             ....  138

MULLIKEN ATOMIC CHARGES
-----------------------
   0 C :    0.091127
   1 C :   -0.251112
   2 C :    0.033217
   3 C :    0.084837
   4 O :   -0.277443
   5 C :    0.004173
   6 C :    0.187463
   7 H :    0.016161
   8 H :    0.027905
   9 H :    0.032135
  10 H :   -0.026811
  11 H :    0.010421
  12 H :    0.011040
  13 H :    0.024324
  14 H :    0.032564
Sum of atomic charges:   -0.0000000

LOEWDIN ATOMIC CHARGES
----------------------
   0 C :   -0.057903
   1 C :   -0.016845
   2 C :   -0.064436
   3 C :    0.045018
   4 O :   -0.154442
   5 C :    0.047053
   6 C :   -0.041071
   7 H :    0.034244
   8 H :    0.036978
   9 H :    0.040593
  10 H :    0.021602
  11 H :    0.015457
  12 H :    0.013813
  13 H :    0.037123
  14 H :    0.042816

  Mayer bond orders larger than 0.1
B(  0-C ,  1-C ) :   1.1037 B(  0-C ,  7-H ) :   0.9486 B(  0-C ,  8-H ) :   0.9406
B(  0-C ,  9-H ) :   0.9372 B(  1-C ,  2-C ) :   1.7992 B(  1-C ,  6-C ) :   1.0284
B(  2-C ,  3-C ) :   0.9741 B(  2-C , 10-H ) :   1.0016 B(  3-C ,  4-O ) :   0.9504
B(  3-C ,  5-C ) :   1.0316 B(  3-C , 11-H ) :   0.9554 B(  4-O ,  5-C ) :   1.0079
B(  5-C ,  6-C ) :   1.0130 B(  5-C , 12-H ) :   0.9457 B(  6-C , 13-H ) :   0.9064
B(  6-C , 14-H ) :   0.8905

FINAL SINGLE POINT ENERGY      -308.003573274118

DIPOLE MOMENT
-------------
                                X             Y             Z
Electronic contribution:      5.25072       1.11540      -1.35809
Nuclear contribution   :     -5.73366      -1.29330       1.95417
                        -----------------------------------------
Total Dipole Moment    :     -0.48294      -0.17790       0.59608
                        -----------------------------------------
Magnitude (a.u.)       :      0.78753
Magnitude (Debye)      :      2.00173

                             ****ORCA TERMINATED NORMALLY****
TOTAL RUN TIME: 0 days 0 hours 0 minutes 6 seconds 744 msec
