                         Program Version 3.0.3 - RELEASE   -
|  1> ! RI PBE def2-SVP def2-SVP/J NBO PAL2
|  2> % maxcore 2000
|  3> % output
|  4>     # printlevel mini
|  5>     print[ P_Basis ] 0
|  6>     print[ P_SCFInfo ] 1
|  7>     print[ P_SCFIterInfo ] 1
|  8>     print[ P_OrbEn ] 0
|  9>     print[ P_Cartesian ] 0
| 10> end
| 11> *xyz 0 1
| 12>  C        0.8961220000    -0.0621630000    -0.0264410000
| 13>  C        2.4048940000    -0.0247290000    -0.0067250000
| 14>  C        3.1243210000     1.0765910000     0.7982110000
| 15>  C        4.1869670000     0.0381900000     1.2018080000
| 16>  C        3.1836370000    -1.0698160000     0.8242830000
| 17>  C        3.7081990000    -2.3103620000     0.1473560000
| 18>  O        2.6853150000    -3.1694270000    -0.3187170000
| 19>  H        0.4838810000     0.8076350000    -0.5462920000
| 20>  H        0.4933520000    -0.0602300000     0.9913300000
| 21>  H        0.5323590000    -0.9595720000    -0.5330150000
| 22>  H        2.7923170000    -0.0404250000    -1.0322010000
| 23>  H        2.5240460000     1.3867100000     1.6583620000
| 24>  H        3.4553700000     1.9698890000     0.2657340000
| 25>  H        4.5671310000     0.0603270000     2.2240650000
| 26>  H        5.0375570000     0.0463940000     0.5141670000
| 27>  H        2.5906180000    -1.3510980000     1.7056030000
| 28>  H        4.3949950000    -2.8445620000     0.8214030000
| 29>  H        4.2831620000    -2.0293710000    -0.7402220000
| 30>  H        2.1629690000    -3.4506820000     0.4368900000
| 31> *
| 32>
| 33>                          ****END OF INPUT****
 Total Charge           Charge          ....    0
 Multiplicity           Mult            ....    1
 Number of Electrons    NEL             ....   56
 Basis Dimension        Dim             ....  158

MULLIKEN ATOMIC CHARGES
-----------------------
   0 C :    0.070180
   1 C :   -0.139425
   2 C :    0.053498
   3 C :    0.047482
   4 C :   -0.189136
   5 C :    0.252454
   6 O :   -0.284605
   7 H :    0.018551
   8 H :   -0.000841
   9 H :    0.019041
  10 H :   -0.000356
  11 H :    0.000937
  12 H :    0.006749
  13 H :    0.008042
  14 H :    0.004873
  15 H :   -0.014232
  16 H :    0.000022
  17 H :   -0.005108
  18 H :    0.151873
Sum of atomic charges:   -0.0000000

LOEWDIN ATOMIC CHARGES
----------------------
   0 C :   -0.065457
   1 C :   -0.032679
   2 C :   -0.029296
   3 C :   -0.027317
   4 C :   -0.056535
   5 C :    0.052440
   6 O :   -0.122160
   7 H :    0.027743
   8 H :    0.019474
   9 H :    0.027058
  10 H :    0.024921
  11 H :    0.021578
  12 H :    0.015332
  13 H :    0.016012
  14 H :    0.023206
  15 H :    0.016648
  16 H :    0.004616
  17 H :    0.018198
  18 H :    0.066217

  Mayer bond orders larger than 0.1
B(  0-C ,  1-C ) :   1.1033 B(  0-C ,  7-H ) :   0.9566 B(  0-C ,  8-H ) :   0.9485
B(  0-C ,  9-H ) :   0.9558 B(  1-C ,  2-C ) :   1.0891 B(  1-C ,  4-C ) :   1.0288
B(  1-C , 10-H ) :   0.8977 B(  2-C ,  3-C ) :   1.1367 B(  2-C , 11-H ) :   0.9167
B(  2-C , 12-H ) :   0.9287 B(  3-C ,  4-C ) :   1.0719 B(  3-C , 13-H ) :   0.9267
B(  3-C , 14-H ) :   0.9152 B(  4-C ,  5-C ) :   1.0571 B(  4-C , 15-H ) :   0.8856
B(  5-C ,  6-O ) :   1.0642 B(  5-C , 16-H ) :   0.9352 B(  5-C , 17-H ) :   0.9139
B(  6-O , 18-H ) :   0.9840

FINAL SINGLE POINT ENERGY      -310.416494731327

DIPOLE MOMENT
-------------
                                X             Y             Z
Electronic contribution:      0.97038      -3.38760      -0.83241
Nuclear contribution   :     -0.97983       3.50816       1.35213
                        -----------------------------------------
Total Dipole Moment    :     -0.00945       0.12056       0.51972
                        -----------------------------------------
Magnitude (a.u.)       :      0.53360
Magnitude (Debye)      :      1.35631

                             ****ORCA TERMINATED NORMALLY****
TOTAL RUN TIME: 0 days 0 hours 0 minutes 8 seconds 509 msec
