                         Program Version 3.0.3 - RELEASE   -
|  1> ! RI PBE def2-SVP def2-SVP/J NBO PAL2
|  2> % maxcore 2000
|  3> % output
|  4>     # printlevel mini
|  5>     print[ P_Basis ] 0
|  6>     print[ P_SCFInfo ] 1
|  7>     print[ P_SCFIterInfo ] 1
|  8>     print[ P_OrbEn ] 0
|  9>     print[ P_Cartesian ] 0
| 10> end
| 11> *xyz 0 1
| 12>  C        1.0379870000    -0.0531020000    -0.4508080000
| 13>  C        2.4864550000    -0.0090120000    -0.0364600000
| 14>  C        2.6893880000     0.0972840000     1.4527920000
| 15>  C        3.4593580000    -0.8199140000    -0.8420680000
| 16>  C        3.4371370000     0.6785170000    -0.9782860000
| 17>  C        4.5997140000     1.5027110000    -0.5118510000
| 18>  O        4.2321300000     2.7925330000    -0.0582350000
| 19>  H        0.5289580000    -0.9135770000    -0.0054790000
| 20>  H        0.9351890000    -0.1298610000    -1.5361450000
| 21>  H        0.5116610000     0.8497280000    -0.1260170000
| 22>  H        2.2050050000    -0.7421990000     1.9607510000
| 23>  H        2.2558840000     1.0229310000     1.8409490000
| 24>  H        3.7438850000     0.0840240000     1.7303850000
| 25>  H        3.0857130000    -1.4197450000    -1.6637420000
| 26>  H        4.3046210000    -1.2554160000    -0.3195460000
| 27>  H        2.9790510000     1.0523790000    -1.8927000000
| 28>  H        5.3436550000     1.5736280000    -1.3187010000
| 29>  H        5.0976810000     1.0245060000     0.3337330000
| 30>  H        3.7707300000     3.2407970000    -0.7714830000
| 31> *
| 32>
| 33>                          ****END OF INPUT****
 Total Charge           Charge          ....    0
 Multiplicity           Mult            ....    1
 Number of Electrons    NEL             ....   56
 Basis Dimension        Dim             ....  158

MULLIKEN ATOMIC CHARGES
-----------------------
   0 C :    0.083741
   1 C :   -0.298724
   2 C :    0.118949
   3 C :    0.024125
   4 C :   -0.168928
   5 C :    0.282684
   6 O :   -0.293109
   7 H :    0.015637
   8 H :    0.004239
   9 H :    0.019345
  10 H :    0.014053
  11 H :    0.019220
  12 H :   -0.002077
  13 H :    0.020951
  14 H :    0.022141
  15 H :    0.001880
  16 H :   -0.000029
  17 H :   -0.013916
  18 H :    0.149819
Sum of atomic charges:   -0.0000000

LOEWDIN ATOMIC CHARGES
----------------------
   0 C :   -0.046021
   1 C :   -0.058435
   2 C :   -0.044294
   3 C :   -0.036734
   4 C :   -0.065151
   5 C :    0.058042
   6 O :   -0.126080
   7 H :    0.026619
   8 H :    0.024180
   9 H :    0.027311
  10 H :    0.027401
  11 H :    0.029691
  12 H :    0.024208
  13 H :    0.023663
  14 H :    0.024594
  15 H :    0.019173
  16 H :    0.007985
  17 H :    0.018826
  18 H :    0.065021

  Mayer bond orders larger than 0.1
B(  0-C ,  1-C ) :   1.0889 B(  0-C ,  7-H ) :   0.9547 B(  0-C ,  8-H ) :   0.9440
B(  0-C ,  9-H ) :   0.9594 B(  1-C ,  2-C ) :   1.1072 B(  1-C ,  3-C ) :   0.9749
B(  1-C ,  4-C ) :   0.9146 B(  2-C , 10-H ) :   0.9513 B(  2-C , 11-H ) :   0.9529
B(  2-C , 12-H ) :   0.9402 B(  3-C ,  4-C ) :   0.9663 B(  3-C , 13-H ) :   0.9341
B(  3-C , 14-H ) :   0.9411 B(  4-C ,  5-C ) :   1.0789 B(  4-C , 15-H ) :   0.9273
B(  5-C ,  6-O ) :   1.0478 B(  5-C , 16-H ) :   0.9235 B(  5-C , 17-H ) :   0.9121
B(  6-O , 18-H ) :   0.9860

FINAL SINGLE POINT ENERGY      -310.413017754600

DIPOLE MOMENT
-------------
                                X             Y             Z
Electronic contribution:      2.60811       3.08657      -0.96479
Nuclear contribution   :     -2.82943      -3.25662       0.49338
                        -----------------------------------------
Total Dipole Moment    :     -0.22132      -0.17005      -0.47141
                        -----------------------------------------
Magnitude (a.u.)       :      0.54784
Magnitude (Debye)      :      1.39249

                             ****ORCA TERMINATED NORMALLY****
TOTAL RUN TIME: 0 days 0 hours 0 minutes 8 seconds 416 msec
