                         Program Version 3.0.3 - RELEASE   -
|  1> ! RI PBE def2-SVP def2-SVP/J NBO PAL2
|  2> % maxcore 2000
|  3> % output
|  4>     # printlevel mini
|  5>     print[ P_Basis ] 0
|  6>     print[ P_SCFInfo ] 1
|  7>     print[ P_SCFIterInfo ] 1
|  8>     print[ P_OrbEn ] 0
|  9>     print[ P_Cartesian ] 0
| 10> end
| 11> *xyz 0 1
| 12>  C        0.5854820000     0.2750750000     0.1305210000
| 13>  C        2.0809610000     0.1657480000    -0.0211200000
| 14>  C        2.8208560000     0.2378210000     1.2904800000
| 15>  C        2.6079740000    -0.7537710000    -1.0987070000
| 16>  C        2.7084360000     0.7230810000    -1.2817680000
| 17>  C        4.0419580000     1.4153990000    -1.2772620000
| 18>  O        1.8431410000     1.2262320000    -2.2647050000
| 19>  H        0.2037770000    -0.5474400000     0.7428520000
| 20>  H        0.0808360000     0.2466110000    -0.8346890000
| 21>  H        0.3096560000     1.2095210000     0.6312480000
| 22>  H        2.4439760000    -0.5272230000     1.9765020000
| 23>  H        2.6788750000     1.2096010000     1.7742840000
| 24>  H        3.8930350000     0.0728160000     1.1790420000
| 25>  H        1.8807920000    -1.2666900000    -1.7169210000
| 26>  H        3.5202660000    -1.3070170000    -0.9055950000
| 27>  H        4.4775410000     1.3712170000    -2.2784300000
| 28>  H        4.7443220000     0.9587600000    -0.5805670000
| 29>  H        3.9364450000     2.4702420000    -1.0006660000
| 30>  H        1.6249500000     2.1344150000    -2.0340000000
| 31> *
| 32>
| 33>                          ****END OF INPUT****
 Total Charge           Charge          ....    0
 Multiplicity           Mult            ....    1
 Number of Electrons    NEL             ....   56
 Basis Dimension        Dim             ....  158

MULLIKEN ATOMIC CHARGES
-----------------------
   0 C :    0.087059
   1 C :   -0.328922
   2 C :    0.098811
   3 C :    0.053139
   4 C :   -0.081398
   5 C :    0.098513
   6 O :   -0.231873
   7 H :    0.015317
   8 H :    0.013434
   9 H :    0.007474
  10 H :    0.017798
  11 H :    0.013385
  12 H :    0.003849
  13 H :    0.026206
  14 H :    0.015757
  15 H :    0.027742
  16 H :    0.002394
  17 H :    0.007689
  18 H :    0.153625
Sum of atomic charges:   -0.0000000

LOEWDIN ATOMIC CHARGES
----------------------
   0 C :   -0.050251
   1 C :   -0.076566
   2 C :   -0.050085
   3 C :   -0.042195
   4 C :    0.009700
   5 C :   -0.064918
   6 O :   -0.087909
   7 H :    0.027453
   8 H :    0.024576
   9 H :    0.022517
  10 H :    0.029092
  11 H :    0.025852
  12 H :    0.023041
  13 H :    0.030575
  14 H :    0.023431
  15 H :    0.032468
  16 H :    0.028359
  17 H :    0.024064
  18 H :    0.070797

  Mayer bond orders larger than 0.1
B(  0-C ,  1-C ) :   1.0957 B(  0-C ,  7-H ) :   0.9539 B(  0-C ,  8-H ) :   0.9377
B(  0-C ,  9-H ) :   0.9586 B(  1-C ,  2-C ) :   1.0981 B(  1-C ,  3-C ) :   0.9562
B(  1-C ,  4-C ) :   0.8502 B(  2-C , 10-H ) :   0.9469 B(  2-C , 11-H ) :   0.9535
B(  2-C , 12-H ) :   0.9417 B(  3-C ,  4-C ) :   0.9616 B(  3-C , 13-H ) :   0.9249
B(  3-C , 14-H ) :   0.9363 B(  4-C ,  5-C ) :   1.1161 B(  4-C ,  6-O ) :   1.1059
B(  5-C , 15-H ) :   0.9457 B(  5-C , 16-H ) :   0.9293 B(  5-C , 17-H ) :   0.9457
B(  6-O , 18-H ) :   0.9787

FINAL SINGLE POINT ENERGY      -310.420401038558

DIPOLE MOMENT
-------------
                                X             Y             Z
Electronic contribution:     -1.08073       0.37914      -4.19158
Nuclear contribution   :      1.21218      -0.01032       4.58376
                        -----------------------------------------
Total Dipole Moment    :      0.13146       0.36883       0.39218
                        -----------------------------------------
Magnitude (a.u.)       :      0.55418
Magnitude (Debye)      :      1.40862

                             ****ORCA TERMINATED NORMALLY****
TOTAL RUN TIME: 0 days 0 hours 0 minutes 8 seconds 224 msec
