                         Program Version 3.0.3 - RELEASE   -
|  1> ! RI PBE def2-SVP def2-SVP/J NBO PAL2
|  2> % maxcore 2000
|  3> % output
|  4>     # printlevel mini
|  5>     print[ P_Basis ] 0
|  6>     print[ P_SCFInfo ] 1
|  7>     print[ P_SCFIterInfo ] 1
|  8>     print[ P_OrbEn ] 0
|  9>     print[ P_Cartesian ] 0
| 10> end
| 11> *xyz 0 1
| 12>  C        0.8334010000    -0.0707290000     0.0350230000
| 13>  C        2.3470020000    -0.0019990000    -0.0122980000
| 14>  C        3.0745340000     1.0767140000     0.8115420000
| 15>  C        4.0987220000     0.0170050000     1.2589030000
| 16>  C        3.1320720000    -1.0849570000     0.7900130000
| 17>  C        2.8089030000    -0.0564690000    -1.4420000000
| 18>  O        3.5671090000     0.7081680000    -1.9719250000
| 19>  H        0.4902130000    -0.1466340000     1.0691810000
| 20>  H        0.4565490000    -0.9435830000    -0.5073520000
| 21>  H        0.3813910000     0.8216290000    -0.4070840000
| 22>  H        2.4521950000     1.4286670000     1.6368160000
| 23>  H        3.4521710000     1.9302320000     0.2484900000
| 24>  H        4.3825730000     0.0071470000     2.3114030000
| 25>  H        5.0045870000     0.0511670000     0.6522480000
| 26>  H        2.5149950000    -1.4790410000     1.6007570000
| 27>  H        3.5467920000    -1.9269280000     0.2295520000
| 28>  H        2.3914020000    -0.9204090000    -2.0102680000
| 29> *
| 30>
| 31>                          ****END OF INPUT****
 Total Charge           Charge          ....    0
 Multiplicity           Mult            ....    1
 Number of Electrons    NEL             ....   54
 Basis Dimension        Dim             ....  148

MULLIKEN ATOMIC CHARGES
-----------------------
   0 C :    0.083063
   1 C :   -0.436571
   2 C :    0.143765
   3 C :   -0.026851
   4 C :    0.085363
   5 C :    0.160666
   6 O :   -0.151063
   7 H :    0.017599
   8 H :    0.022803
   9 H :    0.032254
  10 H :   -0.003376
  11 H :    0.020136
  12 H :    0.013778
  13 H :    0.028779
  14 H :    0.008087
  15 H :    0.019144
  16 H :   -0.017575
Sum of atomic charges:   -0.0000000

LOEWDIN ATOMIC CHARGES
----------------------
   0 C :   -0.048143
   1 C :   -0.100645
   2 C :   -0.019302
   3 C :   -0.030774
   4 C :   -0.011995
   5 C :    0.099730
   6 O :   -0.104695
   7 H :    0.027713
   8 H :    0.028822
   9 H :    0.032773
  10 H :    0.023720
  11 H :    0.021272
  12 H :    0.020689
  13 H :    0.029205
  14 H :    0.025751
  15 H :    0.018532
  16 H :   -0.012653

  Mayer bond orders larger than 0.1
B(  0-C ,  1-C ) :   1.0541 B(  0-C ,  7-H ) :   0.9453 B(  0-C ,  8-H ) :   0.9531
B(  0-C ,  9-H ) :   0.9588 B(  1-C ,  2-C ) :   1.0625 B(  1-C ,  4-C ) :   1.0323
B(  1-C ,  5-C ) :   0.8781 B(  2-C ,  3-C ) :   1.1405 B(  2-C , 10-H ) :   0.9089
B(  2-C , 11-H ) :   0.9152 B(  3-C ,  4-C ) :   1.1353 B(  3-C , 12-H ) :   0.9274
B(  3-C , 13-H ) :   0.9265 B(  4-C , 14-H ) :   0.9082 B(  4-C , 15-H ) :   0.9329
B(  5-C ,  6-O ) :   2.2002 B(  5-C , 16-H ) :   0.9212

FINAL SINGLE POINT ENERGY      -309.220799463194

DIPOLE MOMENT
-------------
                                X             Y             Z
Electronic contribution:      2.50553       1.45814      -4.75850
Nuclear contribution   :     -3.04622      -1.92706       5.39407
                        -----------------------------------------
Total Dipole Moment    :     -0.54069      -0.46892       0.63557
                        -----------------------------------------
Magnitude (a.u.)       :      0.95718
Magnitude (Debye)      :      2.43295

                             ****ORCA TERMINATED NORMALLY****
TOTAL RUN TIME: 0 days 0 hours 0 minutes 7 seconds 509 msec
