                         Program Version 3.0.3 - RELEASE   -
|  1> ! RI PBE def2-SVP def2-SVP/J NBO PAL2
|  2> % maxcore 2000
|  3> % output
|  4>     # printlevel mini
|  5>     print[ P_Basis ] 0
|  6>     print[ P_SCFInfo ] 1
|  7>     print[ P_SCFIterInfo ] 1
|  8>     print[ P_OrbEn ] 0
|  9>     print[ P_Cartesian ] 0
| 10> end
| 11> *xyz 0 1
| 12>  C        1.0000600000     0.1324620000    -0.1978440000
| 13>  C        2.4997490000     0.0390760000    -0.1846960000
| 14>  C        3.2689610000    -0.8493050000    -1.1242070000
| 15>  C        2.6056820000    -1.7169770000    -2.1566360000
| 16>  C        3.3299550000     0.6447040000    -1.2770880000
| 17>  C        4.5885650000     1.3912110000    -0.9523730000
| 18>  O        4.3644750000     2.6942980000    -0.4466940000
| 19>  H        0.5435890000    -0.6809460000     0.3735120000
| 20>  H        0.5964260000     0.0907710000    -1.2112890000
| 21>  H        0.6708300000     1.0754890000     0.2465650000
| 22>  H        2.9356890000     0.1312860000     0.8065070000
| 23>  H        4.1607420000    -1.2946980000    -0.6899060000
| 24>  H        1.7365250000    -1.2304940000    -2.6029340000
| 25>  H        2.2687480000    -2.6631000000    -1.7234370000
| 26>  H        3.2991560000    -1.9530410000    -2.9684240000
| 27>  H        2.7694640000     1.0414970000    -2.1231090000
| 28>  H        5.2442090000     1.4274450000    -1.8346570000
| 29>  H        5.1348620000     0.8624300000    -0.1665320000
| 30>  H        3.8630040000     3.1875610000    -1.1005690000
| 31> *
| 32>
| 33>                          ****END OF INPUT****
 Total Charge           Charge          ....    0
 Multiplicity           Mult            ....    1
 Number of Electrons    NEL             ....   56
 Basis Dimension        Dim             ....  158

MULLIKEN ATOMIC CHARGES
-----------------------
   0 C :    0.078926
   1 C :   -0.106716
   2 C :   -0.131598
   3 C :    0.084639
   4 C :   -0.159230
   5 C :    0.264513
   6 O :   -0.288817
   7 H :    0.023028
   8 H :    0.000488
   9 H :    0.023025
  10 H :    0.014676
  11 H :    0.009927
  12 H :   -0.001274
  13 H :    0.021186
  14 H :    0.023005
  15 H :    0.004511
  16 H :   -0.002738
  17 H :   -0.007059
  18 H :    0.149507
Sum of atomic charges:    0.0000000

LOEWDIN ATOMIC CHARGES
----------------------
   0 C :   -0.056564
   1 C :   -0.039254
   2 C :   -0.039373
   3 C :   -0.057172
   4 C :   -0.067639
   5 C :    0.058128
   6 O :   -0.126712
   7 H :    0.029302
   8 H :    0.023337
   9 H :    0.031330
  10 H :    0.026636
  11 H :    0.024076
  12 H :    0.023907
  13 H :    0.029502
  14 H :    0.030356
  15 H :    0.018826
  16 H :    0.005627
  17 H :    0.020619
  18 H :    0.065067

  Mayer bond orders larger than 0.1
B(  0-C ,  1-C ) :   1.1108 B(  0-C ,  7-H ) :   0.9566 B(  0-C ,  8-H ) :   0.9463
B(  0-C ,  9-H ) :   0.9567 B(  1-C ,  2-C ) :   0.9640 B(  1-C ,  4-C ) :   0.9320
B(  1-C , 10-H ) :   0.9348 B(  2-C ,  3-C ) :   1.1075 B(  2-C ,  4-C ) :   0.9291
B(  2-C , 11-H ) :   0.9330 B(  3-C , 12-H ) :   0.9446 B(  3-C , 13-H ) :   0.9540
B(  3-C , 14-H ) :   0.9568 B(  4-C ,  5-C ) :   1.0630 B(  4-C , 15-H ) :   0.9360
B(  5-C ,  6-O ) :   1.0615 B(  5-C , 16-H ) :   0.9305 B(  5-C , 17-H ) :   0.9181
B(  6-O , 18-H ) :   0.9870

FINAL SINGLE POINT ENERGY      -310.412893201009

DIPOLE MOMENT
-------------
                                X             Y             Z
Electronic contribution:      3.47078       4.12302       1.45265
Nuclear contribution   :     -3.77107      -4.33136      -1.95299
                        -----------------------------------------
Total Dipole Moment    :     -0.30029      -0.20834      -0.50034
                        -----------------------------------------
Magnitude (a.u.)       :      0.61961
Magnitude (Debye)      :      1.57492

                             ****ORCA TERMINATED NORMALLY****
TOTAL RUN TIME: 0 days 0 hours 0 minutes 7 seconds 441 msec
