                         Program Version 3.0.3 - RELEASE   -
|  1> ! RI PBE def2-SVP def2-SVP/J NBO PAL2
|  2> % maxcore 2000
|  3> % output
|  4>     # printlevel mini
|  5>     print[ P_Basis ] 0
|  6>     print[ P_SCFInfo ] 1
|  7>     print[ P_SCFIterInfo ] 1
|  8>     print[ P_OrbEn ] 0
|  9>     print[ P_Cartesian ] 0
| 10> end
| 11> *xyz 0 1
| 12>  C        0.5550970000     0.1639630000    -0.5817990000
| 13>  C        1.9478640000     0.4503910000    -0.0970850000
| 14>  C        3.1650320000    -0.3292750000    -0.5570180000
| 15>  C        3.0899350000    -1.4630790000    -1.5408190000
| 16>  C        2.9896890000     1.1176340000    -0.9344510000
| 17>  C        2.7276930000     1.5486320000    -2.3485460000
| 18>  O        3.7598630000     2.0455290000    -0.2138230000
| 19>  H        0.0959070000    -0.6337830000     0.0083700000
| 20>  H        0.5261380000    -0.1482840000    -1.6266450000
| 21>  H       -0.0786820000     1.0499870000    -0.4882190000
| 22>  H        1.9986380000     0.7568630000     0.9431350000
| 23>  H        3.9044730000    -0.4723160000     0.2258650000
| 24>  H        2.3260310000    -1.3088300000    -2.3040030000
| 25>  H        2.8549260000    -2.4029510000    -1.0333400000
| 26>  H        4.0438740000    -1.5995810000    -2.0582480000
| 27>  H        2.0946010000     0.8470850000    -2.8911400000
| 28>  H        3.6678490000     1.6379520000    -2.9032460000
| 29>  H        2.2396030000     2.5263200000    -2.3556200000
| 30>  H        4.6485880000     2.0431430000    -0.5822660000
| 31> *
| 32>
| 33>                          ****END OF INPUT****
 Total Charge           Charge          ....    0
 Multiplicity           Mult            ....    1
 Number of Electrons    NEL             ....   56
 Basis Dimension        Dim             ....  158

MULLIKEN ATOMIC CHARGES
-----------------------
   0 C :    0.084525
   1 C :   -0.119696
   2 C :   -0.143135
   3 C :    0.091552
   4 C :   -0.076860
   5 C :    0.112541
   6 O :   -0.239290
   7 H :    0.023554
   8 H :   -0.004774
   9 H :    0.027704
  10 H :    0.019803
  11 H :    0.009819
  12 H :    0.004278
  13 H :    0.018501
  14 H :    0.016220
  15 H :   -0.004918
  16 H :    0.006818
  17 H :    0.023683
  18 H :    0.149677
Sum of atomic charges:    0.0000000

LOEWDIN ATOMIC CHARGES
----------------------
   0 C :   -0.059081
   1 C :   -0.045258
   2 C :   -0.061195
   3 C :   -0.059405
   4 C :    0.007010
   5 C :   -0.064094
   6 O :   -0.095766
   7 H :    0.031281
   8 H :    0.022110
   9 H :    0.032828
  10 H :    0.031319
  11 H :    0.026225
  12 H :    0.023359
  13 H :    0.030235
  14 H :    0.028720
  15 H :    0.025852
  16 H :    0.025422
  17 H :    0.032624
  18 H :    0.067814

  Mayer bond orders larger than 0.1
B(  0-C ,  1-C ) :   1.1266 B(  0-C ,  7-H ) :   0.9522 B(  0-C ,  8-H ) :   0.9379
B(  0-C ,  9-H ) :   0.9550 B(  1-C ,  2-C ) :   0.9479 B(  1-C ,  4-C ) :   0.9151
B(  1-C , 10-H ) :   0.9189 B(  2-C ,  3-C ) :   1.1038 B(  2-C ,  4-C ) :   0.9199
B(  2-C , 11-H ) :   0.9204 B(  3-C , 12-H ) :   0.9453 B(  3-C , 13-H ) :   0.9501
B(  3-C , 14-H ) :   0.9552 B(  4-C ,  5-C ) :   1.1150 B(  4-C ,  6-O ) :   1.0867
B(  5-C , 15-H ) :   0.9255 B(  5-C , 16-H ) :   0.9425 B(  5-C , 17-H ) :   0.9452
B(  6-O , 18-H ) :   0.9813

FINAL SINGLE POINT ENERGY      -310.418290256602

DIPOLE MOMENT
-------------
                                X             Y             Z
Electronic contribution:      3.12942       3.49042       3.43718
Nuclear contribution   :     -2.92460      -3.77164      -3.85136
                        -----------------------------------------
Total Dipole Moment    :      0.20482      -0.28122      -0.41418
                        -----------------------------------------
Magnitude (a.u.)       :      0.54091
Magnitude (Debye)      :      1.37488

                             ****ORCA TERMINATED NORMALLY****
TOTAL RUN TIME: 0 days 0 hours 0 minutes 7 seconds 623 msec
