                         Program Version 3.0.3 - RELEASE   -
|  1> ! RI PBE def2-SVP def2-SVP/J NBO PAL2
|  2> % maxcore 2000
|  3> % output
|  4>     # printlevel mini
|  5>     print[ P_Basis ] 0
|  6>     print[ P_SCFInfo ] 1
|  7>     print[ P_SCFIterInfo ] 1
|  8>     print[ P_OrbEn ] 0
|  9>     print[ P_Cartesian ] 0
| 10> end
| 11> *xyz 0 1
| 12>  C        0.9307280000     0.0309570000     0.0328300000
| 13>  C        2.4297000000    -0.0597100000    -0.0034890000
| 14>  C        3.1819260000    -0.8491290000    -1.0119130000
| 15>  C        2.5256910000    -1.6429900000    -2.1053590000
| 16>  C        3.2008280000     0.6669580000    -1.0909440000
| 17>  C        4.4323340000     1.3718690000    -0.7242720000
| 18>  O        4.8282460000     2.3906750000    -1.2269090000
| 19>  H        0.5030000000    -0.8129260000     0.5809420000
| 20>  H        0.4960680000     0.0334060000    -0.9676200000
| 21>  H        0.6125680000     0.9493120000     0.5317230000
| 22>  H        2.8992580000    -0.0158670000     0.9760410000
| 23>  H        4.1078210000    -1.2842920000    -0.6441590000
| 24>  H        1.6270690000    -1.1540380000    -2.4838280000
| 25>  H        2.2403810000    -2.6360520000    -1.7476970000
| 26>  H        3.2081130000    -1.7746060000    -2.9482610000
| 27>  H        2.6223620000     1.1286860000    -1.8839280000
| 28>  H        5.0121980000     0.8805260000     0.0930530000
| 29> *
| 30>
| 31>                          ****END OF INPUT****
 Total Charge           Charge          ....    0
 Multiplicity           Mult            ....    1
 Number of Electrons    NEL             ....   54
 Basis Dimension        Dim             ....  148

MULLIKEN ATOMIC CHARGES
-----------------------
   0 C :    0.078464
   1 C :   -0.124129
   2 C :   -0.116324
   3 C :    0.080685
   4 C :   -0.092282
   5 C :    0.158979
   6 O :   -0.168613
   7 H :    0.032848
   8 H :    0.010885
   9 H :    0.032499
  10 H :    0.024119
  11 H :    0.023218
  12 H :    0.006244
  13 H :    0.030724
  14 H :    0.035435
  15 H :    0.022308
  16 H :   -0.035062
Sum of atomic charges:    0.0000000

LOEWDIN ATOMIC CHARGES
----------------------
   0 C :   -0.052448
   1 C :   -0.024169
   2 C :   -0.022634
   3 C :   -0.052772
   4 C :   -0.071121
   5 C :    0.077434
   6 O :   -0.122859
   7 H :    0.034265
   8 H :    0.028077
   9 H :    0.035871
  10 H :    0.027963
  11 H :    0.028098
  12 H :    0.027687
  13 H :    0.034195
  14 H :    0.036110
  15 H :    0.033858
  16 H :   -0.017555

  Mayer bond orders larger than 0.1
B(  0-C ,  1-C ) :   1.1133 B(  0-C ,  7-H ) :   0.9577 B(  0-C ,  8-H ) :   0.9466
B(  0-C ,  9-H ) :   0.9554 B(  1-C ,  2-C ) :   0.9657 B(  1-C ,  4-C ) :   0.8663
B(  1-C , 10-H ) :   0.9361 B(  2-C ,  3-C ) :   1.1200 B(  2-C ,  4-C ) :   0.8687
B(  2-C , 11-H ) :   0.9352 B(  3-C , 12-H ) :   0.9433 B(  3-C , 13-H ) :   0.9556
B(  3-C , 14-H ) :   0.9555 B(  4-C ,  5-C ) :   1.0257 B(  4-C , 15-H ) :   0.9511
B(  5-C ,  6-O ) :   2.1605 B(  5-C , 16-H ) :   0.9186

FINAL SINGLE POINT ENERGY      -309.224385617677

DIPOLE MOMENT
-------------
                                X             Y             Z
Electronic contribution:      6.13972       5.95710      -0.08334
Nuclear contribution   :     -6.89477      -7.01621       0.35067
                        -----------------------------------------
Total Dipole Moment    :     -0.75505      -1.05911       0.26733
                        -----------------------------------------
Magnitude (a.u.)       :      1.32789
Magnitude (Debye)      :      3.37522

                             ****ORCA TERMINATED NORMALLY****
TOTAL RUN TIME: 0 days 0 hours 0 minutes 6 seconds 758 msec
