                         Program Version 3.0.3 - RELEASE   -
|  1> ! RI PBE def2-SVP def2-SVP/J NBO PAL2
|  2> % maxcore 2000
|  3> % output
|  4>     # printlevel mini
|  5>     print[ P_Basis ] 0
|  6>     print[ P_SCFInfo ] 1
|  7>     print[ P_SCFIterInfo ] 1
|  8>     print[ P_OrbEn ] 0
|  9>     print[ P_Cartesian ] 0
| 10> end
| 11> *xyz 0 1
| 12>  C        0.8363460000     0.1306750000     0.3766230000
| 13>  C        2.3293020000     0.0992060000     0.1573570000
| 14>  C        3.2098520000     1.1276670000     0.8947720000
| 15>  C        4.2523590000     0.0157190000     1.1873220000
| 16>  C        3.1542660000    -1.0193960000     0.8244770000
| 17>  C        5.3735760000     0.0187970000     0.2030610000
| 18>  O        6.5402080000    -0.0212370000     0.4860660000
| 19>  H        0.3927430000     1.0394620000    -0.0395370000
| 20>  H        0.5993630000     0.1018480000     1.4443880000
| 21>  H        0.3470720000    -0.7248190000    -0.0973050000
| 22>  H        2.5455130000     0.1287220000    -0.9152460000
| 23>  H        3.5515980000     2.0029490000     0.3379710000
| 24>  H        2.7443340000     1.4677030000     1.8225890000
| 25>  H        4.6684020000    -0.0280360000     2.1937690000
| 26>  H        2.6702440000    -1.3948310000     1.7288820000
| 27>  H        3.4512650000    -1.8729010000     0.2110820000
| 28>  H        5.0592590000     0.0623610000    -0.8661820000
| 29> *
| 30>
| 31>                          ****END OF INPUT****
 Total Charge           Charge          ....    0
 Multiplicity           Mult            ....    1
 Number of Electrons    NEL             ....   54
 Basis Dimension        Dim             ....  148

MULLIKEN ATOMIC CHARGES
-----------------------
   0 C :    0.065197
   1 C :   -0.250776
   2 C :    0.128341
   3 C :   -0.175217
   4 C :    0.127887
   5 C :    0.133426
   6 O :   -0.154955
   7 H :    0.024421
   8 H :    0.008850
   9 H :    0.025547
  10 H :    0.020986
  11 H :    0.019781
  12 H :    0.008105
  13 H :    0.011311
  14 H :    0.008096
  15 H :    0.021161
  16 H :   -0.022160
Sum of atomic charges:   -0.0000000

LOEWDIN ATOMIC CHARGES
----------------------
   0 C :   -0.062888
   1 C :   -0.041922
   2 C :   -0.012697
   3 C :   -0.068201
   4 C :   -0.012643
   5 C :    0.087794
   6 O :   -0.107009
   7 H :    0.030087
   8 H :    0.022997
   9 H :    0.030302
  10 H :    0.025159
  11 H :    0.019635
  12 H :    0.029708
  13 H :    0.025049
  14 H :    0.029738
  15 H :    0.019800
  16 H :   -0.014909

  Mayer bond orders larger than 0.1
B(  0-C ,  1-C ) :   1.0955 B(  0-C ,  7-H ) :   0.9581 B(  0-C ,  8-H ) :   0.9514
B(  0-C ,  9-H ) :   0.9581 B(  1-C ,  2-C ) :   1.0772 B(  1-C ,  4-C ) :   1.0777
B(  1-C , 10-H ) :   0.9071 B(  2-C ,  3-C ) :   1.0427 B(  2-C , 11-H ) :   0.9339
B(  2-C , 12-H ) :   0.9022 B(  3-C ,  4-C ) :   1.0425 B(  3-C ,  5-C ) :   0.9371
B(  3-C , 13-H ) :   0.9103 B(  4-C , 14-H ) :   0.9019 B(  4-C , 15-H ) :   0.9341
B(  5-C ,  6-O ) :   2.1891 B(  5-C , 16-H ) :   0.9265

FINAL SINGLE POINT ENERGY      -309.219164969902

DIPOLE MOMENT
-------------
                                X             Y             Z
Electronic contribution:      8.88598      -0.23155      -0.01200
Nuclear contribution   :    -10.04102       0.26224      -0.02847
                        -----------------------------------------
Total Dipole Moment    :     -1.15505       0.03069      -0.04047
                        -----------------------------------------
Magnitude (a.u.)       :      1.15616
Magnitude (Debye)      :      2.93874

                             ****ORCA TERMINATED NORMALLY****
TOTAL RUN TIME: 0 days 0 hours 0 minutes 7 seconds 235 msec
