                         Program Version 3.0.3 - RELEASE   -
|  1> ! RI PBE def2-SVP def2-SVP/J NBO PAL2
|  2> % maxcore 2000
|  3> % output
|  4>     # printlevel mini
|  5>     print[ P_Basis ] 0
|  6>     print[ P_SCFInfo ] 1
|  7>     print[ P_SCFIterInfo ] 1
|  8>     print[ P_OrbEn ] 0
|  9>     print[ P_Cartesian ] 0
| 10> end
| 11> *xyz 0 1
| 12>  C        0.8516390000    -0.0338000000    -0.0465610000
| 13>  C        2.3542720000    -0.0185290000     0.0928320000
| 14>  C        3.0507010000     1.0237270000     0.9891200000
| 15>  C        4.1074900000    -0.0394170000     1.3398390000
| 16>  C        3.1028250000    -1.1235210000     0.8893120000
| 17>  C        2.3165470000    -1.7052670000     2.0404560000
| 18>  O        3.5959760000    -2.2214050000     0.1595880000
| 19>  H        0.4997680000     0.8499700000    -0.5860070000
| 20>  H        0.3601250000    -0.0411540000     0.9295200000
| 21>  H        0.5137280000    -0.9147720000    -0.5991050000
| 22>  H        2.8153020000     0.0220390000    -0.9028230000
| 23>  H        2.4332680000     1.2842370000     1.8520540000
| 24>  H        3.3941050000     1.9454970000     0.5185620000
| 25>  H        4.4823830000    -0.0900990000     2.3638230000
| 26>  H        4.9588870000     0.0056290000     0.6547600000
| 27>  H        1.9061700000    -0.9214140000     2.6795770000
| 28>  H        2.9719600000    -2.3359120000     2.6448960000
| 29>  H        1.4937950000    -2.3208170000     1.6712080000
| 30>  H        4.1073600000    -1.8842630000    -0.5809330000
| 31> *
| 32>
| 33>                          ****END OF INPUT****
 Total Charge           Charge          ....    0
 Multiplicity           Mult            ....    1
 Number of Electrons    NEL             ....   56
 Basis Dimension        Dim             ....  158

MULLIKEN ATOMIC CHARGES
-----------------------
   0 C :    0.071437
   1 C :   -0.101387
   2 C :    0.020750
   3 C :    0.109786
   4 C :   -0.190917
   5 C :    0.088507
   6 O :   -0.233317
   7 H :    0.019254
   8 H :    0.006417
   9 H :    0.024794
  10 H :   -0.021611
  11 H :    0.013115
  12 H :    0.003992
  13 H :    0.001266
  14 H :   -0.012356
  15 H :    0.005210
  16 H :    0.023747
  17 H :    0.023247
  18 H :    0.148066
Sum of atomic charges:   -0.0000000

LOEWDIN ATOMIC CHARGES
----------------------
   0 C :   -0.065233
   1 C :   -0.050236
   2 C :   -0.030977
   3 C :   -0.041121
   4 C :    0.016776
   5 C :   -0.055806
   6 O :   -0.099726
   7 H :    0.028998
   8 H :    0.023764
   9 H :    0.030472
  10 H :    0.019256
  11 H :    0.021643
  12 H :    0.017324
  13 H :    0.016213
  14 H :    0.020011
  15 H :    0.026226
  16 H :    0.031883
  17 H :    0.029311
  18 H :    0.061223

  Mayer bond orders larger than 0.1
B(  0-C ,  1-C ) :   1.1212 B(  0-C ,  7-H ) :   0.9539 B(  0-C ,  8-H ) :   0.9417
B(  0-C ,  9-H ) :   0.9545 B(  1-C ,  2-C ) :   1.0778 B(  1-C ,  4-C ) :   0.9744
B(  1-C , 10-H ) :   0.8796 B(  2-C ,  3-C ) :   1.1227 B(  2-C , 11-H ) :   0.9268
B(  2-C , 12-H ) :   0.9183 B(  3-C ,  4-C ) :   1.0365 B(  3-C , 13-H ) :   0.9224
B(  3-C , 14-H ) :   0.9029 B(  4-C ,  5-C ) :   1.0597 B(  4-C ,  6-O ) :   1.1009
B(  5-C , 15-H ) :   0.9494 B(  5-C , 16-H ) :   0.9460 B(  5-C , 17-H ) :   0.9409
B(  6-O , 18-H ) :   0.9732

FINAL SINGLE POINT ENERGY      -310.425441159252

DIPOLE MOMENT
-------------
                                X             Y             Z
Electronic contribution:      3.13263      -2.43580      -1.52122
Nuclear contribution   :     -3.06845       2.90158       1.32331
                        -----------------------------------------
Total Dipole Moment    :      0.06418       0.46578      -0.19791
                        -----------------------------------------
Magnitude (a.u.)       :      0.51013
Magnitude (Debye)      :      1.29666

                             ****ORCA TERMINATED NORMALLY****
TOTAL RUN TIME: 0 days 0 hours 0 minutes 8 seconds 168 msec
