                         Program Version 3.0.3 - RELEASE   -
|  1> ! RI PBE def2-SVP def2-SVP/J NBO PAL2
|  2> % maxcore 2000
|  3> % output
|  4>     # printlevel mini
|  5>     print[ P_Basis ] 0
|  6>     print[ P_SCFInfo ] 1
|  7>     print[ P_SCFIterInfo ] 1
|  8>     print[ P_OrbEn ] 0
|  9>     print[ P_Cartesian ] 0
| 10> end
| 11> *xyz 0 1
| 12>  C        0.9475310000     0.0472280000     0.0073450000
| 13>  C        2.4550720000     0.0844330000     0.0332070000
| 14>  C        3.1858090000     1.1759680000     0.8377660000
| 15>  C        4.2364740000     0.1233350000     1.2262210000
| 16>  C        3.2123780000    -0.9807270000     0.8774090000
| 17>  C        3.7075550000    -2.1814740000     0.1485640000
| 18>  O        3.4415120000    -3.3219760000     0.4154660000
| 19>  H        0.5449700000     0.9114860000    -0.5283080000
| 20>  H        0.5399090000     0.0623000000     1.0218510000
| 21>  H        0.5783100000    -0.8544400000    -0.4884180000
| 22>  H        2.8521500000     0.0659450000    -0.9888390000
| 23>  H        2.5921480000     1.4846200000     1.7022790000
| 24>  H        3.5201160000     2.0684450000     0.3064340000
| 25>  H        4.6306390000     0.1286500000     2.2423750000
| 26>  H        5.0751450000     0.1138790000     0.5245220000
| 27>  H        2.6251360000    -1.2923190000     1.7441870000
| 28>  H        4.3691460000    -1.9460320000    -0.7190710000
| 29> *
| 30>
| 31>                          ****END OF INPUT****
 Total Charge           Charge          ....    0
 Multiplicity           Mult            ....    1
 Number of Electrons    NEL             ....   54
 Basis Dimension        Dim             ....  148

MULLIKEN ATOMIC CHARGES
-----------------------
   0 C :    0.077767
   1 C :   -0.166288
   2 C :    0.054636
   3 C :    0.059602
   4 C :   -0.135248
   5 C :    0.151757
   6 O :   -0.151476
   7 H :    0.026920
   8 H :    0.010926
   9 H :    0.027951
  10 H :    0.008570
  11 H :    0.008475
  12 H :    0.013028
  13 H :    0.022652
  14 H :    0.013516
  15 H :    0.005791
  16 H :   -0.028578
Sum of atomic charges:   -0.0000000

LOEWDIN ATOMIC CHARGES
----------------------
   0 C :   -0.061321
   1 C :   -0.022405
   2 C :   -0.027774
   3 C :   -0.015495
   4 C :   -0.068342
   5 C :    0.082229
   6 O :   -0.105541
   7 H :    0.031960
   8 H :    0.025325
   9 H :    0.032582
  10 H :    0.024762
  11 H :    0.025101
  12 H :    0.017368
  13 H :    0.022708
  14 H :    0.025184
  15 H :    0.031252
  16 H :   -0.017593

  Mayer bond orders larger than 0.1
B(  0-C ,  1-C ) :   1.1030 B(  0-C ,  7-H ) :   0.9573 B(  0-C ,  8-H ) :   0.9497
B(  0-C ,  9-H ) :   0.9568 B(  1-C ,  2-C ) :   1.0816 B(  1-C ,  4-C ) :   0.9936
B(  1-C , 10-H ) :   0.9023 B(  2-C ,  3-C ) :   1.1298 B(  2-C , 11-H ) :   0.9164
B(  2-C , 12-H ) :   0.9298 B(  3-C ,  4-C ) :   1.0451 B(  3-C , 13-H ) :   0.9277
B(  3-C , 14-H ) :   0.9181 B(  4-C ,  5-C ) :   0.9744 B(  4-C , 15-H ) :   0.8993
B(  5-C ,  6-O ) :   2.1920 B(  5-C , 16-H ) :   0.9124

FINAL SINGLE POINT ENERGY      -309.220812466958

DIPOLE MOMENT
-------------
                                X             Y             Z
Electronic contribution:      2.60009      -6.59625       0.10447
Nuclear contribution   :     -2.62554       7.65518      -0.17586
                        -----------------------------------------
Total Dipole Moment    :     -0.02544       1.05893      -0.07139
                        -----------------------------------------
Magnitude (a.u.)       :      1.06164
Magnitude (Debye)      :      2.69846

                             ****ORCA TERMINATED NORMALLY****
TOTAL RUN TIME: 0 days 0 hours 0 minutes 7 seconds 368 msec
