                         Program Version 3.0.3 - RELEASE   -
|  1> ! RI PBE def2-SVP def2-SVP/J NBO PAL2
|  2> % maxcore 2000
|  3> % output
|  4>     # printlevel mini
|  5>     print[ P_Basis ] 0
|  6>     print[ P_SCFInfo ] 1
|  7>     print[ P_SCFIterInfo ] 1
|  8>     print[ P_OrbEn ] 0
|  9>     print[ P_Cartesian ] 0
| 10> end
| 11> *xyz 0 1
| 12>  C        1.2066030000     0.3615910000     0.6725720000
| 13>  C        2.4310650000    -0.1097580000    -0.0907310000
| 14>  C        2.4140370000    -1.6105920000    -0.4321570000
| 15>  C        3.2521020000    -1.7680300000    -1.7074770000
| 16>  C        3.0967990000    -0.4404430000    -2.3998150000
| 17>  O        1.7500430000     0.0232850000    -2.4469320000
| 18>  C        2.6137160000     0.5438080000    -1.4394720000
| 19>  H        1.0921120000    -0.1862500000     1.6113660000
| 20>  H        0.3043190000     0.2020320000     0.0767160000
| 21>  H        1.2689620000     1.4258510000     0.9141870000
| 22>  H        3.3324540000     0.1201810000     0.4935610000
| 23>  H        1.3845440000    -1.9150750000    -0.6307780000
| 24>  H        2.7815810000    -2.2245580000     0.3920440000
| 25>  H        2.9295640000    -2.6099620000    -2.3251690000
| 26>  H        4.3123120000    -1.9174510000    -1.4756990000
| 27>  H        3.7078050000    -0.1761940000    -3.2581050000
| 28>  H        2.8326840000     1.6054730000    -1.5202200000
| 29> *
| 30>
| 31>                          ****END OF INPUT****
 Total Charge           Charge          ....    0
 Multiplicity           Mult            ....    1
 Number of Electrons    NEL             ....   54
 Basis Dimension        Dim             ....  148

MULLIKEN ATOMIC CHARGES
-----------------------
   0 C :    0.046080
   1 C :   -0.085859
   2 C :   -0.012203
   3 C :    0.103423
   4 C :    0.001872
   5 O :   -0.275233
   6 C :    0.062845
   7 H :    0.017843
   8 H :    0.028590
   9 H :    0.015006
  10 H :    0.009306
  11 H :    0.022481
  12 H :    0.009331
  13 H :    0.021301
  14 H :    0.014313
  15 H :    0.011797
  16 H :    0.009108
Sum of atomic charges:    0.0000000

LOEWDIN ATOMIC CHARGES
----------------------
   0 C :   -0.056570
   1 C :   -0.052555
   2 C :   -0.031154
   3 C :   -0.046157
   4 C :    0.042801
   5 O :   -0.156492
   6 C :    0.047065
   7 H :    0.026537
   8 H :    0.029728
   9 H :    0.025909
  10 H :    0.028370
  11 H :    0.028460
  12 H :    0.025600
  13 H :    0.030462
  14 H :    0.030420
  15 H :    0.014025
  16 H :    0.013551

  Mayer bond orders larger than 0.1
B(  0-C ,  1-C ) :   1.0993 B(  0-C ,  7-H ) :   0.9605 B(  0-C ,  8-H ) :   0.9572
B(  0-C ,  9-H ) :   0.9582 B(  1-C ,  2-C ) :   1.0447 B(  1-C ,  6-C ) :   0.9890
B(  1-C , 10-H ) :   0.9000 B(  2-C ,  3-C ) :   1.0887 B(  2-C , 11-H ) :   0.9252
B(  2-C , 12-H ) :   0.9289 B(  3-C ,  4-C ) :   1.0277 B(  3-C , 13-H ) :   0.9226
B(  3-C , 14-H ) :   0.9164 B(  4-C ,  5-O ) :   0.9944 B(  4-C ,  6-C ) :   1.0269
B(  4-C , 15-H ) :   0.9568 B(  5-O ,  6-C ) :   0.9967 B(  6-C , 16-H ) :   0.9598

FINAL SINGLE POINT ENERGY      -309.223331301524

DIPOLE MOMENT
-------------
                                X             Y             Z
Electronic contribution:      0.33799       1.27511      -4.72721
Nuclear contribution   :      0.23436      -1.33580       5.10222
                        -----------------------------------------
Total Dipole Moment    :      0.57235      -0.06070       0.37500
                        -----------------------------------------
Magnitude (a.u.)       :      0.68695
Magnitude (Debye)      :      1.74608

                             ****ORCA TERMINATED NORMALLY****
TOTAL RUN TIME: 0 days 0 hours 0 minutes 7 seconds 773 msec
