                         Program Version 3.0.3 - RELEASE   -
|  1> ! RI PBE def2-SVP def2-SVP/J NBO PAL2
|  2> % maxcore 2000
|  3> % output
|  4>     # printlevel mini
|  5>     print[ P_Basis ] 0
|  6>     print[ P_SCFInfo ] 1
|  7>     print[ P_SCFIterInfo ] 1
|  8>     print[ P_OrbEn ] 0
|  9>     print[ P_Cartesian ] 0
| 10> end
| 11> *xyz 0 1
| 12>  C        1.2246780000     0.1740420000     0.6355530000
| 13>  C        2.2514870000    -0.0803440000    -0.1645550000
| 14>  C        2.7517730000    -1.4269110000    -0.6261900000
| 15>  C        4.2668240000    -1.2416210000    -0.8250680000
| 16>  C        4.4209960000     0.2334750000    -1.0944760000
| 17>  O        3.5200720000     0.7245850000    -2.0722170000
| 18>  C        3.1945400000     0.9289670000    -0.6916640000
| 19>  H        0.6166020000    -0.6216090000     1.0513730000
| 20>  H        0.9573250000     1.1909310000     0.9012770000
| 21>  H        2.2806120000    -1.6746400000    -1.5807040000
| 22>  H        2.5076090000    -2.2238430000     0.0771340000
| 23>  H        4.6684860000    -1.8570770000    -1.6331860000
| 24>  H        4.8159600000    -1.4904600000     0.0884150000
| 25>  H        5.3948110000     0.7139180000    -1.0702560000
| 26>  H        3.1686460000     1.9619680000    -0.3610240000
| 27> *
| 28>
| 29>                          ****END OF INPUT****
 Total Charge           Charge          ....    0
 Multiplicity           Mult            ....    1
 Number of Electrons    NEL             ....   52
 Basis Dimension        Dim             ....  138

MULLIKEN ATOMIC CHARGES
-----------------------
   0 C :   -0.051081
   1 C :   -0.057515
   2 C :    0.035304
   3 C :    0.096235
   4 C :    0.008341
   5 O :   -0.264829
   6 C :    0.098587
   7 H :    0.008483
   8 H :    0.007685
   9 H :    0.045309
  10 H :    0.016696
  11 H :    0.020851
  12 H :    0.020304
  13 H :    0.017291
  14 H :   -0.001660
Sum of atomic charges:    0.0000000

LOEWDIN ATOMIC CHARGES
----------------------
   0 C :   -0.066952
   1 C :   -0.036728
   2 C :   -0.030266
   3 C :   -0.042017
   4 C :    0.046713
   5 O :   -0.147505
   6 C :    0.052319
   7 H :    0.023912
   8 H :    0.024040
   9 H :    0.043994
  10 H :    0.033021
  11 H :    0.031880
  12 H :    0.032811
  13 H :    0.016062
  14 H :    0.018716

  Mayer bond orders larger than 0.1
B(  0-C ,  1-C ) :   1.9965 B(  0-C ,  7-H ) :   0.9240 B(  0-C ,  8-H ) :   0.9305
B(  1-C ,  2-C ) :   1.0203 B(  1-C ,  6-C ) :   1.0057 B(  2-C ,  3-C ) :   1.0804
B(  2-C ,  9-H ) :   0.9013 B(  2-C , 10-H ) :   0.9246 B(  3-C ,  4-C ) :   1.0439
B(  3-C , 11-H ) :   0.9166 B(  3-C , 12-H ) :   0.9189 B(  4-C ,  5-O ) :   1.0004
B(  4-C ,  6-C ) :   0.9827 B(  4-C , 13-H ) :   0.9515 B(  5-O ,  6-C ) :   0.9785
B(  6-C , 14-H ) :   0.9677

FINAL SINGLE POINT ENERGY      -308.002641141010

DIPOLE MOMENT
-------------
                                X             Y             Z
Electronic contribution:      0.65956       2.76776      -2.43834
Nuclear contribution   :     -0.39451      -3.00704       2.99085
                        -----------------------------------------
Total Dipole Moment    :      0.26505      -0.23928       0.55251
                        -----------------------------------------
Magnitude (a.u.)       :      0.65786
Magnitude (Debye)      :      1.67214

                             ****ORCA TERMINATED NORMALLY****
TOTAL RUN TIME: 0 days 0 hours 0 minutes 6 seconds 985 msec
