                         Program Version 3.0.3 - RELEASE   -
|  1> ! RI PBE def2-SVP def2-SVP/J NBO PAL2
|  2> % maxcore 2000
|  3> % output
|  4>     # printlevel mini
|  5>     print[ P_Basis ] 0
|  6>     print[ P_SCFInfo ] 1
|  7>     print[ P_SCFIterInfo ] 1
|  8>     print[ P_OrbEn ] 0
|  9>     print[ P_Cartesian ] 0
| 10> end
| 11> *xyz 0 1
| 12>  C        1.0246600000    -0.0871170000     0.0228250000
| 13>  C        2.3419590000     0.0997750000     0.0610680000
| 14>  C        3.0632210000     1.3714820000     0.1376810000
| 15>  C        4.3847040000     1.1820050000     0.0386400000
| 16>  C        4.6818340000    -0.2744780000    -0.0475770000
| 17>  O        4.2616900000    -0.9985530000     1.1122610000
| 18>  C        3.3878210000    -0.9622780000    -0.0143950000
| 19>  H        0.3344770000     0.7472680000     0.0775810000
| 20>  H        0.5975290000    -1.0798330000    -0.0604580000
| 21>  H        2.5686440000     2.3238730000     0.2842760000
| 22>  H        5.1430660000     1.9532640000     0.0632000000
| 23>  H        5.5608130000    -0.6644350000    -0.5489020000
| 24>  H        3.1924930000    -1.9173810000    -0.4900910000
| 25> *
| 26>
| 27>                          ****END OF INPUT****
 Total Charge           Charge          ....    0
 Multiplicity           Mult            ....    1
 Number of Electrons    NEL             ....   50
 Basis Dimension        Dim             ....  128

MULLIKEN ATOMIC CHARGES
-----------------------
   0 C :   -0.041622
   1 C :    0.044394
   2 C :   -0.004318
   3 C :    0.048217
   4 C :    0.091970
   5 O :   -0.268658
   6 C :    0.085144
   7 H :    0.018211
   8 H :    0.019732
   9 H :   -0.013035
  10 H :   -0.002786
  11 H :    0.015433
  12 H :    0.007319
Sum of atomic charges:    0.0000000

LOEWDIN ATOMIC CHARGES
----------------------
   0 C :   -0.035945
   1 C :   -0.039341
   2 C :   -0.006647
   3 C :   -0.026889
   4 C :    0.046126
   5 O :   -0.142336
   6 C :    0.056660
   7 H :    0.027769
   8 H :    0.028103
   9 H :    0.027400
  10 H :    0.027204
  11 H :    0.018663
  12 H :    0.019232

  Mayer bond orders larger than 0.1
B(  0-C ,  1-C ) :   1.9156 B(  0-C ,  3-C ) :   0.1270 B(  0-C ,  7-H ) :   0.9283
B(  0-C ,  8-H ) :   0.9334 B(  1-C ,  2-C ) :   1.0530 B(  1-C ,  6-C ) :   0.9687
B(  2-C ,  3-C ) :   1.6905 B(  2-C ,  9-H ) :   0.9918 B(  3-C ,  4-C ) :   0.9890
B(  3-C , 10-H ) :   0.9988 B(  4-C ,  5-O ) :   0.9656 B(  4-C ,  6-C ) :   1.0043
B(  4-C , 11-H ) :   0.9491 B(  5-O ,  6-C ) :   0.9853 B(  6-C , 12-H ) :   0.9554

FINAL SINGLE POINT ENERGY      -306.780892323210

DIPOLE MOMENT
-------------
                                X             Y             Z
Electronic contribution:      2.20761      -0.92253       1.18813
Nuclear contribution   :     -2.35798       1.18187      -1.78543
                        -----------------------------------------
Total Dipole Moment    :     -0.15037       0.25934      -0.59729
                        -----------------------------------------
Magnitude (a.u.)       :      0.66830
Magnitude (Debye)      :      1.69869

                             ****ORCA TERMINATED NORMALLY****
TOTAL RUN TIME: 0 days 0 hours 0 minutes 6 seconds 653 msec
