                         Program Version 3.0.3 - RELEASE   -
|  1> ! RI PBE def2-SVP def2-SVP/J NBO PAL2
|  2> % maxcore 2000
|  3> % output
|  4>     # printlevel mini
|  5>     print[ P_Basis ] 0
|  6>     print[ P_SCFInfo ] 1
|  7>     print[ P_SCFIterInfo ] 1
|  8>     print[ P_OrbEn ] 0
|  9>     print[ P_Cartesian ] 0
| 10> end
| 11> *xyz 0 1
| 12>  C        1.0578100000    -0.0167370000     0.0724060000
| 13>  C        2.5188740000     0.2545110000     0.0817600000
| 14>  C        3.1430780000     1.4301280000    -0.0125740000
| 15>  C        4.6407060000     1.3031790000     0.0382520000
| 16>  C        4.8544390000    -0.1924150000     0.0992590000
| 17>  O        4.3610150000    -0.9017630000    -1.0254650000
| 18>  C        3.5389180000    -0.8325360000     0.1469820000
| 19>  H        0.4801110000     0.9077070000     0.0303400000
| 20>  H        0.7536190000    -0.5668410000     0.9689780000
| 21>  H        0.7796850000    -0.6355460000    -0.7868340000
| 22>  H        2.6423450000     2.3820020000    -0.1527070000
| 23>  H        5.0634320000     1.7950420000     0.9216640000
| 24>  H        5.1288110000     1.7438440000    -0.8377520000
| 25>  H        5.7398790000    -0.6156920000     0.5631640000
| 26>  H        3.3420780000    -1.7851840000     0.6294260000
| 27> *
| 28>
| 29>                          ****END OF INPUT****
 Total Charge           Charge          ....    0
 Multiplicity           Mult            ....    1
 Number of Electrons    NEL             ....   52
 Basis Dimension        Dim             ....  138

MULLIKEN ATOMIC CHARGES
-----------------------
   0 C :    0.082879
   1 C :   -0.015536
   2 C :   -0.177389
   3 C :    0.178103
   4 C :    0.011821
   5 O :   -0.275536
   6 C :    0.057278
   7 H :    0.015156
   8 H :    0.027053
   9 H :    0.038922
  10 H :   -0.018674
  11 H :    0.026966
  12 H :    0.035719
  13 H :    0.011026
  14 H :    0.002212
Sum of atomic charges:    0.0000000

LOEWDIN ATOMIC CHARGES
----------------------
   0 C :   -0.057963
   1 C :   -0.053259
   2 C :   -0.031127
   3 C :   -0.044582
   4 C :    0.049461
   5 O :   -0.151408
   6 C :    0.050653
   7 H :    0.033682
   8 H :    0.037294
   9 H :    0.040866
  10 H :    0.018737
  11 H :    0.036461
  12 H :    0.043324
  13 H :    0.014060
  14 H :    0.013802

  Mayer bond orders larger than 0.1
B(  0-C ,  1-C ) :   1.1288 B(  0-C ,  7-H ) :   0.9486 B(  0-C ,  8-H ) :   0.9378
B(  0-C ,  9-H ) :   0.9392 B(  1-C ,  2-C ) :   1.7925 B(  1-C ,  6-C ) :   0.9694
B(  2-C ,  3-C ) :   1.0040 B(  2-C , 10-H ) :   0.9742 B(  3-C ,  4-C ) :   1.0236
B(  3-C , 11-H ) :   0.9128 B(  3-C , 12-H ) :   0.8905 B(  4-C ,  5-O ) :   1.0025
B(  4-C ,  6-C ) :   1.0297 B(  4-C , 13-H ) :   0.9438 B(  5-O ,  6-C ) :   0.9644
B(  6-C , 14-H ) :   0.9624

FINAL SINGLE POINT ENERGY      -308.002783656005

DIPOLE MOMENT
-------------
                                X             Y             Z
Electronic contribution:      3.22074      -1.79677      -1.43262
Nuclear contribution   :     -3.39145       2.05828       2.01624
                        -----------------------------------------
Total Dipole Moment    :     -0.17071       0.26150       0.58363
                        -----------------------------------------
Magnitude (a.u.)       :      0.66193
Magnitude (Debye)      :      1.68248

                             ****ORCA TERMINATED NORMALLY****
TOTAL RUN TIME: 0 days 0 hours 0 minutes 6 seconds 872 msec
