                         Program Version 3.0.3 - RELEASE   -
|  1> ! RI PBE def2-SVP def2-SVP/J NBO PAL2
|  2> % maxcore 2000
|  3> % output
|  4>     # printlevel mini
|  5>     print[ P_Basis ] 0
|  6>     print[ P_SCFInfo ] 1
|  7>     print[ P_SCFIterInfo ] 1
|  8>     print[ P_OrbEn ] 0
|  9>     print[ P_Cartesian ] 0
| 10> end
| 11> *xyz 0 1
| 12>  C        1.0355430000     0.0068860000    -0.1249480000
| 13>  C        2.5467190000     0.1886640000    -0.0532270000
| 14>  C        2.9799680000     1.4871480000     0.5839240000
| 15>  C        3.8367240000     1.3086180000     1.5866080000
| 16>  C        4.0569710000    -0.1441530000     1.8096280000
| 17>  O        2.8549480000    -0.8386910000     2.1734870000
| 18>  C        3.2491070000    -0.8445760000     0.8106510000
| 19>  H        0.5694000000     0.8177780000    -0.6892970000
| 20>  H        0.6095820000    -0.0024600000     0.8798540000
| 21>  H        0.7779120000    -0.9340600000    -0.6166850000
| 22>  H        2.9588760000     0.1288690000    -1.0696720000
| 23>  H        2.5830250000     2.4445150000     0.2641200000
| 24>  H        4.2810940000     2.0881740000     2.1922050000
| 25>  H        4.9690620000    -0.5421950000     2.2409150000
| 26>  H        3.5108680000    -1.8184270000     0.4074480000
| 27> *
| 28>
| 29>                          ****END OF INPUT****
 Total Charge           Charge          ....    0
 Multiplicity           Mult            ....    1
 Number of Electrons    NEL             ....   52
 Basis Dimension        Dim             ....  138

MULLIKEN ATOMIC CHARGES
-----------------------
   0 C :    0.028271
   1 C :   -0.000642
   2 C :   -0.054184
   3 C :    0.061324
   4 C :    0.075901
   5 O :   -0.277122
   6 C :    0.060671
   7 H :    0.022528
   8 H :    0.036180
   9 H :    0.019248
  10 H :    0.024403
  11 H :   -0.006942
  12 H :   -0.011579
  13 H :    0.011418
  14 H :    0.010527
Sum of atomic charges:   -0.0000000

LOEWDIN ATOMIC CHARGES
----------------------
   0 C :   -0.049929
   1 C :   -0.051019
   2 C :   -0.003714
   3 C :   -0.046070
   4 C :    0.047162
   5 O :   -0.150301
   6 C :    0.054459
   7 H :    0.026611
   8 H :    0.030919
   9 H :    0.028427
  10 H :    0.037599
  11 H :    0.021943
  12 H :    0.024851
  13 H :    0.015513
  14 H :    0.013549

  Mayer bond orders larger than 0.1
B(  0-C ,  1-C ) :   1.0660 B(  0-C ,  7-H ) :   0.9645 B(  0-C ,  8-H ) :   0.9608
B(  0-C ,  9-H ) :   0.9605 B(  1-C ,  2-C ) :   0.9924 B(  1-C ,  6-C ) :   0.9829
B(  1-C , 10-H ) :   0.8924 B(  2-C ,  3-C ) :   1.8064 B(  2-C , 11-H ) :   0.9776
B(  3-C ,  4-C ) :   0.9771 B(  3-C , 12-H ) :   0.9991 B(  4-C ,  5-O ) :   0.9607
B(  4-C ,  6-C ) :   1.0305 B(  4-C , 13-H ) :   0.9586 B(  5-O ,  6-C ) :   0.9865
B(  6-C , 14-H ) :   0.9503

FINAL SINGLE POINT ENERGY      -307.996827265663

DIPOLE MOMENT
-------------
                                X             Y             Z
Electronic contribution:      3.05009      -0.82416       3.34825
Nuclear contribution   :     -2.75745       1.03083      -3.92116
                        -----------------------------------------
Total Dipole Moment    :      0.29264       0.20667      -0.57291
                        -----------------------------------------
Magnitude (a.u.)       :      0.67571
Magnitude (Debye)      :      1.71751

                             ****ORCA TERMINATED NORMALLY****
TOTAL RUN TIME: 0 days 0 hours 0 minutes 6 seconds 687 msec
