                         Program Version 3.0.3 - RELEASE   -
|  1> ! RI PBE def2-SVP def2-SVP/J NBO PAL2
|  2> % maxcore 2000
|  3> % output
|  4>     # printlevel mini
|  5>     print[ P_Basis ] 0
|  6>     print[ P_SCFInfo ] 1
|  7>     print[ P_SCFIterInfo ] 1
|  8>     print[ P_OrbEn ] 0
|  9>     print[ P_Cartesian ] 0
| 10> end
| 11> *xyz 0 1
| 12>  C        1.0728490000    -0.0761650000    -0.1350610000
| 13>  C        2.5649190000    -0.0613230000     0.1182450000
| 14>  C        3.0695560000     1.0823590000     0.9927680000
| 15>  C        4.4468950000     0.6249680000     1.5187170000
| 16>  C        4.5123790000    -0.8893810000     1.2544940000
| 17>  C        3.0919920000    -1.2890130000     0.8599520000
| 18>  O        2.9900470000    -2.5053330000     0.1574280000
| 19>  H        0.7514010000     0.8023290000    -0.7003870000
| 20>  H        0.5219720000    -0.0832000000     0.8108130000
| 21>  H        0.7822090000    -0.9667030000    -0.6970960000
| 22>  H        3.0931700000    -0.0243930000    -0.8475530000
| 23>  H        2.3730240000     1.2234420000     1.8264330000
| 24>  H        3.1141520000     2.0334080000     0.4581350000
| 25>  H        4.5562260000     0.8542800000     2.5803030000
| 26>  H        5.2585220000     1.1446950000     1.0058400000
| 27>  H        4.8865920000    -1.4654440000     2.1021990000
| 28>  H        5.1756760000    -1.1044960000     0.4082220000
| 29>  H        2.4829520000    -1.4346640000     1.7608040000
| 30>  H        3.5586760000    -2.4489760000    -0.6164560000
| 31> *
| 32>
| 33>                          ****END OF INPUT****
 Total Charge           Charge          ....    0
 Multiplicity           Mult            ....    1
 Number of Electrons    NEL             ....   56
 Basis Dimension        Dim             ....  158

MULLIKEN ATOMIC CHARGES
-----------------------
   0 C :    0.067108
   1 C :   -0.151427
   2 C :    0.029641
   3 C :    0.009335
   4 C :    0.053138
   5 C :    0.061023
   6 O :   -0.254763
   7 H :    0.017303
   8 H :    0.007235
   9 H :    0.016672
  10 H :   -0.016752
  11 H :    0.002203
  12 H :    0.006561
  13 H :    0.005497
  14 H :    0.003900
  15 H :    0.013419
  16 H :   -0.017591
  17 H :   -0.002021
  18 H :    0.149522
Sum of atomic charges:   -0.0000000

LOEWDIN ATOMIC CHARGES
----------------------
   0 C :   -0.059056
   1 C :   -0.063691
   2 C :   -0.036185
   3 C :   -0.040686
   4 C :   -0.055554
   5 C :    0.040962
   6 O :   -0.104060
   7 H :    0.025681
   8 H :    0.024180
   9 H :    0.026711
  10 H :    0.016739
  11 H :    0.022972
  12 H :    0.023247
  13 H :    0.025203
  14 H :    0.025086
  15 H :    0.026119
  16 H :    0.018393
  17 H :    0.019940
  18 H :    0.063999

  Mayer bond orders larger than 0.1
B(  0-C ,  1-C ) :   1.0994 B(  0-C ,  7-H ) :   0.9624 B(  0-C ,  8-H ) :   0.9515
B(  0-C ,  9-H ) :   0.9496 B(  1-C ,  2-C ) :   1.0631 B(  1-C ,  5-C ) :   0.9861
B(  1-C , 10-H ) :   0.8963 B(  2-C ,  3-C ) :   1.1263 B(  2-C , 11-H ) :   0.9201
B(  2-C , 12-H ) :   0.9286 B(  3-C ,  4-C ) :   1.1117 B(  3-C , 13-H ) :   0.9271
B(  3-C , 14-H ) :   0.9221 B(  4-C ,  5-C ) :   1.0735 B(  4-C , 15-H ) :   0.9265
B(  4-C , 16-H ) :   0.9040 B(  5-C ,  6-O ) :   1.0850 B(  5-C , 17-H ) :   0.9039
B(  6-O , 18-H ) :   0.9802

FINAL SINGLE POINT ENERGY      -310.446396648598

DIPOLE MOMENT
-------------
                                X             Y             Z
Electronic contribution:      0.89349      -3.66008      -0.35234
Nuclear contribution   :     -0.55033       4.08471       0.16128
                        -----------------------------------------
Total Dipole Moment    :      0.34316       0.42464      -0.19106
                        -----------------------------------------
Magnitude (a.u.)       :      0.57843
Magnitude (Debye)      :      1.47025

                             ****ORCA TERMINATED NORMALLY****
TOTAL RUN TIME: 0 days 0 hours 0 minutes 8 seconds 551 msec
