                         Program Version 3.0.3 - RELEASE   -
|  1> ! RI PBE def2-SVP def2-SVP/J NBO PAL2
|  2> % maxcore 2000
|  3> % output
|  4>     # printlevel mini
|  5>     print[ P_Basis ] 0
|  6>     print[ P_SCFInfo ] 1
|  7>     print[ P_SCFIterInfo ] 1
|  8>     print[ P_OrbEn ] 0
|  9>     print[ P_Cartesian ] 0
| 10> end
| 11> *xyz 0 1
| 12>  C        1.0018880000    -0.0458320000    -0.1203260000
| 13>  C        2.3102090000    -0.1122950000     0.1252630000
| 14>  C        3.1863270000    -1.2623040000     0.2757710000
| 15>  C        4.4471270000    -0.8826470000     0.5181040000
| 16>  C        4.5932180000     0.6045630000     0.5644610000
| 17>  C        3.1759720000     1.1012400000     0.3036140000
| 18>  O        2.8223140000     2.2486660000     0.2515700000
| 19>  H        0.3921410000    -0.9330810000    -0.2463690000
| 20>  H        0.5211310000     0.9229400000    -0.1986650000
| 21>  H        2.8478600000    -2.2880350000     0.1990600000
| 22>  H        5.2773660000    -1.5619100000     0.6659580000
| 23>  H        5.2758360000     1.0011640000    -0.1946020000
| 24>  H        4.9509120000     0.9793430000     1.5293630000
| 25> *
| 26>
| 27>                          ****END OF INPUT****
 Total Charge           Charge          ....    0
 Multiplicity           Mult            ....    1
 Number of Electrons    NEL             ....   50
 Basis Dimension        Dim             ....  128

MULLIKEN ATOMIC CHARGES
-----------------------
   0 C :   -0.017646
   1 C :   -0.066442
   2 C :    0.054335
   3 C :   -0.081166
   4 C :    0.085730
   5 C :   -0.007184
   6 O :   -0.130239
   7 H :    0.021633
   8 H :    0.036125
   9 H :   -0.013868
  10 H :    0.004507
  11 H :    0.059170
  12 H :    0.055044
Sum of atomic charges:   -0.0000000

LOEWDIN ATOMIC CHARGES
----------------------
   0 C :   -0.001176
   1 C :   -0.079002
   2 C :   -0.027963
   3 C :   -0.010888
   4 C :   -0.066750
   5 C :    0.066850
   6 O :   -0.106274
   7 H :    0.029073
   8 H :    0.033544
   9 H :    0.028187
  10 H :    0.026201
  11 H :    0.054546
  12 H :    0.053651

  Mayer bond orders larger than 0.1
B(  0-C ,  1-C ) :   1.8833 B(  0-C ,  3-C ) :   0.1378 B(  0-C ,  7-H ) :   0.9300
B(  0-C ,  8-H ) :   0.9192 B(  1-C ,  2-C ) :   1.0547 B(  1-C ,  5-C ) :   0.9502
B(  2-C ,  3-C ) :   1.7186 B(  2-C ,  9-H ) :   1.0021 B(  3-C ,  4-C ) :   1.0411
B(  3-C , 10-H ) :   0.9804 B(  4-C ,  5-C ) :   0.9642 B(  4-C , 11-H ) :   0.8954
B(  4-C , 12-H ) :   0.8957 B(  5-C ,  6-O ) :   2.2159

FINAL SINGLE POINT ENERGY      -306.830268492418

DIPOLE MOMENT
-------------
                                X             Y             Z
Electronic contribution:     -0.42497       2.40909      -0.05136
Nuclear contribution   :      0.76358      -3.34376       0.10191
                        -----------------------------------------
Total Dipole Moment    :      0.33861      -0.93467       0.05054
                        -----------------------------------------
Magnitude (a.u.)       :      0.99539
Magnitude (Debye)      :      2.53009

                             ****ORCA TERMINATED NORMALLY****
TOTAL RUN TIME: 0 days 0 hours 0 minutes 6 seconds 171 msec
