                         Program Version 3.0.3 - RELEASE   -
|  1> ! RI PBE def2-SVP def2-SVP/J NBO PAL2
|  2> % maxcore 2000
|  3> % output
|  4>     # printlevel mini
|  5>     print[ P_Basis ] 0
|  6>     print[ P_SCFInfo ] 1
|  7>     print[ P_SCFIterInfo ] 1
|  8>     print[ P_OrbEn ] 0
|  9>     print[ P_Cartesian ] 0
| 10> end
| 11> *xyz 0 1
| 12>  C        1.0748670000    -0.0468150000     0.1551590000
| 13>  C        2.3726830000    -0.1120130000    -0.1067120000
| 14>  C        3.2547940000    -1.3185430000    -0.2474700000
| 15>  C        4.5991970000    -0.7228100000    -0.5401570000
| 16>  C        4.5828450000     0.6118970000    -0.5796790000
| 17>  C        3.2181380000     1.1085520000    -0.3178040000
| 18>  O        2.8466620000     2.2580040000    -0.2791240000
| 19>  H        0.4645090000    -0.9301530000     0.3076240000
| 20>  H        0.5955140000     0.9244440000     0.2215280000
| 21>  H        2.9306060000    -1.9834380000    -1.0560490000
| 22>  H        3.2803860000    -1.9282190000     0.6628210000
| 23>  H        5.4766390000    -1.3392490000    -0.6989620000
| 24>  H        5.4212510000     1.2677310000    -0.7713750000
| 25> *
| 26>
| 27>                          ****END OF INPUT****
 Total Charge           Charge          ....    0
 Multiplicity           Mult            ....    1
 Number of Electrons    NEL             ....   50
 Basis Dimension        Dim             ....  128

MULLIKEN ATOMIC CHARGES
-----------------------
   0 C :    0.002145
   1 C :   -0.206266
   2 C :    0.153380
   3 C :   -0.063053
   4 C :   -0.003122
   5 C :    0.102250
   6 O :   -0.144215
   7 H :    0.018525
   8 H :    0.035080
   9 H :    0.052809
  10 H :    0.051859
  11 H :    0.009616
  12 H :   -0.009008
Sum of atomic charges:   -0.0000000

LOEWDIN ATOMIC CHARGES
----------------------
   0 C :    0.002662
   1 C :   -0.065275
   2 C :   -0.036098
   3 C :    0.020784
   4 C :   -0.052739
   5 C :    0.031811
   6 O :   -0.125973
   7 H :    0.028311
   8 H :    0.034749
   9 H :    0.050399
  10 H :    0.050327
  11 H :    0.028544
  12 H :    0.032497

  Mayer bond orders larger than 0.1
B(  0-C ,  1-C ) :   1.9949 B(  0-C ,  7-H ) :   0.9318 B(  0-C ,  8-H ) :   0.9118
B(  1-C ,  2-C ) :   1.0173 B(  1-C ,  5-C ) :   0.9526 B(  2-C ,  3-C ) :   1.0376
B(  2-C ,  9-H ) :   0.8941 B(  2-C , 10-H ) :   0.8941 B(  3-C ,  4-C ) :   1.7013
B(  3-C , 11-H ) :   0.9811 B(  4-C ,  5-C ) :   1.0014 B(  4-C , 12-H ) :   1.0028
B(  5-C ,  6-O ) :   2.1480

FINAL SINGLE POINT ENERGY      -306.830260500714

DIPOLE MOMENT
-------------
                                X             Y             Z
Electronic contribution:      0.76779       3.93117      -0.28294
Nuclear contribution   :     -0.50103      -5.28864       0.27129
                        -----------------------------------------
Total Dipole Moment    :      0.26676      -1.35747      -0.01165
                        -----------------------------------------
Magnitude (a.u.)       :      1.38348
Magnitude (Debye)      :      3.51654

                             ****ORCA TERMINATED NORMALLY****
TOTAL RUN TIME: 0 days 0 hours 0 minutes 5 seconds 798 msec
