                         Program Version 3.0.3 - RELEASE   -
|  1> ! RI PBE def2-SVP def2-SVP/J NBO PAL2
|  2> % maxcore 2000
|  3> % output
|  4>     # printlevel mini
|  5>     print[ P_Basis ] 0
|  6>     print[ P_SCFInfo ] 1
|  7>     print[ P_SCFIterInfo ] 1
|  8>     print[ P_OrbEn ] 0
|  9>     print[ P_Cartesian ] 0
| 10> end
| 11> *xyz 0 1
| 12>  C        0.9950250000    -0.0679010000     0.2685560000
| 13>  C        2.3048320000     0.0149290000     0.0707210000
| 14>  C        3.1983850000     1.2193190000     0.0495510000
| 15>  C        4.3970010000     0.7784610000    -0.8055160000
| 16>  C        4.5508800000    -0.7103580000    -0.5049770000
| 17>  C        3.1380600000    -1.1920790000    -0.2331750000
| 18>  O        2.7543890000    -2.3331050000    -0.2596800000
| 19>  H        0.3792990000     0.8032330000     0.4638320000
| 20>  H        0.5116110000    -1.0387160000     0.2318490000
| 21>  H        3.5354350000     1.4440560000     1.0689170000
| 22>  H        2.7037910000     2.1144910000    -0.3306760000
| 23>  H        5.2978460000     1.3551960000    -0.5929800000
| 24>  H        4.1608270000     0.9170750000    -1.8644750000
| 25>  H        5.1258450000    -0.8676760000     0.4163950000
| 26>  H        5.0264740000    -1.3007250000    -1.2882410000
| 27> *
| 28>
| 29>                          ****END OF INPUT****
 Total Charge           Charge          ....    0
 Multiplicity           Mult            ....    1
 Number of Electrons    NEL             ....   52
 Basis Dimension        Dim             ....  138

MULLIKEN ATOMIC CHARGES
-----------------------
   0 C :   -0.013084
   1 C :   -0.162525
   2 C :    0.098081
   3 C :   -0.048173
   4 C :    0.020720
   5 C :    0.003001
   6 O :   -0.138107
   7 H :    0.020820
   8 H :    0.035598
   9 H :    0.032611
  10 H :    0.018186
  11 H :    0.017101
  12 H :    0.034941
  13 H :    0.045410
  14 H :    0.035422
Sum of atomic charges:   -0.0000000

LOEWDIN ATOMIC CHARGES
----------------------
   0 C :    0.000160
   1 C :   -0.075559
   2 C :   -0.034655
   3 C :   -0.037659
   4 C :   -0.068795
   5 C :    0.052186
   6 O :   -0.114806
   7 H :    0.027554
   8 H :    0.032866
   9 H :    0.039501
  10 H :    0.032852
  11 H :    0.026525
  12 H :    0.030028
  13 H :    0.049732
  14 H :    0.040070

  Mayer bond orders larger than 0.1
B(  0-C ,  1-C ) :   1.9806 B(  0-C ,  7-H ) :   0.9337 B(  0-C ,  8-H ) :   0.9158
B(  1-C ,  2-C ) :   1.0361 B(  1-C ,  5-C ) :   0.9517 B(  2-C ,  3-C ) :   1.0660
B(  2-C ,  9-H ) :   0.9077 B(  2-C , 10-H ) :   0.9253 B(  3-C ,  4-C ) :   1.0843
B(  3-C , 11-H ) :   0.9340 B(  3-C , 12-H ) :   0.9443 B(  4-C ,  5-C ) :   0.9860
B(  4-C , 13-H ) :   0.9020 B(  4-C , 14-H ) :   0.9200 B(  5-C ,  6-O ) :   2.2017

FINAL SINGLE POINT ENERGY      -308.042302921771

DIPOLE MOMENT
-------------
                                X             Y             Z
Electronic contribution:     -1.81934      -4.72044       0.28390
Nuclear contribution   :      2.11037       5.79065      -0.22245
                        -----------------------------------------
Total Dipole Moment    :      0.29103       1.07020       0.06146
                        -----------------------------------------
Magnitude (a.u.)       :      1.11077
Magnitude (Debye)      :      2.82335

                             ****ORCA TERMINATED NORMALLY****
TOTAL RUN TIME: 0 days 0 hours 0 minutes 6 seconds 666 msec
