                         Program Version 3.0.3 - RELEASE   -
|  1> ! RI PBE def2-SVP def2-SVP/J NBO PAL2
|  2> % maxcore 2000
|  3> % output
|  4>     # printlevel mini
|  5>     print[ P_Basis ] 0
|  6>     print[ P_SCFInfo ] 1
|  7>     print[ P_SCFIterInfo ] 1
|  8>     print[ P_OrbEn ] 0
|  9>     print[ P_Cartesian ] 0
| 10> end
| 11> *xyz 0 1
| 12>  C        1.0685870000     0.0146670000    -0.0451540000
| 13>  C        2.5524570000    -0.0267370000    -0.1172460000
| 14>  C        3.3430940000    -1.0960380000    -0.1777630000
| 15>  C        4.8006410000    -0.7448020000    -0.1551550000
| 16>  C        4.7921640000     0.7689260000    -0.4035500000
| 17>  C        3.3734460000     1.2410330000    -0.0568520000
| 18>  O        2.8953900000     2.2889830000    -0.8785340000
| 19>  H        0.6333930000    -0.9813300000    -0.1391350000
| 20>  H        0.6540350000     0.6543840000    -0.8288990000
| 21>  H        0.7403530000     0.4459260000     0.9069140000
| 22>  H        2.9877400000    -2.1214990000    -0.1885780000
| 23>  H        5.3861550000    -1.2953560000    -0.8974480000
| 24>  H        5.2381080000    -0.9881260000     0.8210170000
| 25>  H        4.9582860000     0.9673410000    -1.4676770000
| 26>  H        5.5644280000     1.3086120000     0.1461240000
| 27>  H        3.3280260000     1.6607920000     0.9561490000
| 28>  H        2.9259860000     1.9822140000    -1.7901040000
| 29> *
| 30>
| 31>                          ****END OF INPUT****
 Total Charge           Charge          ....    0
 Multiplicity           Mult            ....    1
 Number of Electrons    NEL             ....   54
 Basis Dimension        Dim             ....  148

MULLIKEN ATOMIC CHARGES
-----------------------
   0 C :    0.111669
   1 C :   -0.189752
   2 C :   -0.094388
   3 C :    0.041396
   4 C :    0.030032
   5 C :    0.140282
   6 O :   -0.270538
   7 H :    0.011383
   8 H :    0.018240
   9 H :    0.023934
  10 H :   -0.027408
  11 H :    0.018494
  12 H :    0.025018
  13 H :   -0.002222
  14 H :    0.010058
  15 H :    0.006284
  16 H :    0.147521
Sum of atomic charges:    0.0000000

LOEWDIN ATOMIC CHARGES
----------------------
   0 C :   -0.056836
   1 C :   -0.065455
   2 C :   -0.044980
   3 C :   -0.041042
   4 C :   -0.044622
   5 C :    0.049059
   6 O :   -0.110065
   7 H :    0.030852
   8 H :    0.032952
   9 H :    0.039351
  10 H :    0.016759
  11 H :    0.026726
  12 H :    0.031328
  13 H :    0.024472
  14 H :    0.025506
  15 H :    0.023727
  16 H :    0.062268

  Mayer bond orders larger than 0.1
B(  0-C ,  1-C ) :   1.1084 B(  0-C ,  7-H ) :   0.9510 B(  0-C ,  8-H ) :   0.9350
B(  0-C ,  9-H ) :   0.9353 B(  1-C ,  2-C ) :   1.8299 B(  1-C ,  5-C ) :   0.9984
B(  2-C ,  3-C ) :   1.0204 B(  2-C , 10-H ) :   0.9825 B(  3-C ,  4-C ) :   1.0931
B(  3-C , 11-H ) :   0.9284 B(  3-C , 12-H ) :   0.9135 B(  4-C ,  5-C ) :   1.0644
B(  4-C , 13-H ) :   0.9245 B(  4-C , 14-H ) :   0.9247 B(  5-C ,  6-O ) :   1.0630
B(  5-C , 15-H ) :   0.8845 B(  6-O , 16-H ) :   0.9796

FINAL SINGLE POINT ENERGY      -309.233985801660

DIPOLE MOMENT
-------------
                                X             Y             Z
Electronic contribution:      0.15071       1.81262      -0.51662
Nuclear contribution   :     -0.02726      -2.27853       0.34303
                        -----------------------------------------
Total Dipole Moment    :      0.12345      -0.46591      -0.17359
                        -----------------------------------------
Magnitude (a.u.)       :      0.51229
Magnitude (Debye)      :      1.30214

                             ****ORCA TERMINATED NORMALLY****
TOTAL RUN TIME: 0 days 0 hours 0 minutes 7 seconds 392 msec
