                         Program Version 3.0.3 - RELEASE   -
|  1> ! RI PBE def2-SVP def2-SVP/J NBO PAL2
|  2> % maxcore 2000
|  3> % output
|  4>     # printlevel mini
|  5>     print[ P_Basis ] 0
|  6>     print[ P_SCFInfo ] 1
|  7>     print[ P_SCFIterInfo ] 1
|  8>     print[ P_OrbEn ] 0
|  9>     print[ P_Cartesian ] 0
| 10> end
| 11> *xyz 0 1
| 12>  C        0.9571060000     0.0119440000    -0.1170420000
| 13>  C        2.4388180000     0.0239280000    -0.0896200000
| 14>  C        3.2835950000     1.0590450000     0.0118630000
| 15>  C        4.6705510000     0.5761670000    -0.0348410000
| 16>  C        4.6786420000    -0.7541640000    -0.1685620000
| 17>  C        3.2584150000    -1.2497110000    -0.1589560000
| 18>  O        2.9014120000    -2.1471620000    -1.1882610000
| 19>  H        0.5497170000     1.0233940000    -0.1509140000
| 20>  H        0.5462170000    -0.4915600000     0.7645250000
| 21>  H        0.5911870000    -0.5433890000    -0.9865500000
| 22>  H        3.0018610000     2.1004240000     0.1122070000
| 23>  H        5.5407750000     1.2166170000     0.0378320000
| 24>  H        5.5368660000    -1.4089920000    -0.2302910000
| 25>  H        3.0945210000    -1.8028610000     0.7781330000
| 26>  H        3.1262150000    -1.7276910000    -2.0242200000
| 27> *
| 28>
| 29>                          ****END OF INPUT****
 Total Charge           Charge          ....    0
 Multiplicity           Mult            ....    1
 Number of Electrons    NEL             ....   52
 Basis Dimension        Dim             ....  138

MULLIKEN ATOMIC CHARGES
-----------------------
   0 C :    0.110290
   1 C :   -0.190709
   2 C :   -0.021652
   3 C :    0.025851
   4 C :   -0.071182
   5 C :    0.206402
   6 O :   -0.265890
   7 H :    0.013729
   8 H :    0.029430
   9 H :    0.021507
  10 H :   -0.028828
  11 H :   -0.015870
  12 H :   -0.009202
  13 H :    0.035483
  14 H :    0.160642
Sum of atomic charges:   -0.0000000

LOEWDIN ATOMIC CHARGES
----------------------
   0 C :   -0.057499
   1 C :   -0.051365
   2 C :   -0.050804
   3 C :   -0.025502
   4 C :   -0.064343
   5 C :    0.051649
   6 O :   -0.099746
   7 H :    0.033048
   8 H :    0.040458
   9 H :    0.035612
  10 H :    0.019503
  11 H :    0.022688
  12 H :    0.021877
  13 H :    0.049327
  14 H :    0.075096

  Mayer bond orders larger than 0.1
B(  0-C ,  1-C ) :   1.1182 B(  0-C ,  7-H ) :   0.9494 B(  0-C ,  8-H ) :   0.9357
B(  0-C ,  9-H ) :   0.9299 B(  1-C ,  2-C ) :   1.7331 B(  1-C ,  5-C ) :   0.9969
B(  2-C ,  3-C ) :   1.0444 B(  2-C , 10-H ) :   0.9995 B(  3-C ,  4-C ) :   1.7277
B(  3-C , 11-H ) :   0.9937 B(  4-C ,  5-C ) :   1.0062 B(  4-C , 12-H ) :   0.9960
B(  5-C ,  6-O ) :   1.0636 B(  5-C , 13-H ) :   0.8633 B(  6-O , 14-H ) :   0.9817

FINAL SINGLE POINT ENERGY      -308.014163655299

DIPOLE MOMENT
-------------
                                X             Y             Z
Electronic contribution:      2.82276      -1.19854      -0.64321
Nuclear contribution   :     -2.81698       1.56417       0.53296
                        -----------------------------------------
Total Dipole Moment    :      0.00577       0.36562      -0.11025
                        -----------------------------------------
Magnitude (a.u.)       :      0.38193
Magnitude (Debye)      :      0.97078

                             ****ORCA TERMINATED NORMALLY****
TOTAL RUN TIME: 0 days 0 hours 0 minutes 6 seconds 856 msec
