                         Program Version 3.0.3 - RELEASE   -
|  1> ! RI PBE def2-SVP def2-SVP/J NBO PAL2
|  2> % maxcore 2000
|  3> % output
|  4>     # printlevel mini
|  5>     print[ P_Basis ] 0
|  6>     print[ P_SCFInfo ] 1
|  7>     print[ P_SCFIterInfo ] 1
|  8>     print[ P_OrbEn ] 0
|  9>     print[ P_Cartesian ] 0
| 10> end
| 11> *xyz 0 1
| 12>  C        0.9497220000     0.1272170000    -0.0139050000
| 13>  C        2.4286010000     0.1559960000    -0.0124210000
| 14>  C        3.2880900000     1.1764230000    -0.0109600000
| 15>  C        4.6902710000     0.6665680000    -0.0099070000
| 16>  C        4.6977350000    -0.6663140000    -0.0107350000
| 17>  C        3.2678260000    -1.1065050000    -0.0122960000
| 18>  O        2.8456400000    -2.2332170000    -0.0134320000
| 19>  H        0.5312330000     1.1342970000    -0.0137290000
| 20>  H        0.5711550000    -0.4100380000     0.8605450000
| 21>  H        0.5728890000    -0.4090110000    -0.8897330000
| 22>  H        3.0370230000     2.2295910000    -0.0105750000
| 23>  H        5.5569200000     1.3151480000    -0.0086840000
| 24>  H        5.5381940000    -1.3434440000    -0.0103690000
| 25> *
| 26>
| 27>                          ****END OF INPUT****
 Total Charge           Charge          ....    0
 Multiplicity           Mult            ....    1
 Number of Electrons    NEL             ....   50
 Basis Dimension        Dim             ....  128

MULLIKEN ATOMIC CHARGES
-----------------------
   0 C :    0.093921
   1 C :   -0.128906
   2 C :   -0.030615
   3 C :    0.034060
   4 C :   -0.017291
   5 C :    0.071802
   6 O :   -0.105644
   7 H :    0.015881
   8 H :    0.042010
   9 H :    0.041980
  10 H :   -0.011944
  11 H :    0.002236
  12 H :   -0.007489
Sum of atomic charges:   -0.0000000

LOEWDIN ATOMIC CHARGES
----------------------
   0 C :   -0.053490
   1 C :   -0.063470
   2 C :   -0.024246
   3 C :    0.013844
   4 C :   -0.071870
   5 C :    0.064308
   6 O :   -0.076907
   7 H :    0.035435
   8 H :    0.046455
   9 H :    0.046450
  10 H :    0.024634
  11 H :    0.028527
  12 H :    0.030331

  Mayer bond orders larger than 0.1
B(  0-C ,  1-C ) :   1.1161 B(  0-C ,  7-H ) :   0.9485 B(  0-C ,  8-H ) :   0.9348
B(  0-C ,  9-H ) :   0.9348 B(  1-C ,  2-C ) :   1.7374 B(  1-C ,  5-C ) :   0.9249
B(  2-C ,  3-C ) :   0.9925 B(  2-C , 10-H ) :   1.0025 B(  3-C ,  4-C ) :   1.7056
B(  3-C , 11-H ) :   0.9916 B(  4-C ,  5-C ) :   0.9679 B(  4-C , 12-H ) :   1.0072
B(  5-C ,  6-O ) :   2.1919

FINAL SINGLE POINT ENERGY      -306.822159061760

DIPOLE MOMENT
-------------
                                X             Y             Z
Electronic contribution:      2.85433      -3.11734       0.00113
Nuclear contribution   :     -2.73107       4.06392      -0.00040
                        -----------------------------------------
Total Dipole Moment    :      0.12326       0.94658       0.00073
                        -----------------------------------------
Magnitude (a.u.)       :      0.95457
Magnitude (Debye)      :      2.42633

                             ****ORCA TERMINATED NORMALLY****
TOTAL RUN TIME: 0 days 0 hours 0 minutes 6 seconds 348 msec
