                         Program Version 3.0.3 - RELEASE   -
|  1> ! RI PBE def2-SVP def2-SVP/J NBO PAL2
|  2> % maxcore 2000
|  3> % output
|  4>     # printlevel mini
|  5>     print[ P_Basis ] 0
|  6>     print[ P_SCFInfo ] 1
|  7>     print[ P_SCFIterInfo ] 1
|  8>     print[ P_OrbEn ] 0
|  9>     print[ P_Cartesian ] 0
| 10> end
| 11> *xyz 0 1
| 12>  C        0.9906270000     0.1317440000     0.0594930000
| 13>  C        2.4692500000     0.0713420000    -0.0441490000
| 14>  C        3.2795020000    -0.9918180000    -0.0652390000
| 15>  C        4.7320390000    -0.6465730000    -0.1805250000
| 16>  C        4.7487000000     0.8798940000    -0.2344610000
| 17>  C        3.2899820000     1.2991680000    -0.1456550000
| 18>  O        2.8727020000     2.4319550000    -0.1539210000
| 19>  H        0.5474130000    -0.8625880000     0.1257230000
| 20>  H        0.5685890000     0.6503580000    -0.8054630000
| 21>  H        0.6932270000     0.7109150000     0.9377530000
| 22>  H        2.9405030000    -2.0213970000    -0.0054070000
| 23>  H        5.1717350000    -1.1042070000    -1.0728910000
| 24>  H        5.2956190000    -1.0438610000     0.6701430000
| 25>  H        5.1775830000     1.2748470000    -1.1579960000
| 26>  H        5.3018390000     1.3354100000     0.5897950000
| 27> *
| 28>
| 29>                          ****END OF INPUT****
 Total Charge           Charge          ....    0
 Multiplicity           Mult            ....    1
 Number of Electrons    NEL             ....   52
 Basis Dimension        Dim             ....  138

MULLIKEN ATOMIC CHARGES
-----------------------
   0 C :    0.093880
   1 C :   -0.109587
   2 C :   -0.102932
   3 C :    0.042733
   4 C :    0.031447
   5 C :   -0.044822
   6 O :   -0.152980
   7 H :    0.011340
   8 H :    0.040877
   9 H :    0.040366
  10 H :   -0.006838
  11 H :    0.035211
  12 H :    0.036385
  13 H :    0.040952
  14 H :    0.043968
Sum of atomic charges:   -0.0000000

LOEWDIN ATOMIC CHARGES
----------------------
   0 C :   -0.053520
   1 C :   -0.074813
   2 C :    0.004635
   3 C :   -0.039962
   4 C :   -0.061703
   5 C :    0.040527
   6 O :   -0.134347
   7 H :    0.031935
   8 H :    0.045700
   9 H :    0.045632
  10 H :    0.022964
  11 H :    0.038992
  12 H :    0.039142
  13 H :    0.047055
  14 H :    0.047761

  Mayer bond orders larger than 0.1
B(  0-C ,  1-C ) :   1.1054 B(  0-C ,  7-H ) :   0.9490 B(  0-C ,  8-H ) :   0.9383
B(  0-C ,  9-H ) :   0.9381 B(  1-C ,  2-C ) :   1.7197 B(  1-C ,  5-C ) :   0.9916
B(  2-C ,  3-C ) :   1.0472 B(  2-C , 10-H ) :   0.9846 B(  3-C ,  4-C ) :   1.1005
B(  3-C , 11-H ) :   0.9097 B(  3-C , 12-H ) :   0.9099 B(  4-C ,  5-C ) :   0.9941
B(  4-C , 13-H ) :   0.9073 B(  4-C , 14-H ) :   0.9067 B(  5-C ,  6-O ) :   2.1937

FINAL SINGLE POINT ENERGY      -308.055847336313

DIPOLE MOMENT
-------------
                                X             Y             Z
Electronic contribution:      0.15211       3.48722      -0.13152
Nuclear contribution   :      0.19636      -4.61806       0.14676
                        -----------------------------------------
Total Dipole Moment    :      0.34847      -1.13084       0.01524
                        -----------------------------------------
Magnitude (a.u.)       :      1.18341
Magnitude (Debye)      :      3.00800

                             ****ORCA TERMINATED NORMALLY****
TOTAL RUN TIME: 0 days 0 hours 0 minutes 7 seconds 86 msec
