                         Program Version 3.0.3 - RELEASE   -
|  1> ! RI PBE def2-SVP def2-SVP/J NBO PAL2
|  2> % maxcore 2000
|  3> % output
|  4>     # printlevel mini
|  5>     print[ P_Basis ] 0
|  6>     print[ P_SCFInfo ] 1
|  7>     print[ P_SCFIterInfo ] 1
|  8>     print[ P_OrbEn ] 0
|  9>     print[ P_Cartesian ] 0
| 10> end
| 11> *xyz 0 1
| 12>  C        0.9000310000    -0.1540250000     0.0331860000
| 13>  C        2.4044100000    -0.0442300000    -0.1014810000
| 14>  C        2.8123280000     0.0693190000    -1.5611330000
| 15>  C        3.1186200000     1.0192010000     0.7737700000
| 16>  C        4.2270870000    -0.0077770000     1.0781660000
| 17>  C        3.2383420000    -1.1039290000     0.6537470000
| 18>  O        3.6829180000    -2.1851890000    -0.1227050000
| 19>  H        0.4029610000     0.7199380000    -0.3985220000
| 20>  H        0.5994160000    -0.2259060000     1.0821320000
| 21>  H        0.5257650000    -1.0401790000    -0.4879410000
| 22>  H        2.3496530000     0.9543570000    -2.0073510000
| 23>  H        2.4909620000    -0.8085610000    -2.1254750000
| 24>  H        3.8942250000     0.1557640000    -1.6786010000
| 25>  H        2.5351370000     1.2698910000     1.6626920000
| 26>  H        3.4148490000     1.9443830000     0.2763790000
| 27>  H        4.6328540000    -0.0464760000     2.0905050000
| 28>  H        5.0505520000     0.0609490000     0.3650740000
| 29>  H        2.6680470000    -1.4591440000     1.5236230000
| 30>  H        4.1490430000    -2.8023860000     0.4462250000
| 31> *
| 32>
| 33>                          ****END OF INPUT****
 Total Charge           Charge          ....    0
 Multiplicity           Mult            ....    1
 Number of Electrons    NEL             ....   56
 Basis Dimension        Dim             ....  158

MULLIKEN ATOMIC CHARGES
-----------------------
   0 C :    0.090814
   1 C :   -0.414932
   2 C :    0.100013
   3 C :    0.091714
   4 C :    0.038695
   5 C :    0.114959
   6 O :   -0.233804
   7 H :    0.014355
   8 H :    0.000077
   9 H :    0.018889
  10 H :    0.008331
  11 H :    0.023566
  12 H :    0.002927
  13 H :   -0.000410
  14 H :    0.001480
  15 H :    0.000983
  16 H :    0.008678
  17 H :   -0.021945
  18 H :    0.155608
Sum of atomic charges:   -0.0000000

LOEWDIN ATOMIC CHARGES
----------------------
   0 C :   -0.054652
   1 C :   -0.066679
   2 C :   -0.045348
   3 C :   -0.020845
   4 C :   -0.053302
   5 C :    0.049211
   6 O :   -0.107968
   7 H :    0.025764
   8 H :    0.018870
   9 H :    0.028417
  10 H :    0.023488
  11 H :    0.028760
  12 H :    0.024013
  13 H :    0.020775
  14 H :    0.017074
  15 H :    0.013526
  16 H :    0.024027
  17 H :    0.003220
  18 H :    0.071650

  Mayer bond orders larger than 0.1
B(  0-C ,  1-C ) :   1.0730 B(  0-C ,  7-H ) :   0.9577 B(  0-C ,  8-H ) :   0.9459
B(  0-C ,  9-H ) :   0.9576 B(  1-C ,  2-C ) :   1.0456 B(  1-C ,  3-C ) :   1.0380
B(  1-C ,  5-C ) :   0.9925 B(  2-C , 10-H ) :   0.9539 B(  2-C , 11-H ) :   0.9529
B(  2-C , 12-H ) :   0.9500 B(  3-C ,  4-C ) :   1.1346 B(  3-C , 13-H ) :   0.9192
B(  3-C , 14-H ) :   0.9203 B(  4-C ,  5-C ) :   1.0797 B(  4-C , 15-H ) :   0.9239
B(  4-C , 16-H ) :   0.8991 B(  5-C ,  6-O ) :   1.1626 B(  5-C , 17-H ) :   0.9107
B(  6-O , 18-H ) :   0.9776

FINAL SINGLE POINT ENERGY      -310.421423830361

DIPOLE MOMENT
-------------
                                X             Y             Z
Electronic contribution:      2.29826      -3.26081       0.81928
Nuclear contribution   :     -2.17385       3.14831      -0.34789
                        -----------------------------------------
Total Dipole Moment    :      0.12441      -0.11250       0.47139
                        -----------------------------------------
Magnitude (a.u.)       :      0.50035
Magnitude (Debye)      :      1.27178

                             ****ORCA TERMINATED NORMALLY****
TOTAL RUN TIME: 0 days 0 hours 0 minutes 8 seconds 581 msec
