                         Program Version 3.0.3 - RELEASE   -
|  1> ! RI PBE def2-SVP def2-SVP/J NBO PAL2
|  2> % maxcore 2000
|  3> % output
|  4>     # printlevel mini
|  5>     print[ P_Basis ] 0
|  6>     print[ P_SCFInfo ] 1
|  7>     print[ P_SCFIterInfo ] 1
|  8>     print[ P_OrbEn ] 0
|  9>     print[ P_Cartesian ] 0
| 10> end
| 11> *xyz 0 1
| 12>  C        1.0656780000    -0.0550540000     0.2650510000
| 13>  C        2.5538400000     0.0422940000    -0.0254940000
| 14>  C        2.8340660000     0.0468490000    -1.5189260000
| 15>  C        3.3211370000     1.1214910000     0.7952170000
| 16>  C        4.1343110000     0.0313000000     1.5324360000
| 17>  C        3.3757170000    -1.0137370000     0.7273080000
| 18>  O        3.3992670000    -2.2070140000     0.6864520000
| 19>  H        0.5372190000     0.7983490000    -0.1694420000
| 20>  H        0.8642000000    -0.0655780000     1.3393420000
| 21>  H        0.6511060000    -0.9702760000    -0.1637960000
| 22>  H        2.3463870000     0.9028030000    -1.9941700000
| 23>  H        2.4536330000    -0.8662510000    -1.9825170000
| 24>  H        3.9050900000     0.1095030000    -1.7282570000
| 25>  H        2.6811810000     1.7187970000     1.4453280000
| 26>  H        3.9239060000     1.7946010000     0.1848660000
| 27>  H        3.9736510000    -0.0466930000     2.6101260000
| 28>  H        5.2112290000     0.0250070000     1.3491760000
| 29> *
| 30>
| 31>                          ****END OF INPUT****
 Total Charge           Charge          ....    0
 Multiplicity           Mult            ....    1
 Number of Electrons    NEL             ....   54
 Basis Dimension        Dim             ....  148

MULLIKEN ATOMIC CHARGES
-----------------------
   0 C :    0.090061
   1 C :   -0.448302
   2 C :    0.090476
   3 C :    0.149244
   4 C :   -0.034753
   5 C :    0.036531
   6 O :   -0.122893
   7 H :    0.024410
   8 H :    0.013955
   9 H :    0.030178
  10 H :    0.023508
  11 H :    0.031288
  12 H :    0.013543
  13 H :    0.001864
  14 H :    0.000633
  15 H :    0.049964
  16 H :    0.050292
Sum of atomic charges:   -0.0000000

LOEWDIN ATOMIC CHARGES
----------------------
   0 C :   -0.040919
   1 C :   -0.095839
   2 C :   -0.040727
   3 C :   -0.025522
   4 C :   -0.070035
   5 C :    0.059783
   6 O :   -0.099160
   7 H :    0.028962
   8 H :    0.025818
   9 H :    0.032654
  10 H :    0.028870
  11 H :    0.032735
  12 H :    0.025768
  13 H :    0.024103
  14 H :    0.023842
  15 H :    0.044777
  16 H :    0.044891

  Mayer bond orders larger than 0.1
B(  0-C ,  1-C ) :   1.0385 B(  0-C ,  7-H ) :   0.9584 B(  0-C ,  8-H ) :   0.9546
B(  0-C ,  9-H ) :   0.9575 B(  1-C ,  2-C ) :   1.0381 B(  1-C ,  3-C ) :   1.0711
B(  1-C ,  4-C ) :  -0.1070 B(  1-C ,  5-C ) :   0.9049 B(  2-C , 10-H ) :   0.9580
B(  2-C , 11-H ) :   0.9581 B(  2-C , 12-H ) :   0.9545 B(  3-C ,  4-C ) :   1.1802
B(  3-C , 13-H ) :   0.8923 B(  3-C , 14-H ) :   0.8922 B(  4-C ,  5-C ) :   1.0403
B(  4-C , 15-H ) :   0.8986 B(  4-C , 16-H ) :   0.8987 B(  5-C ,  6-O ) :   2.2603

FINAL SINGLE POINT ENERGY      -309.233829845861

DIPOLE MOMENT
-------------
                                X             Y             Z
Electronic contribution:      2.59794      -5.06944       2.29297
Nuclear contribution   :     -2.68895       6.01078      -2.33354
                        -----------------------------------------
Total Dipole Moment    :     -0.09101       0.94134      -0.04058
                        -----------------------------------------
Magnitude (a.u.)       :      0.94660
Magnitude (Debye)      :      2.40607

                             ****ORCA TERMINATED NORMALLY****
TOTAL RUN TIME: 0 days 0 hours 0 minutes 8 seconds 124 msec
