                         Program Version 3.0.3 - RELEASE   -
|  1> ! RI PBE def2-SVP def2-SVP/J NBO PAL2
|  2> % maxcore 2000
|  3> % output
|  4>     # printlevel mini
|  5>     print[ P_Basis ] 0
|  6>     print[ P_SCFInfo ] 1
|  7>     print[ P_SCFIterInfo ] 1
|  8>     print[ P_OrbEn ] 0
|  9>     print[ P_Cartesian ] 0
| 10> end
| 11> *xyz 0 1
| 12>  C        0.8832980000    -0.0116710000     0.0385240000
| 13>  C        2.3911100000    -0.0307030000    -0.1363190000
| 14>  C        2.9555650000    -1.2439290000    -0.8285700000
| 15>  C        3.9933990000    -0.9310900000    -1.5994610000
| 16>  C        4.2825710000     0.5420160000    -1.5439880000
| 17>  C        2.9711040000     1.1205520000    -0.9918170000
| 18>  O        2.1042170000     1.5026160000    -2.0397030000
| 19>  H        0.5597520000    -0.8452250000     0.6668820000
| 20>  H        0.3677750000    -0.0906030000    -0.9199990000
| 21>  H        0.5540070000     0.9157300000     0.5124470000
| 22>  H        2.8521350000     0.0364900000     0.8607910000
| 23>  H        2.5714150000    -2.2460000000    -0.6714730000
| 24>  H        4.5889750000    -1.6380520000    -2.1652570000
| 25>  H        4.5351070000     0.9919720000    -2.5078270000
| 26>  H        5.1223590000     0.7442400000    -0.8664580000
| 27>  H        3.1233600000     2.0277340000    -0.4040580000
| 28>  H        1.9805820000     0.7357310000    -2.6090060000
| 29> *
| 30>
| 31>                          ****END OF INPUT****
 Total Charge           Charge          ....    0
 Multiplicity           Mult            ....    1
 Number of Electrons    NEL             ....   54
 Basis Dimension        Dim             ....  148

MULLIKEN ATOMIC CHARGES
-----------------------
   0 C :    0.054023
   1 C :   -0.082024
   2 C :   -0.037575
   3 C :   -0.083695
   4 C :    0.098864
   5 C :    0.076578
   6 O :   -0.258131
   7 H :    0.017373
   8 H :    0.006261
   9 H :    0.022379
  10 H :    0.020552
  11 H :   -0.013784
  12 H :   -0.008666
  13 H :    0.015244
  14 H :    0.022807
  15 H :   -0.003489
  16 H :    0.153283
Sum of atomic charges:    0.0000000

LOEWDIN ATOMIC CHARGES
----------------------
   0 C :   -0.058962
   1 C :   -0.062886
   2 C :   -0.039452
   3 C :   -0.042857
   4 C :   -0.054982
   5 C :    0.061873
   6 O :   -0.103764
   7 H :    0.025950
   8 H :    0.021064
   9 H :    0.030917
  10 H :    0.035630
  11 H :    0.020519
  12 H :    0.021027
  13 H :    0.026757
  14 H :    0.036632
  15 H :    0.017163
  16 H :    0.065371

  Mayer bond orders larger than 0.1
B(  0-C ,  1-C ) :   1.0932 B(  0-C ,  7-H ) :   0.9587 B(  0-C ,  8-H ) :   0.9540
B(  0-C ,  9-H ) :   0.9578 B(  1-C ,  2-C ) :   0.9765 B(  1-C ,  5-C ) :   0.9882
B(  1-C , 10-H ) :   0.8801 B(  2-C ,  3-C ) :   1.8432 B(  2-C , 11-H ) :   0.9911
B(  3-C ,  4-C ) :   1.0156 B(  3-C , 12-H ) :   0.9828 B(  4-C ,  5-C ) :   1.0574
B(  4-C , 13-H ) :   0.9250 B(  4-C , 14-H ) :   0.9004 B(  5-C ,  6-O ) :   1.0835
B(  5-C , 15-H ) :   0.9152 B(  6-O , 16-H ) :   0.9766

FINAL SINGLE POINT ENERGY      -309.228306238491

DIPOLE MOMENT
-------------
                                X             Y             Z
Electronic contribution:      1.42436       0.65035      -1.99376
Nuclear contribution   :     -1.19140      -1.10947       2.09397
                        -----------------------------------------
Total Dipole Moment    :      0.23295      -0.45912       0.10021
                        -----------------------------------------
Magnitude (a.u.)       :      0.52450
Magnitude (Debye)      :      1.33318

                             ****ORCA TERMINATED NORMALLY****
TOTAL RUN TIME: 0 days 0 hours 0 minutes 7 seconds 234 msec
