                         Program Version 3.0.3 - RELEASE   -
|  1> ! RI PBE def2-SVP def2-SVP/J NBO PAL2
|  2> % maxcore 2000
|  3> % output
|  4>     # printlevel mini
|  5>     print[ P_Basis ] 0
|  6>     print[ P_SCFInfo ] 1
|  7>     print[ P_SCFIterInfo ] 1
|  8>     print[ P_OrbEn ] 0
|  9>     print[ P_Cartesian ] 0
| 10> end
| 11> *xyz 0 1
| 12>  C        0.9451860000    -0.0480190000    -0.0272610000
| 13>  C        2.4620280000    -0.1294890000     0.0922960000
| 14>  C        3.1054530000    -1.3284270000    -0.5356100000
| 15>  C        4.0592720000    -1.0090540000    -1.4063520000
| 16>  C        4.2455140000     0.4690160000    -1.5298880000
| 17>  C        3.1637380000     1.0312390000    -0.6168150000
| 18>  O        2.8885430000     2.1916910000    -0.4857270000
| 19>  H        0.4666170000    -0.8497580000     0.5389260000
| 20>  H        0.6318530000    -0.1354200000    -1.0702560000
| 21>  H        0.5902340000     0.9093410000     0.3576090000
| 22>  H        2.7277310000    -0.0597280000     1.1571210000
| 23>  H        2.8086110000    -2.3422560000    -0.2922030000
| 24>  H        4.6473160000    -1.7259540000    -1.9665910000
| 25>  H        4.1211750000     0.8564990000    -2.5464410000
| 26>  H        5.2285480000     0.8149990000    -1.1889970000
| 27> *
| 28>
| 29>                          ****END OF INPUT****
 Total Charge           Charge          ....    0
 Multiplicity           Mult            ....    1
 Number of Electrons    NEL             ....   52
 Basis Dimension        Dim             ....  138

MULLIKEN ATOMIC CHARGES
-----------------------
   0 C :    0.033680
   1 C :   -0.070036
   2 C :   -0.012090
   3 C :   -0.079402
   4 C :    0.102818
   5 C :   -0.055967
   6 O :   -0.138643
   7 H :    0.025062
   8 H :    0.020220
   9 H :    0.036836
  10 H :    0.049522
  11 H :   -0.007979
  12 H :   -0.004159
  13 H :    0.049038
  14 H :    0.051101
Sum of atomic charges:    0.0000000

LOEWDIN ATOMIC CHARGES
----------------------
   0 C :   -0.046026
   1 C :   -0.077695
   2 C :   -0.030276
   3 C :   -0.036384
   4 C :   -0.068078
   5 C :    0.076063
   6 O :   -0.109397
   7 H :    0.028874
   8 H :    0.027838
   9 H :    0.033384
  10 H :    0.051756
  11 H :    0.022888
  12 H :    0.023616
  13 H :    0.050086
  14 H :    0.053351

  Mayer bond orders larger than 0.1
B(  0-C ,  1-C ) :   1.0725 B(  0-C ,  7-H ) :   0.9637 B(  0-C ,  8-H ) :   0.9679
B(  0-C ,  9-H ) :   0.9541 B(  1-C ,  2-C ) :   0.9933 B(  1-C ,  5-C ) :   0.9224
B(  1-C , 10-H ) :   0.8678 B(  2-C ,  3-C ) :   1.8507 B(  2-C , 11-H ) :   0.9884
B(  3-C ,  4-C ) :   1.0236 B(  3-C , 12-H ) :   0.9840 B(  4-C ,  5-C ) :   0.9792
B(  4-C , 13-H ) :   0.9025 B(  4-C , 14-H ) :   0.8925 B(  5-C ,  6-O ) :   2.2364

FINAL SINGLE POINT ENERGY      -308.040754716679

DIPOLE MOMENT
-------------
                                X             Y             Z
Electronic contribution:      2.42243       3.07703      -0.14403
Nuclear contribution   :     -2.23159      -3.93329       0.07555
                        -----------------------------------------
Total Dipole Moment    :      0.19084      -0.85626      -0.06848
                        -----------------------------------------
Magnitude (a.u.)       :      0.87994
Magnitude (Debye)      :      2.23663

                             ****ORCA TERMINATED NORMALLY****
TOTAL RUN TIME: 0 days 0 hours 0 minutes 6 seconds 666 msec
