                         Program Version 3.0.3 - RELEASE   -
|  1> ! RI PBE def2-SVP def2-SVP/J NBO PAL2
|  2> % maxcore 2000
|  3> % output
|  4>     # printlevel mini
|  5>     print[ P_Basis ] 0
|  6>     print[ P_SCFInfo ] 1
|  7>     print[ P_SCFIterInfo ] 1
|  8>     print[ P_OrbEn ] 0
|  9>     print[ P_Cartesian ] 0
| 10> end
| 11> *xyz 0 1
| 12>  C        0.9313840000     0.0259330000     0.1404850000
| 13>  C        2.4469690000    -0.0200460000     0.0209670000
| 14>  C        2.9111120000    -1.2514270000    -0.7837330000
| 15>  C        3.3342800000    -0.6799750000    -2.1015360000
| 16>  C        3.3383740000     0.6491480000    -2.1004670000
| 17>  C        2.9885350000     1.2059660000    -0.7523460000
| 18>  O        4.1072790000     1.8334850000    -0.1399220000
| 19>  H        0.5494980000    -0.8453640000     0.6782820000
| 20>  H        0.4651640000     0.0366830000    -0.8498670000
| 21>  H        0.6039110000     0.9211700000     0.6751830000
| 22>  H        2.8844030000    -0.0085460000     1.0225300000
| 23>  H        2.1027540000    -1.9818440000    -0.8976170000
| 24>  H        3.7380060000    -1.7906710000    -0.3065780000
| 25>  H        3.6101060000    -1.3001420000    -2.9478960000
| 26>  H        3.6218560000     1.2822070000    -2.9333440000
| 27>  H        2.2325490000     1.9956320000    -0.8026910000
| 28>  H        4.8663200000     1.2554900000    -0.2628700000
| 29> *
| 30>
| 31>                          ****END OF INPUT****
 Total Charge           Charge          ....    0
 Multiplicity           Mult            ....    1
 Number of Electrons    NEL             ....   54
 Basis Dimension        Dim             ....  148

MULLIKEN ATOMIC CHARGES
-----------------------
   0 C :    0.024049
   1 C :   -0.121015
   2 C :    0.088075
   3 C :   -0.067968
   4 C :   -0.053698
   5 C :    0.152211
   6 O :   -0.262784
   7 H :    0.020598
   8 H :    0.017638
   9 H :    0.025138
  10 H :   -0.000660
  11 H :    0.018226
  12 H :    0.023089
  13 H :   -0.004099
  14 H :   -0.005526
  15 H :   -0.000188
  16 H :    0.146914
Sum of atomic charges:   -0.0000000

LOEWDIN ATOMIC CHARGES
----------------------
   0 C :   -0.056322
   1 C :   -0.050609
   2 C :   -0.039989
   3 C :   -0.023989
   4 C :   -0.060292
   5 C :    0.049215
   6 O :   -0.111017
   7 H :    0.025350
   8 H :    0.025475
   9 H :    0.026924
  10 H :    0.024307
  11 H :    0.031376
  12 H :    0.032054
  13 H :    0.022059
  14 H :    0.022831
  15 H :    0.019903
  16 H :    0.062723

  Mayer bond orders larger than 0.1
B(  0-C ,  1-C ) :   1.0723 B(  0-C ,  7-H ) :   0.9567 B(  0-C ,  8-H ) :   0.9607
B(  0-C ,  9-H ) :   0.9594 B(  1-C ,  2-C ) :   1.0420 B(  1-C ,  5-C ) :   0.9934
B(  1-C , 10-H ) :   0.9018 B(  2-C ,  3-C ) :   1.0386 B(  2-C , 11-H ) :   0.9214
B(  2-C , 12-H ) :   0.9111 B(  3-C ,  4-C ) :   1.8072 B(  3-C , 13-H ) :   0.9816
B(  4-C ,  5-C ) :   1.0193 B(  4-C , 14-H ) :   0.9891 B(  5-C ,  6-O ) :   1.0571
B(  5-C , 15-H ) :   0.9142 B(  6-O , 16-H ) :   0.9819

FINAL SINGLE POINT ENERGY      -309.226932740783

DIPOLE MOMENT
-------------
                                X             Y             Z
Electronic contribution:      3.85710       2.45833      -1.24984
Nuclear contribution   :     -3.80532      -3.06685       1.04917
                        -----------------------------------------
Total Dipole Moment    :      0.05178      -0.60852      -0.20067
                        -----------------------------------------
Magnitude (a.u.)       :      0.64284
Magnitude (Debye)      :      1.63398

                             ****ORCA TERMINATED NORMALLY****
TOTAL RUN TIME: 0 days 0 hours 0 minutes 7 seconds 432 msec
