                         Program Version 3.0.3 - RELEASE   -
|  1> ! RI PBE def2-SVP def2-SVP/J NBO PAL2
|  2> % maxcore 2000
|  3> % output
|  4>     # printlevel mini
|  5>     print[ P_Basis ] 0
|  6>     print[ P_SCFInfo ] 1
|  7>     print[ P_SCFIterInfo ] 1
|  8>     print[ P_OrbEn ] 0
|  9>     print[ P_Cartesian ] 0
| 10> end
| 11> *xyz 0 1
| 12>  C        1.0119090000     0.0181870000     0.3647820000
| 13>  C        2.4751760000     0.0000700000    -0.0408670000
| 14>  C        2.9266360000    -1.2175320000    -0.8533240000
| 15>  C        3.6187800000    -0.6386730000    -2.0475610000
| 16>  C        3.5760180000     0.6940890000    -2.0844380000
| 17>  C        2.8412910000     1.2024690000    -0.9138530000
| 18>  O        2.5632250000     2.3509860000    -0.6701980000
| 19>  H        0.7858670000    -0.7863320000     1.0680780000
| 20>  H        0.3645110000    -0.1029370000    -0.5081280000
| 21>  H        0.7656990000     0.9714760000     0.8352050000
| 22>  H        3.0928060000     0.0919030000     0.8602130000
| 23>  H        2.0761620000    -1.8331620000    -1.1693370000
| 24>  H        3.5906700000    -1.8851110000    -0.2950860000
| 25>  H        4.0892780000    -1.2648400000    -2.7980860000
| 26>  H        3.9847630000     1.3401980000    -2.8499010000
| 27> *
| 28>
| 29>                          ****END OF INPUT****
 Total Charge           Charge          ....    0
 Multiplicity           Mult            ....    1
 Number of Electrons    NEL             ....   52
 Basis Dimension        Dim             ....  138

MULLIKEN ATOMIC CHARGES
-----------------------
   0 C :    0.021397
   1 C :   -0.156603
   2 C :    0.110002
   3 C :   -0.065043
   4 C :    0.001497
   5 C :    0.040937
   6 O :   -0.152591
   7 H :    0.025722
   8 H :    0.021601
   9 H :    0.038142
  10 H :    0.041110
  11 H :    0.031273
  12 H :    0.034921
  13 H :    0.012113
  14 H :   -0.004480
Sum of atomic charges:    0.0000000

LOEWDIN ATOMIC CHARGES
----------------------
   0 C :   -0.051153
   1 C :   -0.067040
   2 C :   -0.036552
   3 C :    0.025003
   4 C :   -0.061304
   5 C :    0.041451
   6 O :   -0.128192
   7 H :    0.027392
   8 H :    0.027514
   9 H :    0.033486
  10 H :    0.048447
  11 H :    0.041353
  12 H :    0.039873
  13 H :    0.027835
  14 H :    0.031888

  Mayer bond orders larger than 0.1
B(  0-C ,  1-C ) :   1.0919 B(  0-C ,  7-H ) :   0.9629 B(  0-C ,  8-H ) :   0.9612
B(  0-C ,  9-H ) :   0.9533 B(  1-C ,  2-C ) :   1.0429 B(  1-C ,  5-C ) :   0.9465
B(  1-C , 10-H ) :   0.8754 B(  2-C ,  3-C ) :   1.0560 B(  2-C , 11-H ) :   0.9018
B(  2-C , 12-H ) :   0.9077 B(  3-C ,  4-C ) :   1.7132 B(  3-C , 13-H ) :   0.9758
B(  4-C ,  5-C ) :   1.0156 B(  4-C , 14-H ) :   0.9986 B(  5-C ,  6-O ) :   2.1674

FINAL SINGLE POINT ENERGY      -308.048852390196

DIPOLE MOMENT
-------------
                                X             Y             Z
Electronic contribution:      2.74746       4.67873      -2.07524
Nuclear contribution   :     -2.51483      -5.94363       1.89381
                        -----------------------------------------
Total Dipole Moment    :      0.23262      -1.26490      -0.18143
                        -----------------------------------------
Magnitude (a.u.)       :      1.29884
Magnitude (Debye)      :      3.30140

                             ****ORCA TERMINATED NORMALLY****
TOTAL RUN TIME: 0 days 0 hours 0 minutes 7 seconds 169 msec
