                         Program Version 3.0.3 - RELEASE   -
|  1> ! RI PBE def2-SVP def2-SVP/J NBO PAL2
|  2> % maxcore 2000
|  3> % output
|  4>     # printlevel mini
|  5>     print[ P_Basis ] 0
|  6>     print[ P_SCFInfo ] 1
|  7>     print[ P_SCFIterInfo ] 1
|  8>     print[ P_OrbEn ] 0
|  9>     print[ P_Cartesian ] 0
| 10> end
| 11> *xyz 0 1
| 12>  C        0.9560160000    -0.0242580000    -0.1385510000
| 13>  C        2.4632220000     0.0417890000    -0.0846500000
| 14>  C        3.1535920000     1.0746840000     0.8315910000
| 15>  C        4.2402370000     0.0239970000     1.1587240000
| 16>  C        5.4888960000     0.1470130000     0.3085590000
| 17>  C        3.2449610000    -1.0458520000     0.6763750000
| 18>  O        3.8092040000    -2.1218480000    -0.0266830000
| 19>  H        0.5316290000     0.8753150000    -0.5930450000
| 20>  H        0.5320950000    -0.1180650000     0.8661620000
| 21>  H        0.6122810000    -0.8798590000    -0.7282960000
| 22>  H        2.8790400000     0.1132930000    -1.0942890000
| 23>  H        2.5366520000     1.3172970000     1.7007250000
| 24>  H        3.4920950000     2.0054030000     0.3723330000
| 25>  H        4.5198360000    -0.0561060000     2.2122210000
| 26>  H        5.2489040000     0.2514520000    -0.7521120000
| 27>  H        6.1243820000    -0.7343360000     0.4138430000
| 28>  H        6.0659040000     1.0247270000     0.6117240000
| 29>  H        2.6456580000    -1.4062630000     1.5252750000
| 30>  H        3.1200780000    -2.7627830000    -0.2163170000
| 31> *
| 32>
| 33>                          ****END OF INPUT****
 Total Charge           Charge          ....    0
 Multiplicity           Mult            ....    1
 Number of Electrons    NEL             ....   56
 Basis Dimension        Dim             ....  158

MULLIKEN ATOMIC CHARGES
-----------------------
   0 C :    0.069540
   1 C :   -0.174074
   2 C :    0.109221
   3 C :   -0.180496
   4 C :    0.059253
   5 C :    0.128075
   6 O :   -0.232235
   7 H :    0.022140
   8 H :    0.004129
   9 H :    0.010444
  10 H :   -0.000564
  11 H :   -0.003570
  12 H :    0.000508
  13 H :   -0.002531
  14 H :    0.011921
  15 H :    0.028946
  16 H :    0.016005
  17 H :   -0.022191
  18 H :    0.155481
Sum of atomic charges:    0.0000000

LOEWDIN ATOMIC CHARGES
----------------------
   0 C :   -0.066184
   1 C :   -0.057280
   2 C :   -0.023493
   3 C :   -0.042710
   4 C :   -0.057662
   5 C :    0.047395
   6 O :   -0.108210
   7 H :    0.029012
   8 H :    0.021186
   9 H :    0.023799
  10 H :    0.023779
  11 H :    0.020711
  12 H :    0.016757
  13 H :    0.016052
  14 H :    0.024860
  15 H :    0.030769
  16 H :    0.025943
  17 H :    0.003414
  18 H :    0.071860

  Mayer bond orders larger than 0.1
B(  0-C ,  1-C ) :   1.1008 B(  0-C ,  7-H ) :   0.9580 B(  0-C ,  8-H ) :   0.9491
B(  0-C ,  9-H ) :   0.9564 B(  1-C ,  2-C ) :   1.0839 B(  1-C ,  5-C ) :   1.0275
B(  1-C , 10-H ) :   0.8799 B(  2-C ,  3-C ) :   1.0796 B(  2-C , 11-H ) :   0.9122
B(  2-C , 12-H ) :   0.9196 B(  3-C ,  4-C ) :   1.0765 B(  3-C ,  5-C ) :   1.0408
B(  3-C , 13-H ) :   0.9079 B(  4-C , 14-H ) :   0.9563 B(  4-C , 15-H ) :   0.9544
B(  4-C , 16-H ) :   0.9560 B(  5-C ,  6-O ) :   1.1679 B(  5-C , 17-H ) :   0.9091
B(  6-O , 18-H ) :   0.9786

FINAL SINGLE POINT ENERGY      -310.421739490491

DIPOLE MOMENT
-------------
                                X             Y             Z
Electronic contribution:      1.11037      -3.29637       0.15055
Nuclear contribution   :     -1.63235       3.19040      -0.11124
                        -----------------------------------------
Total Dipole Moment    :     -0.52198      -0.10597       0.03931
                        -----------------------------------------
Magnitude (a.u.)       :      0.53407
Magnitude (Debye)      :      1.35751

                             ****ORCA TERMINATED NORMALLY****
TOTAL RUN TIME: 0 days 0 hours 0 minutes 8 seconds 514 msec
