                         Program Version 3.0.3 - RELEASE   -
|  1> ! RI PBE def2-SVP def2-SVP/J NBO PAL2
|  2> % maxcore 2000
|  3> % output
|  4>     # printlevel mini
|  5>     print[ P_Basis ] 0
|  6>     print[ P_SCFInfo ] 1
|  7>     print[ P_SCFIterInfo ] 1
|  8>     print[ P_OrbEn ] 0
|  9>     print[ P_Cartesian ] 0
| 10> end
| 11> *xyz 0 1
| 12>  C        0.9101760000    -0.0110770000     0.3894210000
| 13>  C        2.3598690000     0.0988100000    -0.0390410000
| 14>  C        3.2580850000     1.1593200000     0.6514670000
| 15>  C        4.2063430000     0.0559970000     1.1915800000
| 16>  C        5.6555850000     0.0687250000     0.7475850000
| 17>  C        3.3046880000    -0.9700790000     0.5073960000
| 18>  O        3.3287450000    -2.1621660000     0.4297710000
| 19>  H        0.3328710000     0.8468900000     0.0367180000
| 20>  H        0.8242030000    -0.0492030000     1.4787350000
| 21>  H        0.4563950000    -0.9181880000    -0.0148580000
| 22>  H        2.4259600000     0.1352260000    -1.1320880000
| 23>  H        2.7462200000     1.7306920000     1.4269140000
| 24>  H        3.7400100000     1.8566300000    -0.0350330000
| 25>  H        4.1486990000    -0.0579640000     2.2797130000
| 26>  H        5.7333600000     0.1810190000    -0.3372290000
| 27>  H        6.1519860000    -0.8634430000     1.0248240000
| 28>  H        6.1981930000     0.8963310000     1.2106560000
| 29> *
| 30>
| 31>                          ****END OF INPUT****
 Total Charge           Charge          ....    0
 Multiplicity           Mult            ....    1
 Number of Electrons    NEL             ....   54
 Basis Dimension        Dim             ....  148

MULLIKEN ATOMIC CHARGES
-----------------------
   0 C :    0.050406
   1 C :   -0.246055
   2 C :    0.187935
   3 C :   -0.244379
   4 C :    0.051239
   5 C :    0.064353
   6 O :   -0.122627
   7 H :    0.031679
   8 H :    0.019659
   9 H :    0.037469
  10 H :    0.043148
  11 H :   -0.001870
  12 H :   -0.000940
  13 H :    0.042039
  14 H :    0.018743
  15 H :    0.038060
  16 H :    0.031141
Sum of atomic charges:   -0.0000000

LOEWDIN ATOMIC CHARGES
----------------------
   0 C :   -0.051169
   1 C :   -0.073647
   2 C :   -0.027523
   3 C :   -0.073272
   4 C :   -0.050897
   5 C :    0.058311
   6 O :   -0.099893
   7 H :    0.030832
   8 H :    0.027027
   9 H :    0.035316
  10 H :    0.042451
  11 H :    0.023804
  12 H :    0.023623
  13 H :    0.042105
  14 H :    0.026866
  15 H :    0.035283
  16 H :    0.030783

  Mayer bond orders larger than 0.1
B(  0-C ,  1-C ) :   1.0749 B(  0-C ,  7-H ) :   0.9617 B(  0-C ,  8-H ) :   0.9607
B(  0-C ,  9-H ) :   0.9580 B(  1-C ,  2-C ) :   1.1135 B(  1-C ,  5-C ) :   0.9622
B(  1-C , 10-H ) :   0.8794 B(  2-C ,  3-C ) :   1.1124 B(  2-C , 11-H ) :   0.8862
B(  2-C , 12-H ) :   0.8882 B(  3-C ,  4-C ) :   1.0747 B(  3-C ,  5-C ) :   0.9631
B(  3-C , 13-H ) :   0.8801 B(  4-C , 14-H ) :   0.9604 B(  4-C , 15-H ) :   0.9583
B(  4-C , 16-H ) :   0.9613 B(  5-C ,  6-O ) :   2.2596

FINAL SINGLE POINT ENERGY      -309.233717821344

DIPOLE MOMENT
-------------
                                X             Y             Z
Electronic contribution:      0.10704      -5.03800      -0.31953
Nuclear contribution   :     -0.12634       5.98101       0.38067
                        -----------------------------------------
Total Dipole Moment    :     -0.01930       0.94302       0.06114
                        -----------------------------------------
Magnitude (a.u.)       :      0.94519
Magnitude (Debye)      :      2.40249

                             ****ORCA TERMINATED NORMALLY****
TOTAL RUN TIME: 0 days 0 hours 0 minutes 7 seconds 309 msec
