                         Program Version 3.0.3 - RELEASE   -
|  1> ! RI PBE def2-SVP def2-SVP/J NBO PAL2
|  2> % maxcore 2000
|  3> % output
|  4>     # printlevel mini
|  5>     print[ P_Basis ] 0
|  6>     print[ P_SCFInfo ] 1
|  7>     print[ P_SCFIterInfo ] 1
|  8>     print[ P_OrbEn ] 0
|  9>     print[ P_Cartesian ] 0
| 10> end
| 11> *xyz 0 1
| 12>  C        0.9813060000     0.0487210000     0.4002890000
| 13>  C        2.4054690000     0.0594410000    -0.1500810000
| 14>  C        3.2629990000     1.2127590000     0.3754290000
| 15>  C        3.9358060000     0.6587410000     1.6380830000
| 16>  C        4.2472040000    -0.7885580000     1.2773460000
| 17>  C        3.1396410000    -1.1939450000     0.3216230000
| 18>  O        2.8673070000    -2.3180700000    -0.0038810000
| 19>  H        0.4223400000     0.9108500000     0.0299000000
| 20>  H        0.9744370000     0.0891630000     1.4930460000
| 21>  H        0.4618020000    -0.8609300000     0.0944140000
| 22>  H        2.3569030000     0.0348230000    -1.2422290000
| 23>  H        2.6814190000     2.1165760000     0.5688970000
| 24>  H        4.0302690000     1.4723390000    -0.3606790000
| 25>  H        3.2400190000     0.6922870000     2.4818330000
| 26>  H        4.8184080000     1.2307190000     1.9277740000
| 27>  H        4.3171100000    -1.4851680000     2.1135120000
| 28>  H        5.1890490000    -0.8604370000     0.7191450000
| 29> *
| 30>
| 31>                          ****END OF INPUT****
 Total Charge           Charge          ....    0
 Multiplicity           Mult            ....    1
 Number of Electrons    NEL             ....   54
 Basis Dimension        Dim             ....  148

MULLIKEN ATOMIC CHARGES
-----------------------
   0 C :    0.030227
   1 C :   -0.146686
   2 C :    0.032890
   3 C :   -0.033350
   4 C :    0.042854
   5 C :   -0.038159
   6 O :   -0.145411
   7 H :    0.026947
   8 H :    0.018391
   9 H :    0.038973
  10 H :    0.030458
  11 H :    0.009601
  12 H :    0.016046
  13 H :    0.026295
  14 H :    0.017638
  15 H :    0.033665
  16 H :    0.039621
Sum of atomic charges:   -0.0000000

LOEWDIN ATOMIC CHARGES
----------------------
   0 C :   -0.047242
   1 C :   -0.075789
   2 C :   -0.036430
   3 C :   -0.041887
   4 C :   -0.068821
   5 C :    0.063752
   6 O :   -0.115490
   7 H :    0.029151
   8 H :    0.025642
   9 H :    0.033198
  10 H :    0.040037
  11 H :    0.024463
  12 H :    0.026712
  13 H :    0.025755
  14 H :    0.026632
  15 H :    0.040207
  16 H :    0.050110

  Mayer bond orders larger than 0.1
B(  0-C ,  1-C ) :   1.0744 B(  0-C ,  7-H ) :   0.9595 B(  0-C ,  8-H ) :   0.9611
B(  0-C ,  9-H ) :   0.9554 B(  1-C ,  2-C ) :   1.0517 B(  1-C ,  5-C ) :   0.9246
B(  1-C , 10-H ) :   0.8991 B(  2-C ,  3-C ) :   1.0766 B(  2-C , 11-H ) :   0.9318
B(  2-C , 12-H ) :   0.9299 B(  3-C ,  4-C ) :   1.0798 B(  3-C , 13-H ) :   0.9399
B(  3-C , 14-H ) :   0.9322 B(  4-C ,  5-C ) :   0.9957 B(  4-C , 15-H ) :   0.9208
B(  4-C , 16-H ) :   0.9004 B(  5-C ,  6-O ) :   2.2206

FINAL SINGLE POINT ENERGY      -309.258824251570

DIPOLE MOMENT
-------------
                                X             Y             Z
Electronic contribution:      1.23857      -5.38624      -1.88944
Nuclear contribution   :     -1.03644       6.33109       2.15056
                        -----------------------------------------
Total Dipole Moment    :      0.20213       0.94485       0.26111
                        -----------------------------------------
Magnitude (a.u.)       :      1.00089
Magnitude (Debye)      :      2.54406

                             ****ORCA TERMINATED NORMALLY****
TOTAL RUN TIME: 0 days 0 hours 0 minutes 7 seconds 464 msec
