                         Program Version 3.0.3 - RELEASE   -
|  1> ! RI PBE def2-SVP def2-SVP/J NBO PAL2
|  2> % maxcore 2000
|  3> % output
|  4>     # printlevel mini
|  5>     print[ P_Basis ] 0
|  6>     print[ P_SCFInfo ] 1
|  7>     print[ P_SCFIterInfo ] 1
|  8>     print[ P_OrbEn ] 0
|  9>     print[ P_Cartesian ] 0
| 10> end
| 11> *xyz 0 1
| 12>  C        1.0870250000    -0.1541220000    -0.0243610000
| 13>  C        2.5505290000     0.0502010000    -0.0188140000
| 14>  C        3.3410570000     1.1499840000    -0.0181160000
| 15>  C        4.6905200000     0.6804170000    -0.0114760000
| 16>  C        4.6275680000    -0.6725380000    -0.0085930000
| 17>  C        5.6481030000    -1.7412210000    -0.0019180000
| 18>  O        3.3263100000    -1.0662270000    -0.0130300000
| 19>  H        0.5806050000     0.8110030000    -0.0286700000
| 20>  H        0.7578300000    -0.7106560000     0.8579520000
| 21>  H        0.7650860000    -0.7147280000    -0.9067740000
| 22>  H        3.0025760000     2.1742720000    -0.0218860000
| 23>  H        5.5917390000     1.2733310000    -0.0091460000
| 24>  H        6.6442580000    -1.2989420000     0.0011860000
| 25>  H        5.5602480000    -2.3832640000    -0.8831900000
| 26>  H        5.5529480000    -2.3792110000     0.8815360000
| 27> *
| 28>
| 29>                          ****END OF INPUT****
 Total Charge           Charge          ....    0
 Multiplicity           Mult            ....    1
 Number of Electrons    NEL             ....   52
 Basis Dimension        Dim             ....  138

MULLIKEN ATOMIC CHARGES
-----------------------
   0 C :    0.095790
   1 C :   -0.007439
   2 C :   -0.059993
   3 C :   -0.054067
   4 C :   -0.008981
   5 C :    0.093594
   6 O :   -0.190708
   7 H :    0.019023
   8 H :    0.036699
   9 H :    0.036680
  10 H :   -0.026891
  11 H :   -0.026886
  12 H :    0.018215
  13 H :    0.037550
  14 H :    0.037414
Sum of atomic charges:   -0.0000000

LOEWDIN ATOMIC CHARGES
----------------------
   0 C :   -0.065407
   1 C :    0.001021
   2 C :   -0.091201
   3 C :   -0.090440
   4 C :    0.000330
   5 C :   -0.065451
   6 O :    0.014402
   7 H :    0.041966
   8 H :    0.040358
   9 H :    0.040356
  10 H :    0.025785
  11 H :    0.025931
  12 H :    0.041510
  13 H :    0.040423
  14 H :    0.040417

  Mayer bond orders larger than 0.1
B(  0-C ,  1-C ) :   1.1218 B(  0-C ,  7-H ) :   0.9443 B(  0-C ,  8-H ) :   0.9347
B(  0-C ,  9-H ) :   0.9347 B(  1-C ,  2-C ) :   1.5612 B(  1-C ,  4-C ) :   0.1078
B(  1-C ,  6-O ) :   1.1284 B(  2-C ,  3-C ) :   1.1622 B(  2-C , 10-H ) :   1.0062
B(  3-C ,  4-C ) :   1.5673 B(  3-C , 11-H ) :   1.0044 B(  4-C ,  5-C ) :   1.1154
B(  4-C ,  6-O ) :   1.1296 B(  5-C , 12-H ) :   0.9458 B(  5-C , 13-H ) :   0.9359
B(  5-C , 14-H ) :   0.9357

FINAL SINGLE POINT ENERGY      -308.053773038964

DIPOLE MOMENT
-------------
                                X             Y             Z
Electronic contribution:      0.27080       0.78882      -0.00072
Nuclear contribution   :     -0.28170      -0.80954       0.00071
                        -----------------------------------------
Total Dipole Moment    :     -0.01090      -0.02072      -0.00001
                        -----------------------------------------
Magnitude (a.u.)       :      0.02341
Magnitude (Debye)      :      0.05951

                             ****ORCA TERMINATED NORMALLY****
TOTAL RUN TIME: 0 days 0 hours 0 minutes 7 seconds 138 msec
