                         Program Version 3.0.3 - RELEASE   -
|  1> ! RI PBE def2-SVP def2-SVP/J NBO PAL2
|  2> % maxcore 2000
|  3> % output
|  4>     # printlevel mini
|  5>     print[ P_Basis ] 0
|  6>     print[ P_SCFInfo ] 1
|  7>     print[ P_SCFIterInfo ] 1
|  8>     print[ P_OrbEn ] 0
|  9>     print[ P_Cartesian ] 0
| 10> end
| 11> *xyz 0 1
| 12>  C        0.8944290000     0.1261020000     0.0587600000
| 13>  C        2.4022680000     0.0516410000    -0.1318590000
| 14>  C        2.9067410000    -1.3522920000    -0.4571170000
| 15>  C        2.5847170000    -1.7538320000    -1.8913210000
| 16>  C        3.0799890000    -0.6775420000    -2.8469140000
| 17>  C        2.5368850000     0.6754740000    -2.4281260000
| 18>  O        2.8669700000     0.9903650000    -1.0929670000
| 19>  H        0.5983830000    -0.4716100000     0.9243270000
| 20>  H        0.3396720000    -0.2471950000    -0.8042740000
| 21>  H        0.5922060000     1.1599080000     0.2371350000
| 22>  H        2.8719360000     0.3810770000     0.7999930000
| 23>  H        2.4856830000    -2.0677000000     0.2557990000
| 24>  H        3.9933320000    -1.3641830000    -0.3208580000
| 25>  H        1.5033120000    -1.8828830000    -2.0156620000
| 26>  H        3.0386710000    -2.7209830000    -2.1244330000
| 27>  H        2.7781620000    -0.8916800000    -3.8769130000
| 28>  H        4.1749960000    -0.6416970000    -2.8283290000
| 29>  H        1.4463860000     0.7010620000    -2.5747350000
| 30>  H        2.9643640000     1.4777590000    -3.0335850000
| 31> *
| 32>
| 33>                          ****END OF INPUT****
 Total Charge           Charge          ....    0
 Multiplicity           Mult            ....    1
 Number of Electrons    NEL             ....   56
 Basis Dimension        Dim             ....  158

MULLIKEN ATOMIC CHARGES
-----------------------
   0 C :    0.012648
   1 C :    0.052799
   2 C :    0.017022
   3 C :   -0.016605
   4 C :   -0.035235
   5 C :    0.191500
   6 O :   -0.340619
   7 H :    0.013350
   8 H :    0.020112
   9 H :    0.025826
  10 H :   -0.003118
  11 H :    0.007596
  12 H :    0.012904
  13 H :    0.009364
  14 H :    0.009480
  15 H :    0.007245
  16 H :    0.017512
  17 H :   -0.014677
  18 H :    0.012896
Sum of atomic charges:   -0.0000000

LOEWDIN ATOMIC CHARGES
----------------------
   0 C :   -0.075991
   1 C :    0.045070
   2 C :   -0.052287
   3 C :   -0.044110
   4 C :   -0.059820
   5 C :    0.057050
   6 O :   -0.148625
   7 H :    0.030059
   8 H :    0.021002
   9 H :    0.030551
  10 H :    0.022218
  11 H :    0.026201
  12 H :    0.026616
  13 H :    0.020954
  14 H :    0.025334
  15 H :    0.026650
  16 H :    0.025739
  17 H :    0.001596
  18 H :    0.021792

  Mayer bond orders larger than 0.1
B(  0-C ,  1-C ) :   1.0766 B(  0-C ,  7-H ) :   0.9501 B(  0-C ,  8-H ) :   0.9540
B(  0-C ,  9-H ) :   0.9530 B(  1-C ,  2-C ) :   1.0645 B(  1-C ,  6-O ) :   1.0125
B(  1-C , 10-H ) :   0.9158 B(  2-C ,  3-C ) :   1.0872 B(  2-C , 11-H ) :   0.9249
B(  2-C , 12-H ) :   0.9196 B(  3-C ,  4-C ) :   1.0910 B(  3-C , 13-H ) :   0.9357
B(  3-C , 14-H ) :   0.9320 B(  4-C ,  5-C ) :   1.0952 B(  4-C , 15-H ) :   0.9235
B(  4-C , 16-H ) :   0.9217 B(  5-C ,  6-O ) :   1.0267 B(  5-C , 17-H ) :   0.9201
B(  5-C , 18-H ) :   0.9411

FINAL SINGLE POINT ENERGY      -310.442878371443

DIPOLE MOMENT
-------------
                                X             Y             Z
Electronic contribution:      2.28227       2.78180       0.21902
Nuclear contribution   :     -2.50084      -3.22416      -0.31287
                        -----------------------------------------
Total Dipole Moment    :     -0.21856      -0.44236      -0.09385
                        -----------------------------------------
Magnitude (a.u.)       :      0.50225
Magnitude (Debye)      :      1.27662

                             ****ORCA TERMINATED NORMALLY****
TOTAL RUN TIME: 0 days 0 hours 0 minutes 8 seconds 323 msec
