                         Program Version 3.0.3 - RELEASE   -
|  1> ! RI PBE def2-SVP def2-SVP/J NBO PAL2
|  2> % maxcore 2000
|  3> % output
|  4>     # printlevel mini
|  5>     print[ P_Basis ] 0
|  6>     print[ P_SCFInfo ] 1
|  7>     print[ P_SCFIterInfo ] 1
|  8>     print[ P_OrbEn ] 0
|  9>     print[ P_Cartesian ] 0
| 10> end
| 11> *xyz 0 1
| 12>  C        0.9610540000     0.0333980000     0.0712690000
| 13>  C        2.2770170000    -0.0573370000    -0.0858390000
| 14>  C        3.0575970000    -1.3365100000    -0.0655070000
| 15>  C        4.0803960000    -1.3889270000    -1.1954520000
| 16>  C        4.9078260000    -0.1138090000    -1.1779000000
| 17>  C        3.9913370000     1.0888800000    -1.2322350000
| 18>  O        3.0181230000     1.0855060000    -0.1948160000
| 19>  H        0.3665520000    -0.8548650000     0.2369530000
| 20>  H        0.4687460000     0.9974310000     0.0679780000
| 21>  H        2.3707130000    -2.1833660000    -0.1043710000
| 22>  H        3.5911580000    -1.3907240000     0.8923570000
| 23>  H        3.5610550000    -1.4757970000    -2.1567300000
| 24>  H        4.7156410000    -2.2725310000    -1.0931950000
| 25>  H        5.6002920000    -0.0755130000    -2.0241040000
| 26>  H        5.5086040000    -0.0709230000    -0.2628100000
| 27>  H        3.4742200000     1.1238890000    -2.2019550000
| 28>  H        4.5429690000     2.0220880000    -1.1093630000
| 29> *
| 30>
| 31>                          ****END OF INPUT****
 Total Charge           Charge          ....    0
 Multiplicity           Mult            ....    1
 Number of Electrons    NEL             ....   54
 Basis Dimension        Dim             ....  148

MULLIKEN ATOMIC CHARGES
-----------------------
   0 C :   -0.057444
   1 C :   -0.017296
   2 C :    0.094183
   3 C :   -0.024567
   4 C :   -0.047361
   5 C :    0.213120
   6 O :   -0.288881
   7 H :    0.004678
   8 H :    0.015494
   9 H :    0.006280
  10 H :    0.023560
  11 H :    0.009899
  12 H :    0.014969
  13 H :    0.022278
  14 H :    0.019085
  15 H :   -0.006094
  16 H :    0.018096
Sum of atomic charges:    0.0000000

LOEWDIN ATOMIC CHARGES
----------------------
   0 C :   -0.116538
   1 C :    0.022565
   2 C :   -0.044589
   3 C :   -0.039839
   4 C :   -0.059780
   5 C :    0.073062
   6 O :   -0.096660
   7 H :    0.024365
   8 H :    0.026016
   9 H :    0.033443
  10 H :    0.036469
  11 H :    0.023452
  12 H :    0.026318
  13 H :    0.032236
  14 H :    0.026633
  15 H :    0.009209
  16 H :    0.023638

  Mayer bond orders larger than 0.1
B(  0-C ,  1-C ) :   1.9573 B(  0-C ,  7-H ) :   0.9268 B(  0-C ,  8-H ) :   0.9283
B(  1-C ,  2-C ) :   1.0294 B(  1-C ,  6-O ) :   1.0992 B(  2-C ,  3-C ) :   1.0752
B(  2-C ,  9-H ) :   0.9172 B(  2-C , 10-H ) :   0.9021 B(  3-C ,  4-C ) :   1.0859
B(  3-C , 11-H ) :   0.9352 B(  3-C , 12-H ) :   0.9334 B(  4-C ,  5-C ) :   1.0947
B(  4-C , 13-H ) :   0.9272 B(  4-C , 14-H ) :   0.9273 B(  5-C ,  6-O ) :   0.9783
B(  5-C , 15-H ) :   0.9228 B(  5-C , 16-H ) :   0.9469

FINAL SINGLE POINT ENERGY      -309.228904276716

DIPOLE MOMENT
-------------
                                X             Y             Z
Electronic contribution:     -1.53179       2.74791       1.64790
Nuclear contribution   :      2.04103      -3.12476      -1.99348
                        -----------------------------------------
Total Dipole Moment    :      0.50924      -0.37685      -0.34558
                        -----------------------------------------
Magnitude (a.u.)       :      0.72164
Magnitude (Debye)      :      1.83426

                             ****ORCA TERMINATED NORMALLY****
TOTAL RUN TIME: 0 days 0 hours 0 minutes 7 seconds 426 msec
