                         Program Version 3.0.3 - RELEASE   -
|  1> ! RI PBE def2-SVP def2-SVP/J NBO PAL2
|  2> % maxcore 2000
|  3> % output
|  4>     # printlevel mini
|  5>     print[ P_Basis ] 0
|  6>     print[ P_SCFInfo ] 1
|  7>     print[ P_SCFIterInfo ] 1
|  8>     print[ P_OrbEn ] 0
|  9>     print[ P_Cartesian ] 0
| 10> end
| 11> *xyz 0 1
| 12>  C        0.9098710000     0.1924810000     0.0110220000
| 13>  C        2.2383980000     0.1108250000     0.0124710000
| 14>  C        2.9530520000    -1.2170050000     0.0155040000
| 15>  C        4.4364870000    -1.1289320000     0.0160620000
| 16>  C        5.0692460000     0.0322250000     0.0145430000
| 17>  C        4.3530040000     1.3290620000     0.0121820000
| 18>  O        2.9438980000     1.2686210000     0.0112680000
| 19>  H        0.3141050000    -0.7097150000     0.0119970000
| 20>  H        0.4079040000     1.1505890000     0.0089100000
| 21>  H        2.6204470000    -1.7944420000    -0.8543510000
| 22>  H        2.6196220000    -1.7909540000     0.8873600000
| 23>  H        4.9928230000    -2.0607650000     0.0178330000
| 24>  H        6.1530870000     0.0873430000     0.0150110000
| 25>  H        4.6502490000     1.9155280000    -0.8673170000
| 26>  H        4.6490280000     1.9180410000     0.8904160000
| 27> *
| 28>
| 29>                          ****END OF INPUT****
 Total Charge           Charge          ....    0
 Multiplicity           Mult            ....    1
 Number of Electrons    NEL             ....   52
 Basis Dimension        Dim             ....  138

MULLIKEN ATOMIC CHARGES
-----------------------
   0 C :   -0.071174
   1 C :    0.001652
   2 C :    0.098981
   3 C :   -0.053336
   4 C :   -0.152678
   5 C :    0.264592
   6 O :   -0.266206
   7 H :   -0.000461
   8 H :    0.012743
   9 H :    0.048550
  10 H :    0.048523
  11 H :   -0.004936
  12 H :    0.009600
  13 H :    0.032052
  14 H :    0.032100
Sum of atomic charges:   -0.0000000

LOEWDIN ATOMIC CHARGES
----------------------
   0 C :   -0.143333
   1 C :    0.030855
   2 C :   -0.050840
   3 C :   -0.041823
   4 C :   -0.072176
   5 C :    0.071885
   6 O :   -0.070222
   7 H :    0.023144
   8 H :    0.024648
   9 H :    0.051481
  10 H :    0.051476
  11 H :    0.028576
  12 H :    0.033507
  13 H :    0.031405
  14 H :    0.031415

  Mayer bond orders larger than 0.1
B(  0-C ,  1-C ) :   1.9116 B(  0-C ,  7-H ) :   0.9350 B(  0-C ,  8-H ) :   0.9278
B(  1-C ,  2-C ) :   1.0065 B(  1-C ,  6-O ) :   1.1340 B(  2-C ,  3-C ) :   1.0437
B(  2-C ,  9-H ) :   0.8986 B(  2-C , 10-H ) :   0.8985 B(  3-C ,  4-C ) :   1.8951
B(  3-C , 11-H ) :   0.9642 B(  4-C ,  5-C ) :   1.0399 B(  4-C , 12-H ) :   0.9526
B(  5-C ,  6-O ) :   0.9916 B(  5-C , 13-H ) :   0.9211 B(  5-C , 14-H ) :   0.9211

FINAL SINGLE POINT ENERGY      -308.004883595068

DIPOLE MOMENT
-------------
                                X             Y             Z
Electronic contribution:      0.39211       1.69069      -0.00236
Nuclear contribution   :      0.29628      -2.03253       0.00362
                        -----------------------------------------
Total Dipole Moment    :      0.68839      -0.34184       0.00126
                        -----------------------------------------
Magnitude (a.u.)       :      0.76860
Magnitude (Debye)      :      1.95361

                             ****ORCA TERMINATED NORMALLY****
TOTAL RUN TIME: 0 days 0 hours 0 minutes 6 seconds 815 msec
