                         Program Version 3.0.3 - RELEASE   -
|  1> ! RI PBE def2-SVP def2-SVP/J NBO PAL2
|  2> % maxcore 2000
|  3> % output
|  4>     # printlevel mini
|  5>     print[ P_Basis ] 0
|  6>     print[ P_SCFInfo ] 1
|  7>     print[ P_SCFIterInfo ] 1
|  8>     print[ P_OrbEn ] 0
|  9>     print[ P_Cartesian ] 0
| 10> end
| 11> *xyz 0 1
| 12>  C        1.0222610000    -0.0200820000     0.3018080000
| 13>  C        2.2727050000     0.0455670000    -0.1364420000
| 14>  C        3.0136120000     1.2945870000    -0.4879880000
| 15>  C        4.3951870000     1.3168330000     0.1612410000
| 16>  C        5.0444170000    -0.0113630000    -0.0522920000
| 17>  C        4.3148510000    -1.0904180000    -0.3085590000
| 18>  O        2.9544460000    -1.1288550000    -0.3391560000
| 19>  H        0.4469840000     0.8854730000     0.4333280000
| 20>  H        0.5562100000    -0.9723390000     0.5187750000
| 21>  H        2.4128710000     2.1598660000    -0.2070310000
| 22>  H        3.1432420000     1.3195160000    -1.5766490000
| 23>  H        4.3128720000     1.5445840000     1.2307880000
| 24>  H        4.9993850000     2.1153120000    -0.2786370000
| 25>  H        6.1217700000    -0.1135060000    -0.0234870000
| 26>  H        4.7294660000    -2.0713850000    -0.5013990000
| 27> *
| 28>
| 29>                          ****END OF INPUT****
 Total Charge           Charge          ....    0
 Multiplicity           Mult            ....    1
 Number of Electrons    NEL             ....   52
 Basis Dimension        Dim             ....  138

MULLIKEN ATOMIC CHARGES
-----------------------
   0 C :   -0.061977
   1 C :    0.016766
   2 C :    0.044502
   3 C :    0.073311
   4 C :   -0.148169
   5 C :    0.134161
   6 O :   -0.210200
   7 H :    0.012303
   8 H :    0.021524
   9 H :    0.006091
  10 H :    0.045653
  11 H :    0.034971
  12 H :    0.016880
  13 H :    0.007963
  14 H :    0.006220
Sum of atomic charges:   -0.0000000

LOEWDIN ATOMIC CHARGES
----------------------
   0 C :   -0.108993
   1 C :    0.034206
   2 C :   -0.041442
   3 C :   -0.035850
   4 C :   -0.113208
   5 C :    0.030648
   6 O :   -0.027801
   7 H :    0.028409
   8 H :    0.029199
   9 H :    0.035717
  10 H :    0.043117
  11 H :    0.035440
  12 H :    0.034493
  13 H :    0.031911
  14 H :    0.024154

  Mayer bond orders larger than 0.1
B(  0-C ,  1-C ) :   1.9560 B(  0-C ,  7-H ) :   0.9269 B(  0-C ,  8-H ) :   0.9279
B(  1-C ,  2-C ) :   1.0411 B(  1-C ,  6-O ) :   1.0639 B(  2-C ,  3-C ) :   1.0848
B(  2-C ,  9-H ) :   0.9128 B(  2-C , 10-H ) :   0.9107 B(  3-C ,  4-C ) :   1.0492
B(  3-C , 11-H ) :   0.9196 B(  3-C , 12-H ) :   0.9167 B(  4-C ,  5-C ) :   1.8108
B(  4-C , 13-H ) :   0.9567 B(  5-C ,  6-O ) :   1.0967 B(  5-C , 14-H ) :   0.9747

FINAL SINGLE POINT ENERGY      -308.017907883593

DIPOLE MOMENT
-------------
                                X             Y             Z
Electronic contribution:     -0.17011      -3.71464      -0.58993
Nuclear contribution   :      0.45762       4.13651       0.56274
                        -----------------------------------------
Total Dipole Moment    :      0.28751       0.42186      -0.02719
                        -----------------------------------------
Magnitude (a.u.)       :      0.51124
Magnitude (Debye)      :      1.29948

                             ****ORCA TERMINATED NORMALLY****
TOTAL RUN TIME: 0 days 0 hours 0 minutes 7 seconds 118 msec
