                         Program Version 3.0.3 - RELEASE   -
|  1> ! RI PBE def2-SVP def2-SVP/J NBO PAL2
|  2> % maxcore 2000
|  3> % output
|  4>     # printlevel mini
|  5>     print[ P_Basis ] 0
|  6>     print[ P_SCFInfo ] 1
|  7>     print[ P_SCFIterInfo ] 1
|  8>     print[ P_OrbEn ] 0
|  9>     print[ P_Cartesian ] 0
| 10> end
| 11> *xyz 0 1
| 12>  C        1.1722320000    -0.0711270000     0.2565460000
| 13>  C        2.4358690000     0.1325870000    -0.0859650000
| 14>  C        3.1857780000     1.4309260000    -0.2116240000
| 15>  C        4.5938970000     1.0102710000    -0.6378300000
| 16>  C        4.5222190000    -0.4906380000    -0.7150950000
| 17>  C        5.4722030000    -1.3555790000    -1.0391320000
| 18>  O        3.2639620000    -0.9118380000    -0.3878600000
| 19>  H        0.5359850000     0.7705650000     0.4911180000
| 20>  H        0.7585860000    -1.0689320000     0.3074280000
| 21>  H        3.1830190000     1.9655450000     0.7394820000
| 22>  H        2.7058940000     2.0780130000    -0.9474110000
| 23>  H        5.3541750000     1.3185230000     0.0814420000
| 24>  H        4.8761890000     1.4280560000    -1.6054010000
| 25>  H        6.4601290000    -0.9990560000    -1.2944200000
| 26>  H        5.2806630000    -2.4197170000    -1.0543660000
| 27> *
| 28>
| 29>                          ****END OF INPUT****
 Total Charge           Charge          ....    0
 Multiplicity           Mult            ....    1
 Number of Electrons    NEL             ....   52
 Basis Dimension        Dim             ....  138

MULLIKEN ATOMIC CHARGES
-----------------------
   0 C :   -0.089641
   1 C :    0.013302
   2 C :    0.047463
   3 C :    0.063991
   4 C :    0.012473
   5 C :   -0.092694
   6 O :   -0.192636
   7 H :    0.009646
   8 H :    0.021950
   9 H :    0.043860
  10 H :    0.045812
  11 H :    0.043481
  12 H :    0.039433
  13 H :    0.007796
  14 H :    0.025765
Sum of atomic charges:   -0.0000000

LOEWDIN ATOMIC CHARGES
----------------------
   0 C :   -0.131606
   1 C :    0.031298
   2 C :   -0.042899
   3 C :   -0.041015
   4 C :    0.031646
   5 C :   -0.132945
   6 O :   -0.013779
   7 H :    0.029589
   8 H :    0.031231
   9 H :    0.044389
  10 H :    0.044668
  11 H :    0.044379
  12 H :    0.043789
  13 H :    0.029440
  14 H :    0.031815

  Mayer bond orders larger than 0.1
B(  0-C ,  1-C ) :   1.9586 B(  0-C ,  7-H ) :   0.9283 B(  0-C ,  8-H ) :   0.9231
B(  1-C ,  2-C ) :   1.0288 B(  1-C ,  6-O ) :   1.0837 B(  2-C ,  3-C ) :   1.1237
B(  2-C ,  9-H ) :   0.9090 B(  2-C , 10-H ) :   0.9095 B(  3-C ,  4-C ) :   1.0272
B(  3-C , 11-H ) :   0.9089 B(  3-C , 12-H ) :   0.9080 B(  4-C ,  5-C ) :   1.9598
B(  4-C ,  6-O ) :   1.0834 B(  5-C , 13-H ) :   0.9269 B(  5-C , 14-H ) :   0.9239

FINAL SINGLE POINT ENERGY      -308.017960348923

DIPOLE MOMENT
-------------
                                X             Y             Z
Electronic contribution:     -0.69410      -2.34768       0.03992
Nuclear contribution   :      0.92502       3.15166      -0.05449
                        -----------------------------------------
Total Dipole Moment    :      0.23092       0.80398      -0.01457
                        -----------------------------------------
Magnitude (a.u.)       :      0.83661
Magnitude (Debye)      :      2.12650

                             ****ORCA TERMINATED NORMALLY****
TOTAL RUN TIME: 0 days 0 hours 0 minutes 7 seconds 6 msec
