                         Program Version 3.0.3 - RELEASE   -
|  1> ! RI PBE def2-SVP def2-SVP/J NBO PAL2
|  2> % maxcore 2000
|  3> % output
|  4>     # printlevel mini
|  5>     print[ P_Basis ] 0
|  6>     print[ P_SCFInfo ] 1
|  7>     print[ P_SCFIterInfo ] 1
|  8>     print[ P_OrbEn ] 0
|  9>     print[ P_Cartesian ] 0
| 10> end
| 11> *xyz 0 1
| 12>  C        1.0332140000     0.0056720000     0.2276110000
| 13>  C        2.5069990000     0.1323710000     0.0728910000
| 14>  C        3.1654470000     1.2755780000    -0.1328770000
| 15>  C        4.6589330000     1.3553920000    -0.1838380000
| 16>  C        5.2598550000     0.0551700000     0.3315260000
| 17>  C        4.4762100000    -1.1137970000    -0.2243800000
| 18>  O        3.1156670000    -1.0796250000     0.1785490000
| 19>  H        0.5516970000     0.9809600000     0.1673210000
| 20>  H        0.7927320000    -0.4470720000     1.1938010000
| 21>  H        0.6189890000    -0.6462040000    -0.5465130000
| 22>  H        2.5836380000     2.1845630000    -0.2266280000
| 23>  H        5.0098010000     2.1988010000     0.4200570000
| 24>  H        5.0053210000     1.5551100000    -1.2060160000
| 25>  H        5.2081670000     0.0241260000     1.4242380000
| 26>  H        6.3119550000    -0.0412120000     0.0506750000
| 27>  H        4.8633250000    -2.0711970000     0.1274290000
| 28>  H        4.5156500000    -1.1060440000    -1.3220550000
| 29> *
| 30>
| 31>                          ****END OF INPUT****
 Total Charge           Charge          ....    0
 Multiplicity           Mult            ....    1
 Number of Electrons    NEL             ....   54
 Basis Dimension        Dim             ....  148

MULLIKEN ATOMIC CHARGES
-----------------------
   0 C :    0.084940
   1 C :   -0.004361
   2 C :   -0.164119
   3 C :    0.090910
   4 C :   -0.065972
   5 C :    0.183939
   6 O :   -0.283088
   7 H :    0.012454
   8 H :    0.031110
   9 H :    0.032602
  10 H :   -0.022447
  11 H :    0.013701
  12 H :    0.014331
  13 H :    0.035367
  14 H :    0.014791
  15 H :    0.011764
  16 H :    0.014080
Sum of atomic charges:    0.0000000

LOEWDIN ATOMIC CHARGES
----------------------
   0 C :   -0.060824
   1 C :    0.013702
   2 C :   -0.132651
   3 C :   -0.039790
   4 C :   -0.057958
   5 C :    0.071268
   6 O :   -0.085628
   7 H :    0.034560
   8 H :    0.038772
   9 H :    0.037123
  10 H :    0.022834
  11 H :    0.031856
  12 H :    0.027081
  13 H :    0.031842
  14 H :    0.030686
  15 H :    0.021974
  16 H :    0.015151

  Mayer bond orders larger than 0.1
B(  0-C ,  1-C ) :   1.1008 B(  0-C ,  7-H ) :   0.9518 B(  0-C ,  8-H ) :   0.9383
B(  0-C ,  9-H ) :   0.9387 B(  1-C ,  2-C ) :   1.7775 B(  1-C ,  6-O ) :   1.1233
B(  2-C ,  3-C ) :   1.0377 B(  2-C , 10-H ) :   0.9421 B(  3-C ,  4-C ) :   1.1098
B(  3-C , 11-H ) :   0.9187 B(  3-C , 12-H ) :   0.9149 B(  4-C ,  5-C ) :   1.0846
B(  4-C , 13-H ) :   0.9296 B(  4-C , 14-H ) :   0.9232 B(  5-C ,  6-O ) :   0.9791
B(  5-C , 15-H ) :   0.9434 B(  5-C , 16-H ) :   0.9418

FINAL SINGLE POINT ENERGY      -309.238723551858

DIPOLE MOMENT
-------------
                                X             Y             Z
Electronic contribution:     -0.56290      -1.80231       0.22078
Nuclear contribution   :      0.85551       1.88604      -0.30615
                        -----------------------------------------
Total Dipole Moment    :      0.29261       0.08372      -0.08537
                        -----------------------------------------
Magnitude (a.u.)       :      0.31610
Magnitude (Debye)      :      0.80346

                             ****ORCA TERMINATED NORMALLY****
TOTAL RUN TIME: 0 days 0 hours 0 minutes 7 seconds 601 msec
