                         Program Version 3.0.3 - RELEASE   -
|  1> ! RI PBE def2-SVP def2-SVP/J NBO PAL2
|  2> % maxcore 2000
|  3> % output
|  4>     # printlevel mini
|  5>     print[ P_Basis ] 0
|  6>     print[ P_SCFInfo ] 1
|  7>     print[ P_SCFIterInfo ] 1
|  8>     print[ P_OrbEn ] 0
|  9>     print[ P_Cartesian ] 0
| 10> end
| 11> *xyz 0 1
| 12>  C        0.9529030000    -0.0396130000     0.0873470000
| 13>  C        2.4318040000     0.0848500000     0.0782030000
| 14>  C        3.1193430000     1.2342930000     0.0865760000
| 15>  C        4.5677660000     1.1907770000     0.0758650000
| 16>  C        5.2011020000     0.0204650000     0.0577580000
| 17>  C        4.4482310000    -1.2684510000     0.0479560000
| 18>  O        3.0208290000    -1.1303870000     0.0600050000
| 19>  H        0.4835390000     0.9430860000     0.1019880000
| 20>  H        0.6240720000    -0.6059760000     0.9633720000
| 21>  H        0.6114790000    -0.5857760000    -0.7966490000
| 22>  H        2.5860830000     2.1740170000     0.1012230000
| 23>  H        5.1278930000     2.1190740000     0.0827730000
| 24>  H        6.2831940000    -0.0482170000     0.0493560000
| 25>  H        4.7139770000    -1.8826950000     0.9190040000
| 26>  H        4.7011860000    -1.8618480000    -0.8411760000
| 27> *
| 28>
| 29>                          ****END OF INPUT****
 Total Charge           Charge          ....    0
 Multiplicity           Mult            ....    1
 Number of Electrons    NEL             ....   52
 Basis Dimension        Dim             ....  138

MULLIKEN ATOMIC CHARGES
-----------------------
   0 C :    0.075732
   1 C :    0.011034
   2 C :   -0.069273
   3 C :    0.064662
   4 C :   -0.153628
   5 C :    0.255796
   6 O :   -0.288243
   7 H :    0.017560
   8 H :    0.039650
   9 H :    0.039451
  10 H :   -0.027257
  11 H :   -0.017323
  12 H :    0.003997
  13 H :    0.024140
  14 H :    0.023702
Sum of atomic charges:   -0.0000000

LOEWDIN ATOMIC CHARGES
----------------------
   0 C :   -0.059775
   1 C :    0.050967
   2 C :   -0.136484
   3 C :   -0.031512
   4 C :   -0.074572
   5 C :    0.081524
   6 O :   -0.075496
   7 H :    0.036932
   8 H :    0.041814
   9 H :    0.041780
  10 H :    0.026694
  11 H :    0.028822
  12 H :    0.028705
  13 H :    0.020355
  14 H :    0.020245

  Mayer bond orders larger than 0.1
B(  0-C ,  1-C ) :   1.0990 B(  0-C ,  7-H ) :   0.9523 B(  0-C ,  8-H ) :   0.9368
B(  0-C ,  9-H ) :   0.9368 B(  1-C ,  2-C ) :   1.6618 B(  1-C ,  6-O ) :   1.1447
B(  2-C ,  3-C ) :   1.0915 B(  2-C , 10-H ) :   0.9580 B(  3-C ,  4-C ) :   1.8255
B(  3-C , 11-H ) :   0.9708 B(  4-C ,  5-C ) :   1.0490 B(  4-C , 12-H ) :   0.9523
B(  5-C ,  6-O ) :   0.9505 B(  5-C , 13-H ) :   0.9323 B(  5-C , 14-H ) :   0.9323

FINAL SINGLE POINT ENERGY      -308.019876576045

DIPOLE MOMENT
-------------
                                X             Y             Z
Electronic contribution:      1.64605      -0.47854      -0.01667
Nuclear contribution   :     -1.61036       0.46582       0.01658
                        -----------------------------------------
Total Dipole Moment    :      0.03568      -0.01271      -0.00010
                        -----------------------------------------
Magnitude (a.u.)       :      0.03788
Magnitude (Debye)      :      0.09629

                             ****ORCA TERMINATED NORMALLY****
TOTAL RUN TIME: 0 days 0 hours 0 minutes 6 seconds 912 msec
