                         Program Version 3.0.3 - RELEASE   -
|  1> ! RI PBE def2-SVP def2-SVP/J NBO PAL2
|  2> % maxcore 2000
|  3> % output
|  4>     # printlevel mini
|  5>     print[ P_Basis ] 0
|  6>     print[ P_SCFInfo ] 1
|  7>     print[ P_SCFIterInfo ] 1
|  8>     print[ P_OrbEn ] 0
|  9>     print[ P_Cartesian ] 0
| 10> end
| 11> *xyz 0 1
| 12>  C        1.0904970000     0.0416380000     0.0083490000
| 13>  C        2.5562460000    -0.1385780000    -0.0212070000
| 14>  C        3.3124910000    -1.2421750000     0.0938050000
| 15>  C        4.7030260000    -0.8588710000    -0.0055980000
| 16>  C        5.8025170000    -1.6134910000     0.0521770000
| 17>  C        4.6590460000     0.6387960000    -0.1971120000
| 18>  O        3.2702380000     0.9991640000    -0.1935100000
| 19>  H        0.5873630000    -0.9137360000     0.1493320000
| 20>  H        0.7439750000     0.4933710000    -0.9252860000
| 21>  H        0.8067520000     0.7177820000     0.8196060000
| 22>  H        2.9400080000    -2.2447280000     0.2364070000
| 23>  H        5.7383630000    -2.6854320000     0.1926650000
| 24>  H        6.7931440000    -1.1840450000    -0.0387760000
| 25>  H        5.0904140000     0.9560320000    -1.1500030000
| 26>  H        5.1539310000     1.1831630000     0.6112600000
| 27> *
| 28>
| 29>                          ****END OF INPUT****
 Total Charge           Charge          ....    0
 Multiplicity           Mult            ....    1
 Number of Electrons    NEL             ....   52
 Basis Dimension        Dim             ....  138

MULLIKEN ATOMIC CHARGES
-----------------------
   0 C :    0.099755
   1 C :   -0.010942
   2 C :   -0.032122
   3 C :   -0.124509
   4 C :   -0.089890
   5 C :    0.268051
   6 O :   -0.284804
   7 H :    0.023508
   8 H :    0.042088
   9 H :    0.043812
  10 H :   -0.030523
  11 H :    0.008981
  12 H :    0.001855
  13 H :    0.040848
  14 H :    0.043892
Sum of atomic charges:   -0.0000000

LOEWDIN ATOMIC CHARGES
----------------------
   0 C :   -0.061431
   1 C :    0.041535
   2 C :   -0.107612
   3 C :   -0.045313
   4 C :   -0.111855
   5 C :    0.093230
   6 O :   -0.079303
   7 H :    0.041378
   8 H :    0.046164
   9 H :    0.046391
  10 H :    0.028661
  11 H :    0.022398
  12 H :    0.018664
  13 H :    0.033191
  14 H :    0.033902

  Mayer bond orders larger than 0.1
B(  0-C ,  1-C ) :   1.1091 B(  0-C ,  7-H ) :   0.9485 B(  0-C ,  8-H ) :   0.9301
B(  0-C ,  9-H ) :   0.9300 B(  1-C ,  2-C ) :   1.5829 B(  1-C ,  4-C ) :   0.1052
B(  1-C ,  6-O ) :   1.1356 B(  2-C ,  3-C ) :   1.1158 B(  2-C , 10-H ) :   1.0017
B(  3-C ,  4-C ) :   1.8766 B(  3-C ,  5-C ) :   1.0204 B(  4-C , 11-H ) :   0.9331
B(  4-C , 12-H ) :   0.9385 B(  5-C ,  6-O ) :   0.9556 B(  5-C , 13-H ) :   0.9298
B(  5-C , 14-H ) :   0.9289

FINAL SINGLE POINT ENERGY      -308.024217346617

DIPOLE MOMENT
-------------
                                X             Y             Z
Electronic contribution:      0.58566       1.51430      -0.20969
Nuclear contribution   :     -0.89730      -1.41489       0.21467
                        -----------------------------------------
Total Dipole Moment    :     -0.31164       0.09941       0.00498
                        -----------------------------------------
Magnitude (a.u.)       :      0.32715
Magnitude (Debye)      :      0.83154

                             ****ORCA TERMINATED NORMALLY****
TOTAL RUN TIME: 0 days 0 hours 0 minutes 7 seconds 190 msec
