                         Program Version 3.0.3 - RELEASE   -
|  1> ! RI PBE def2-SVP def2-SVP/J NBO PAL2
|  2> % maxcore 2000
|  3> % output
|  4>     # printlevel mini
|  5>     print[ P_Basis ] 0
|  6>     print[ P_SCFInfo ] 1
|  7>     print[ P_SCFIterInfo ] 1
|  8>     print[ P_OrbEn ] 0
|  9>     print[ P_Cartesian ] 0
| 10> end
| 11> *xyz 0 1
| 12>  C        0.9287440000    -0.1313300000    -0.0201840000
| 13>  C        2.3986770000     0.0546450000    -0.1166590000
| 14>  C        3.0438760000     1.2172090000    -0.0935710000
| 15>  C        4.5323040000     1.3393780000    -0.1952240000
| 16>  C        5.1332820000    -0.0242650000    -0.3219110000
| 17>  C        4.3940730000    -1.1235350000    -0.3342770000
| 18>  O        3.0353190000    -1.1549340000    -0.2365220000
| 19>  H        0.4252250000     0.8297550000     0.0747860000
| 20>  H        0.6772420000    -0.7505770000     0.8454110000
| 21>  H        0.5487620000    -0.6446390000    -0.9079340000
| 22>  H        2.4489070000     2.1175220000     0.0045050000
| 23>  H        4.9402910000     1.8610490000     0.6822280000
| 24>  H        4.8131120000     1.9662580000    -1.0535250000
| 25>  H        6.2075470000    -0.1352030000    -0.4074330000
| 26>  H        4.7981500000    -2.1235440000    -0.4244910000
| 27> *
| 28>
| 29>                          ****END OF INPUT****
 Total Charge           Charge          ....    0
 Multiplicity           Mult            ....    1
 Number of Electrons    NEL             ....   52
 Basis Dimension        Dim             ....  138

MULLIKEN ATOMIC CHARGES
-----------------------
   0 C :    0.079588
   1 C :   -0.004096
   2 C :   -0.145844
   3 C :    0.173154
   4 C :   -0.147789
   5 C :    0.134827
   6 O :   -0.224318
   7 H :    0.016396
   8 H :    0.038419
   9 H :    0.038123
  10 H :   -0.016464
  11 H :    0.024760
  12 H :    0.025734
  13 H :    0.005044
  14 H :    0.002468
Sum of atomic charges:   -0.0000000

LOEWDIN ATOMIC CHARGES
----------------------
   0 C :   -0.059393
   1 C :    0.024934
   2 C :   -0.095409
   3 C :   -0.037872
   4 C :   -0.089199
   5 C :    0.033620
   6 O :   -0.037431
   7 H :    0.037026
   8 H :    0.040374
   9 H :    0.040352
  10 H :    0.026821
  11 H :    0.030626
  12 H :    0.030873
  13 H :    0.031553
  14 H :    0.023123

  Mayer bond orders larger than 0.1
B(  0-C ,  1-C ) :   1.1014 B(  0-C ,  7-H ) :   0.9502 B(  0-C ,  8-H ) :   0.9384
B(  0-C ,  9-H ) :   0.9389 B(  1-C ,  2-C ) :   1.8271 B(  1-C ,  6-O ) :   1.0603
B(  2-C ,  3-C ) :   1.0302 B(  2-C , 10-H ) :   0.9384 B(  3-C ,  4-C ) :   1.0434
B(  3-C , 11-H ) :   0.9098 B(  3-C , 12-H ) :   0.9098 B(  4-C ,  5-C ) :   1.8400
B(  4-C , 13-H ) :   0.9521 B(  5-C ,  6-O ) :   1.0815 B(  5-C , 14-H ) :   0.9721

FINAL SINGLE POINT ENERGY      -308.024436371238

DIPOLE MOMENT
-------------
                                X             Y             Z
Electronic contribution:      1.56446      -2.68043      -0.27841
Nuclear contribution   :     -1.58951       2.85838       0.28950
                        -----------------------------------------
Total Dipole Moment    :     -0.02505       0.17795       0.01109
                        -----------------------------------------
Magnitude (a.u.)       :      0.18005
Magnitude (Debye)      :      0.45764

                             ****ORCA TERMINATED NORMALLY****
TOTAL RUN TIME: 0 days 0 hours 0 minutes 6 seconds 567 msec
