                         Program Version 3.0.3 - RELEASE   -
|  1> ! RI PBE def2-SVP def2-SVP/J NBO PAL2
|  2> % maxcore 2000
|  3> % output
|  4>     # printlevel mini
|  5>     print[ P_Basis ] 0
|  6>     print[ P_SCFInfo ] 1
|  7>     print[ P_SCFIterInfo ] 1
|  8>     print[ P_OrbEn ] 0
|  9>     print[ P_Cartesian ] 0
| 10> end
| 11> *xyz 0 1
| 12>  C        1.1300150000     0.1557220000     0.0703240000
| 13>  C        2.5842900000    -0.0772060000    -0.0339000000
| 14>  C        3.3248940000    -1.1756570000     0.0646390000
| 15>  C        4.7621480000    -0.8042030000    -0.1313950000
| 16>  C        4.6567970000     0.6856640000    -0.3518210000
| 17>  C        5.6046870000     1.5823570000    -0.5820630000
| 18>  O        3.3308080000     1.0531070000    -0.2807670000
| 19>  H        0.6083750000    -0.7803610000     0.2653180000
| 20>  H        0.7434310000     0.5912140000    -0.8551030000
| 21>  H        0.9105620000     0.8591210000     0.8781540000
| 22>  H        2.9501390000    -2.1692580000     0.2545080000
| 23>  H        5.2207540000    -1.3031530000    -0.9919190000
| 24>  H        5.3874390000    -1.0354610000     0.7376910000
| 25>  H        6.6393880000     1.2740870000    -0.6341700000
| 26>  H        5.3644730000     2.6277470000    -0.7206880000
| 27> *
| 28>
| 29>                          ****END OF INPUT****
 Total Charge           Charge          ....    0
 Multiplicity           Mult            ....    1
 Number of Electrons    NEL             ....   52
 Basis Dimension        Dim             ....  138

MULLIKEN ATOMIC CHARGES
-----------------------
   0 C :    0.095248
   1 C :    0.031554
   2 C :   -0.179389
   3 C :    0.141032
   4 C :    0.022133
   5 C :   -0.100191
   6 O :   -0.224588
   7 H :    0.021400
   8 H :    0.041022
   9 H :    0.042067
  10 H :   -0.017768
  11 H :    0.047258
  12 H :    0.047832
  13 H :    0.010584
  14 H :    0.021808
Sum of atomic charges:   -0.0000000

LOEWDIN ATOMIC CHARGES
----------------------
   0 C :   -0.061370
   1 C :    0.030667
   2 C :   -0.110309
   3 C :   -0.037541
   4 C :    0.044832
   5 C :   -0.133206
   6 O :   -0.040200
   7 H :    0.041455
   8 H :    0.044814
   9 H :    0.044908
  10 H :    0.025418
  11 H :    0.045554
  12 H :    0.045517
  13 H :    0.029243
  14 H :    0.030220

  Mayer bond orders larger than 0.1
B(  0-C ,  1-C ) :   1.1223 B(  0-C ,  7-H ) :   0.9454 B(  0-C ,  8-H ) :   0.9311
B(  0-C ,  9-H ) :   0.9309 B(  1-C ,  2-C ) :   1.7657 B(  1-C ,  6-O ) :   1.0468
B(  2-C ,  3-C ) :   1.0083 B(  2-C , 10-H ) :   0.9869 B(  3-C ,  4-C ) :   1.0093
B(  3-C , 11-H ) :   0.8953 B(  3-C , 12-H ) :   0.8962 B(  4-C ,  5-C ) :   1.9585
B(  4-C ,  6-O ) :   1.0788 B(  5-C , 13-H ) :   0.9304 B(  5-C , 14-H ) :   0.9223

FINAL SINGLE POINT ENERGY      -308.023058244793

DIPOLE MOMENT
-------------
                                X             Y             Z
Electronic contribution:      0.70488       1.08846      -0.24088
Nuclear contribution   :     -0.94016      -1.59210       0.33704
                        -----------------------------------------
Total Dipole Moment    :     -0.23528      -0.50364       0.09616
                        -----------------------------------------
Magnitude (a.u.)       :      0.56414
Magnitude (Debye)      :      1.43394

                             ****ORCA TERMINATED NORMALLY****
TOTAL RUN TIME: 0 days 0 hours 0 minutes 6 seconds 993 msec
