                         Program Version 3.0.3 - RELEASE   -
|  1> ! RI PBE def2-SVP def2-SVP/J NBO PAL2
|  2> % maxcore 2000
|  3> % output
|  4>     # printlevel mini
|  5>     print[ P_Basis ] 0
|  6>     print[ P_SCFInfo ] 1
|  7>     print[ P_SCFIterInfo ] 1
|  8>     print[ P_OrbEn ] 0
|  9>     print[ P_Cartesian ] 0
| 10> end
| 11> *xyz 0 1
| 12>  C        1.1733160000    -0.1856280000     0.1808250000
| 13>  C        2.6668540000    -0.0099350000    -0.0332350000
| 14>  C        2.9864670000     0.1558710000    -1.5106740000
| 15>  C        3.2514080000     1.1339320000     0.8148630000
| 16>  C        4.5700340000     0.5644390000     1.3196860000
| 17>  C        4.1992800000    -0.8952590000     1.4994660000
| 18>  O        3.3393060000    -1.1975020000     0.4207290000
| 19>  H        0.6280650000     0.7134350000    -0.1191150000
| 20>  H        0.9594320000    -0.3821000000     1.2337920000
| 21>  H        0.7994280000    -1.0265510000    -0.4074450000
| 22>  H        2.4288540000     0.9920950000    -1.9403900000
| 23>  H        2.7199830000    -0.7530710000    -2.0540110000
| 24>  H        4.0536760000     0.3369000000    -1.6581500000
| 25>  H        2.5894340000     1.3504590000     1.6586050000
| 26>  H        3.3650530000     2.0530040000     0.2376500000
| 27>  H        4.9219930000     1.0352550000     2.2392230000
| 28>  H        5.3539490000     0.6639630000     0.5639390000
| 29>  H        3.6850230000    -1.0491440000     2.4605330000
| 30>  H        5.0517360000    -1.5773530000     1.4587090000
| 31> *
| 32>
| 33>                          ****END OF INPUT****
 Total Charge           Charge          ....    0
 Multiplicity           Mult            ....    1
 Number of Electrons    NEL             ....   56
 Basis Dimension        Dim             ....  158

MULLIKEN ATOMIC CHARGES
-----------------------
   0 C :    0.084516
   1 C :   -0.159588
   2 C :    0.095130
   3 C :    0.033030
   4 C :   -0.039724
   5 C :    0.205647
   6 O :   -0.348004
   7 H :    0.013151
   8 H :    0.007445
   9 H :    0.018502
  10 H :    0.007976
  11 H :    0.023361
  12 H :    0.000446
  13 H :    0.004923
  14 H :    0.012823
  15 H :    0.013710
  16 H :    0.022205
  17 H :   -0.008723
  18 H :    0.013171
Sum of atomic charges:   -0.0000000

LOEWDIN ATOMIC CHARGES
----------------------
   0 C :   -0.060987
   1 C :    0.024183
   2 C :   -0.060769
   3 C :   -0.039484
   4 C :   -0.055005
   5 C :    0.064884
   6 O :   -0.155534
   7 H :    0.026576
   8 H :    0.024415
   9 H :    0.028399
  10 H :    0.024869
  11 H :    0.029580
  12 H :    0.022517
  13 H :    0.025506
  14 H :    0.027674
  15 H :    0.027777
  16 H :    0.026409
  17 H :    0.001135
  18 H :    0.017854

  Mayer bond orders larger than 0.1
B(  0-C ,  1-C ) :   1.0703 B(  0-C ,  7-H ) :   0.9511 B(  0-C ,  8-H ) :   0.9450
B(  0-C ,  9-H ) :   0.9527 B(  1-C ,  2-C ) :   1.0581 B(  1-C ,  3-C ) :   1.0380
B(  1-C ,  6-O ) :   0.9750 B(  2-C , 10-H ) :   0.9502 B(  2-C , 11-H ) :   0.9509
B(  2-C , 12-H ) :   0.9463 B(  3-C ,  4-C ) :   1.1047 B(  3-C , 13-H ) :   0.9245
B(  3-C , 14-H ) :   0.9317 B(  4-C ,  5-C ) :   1.0968 B(  4-C , 15-H ) :   0.9302
B(  4-C , 16-H ) :   0.9254 B(  5-C ,  6-O ) :   1.0171 B(  5-C , 17-H ) :   0.9310
B(  5-C , 18-H ) :   0.9409

FINAL SINGLE POINT ENERGY      -310.443372195938

DIPOLE MOMENT
-------------
                                X             Y             Z
Electronic contribution:      1.38493      -2.52785       0.97493
Nuclear contribution   :     -1.29236       3.05037      -0.79173
                        -----------------------------------------
Total Dipole Moment    :      0.09258       0.52252       0.18320
                        -----------------------------------------
Magnitude (a.u.)       :      0.56139
Magnitude (Debye)      :      1.42694

                             ****ORCA TERMINATED NORMALLY****
TOTAL RUN TIME: 0 days 0 hours 0 minutes 8 seconds 298 msec
