                         Program Version 3.0.3 - RELEASE   -
|  1> ! RI PBE def2-SVP def2-SVP/J NBO PAL2
|  2> % maxcore 2000
|  3> % output
|  4>     # printlevel mini
|  5>     print[ P_Basis ] 0
|  6>     print[ P_SCFInfo ] 1
|  7>     print[ P_SCFIterInfo ] 1
|  8>     print[ P_OrbEn ] 0
|  9>     print[ P_Cartesian ] 0
| 10> end
| 11> *xyz 0 1
| 12>  C        0.8089410000    -0.1286220000     0.0093200000
| 13>  C        2.3192750000    -0.1317550000    -0.1115910000
| 14>  C        2.9996450000     0.0340060000     1.2319920000
| 15>  C        2.8464240000    -1.3624980000    -0.8930430000
| 16>  C        3.4707770000    -0.7367260000    -2.1025150000
| 17>  C        3.3267190000     0.5797760000    -2.0182430000
| 18>  O        2.6831500000     1.0285820000    -0.9181420000
| 19>  H        0.4745630000    -0.9744780000     0.6154030000
| 20>  H        0.3503870000    -0.2086720000    -0.9785870000
| 21>  H        0.4616090000     0.7940400000     0.4790390000
| 22>  H        2.7548860000    -0.8053550000     1.8878710000
| 23>  H        2.6774070000     0.9583820000     1.7160170000
| 24>  H        4.0837650000     0.0687700000     1.1051290000
| 25>  H        2.0314990000    -2.0489470000    -1.1480230000
| 26>  H        3.5664670000    -1.9328410000    -0.2958540000
| 27>  H        3.9568380000    -1.2659830000    -2.9076590000
| 28>  H        3.6495700000     1.3529220000    -2.7028930000
| 29> *
| 30>
| 31>                          ****END OF INPUT****
 Total Charge           Charge          ....    0
 Multiplicity           Mult            ....    1
 Number of Electrons    NEL             ....   54
 Basis Dimension        Dim             ....  148

MULLIKEN ATOMIC CHARGES
-----------------------
   0 C :    0.085196
   1 C :   -0.201446
   2 C :    0.079019
   3 C :    0.160183
   4 C :   -0.160931
   5 C :    0.153795
   6 O :   -0.269575
   7 H :    0.019321
   8 H :    0.022219
   9 H :    0.021713
  10 H :    0.020991
  11 H :    0.022715
  12 H :    0.025397
  13 H :    0.011096
  14 H :    0.013152
  15 H :   -0.006376
  16 H :    0.003530
Sum of atomic charges:   -0.0000000

LOEWDIN ATOMIC CHARGES
----------------------
   0 C :   -0.056659
   1 C :    0.042336
   2 C :   -0.058758
   3 C :   -0.031553
   4 C :   -0.122519
   5 C :    0.034735
   6 O :   -0.087771
   7 H :    0.029724
   8 H :    0.030246
   9 H :    0.029523
  10 H :    0.030098
  11 H :    0.029603
  12 H :    0.030958
  13 H :    0.027255
  14 H :    0.027702
  15 H :    0.024195
  16 H :    0.020886

  Mayer bond orders larger than 0.1
B(  0-C ,  1-C ) :   1.0660 B(  0-C ,  7-H ) :   0.9525 B(  0-C ,  8-H ) :   0.9494
B(  0-C ,  9-H ) :   0.9517 B(  1-C ,  2-C ) :   1.0690 B(  1-C ,  3-C ) :   1.0437
B(  1-C ,  6-O ) :   0.9289 B(  2-C , 10-H ) :   0.9514 B(  2-C , 11-H ) :   0.9506
B(  2-C , 12-H ) :   0.9483 B(  3-C ,  4-C ) :   1.0365 B(  3-C , 13-H ) :   0.9119
B(  3-C , 14-H ) :   0.9131 B(  4-C ,  5-C ) :   1.7386 B(  4-C ,  6-O ) :   0.1282
B(  4-C , 15-H ) :   0.9847 B(  5-C ,  6-O ) :   1.1109 B(  5-C , 16-H ) :   0.9879

FINAL SINGLE POINT ENERGY      -309.232168268431

DIPOLE MOMENT
-------------
                                X             Y             Z
Electronic contribution:      1.93939       2.63068      -3.83504
Nuclear contribution   :     -2.00113      -2.97173       3.98276
                        -----------------------------------------
Total Dipole Moment    :     -0.06174      -0.34105       0.14772
                        -----------------------------------------
Magnitude (a.u.)       :      0.37676
Magnitude (Debye)      :      0.95764

                             ****ORCA TERMINATED NORMALLY****
TOTAL RUN TIME: 0 days 0 hours 0 minutes 7 seconds 752 msec
