                         Program Version 3.0.3 - RELEASE   -
|  1> ! RI PBE def2-SVP def2-SVP/J NBO PAL2
|  2> % maxcore 2000
|  3> % output
|  4>     # printlevel mini
|  5>     print[ P_Basis ] 0
|  6>     print[ P_SCFInfo ] 1
|  7>     print[ P_SCFIterInfo ] 1
|  8>     print[ P_OrbEn ] 0
|  9>     print[ P_Cartesian ] 0
| 10> end
| 11> *xyz 0 1
| 12>  C        1.1636760000     0.2134020000    -0.2339230000
| 13>  C        2.5729150000    -0.0401570000     0.2755580000
| 14>  C        3.1615010000    -1.3486300000    -0.2439490000
| 15>  C        3.6545810000    -1.1900650000    -1.6472890000
| 16>  C        3.8705400000     0.0083700000    -2.1737590000
| 17>  C        3.6597150000     1.2601310000    -1.3906170000
| 18>  O        3.4518060000     1.0367230000    -0.0175740000
| 19>  H        0.4776840000    -0.5339370000     0.1716300000
| 20>  H        1.1103520000     0.1576200000    -1.3237160000
| 21>  H        0.8197280000     1.1998610000     0.0838930000
| 22>  H        2.5468950000    -0.0651460000     1.3683700000
| 23>  H        2.4072250000    -2.1411750000    -0.1934260000
| 24>  H        3.9852210000    -1.6678400000     0.4053990000
| 25>  H        3.8336170000    -2.0857470000    -2.2344520000
| 26>  H        4.2055510000     0.1185960000    -3.2008740000
| 27>  H        2.8256340000     1.8363770000    -1.8265700000
| 28>  H        4.5449690000     1.9005350000    -1.4587920000
| 29> *
| 30>
| 31>                          ****END OF INPUT****
 Total Charge           Charge          ....    0
 Multiplicity           Mult            ....    1
 Number of Electrons    NEL             ....   54
 Basis Dimension        Dim             ....  148

MULLIKEN ATOMIC CHARGES
-----------------------
   0 C :    0.013553
   1 C :    0.018403
   2 C :    0.111051
   3 C :   -0.095538
   4 C :   -0.105485
   5 C :    0.251090
   6 O :   -0.331940
   7 H :    0.017413
   8 H :    0.024845
   9 H :    0.026658
  10 H :    0.005872
  11 H :    0.010640
  12 H :    0.029502
  13 H :   -0.005157
  14 H :   -0.004160
  15 H :    0.008291
  16 H :    0.024962
Sum of atomic charges:   -0.0000000

LOEWDIN ATOMIC CHARGES
----------------------
   0 C :   -0.076979
   1 C :    0.047252
   2 C :   -0.053470
   3 C :   -0.044132
   4 C :   -0.064984
   5 C :    0.055318
   6 O :   -0.144811
   7 H :    0.031153
   8 H :    0.027831
   9 H :    0.030469
  10 H :    0.024049
  11 H :    0.032843
  12 H :    0.038442
  13 H :    0.024556
  14 H :    0.027259
  15 H :    0.013406
  16 H :    0.031798

  Mayer bond orders larger than 0.1
B(  0-C ,  1-C ) :   1.0708 B(  0-C ,  7-H ) :   0.9476 B(  0-C ,  8-H ) :   0.9565
B(  0-C ,  9-H ) :   0.9534 B(  1-C ,  2-C ) :   1.0588 B(  1-C ,  6-O ) :   1.0174
B(  1-C , 10-H ) :   0.9160 B(  2-C ,  3-C ) :   1.0399 B(  2-C , 11-H ) :   0.9152
B(  2-C , 12-H ) :   0.8933 B(  3-C ,  4-C ) :   1.9191 B(  3-C , 13-H ) :   0.9652
B(  4-C ,  5-C ) :   1.0208 B(  4-C , 14-H ) :   0.9496 B(  5-C ,  6-O ) :   1.0364
B(  5-C , 15-H ) :   0.9116 B(  5-C , 16-H ) :   0.9247

FINAL SINGLE POINT ENERGY      -309.222761432576

DIPOLE MOMENT
-------------
                                X             Y             Z
Electronic contribution:      3.28800       1.09770       0.40245
Nuclear contribution   :     -3.51038      -1.38931      -0.65640
                        -----------------------------------------
Total Dipole Moment    :     -0.22238      -0.29161      -0.25394
                        -----------------------------------------
Magnitude (a.u.)       :      0.44607
Magnitude (Debye)      :      1.13382

                             ****ORCA TERMINATED NORMALLY****
TOTAL RUN TIME: 0 days 0 hours 0 minutes 7 seconds 745 msec
