                         Program Version 3.0.3 - RELEASE   -
|  1> ! RI PBE def2-SVP def2-SVP/J NBO PAL2
|  2> % maxcore 2000
|  3> % output
|  4>     # printlevel mini
|  5>     print[ P_Basis ] 0
|  6>     print[ P_SCFInfo ] 1
|  7>     print[ P_SCFIterInfo ] 1
|  8>     print[ P_OrbEn ] 0
|  9>     print[ P_Cartesian ] 0
| 10> end
| 11> *xyz 0 1
| 12>  C        0.9573420000    -0.0730870000     0.2658470000
| 13>  C        2.3544190000    -0.0391730000    -0.2973040000
| 14>  C        2.8234350000    -1.3326580000    -0.9841540000
| 15>  C        3.4684230000    -0.7922890000    -2.2253300000
| 16>  C        3.1799380000     0.5026950000    -2.3343310000
| 17>  C        3.5064140000     1.4865510000    -3.3897530000
| 18>  O        2.4397750000     0.9947380000    -1.3016540000
| 19>  H        0.8916200000    -0.8188500000     1.0619830000
| 20>  H        0.2388280000    -0.3363150000    -0.5139120000
| 21>  H        0.6789210000     0.8972640000     0.6811980000
| 22>  H        3.0676880000     0.2403510000     0.4880820000
| 23>  H        1.9780350000    -1.9943180000    -1.2169810000
| 24>  H        3.5045870000    -1.8985750000    -0.3432650000
| 25>  H        4.0197480000    -1.3703320000    -2.9513770000
| 26>  H        4.0808290000     1.0171090000    -4.1874430000
| 27>  H        4.0842100000     2.3173770000    -2.9757640000
| 28>  H        2.5904770000     1.9078130000    -3.8134620000
| 29> *
| 30>
| 31>                          ****END OF INPUT****
 Total Charge           Charge          ....    0
 Multiplicity           Mult            ....    1
 Number of Electrons    NEL             ....   54
 Basis Dimension        Dim             ....  148

MULLIKEN ATOMIC CHARGES
-----------------------
   0 C :    0.016567
   1 C :    0.058826
   2 C :    0.096300
   3 C :   -0.184910
   4 C :    0.020020
   5 C :    0.095272
   6 O :   -0.292901
   7 H :    0.027486
   8 H :    0.022538
   9 H :    0.029138
  10 H :    0.012742
  11 H :    0.012449
  12 H :    0.019692
  13 H :   -0.023284
  14 H :    0.020868
  15 H :    0.036519
  16 H :    0.032679
Sum of atomic charges:    0.0000000

LOEWDIN ATOMIC CHARGES
----------------------
   0 C :   -0.069911
   1 C :    0.071608
   2 C :   -0.042318
   3 C :   -0.129143
   4 C :    0.023955
   5 C :   -0.063381
   6 O :   -0.100409
   7 H :    0.033627
   8 H :    0.028698
   9 H :    0.032010
  10 H :    0.017584
  11 H :    0.024453
  12 H :    0.029577
  13 H :    0.020871
  14 H :    0.039218
  15 H :    0.041360
  16 H :    0.042201

  Mayer bond orders larger than 0.1
B(  0-C ,  1-C ) :   1.1108 B(  0-C ,  7-H ) :   0.9545 B(  0-C ,  8-H ) :   0.9505
B(  0-C ,  9-H ) :   0.9543 B(  1-C ,  2-C ) :   1.0742 B(  1-C ,  6-O ) :   0.9515
B(  1-C , 10-H ) :   0.9175 B(  2-C ,  3-C ) :   1.0169 B(  2-C , 11-H ) :   0.9079
B(  2-C , 12-H ) :   0.9173 B(  3-C ,  4-C ) :   1.7463 B(  3-C ,  6-O ) :   0.1038
B(  3-C , 13-H ) :   0.9848 B(  4-C ,  5-C ) :   1.1166 B(  4-C ,  6-O ) :   1.1024
B(  5-C , 14-H ) :   0.9486 B(  5-C , 15-H ) :   0.9357 B(  5-C , 16-H ) :   0.9279

FINAL SINGLE POINT ENERGY      -309.237356293767

DIPOLE MOMENT
-------------
                                X             Y             Z
Electronic contribution:      1.31050       1.06727      -0.62913
Nuclear contribution   :     -1.27847      -1.25624       0.69335
                        -----------------------------------------
Total Dipole Moment    :      0.03203      -0.18897       0.06422
                        -----------------------------------------
Magnitude (a.u.)       :      0.20214
Magnitude (Debye)      :      0.51380

                             ****ORCA TERMINATED NORMALLY****
TOTAL RUN TIME: 0 days 0 hours 0 minutes 7 seconds 534 msec
