                         Program Version 3.0.3 - RELEASE   -
|  1> ! RI PBE def2-SVP def2-SVP/J NBO PAL2
|  2> % maxcore 2000
|  3> % output
|  4>     # printlevel mini
|  5>     print[ P_Basis ] 0
|  6>     print[ P_SCFInfo ] 1
|  7>     print[ P_SCFIterInfo ] 1
|  8>     print[ P_OrbEn ] 0
|  9>     print[ P_Cartesian ] 0
| 10> end
| 11> *xyz 0 1
| 12>  C        0.9182350000     0.0059900000     0.0945510000
| 13>  C        2.4233890000     0.0240950000     0.1257920000
| 14>  C        3.0637350000     1.2795650000     0.7134970000
| 15>  C        4.3706130000     0.7592490000     1.2427870000
| 16>  C        5.4419410000     1.4570950000     1.5876970000
| 17>  C        4.2343980000    -0.7444220000     1.2794340000
| 18>  O        2.8850610000    -1.0210570000     0.9701570000
| 19>  H        0.5402960000     0.7999500000    -0.5536340000
| 20>  H        0.5174440000     0.1552020000     1.0999160000
| 21>  H        0.5520930000    -0.9497040000    -0.2845930000
| 22>  H        2.8183250000    -0.1369080000    -0.8914330000
| 23>  H        2.4425330000     1.6502520000     1.5372290000
| 24>  H        3.1863140000     2.0871790000    -0.0100340000
| 25>  H        5.4658810000     2.5381550000     1.5096930000
| 26>  H        6.3367910000     0.9726110000     1.9641030000
| 27>  H        4.4603840000    -1.1748740000     2.2577270000
| 28>  H        4.9046480000    -1.2060890000     0.5381430000
| 29> *
| 30>
| 31>                          ****END OF INPUT****
 Total Charge           Charge          ....    0
 Multiplicity           Mult            ....    1
 Number of Electrons    NEL             ....   54
 Basis Dimension        Dim             ....  148

MULLIKEN ATOMIC CHARGES
-----------------------
   0 C :    0.046648
   1 C :    0.014776
   2 C :    0.140256
   3 C :   -0.268401
   4 C :   -0.041877
   5 C :    0.301756
   6 O :   -0.349775
   7 H :    0.020145
   8 H :    0.017882
   9 H :    0.028177
  10 H :   -0.004051
  11 H :    0.022628
  12 H :    0.021551
  13 H :    0.012431
  14 H :    0.006978
  15 H :    0.020774
  16 H :    0.010102
Sum of atomic charges:    0.0000000

LOEWDIN ATOMIC CHARGES
----------------------
   0 C :   -0.064594
   1 C :    0.049740
   2 C :   -0.042541
   3 C :   -0.043488
   4 C :   -0.080204
   5 C :    0.066868
   6 O :   -0.153118
   7 H :    0.032224
   8 H :    0.027821
   9 H :    0.033029
  10 H :    0.006024
  11 H :    0.039648
  12 H :    0.035835
  13 H :    0.024159
  14 H :    0.023159
  15 H :    0.027896
  16 H :    0.017543

  Mayer bond orders larger than 0.1
B(  0-C ,  1-C ) :   1.0971 B(  0-C ,  7-H ) :   0.9538 B(  0-C ,  8-H ) :   0.9506
B(  0-C ,  9-H ) :   0.9527 B(  1-C ,  2-C ) :   1.0546 B(  1-C ,  6-O ) :   0.9962
B(  1-C , 10-H ) :   0.9044 B(  2-C ,  3-C ) :   1.0633 B(  2-C , 11-H ) :   0.8863
B(  2-C , 12-H ) :   0.9141 B(  3-C ,  4-C ) :   2.0203 B(  3-C ,  5-C ) :   1.0069
B(  4-C , 13-H ) :   0.9364 B(  4-C , 14-H ) :   0.9311 B(  5-C ,  6-O ) :   1.0264
B(  5-C , 15-H ) :   0.9320 B(  5-C , 16-H ) :   0.9116

FINAL SINGLE POINT ENERGY      -309.220582066787

DIPOLE MOMENT
-------------
                                X             Y             Z
Electronic contribution:      1.66646      -1.96042       1.05879
Nuclear contribution   :     -1.61488       2.33620      -1.23945
                        -----------------------------------------
Total Dipole Moment    :      0.05158       0.37578      -0.18065
                        -----------------------------------------
Magnitude (a.u.)       :      0.42013
Magnitude (Debye)      :      1.06789

                             ****ORCA TERMINATED NORMALLY****
TOTAL RUN TIME: 0 days 0 hours 0 minutes 6 seconds 774 msec
