                         Program Version 3.0.3 - RELEASE   -
|  1> ! RI PBE def2-SVP def2-SVP/J NBO PAL2
|  2> % maxcore 2000
|  3> % output
|  4>     # printlevel mini
|  5>     print[ P_Basis ] 0
|  6>     print[ P_SCFInfo ] 1
|  7>     print[ P_SCFIterInfo ] 1
|  8>     print[ P_OrbEn ] 0
|  9>     print[ P_Cartesian ] 0
| 10> end
| 11> *xyz 0 1
| 12>  C        0.9252390000     0.0031550000     0.3039970000
| 13>  C        2.3681730000    -0.0398270000    -0.1366220000
| 14>  C        2.7559550000    -1.3032550000    -0.9273040000
| 15>  C        3.2372640000    -0.7432090000    -2.2389550000
| 16>  C        3.7328950000    -1.5788200000    -3.3739630000
| 17>  C        3.1139480000     0.5777750000    -2.1775510000
| 18>  O        2.6217030000     1.0802870000    -1.0162370000
| 19>  H        0.7222790000    -0.8031330000     1.0136010000
| 20>  H        0.2630490000    -0.1188640000    -0.5567200000
| 21>  H        0.6941670000     0.9544580000     0.7867760000
| 22>  H        3.0255010000     0.0963590000     0.7280030000
| 23>  H        1.8969740000    -1.9735310000    -1.0617030000
| 24>  H        3.5317050000    -1.8853920000    -0.4182890000
| 25>  H        3.6996940000    -2.6383440000    -3.1131760000
| 26>  H        4.7684530000    -1.3458740000    -3.6371650000
| 27>  H        3.1293180000    -1.4514970000    -4.2770710000
| 28>  H        3.3473920000     1.3229190000    -2.9273120000
| 29> *
| 30>
| 31>                          ****END OF INPUT****
 Total Charge           Charge          ....    0
 Multiplicity           Mult            ....    1
 Number of Electrons    NEL             ....   54
 Basis Dimension        Dim             ....  148

MULLIKEN ATOMIC CHARGES
-----------------------
   0 C :    0.019954
   1 C :    0.051819
   2 C :    0.107289
   3 C :   -0.259392
   4 C :    0.067740
   5 C :    0.110691
   6 O :   -0.281958
   7 H :    0.024321
   8 H :    0.023759
   9 H :    0.030919
  10 H :    0.013776
  11 H :    0.007469
  12 H :    0.019212
  13 H :    0.013386
  14 H :    0.030468
  15 H :    0.031988
  16 H :   -0.011440
Sum of atomic charges:    0.0000000

LOEWDIN ATOMIC CHARGES
----------------------
   0 C :   -0.069659
   1 C :    0.071709
   2 C :   -0.037131
   3 C :   -0.119223
   4 C :   -0.060862
   5 C :    0.023261
   6 O :   -0.096785
   7 H :    0.031162
   8 H :    0.029951
   9 H :    0.031689
  10 H :    0.019641
  11 H :    0.025501
  12 H :    0.028367
  13 H :    0.032355
  14 H :    0.036181
  15 H :    0.035725
  16 H :    0.018118

  Mayer bond orders larger than 0.1
B(  0-C ,  1-C ) :   1.1003 B(  0-C ,  7-H ) :   0.9544 B(  0-C ,  8-H ) :   0.9504
B(  0-C ,  9-H ) :   0.9559 B(  1-C ,  2-C ) :   1.0721 B(  1-C ,  6-O ) :   0.9627
B(  1-C , 10-H ) :   0.9178 B(  2-C ,  3-C ) :   1.0690 B(  2-C , 11-H ) :   0.9029
B(  2-C , 12-H ) :   0.9074 B(  3-C ,  4-C ) :   1.0917 B(  3-C ,  5-C ) :   1.7456
B(  3-C ,  6-O ) :   0.1289 B(  4-C , 13-H ) :   0.9538 B(  4-C , 14-H ) :   0.9494
B(  4-C , 15-H ) :   0.9518 B(  5-C ,  6-O ) :   1.0984 B(  5-C , 16-H ) :   0.9972

FINAL SINGLE POINT ENERGY      -309.229570359244

DIPOLE MOMENT
-------------
                                X             Y             Z
Electronic contribution:      1.41412       4.24127      -0.01265
Nuclear contribution   :     -1.42196      -4.69324       0.04272
                        -----------------------------------------
Total Dipole Moment    :     -0.00784      -0.45197       0.03006
                        -----------------------------------------
Magnitude (a.u.)       :      0.45304
Magnitude (Debye)      :      1.15153

                             ****ORCA TERMINATED NORMALLY****
TOTAL RUN TIME: 0 days 0 hours 0 minutes 7 seconds 565 msec
