                         Program Version 3.0.3 - RELEASE   -
|  1> ! RI PBE def2-SVP def2-SVP/J NBO PAL2
|  2> % maxcore 2000
|  3> % output
|  4>     # printlevel mini
|  5>     print[ P_Basis ] 0
|  6>     print[ P_SCFInfo ] 1
|  7>     print[ P_SCFIterInfo ] 1
|  8>     print[ P_OrbEn ] 0
|  9>     print[ P_Cartesian ] 0
| 10> end
| 11> *xyz 0 1
| 12>  C        1.1206580000    -0.0267890000     0.2998110000
| 13>  C        2.5670900000     0.1488870000    -0.0736680000
| 14>  C        3.3707970000     1.2648580000     0.5978010000
| 15>  C        4.3380000000     0.1414800000     1.0111490000
| 16>  C        4.5662010000    -0.0418770000     2.4926880000
| 17>  C        5.6353920000     0.1147530000     0.2307920000
| 18>  O        3.4183710000    -0.8586000000     0.5013040000
| 19>  H        0.5166860000     0.7772910000    -0.1303620000
| 20>  H        0.9967370000    -0.0153190000     1.3851940000
| 21>  H        0.7406330000    -0.9785090000    -0.0791980000
| 22>  H        2.6716080000     0.1504500000    -1.1671990000
| 23>  H        2.8536890000     1.7314250000     1.4382920000
| 24>  H        3.7797160000     2.0375780000    -0.0531840000
| 25>  H        5.1871410000     0.7661600000     2.8891930000
| 26>  H        5.0753840000    -0.9901680000     2.6833720000
| 27>  H        3.6168120000    -0.0490290000     3.0309850000
| 28>  H        6.2979230000     0.9226510000     0.5533310000
| 29>  H        5.4471780000     0.2288140000    -0.8388990000
| 30>  H        6.1497730000    -0.8365550000     0.3871990000
| 31> *
| 32>
| 33>                          ****END OF INPUT****
 Total Charge           Charge          ....    0
 Multiplicity           Mult            ....    1
 Number of Electrons    NEL             ....   56
 Basis Dimension        Dim             ....  158

MULLIKEN ATOMIC CHARGES
-----------------------
   0 C :    0.060156
   1 C :    0.026858
   2 C :    0.093299
   3 C :   -0.195653
   4 C :    0.100692
   5 C :    0.091546
   6 O :   -0.334890
   7 H :    0.019764
   8 H :    0.010237
   9 H :    0.028095
  10 H :    0.005937
  11 H :   -0.011438
  12 H :    0.007910
  13 H :    0.016493
  14 H :    0.020232
  15 H :    0.009218
  16 H :    0.017085
  17 H :    0.011170
  18 H :    0.023289
Sum of atomic charges:    0.0000000

LOEWDIN ATOMIC CHARGES
----------------------
   0 C :   -0.073099
   1 C :    0.063436
   2 C :   -0.038059
   3 C :    0.034585
   4 C :   -0.062469
   5 C :   -0.063368
   6 O :   -0.177170
   7 H :    0.032005
   8 H :    0.025050
   9 H :    0.033427
  10 H :    0.008402
  11 H :    0.022450
  12 H :    0.021522
  13 H :    0.030186
  14 H :    0.031210
  15 H :    0.024977
  16 H :    0.028916
  17 H :    0.027348
  18 H :    0.030651

  Mayer bond orders larger than 0.1
B(  0-C ,  1-C ) :   1.1031 B(  0-C ,  7-H ) :   0.9476 B(  0-C ,  8-H ) :   0.9463
B(  0-C ,  9-H ) :   0.9509 B(  1-C ,  2-C ) :   1.0781 B(  1-C ,  6-O ) :   1.0265
B(  1-C , 10-H ) :   0.9139 B(  2-C ,  3-C ) :   1.0635 B(  2-C , 11-H ) :   0.9121
B(  2-C , 12-H ) :   0.9330 B(  3-C ,  4-C ) :   1.0706 B(  3-C ,  5-C ) :   1.0586
B(  3-C ,  6-O ) :   1.0093 B(  4-C , 13-H ) :   0.9500 B(  4-C , 14-H ) :   0.9490
B(  4-C , 15-H ) :   0.9422 B(  5-C , 16-H ) :   0.9482 B(  5-C , 17-H ) :   0.9440
B(  5-C , 18-H ) :   0.9489

FINAL SINGLE POINT ENERGY      -310.425725929771

DIPOLE MOMENT
-------------
                                X             Y             Z
Electronic contribution:     -0.41510      -1.86565      -1.24826
Nuclear contribution   :      0.43680       2.45710       1.27111
                        -----------------------------------------
Total Dipole Moment    :      0.02170       0.59145       0.02284
                        -----------------------------------------
Magnitude (a.u.)       :      0.59229
Magnitude (Debye)      :      1.50549

                             ****ORCA TERMINATED NORMALLY****
TOTAL RUN TIME: 0 days 0 hours 0 minutes 8 seconds 447 msec
