                         Program Version 3.0.3 - RELEASE   -
|  1> ! RI PBE def2-SVP def2-SVP/J NBO PAL2
|  2> % maxcore 2000
|  3> % output
|  4>     # printlevel mini
|  5>     print[ P_Basis ] 0
|  6>     print[ P_SCFInfo ] 1
|  7>     print[ P_SCFIterInfo ] 1
|  8>     print[ P_OrbEn ] 0
|  9>     print[ P_Cartesian ] 0
| 10> end
| 11> *xyz 0 1
| 12>  C        1.0855150000    -0.0047990000    -0.2806260000
| 13>  C        2.5068750000     0.1009900000     0.2377850000
| 14>  C        3.2357210000     1.3538200000    -0.2277910000
| 15>  C        3.4296130000     1.3442310000    -1.7383870000
| 16>  C        3.8885530000    -0.0119320000    -2.1653550000
| 17>  C        3.7876860000    -1.0676480000    -1.3604450000
| 18>  O        3.2368920000    -1.0767880000    -0.1268360000
| 19>  H        0.4993280000     0.8594250000     0.0417660000
| 20>  H        0.6091970000    -0.9080120000     0.1041270000
| 21>  H        1.0663370000    -0.0479770000    -1.3713150000
| 22>  H        2.4934540000     0.0759820000     1.3306360000
| 23>  H        4.2131660000     1.3812960000     0.2628050000
| 24>  H        2.6823770000     2.2372450000     0.1012170000
| 25>  H        4.1669520000     2.1014300000    -2.0231860000
| 26>  H        2.5018970000     1.6265710000    -2.2524410000
| 27>  H        4.3437480000    -0.1533000000    -3.1378490000
| 28>  H        4.1597980000    -2.0497250000    -1.6301130000
| 29> *
| 30>
| 31>                          ****END OF INPUT****
 Total Charge           Charge          ....    0
 Multiplicity           Mult            ....    1
 Number of Electrons    NEL             ....   54
 Basis Dimension        Dim             ....  148

MULLIKEN ATOMIC CHARGES
-----------------------
   0 C :    0.022006
   1 C :    0.018755
   2 C :    0.009319
   3 C :    0.064164
   4 C :   -0.143087
   5 C :    0.125802
   6 O :   -0.262122
   7 H :    0.020486
   8 H :    0.030384
   9 H :    0.035474
  10 H :    0.016348
  11 H :    0.023080
  12 H :    0.009634
  13 H :    0.017810
  14 H :    0.021209
  15 H :   -0.007289
  16 H :   -0.001973
Sum of atomic charges:   -0.0000000

LOEWDIN ATOMIC CHARGES
----------------------
   0 C :   -0.070970
   1 C :    0.054346
   2 C :   -0.045729
   3 C :   -0.042036
   4 C :   -0.129983
   5 C :    0.022940
   6 O :   -0.077768
   7 H :    0.031416
   8 H :    0.032427
   9 H :    0.032741
  10 H :    0.025450
  11 H :    0.031316
  12 H :    0.028734
  13 H :    0.033913
  14 H :    0.026312
  15 H :    0.026581
  16 H :    0.020310

  Mayer bond orders larger than 0.1
B(  0-C ,  1-C ) :   1.0795 B(  0-C ,  7-H ) :   0.9546 B(  0-C ,  8-H ) :   0.9525
B(  0-C ,  9-H ) :   0.9518 B(  1-C ,  2-C ) :   1.0643 B(  1-C ,  6-O ) :   0.9549
B(  1-C , 10-H ) :   0.9225 B(  2-C ,  3-C ) :   1.0960 B(  2-C , 11-H ) :   0.9228
B(  2-C , 12-H ) :   0.9247 B(  3-C ,  4-C ) :   1.0491 B(  3-C , 13-H ) :   0.9183
B(  3-C , 14-H ) :   0.9149 B(  4-C ,  5-C ) :   1.7894 B(  4-C ,  6-O ) :   0.1068
B(  4-C , 15-H ) :   0.9532 B(  5-C ,  6-O ) :   1.1380 B(  5-C , 16-H ) :   0.9689

FINAL SINGLE POINT ENERGY      -309.234292548957

DIPOLE MOMENT
-------------
                                X             Y             Z
Electronic contribution:      2.80501      -3.55465       0.67172
Nuclear contribution   :     -3.03041       3.97350      -0.65958
                        -----------------------------------------
Total Dipole Moment    :     -0.22540       0.41885       0.01214
                        -----------------------------------------
Magnitude (a.u.)       :      0.47581
Magnitude (Debye)      :      1.20941

                             ****ORCA TERMINATED NORMALLY****
TOTAL RUN TIME: 0 days 0 hours 0 minutes 8 seconds 83 msec
