                         Program Version 3.0.3 - RELEASE   -
|  1> ! RI PBE def2-SVP def2-SVP/J NBO PAL2
|  2> % maxcore 2000
|  3> % output
|  4>     # printlevel mini
|  5>     print[ P_Basis ] 0
|  6>     print[ P_SCFInfo ] 1
|  7>     print[ P_SCFIterInfo ] 1
|  8>     print[ P_OrbEn ] 0
|  9>     print[ P_Cartesian ] 0
| 10> end
| 11> *xyz 0 1
| 12>  C        1.1379260000    -0.0604120000     0.0878050000
| 13>  C        2.6366920000     0.0818240000     0.1288260000
| 14>  C        3.1732910000     1.2554870000     0.9350120000
| 15>  C        4.5504080000     0.7482250000     1.3422500000
| 16>  C        4.3225210000    -0.7340720000     1.4566450000
| 17>  C        5.0482550000    -1.6325010000     2.1119060000
| 18>  O        3.2009070000    -1.0721760000     0.7652930000
| 19>  H        0.6920970000     0.8012480000    -0.4147160000
| 20>  H        0.7330670000    -0.1224760000     1.1004120000
| 21>  H        0.8484700000    -0.9610550000    -0.4563210000
| 22>  H        3.0331670000     0.1248040000    -0.8959780000
| 23>  H        2.5437540000     1.4120110000     1.8162190000
| 24>  H        3.1969300000     2.1820210000     0.3601860000
| 25>  H        4.9323900000     1.1804080000     2.2666240000
| 26>  H        5.2826770000     0.9480740000     0.5527010000
| 27>  H        5.9213080000    -1.3189350000     2.6663830000
| 28>  H        4.7840420000    -2.6814850000     2.1036540000
| 29> *
| 30>
| 31>                          ****END OF INPUT****
 Total Charge           Charge          ....    0
 Multiplicity           Mult            ....    1
 Number of Electrons    NEL             ....   54
 Basis Dimension        Dim             ....  148

MULLIKEN ATOMIC CHARGES
-----------------------
   0 C :    0.048127
   1 C :    0.034462
   2 C :   -0.000448
   3 C :    0.056731
   4 C :    0.023918
   5 C :   -0.102990
   6 O :   -0.262602
   7 H :    0.022353
   8 H :    0.021009
   9 H :    0.033876
  10 H :    0.010389
  11 H :    0.019282
  12 H :    0.015716
  13 H :    0.027110
  14 H :    0.036105
  15 H :    0.001038
  16 H :    0.015926
Sum of atomic charges:   -0.0000000

LOEWDIN ATOMIC CHARGES
----------------------
   0 C :   -0.065560
   1 C :    0.057706
   2 C :   -0.044811
   3 C :   -0.043287
   4 C :    0.026395
   5 C :   -0.152815
   6 O :   -0.079866
   7 H :    0.033804
   8 H :    0.029695
   9 H :    0.034655
  10 H :    0.014647
  11 H :    0.029801
  12 H :    0.030222
  13 H :    0.037499
  14 H :    0.040009
  15 H :    0.025187
  16 H :    0.026719

  Mayer bond orders larger than 0.1
B(  0-C ,  1-C ) :   1.1058 B(  0-C ,  7-H ) :   0.9520 B(  0-C ,  8-H ) :   0.9497
B(  0-C ,  9-H ) :   0.9539 B(  1-C ,  2-C ) :   1.0583 B(  1-C ,  6-O ) :   0.9562
B(  1-C , 10-H ) :   0.9206 B(  2-C ,  3-C ) :   1.1022 B(  2-C , 11-H ) :   0.9236
B(  2-C , 12-H ) :   0.9245 B(  3-C ,  4-C ) :   1.0102 B(  3-C , 13-H ) :   0.9262
B(  3-C , 14-H ) :   0.9101 B(  4-C ,  5-C ) :   1.9330 B(  4-C ,  6-O ) :   1.1330
B(  5-C , 15-H ) :   0.9264 B(  5-C , 16-H ) :   0.9281

FINAL SINGLE POINT ENERGY      -309.235370658159

DIPOLE MOMENT
-------------
                                X             Y             Z
Electronic contribution:      1.73592      -2.50381       0.21019
Nuclear contribution   :     -1.94777       3.33601      -0.47397
                        -----------------------------------------
Total Dipole Moment    :     -0.21185       0.83219      -0.26377
                        -----------------------------------------
Magnitude (a.u.)       :      0.89833
Magnitude (Debye)      :      2.28338

                             ****ORCA TERMINATED NORMALLY****
TOTAL RUN TIME: 0 days 0 hours 0 minutes 7 seconds 598 msec
