                         Program Version 3.0.3 - RELEASE   -
|  1> ! RI PBE def2-SVP def2-SVP/J NBO PAL2
|  2> % maxcore 2000
|  3> % output
|  4>     # printlevel mini
|  5>     print[ P_Basis ] 0
|  6>     print[ P_SCFInfo ] 1
|  7>     print[ P_SCFIterInfo ] 1
|  8>     print[ P_OrbEn ] 0
|  9>     print[ P_Cartesian ] 0
| 10> end
| 11> *xyz 0 1
| 12>  C        1.0748470000    -0.0040450000     0.0377560000
| 13>  C        2.5727420000     0.1773840000    -0.0195550000
| 14>  C        3.1250740000     1.2974410000     0.8533320000
| 15>  C        4.5308550000     0.8011220000     1.1482700000
| 16>  C        4.3098870000    -0.6989740000     1.2981580000
| 17>  C        5.4992920000    -1.5623510000     0.9520220000
| 18>  O        3.2200610000    -1.0097770000     0.4328500000
| 19>  H        0.5668270000     0.8855450000    -0.3441230000
| 20>  H        0.7508510000    -0.1767050000     1.0670240000
| 21>  H        0.7669840000    -0.8590490000    -0.5670460000
| 22>  H        2.8722260000     0.3526000000    -1.0644050000
| 23>  H        2.5415960000     1.3705580000     1.7771830000
| 24>  H        3.0946790000     2.2687710000     0.3566820000
| 25>  H        4.9800780000     1.2487460000     2.0364690000
| 26>  H        5.1934020000     0.9959570000     0.2983500000
| 27>  H        3.9982630000    -0.9167530000     2.3313800000
| 28>  H        5.8308530000    -1.3626080000    -0.0699110000
| 29>  H        5.2425550000    -2.6205380000     1.0289790000
| 30>  H        6.3294480000    -1.3614130000     1.6344850000
| 31> *
| 32>
| 33>                          ****END OF INPUT****
 Total Charge           Charge          ....    0
 Multiplicity           Mult            ....    1
 Number of Electrons    NEL             ....   56
 Basis Dimension        Dim             ....  158

MULLIKEN ATOMIC CHARGES
-----------------------
   0 C :    0.054750
   1 C :    0.046201
   2 C :    0.014700
   3 C :    0.008831
   4 C :    0.059738
   5 C :    0.040740
   6 O :   -0.354681
   7 H :    0.012375
   8 H :    0.008771
   9 H :    0.027822
  10 H :   -0.006519
  11 H :    0.005437
  12 H :    0.013862
  13 H :    0.014553
  14 H :    0.007809
  15 H :   -0.010293
  16 H :    0.007916
  17 H :    0.031589
  18 H :    0.016399
Sum of atomic charges:   -0.0000000

LOEWDIN ATOMIC CHARGES
----------------------
   0 C :   -0.068120
   1 C :    0.050574
   2 C :   -0.047330
   3 C :   -0.047714
   4 C :    0.052374
   5 C :   -0.070227
   6 O :   -0.161211
   7 H :    0.028583
   8 H :    0.024387
   9 H :    0.031267
  10 H :    0.007841
  11 H :    0.025392
  12 H :    0.027840
  13 H :    0.028002
  14 H :    0.025693
  15 H :    0.007175
  16 H :    0.024451
  17 H :    0.031711
  18 H :    0.029311

  Mayer bond orders larger than 0.1
B(  0-C ,  1-C ) :   1.0976 B(  0-C ,  7-H ) :   0.9498 B(  0-C ,  8-H ) :   0.9486
B(  0-C ,  9-H ) :   0.9552 B(  1-C ,  2-C ) :   1.0628 B(  1-C ,  6-O ) :   0.9990
B(  1-C , 10-H ) :   0.9167 B(  2-C ,  3-C ) :   1.1202 B(  2-C , 11-H ) :   0.9165
B(  2-C , 12-H ) :   0.9286 B(  3-C ,  4-C ) :   1.0650 B(  3-C , 13-H ) :   0.9292
B(  3-C , 14-H ) :   0.9175 B(  4-C ,  5-C ) :   1.0992 B(  4-C ,  6-O ) :   0.9979
B(  4-C , 15-H ) :   0.9166 B(  5-C , 16-H ) :   0.9468 B(  5-C , 17-H ) :   0.9561
B(  5-C , 18-H ) :   0.9504

FINAL SINGLE POINT ENERGY      -310.446370949809

DIPOLE MOMENT
-------------
                                X             Y             Z
Electronic contribution:     -0.33418      -1.13320      -0.30966
Nuclear contribution   :      0.48595       1.64479       0.45265
                        -----------------------------------------
Total Dipole Moment    :      0.15177       0.51159       0.14299
                        -----------------------------------------
Magnitude (a.u.)       :      0.55245
Magnitude (Debye)      :      1.40422

                             ****ORCA TERMINATED NORMALLY****
TOTAL RUN TIME: 0 days 0 hours 0 minutes 8 seconds 125 msec
