                         Program Version 3.0.3 - RELEASE   -
|  1> ! RI PBE def2-SVP def2-SVP/J NBO PAL2
|  2> % maxcore 2000
|  3> % output
|  4>     # printlevel mini
|  5>     print[ P_Basis ] 0
|  6>     print[ P_SCFInfo ] 1
|  7>     print[ P_SCFIterInfo ] 1
|  8>     print[ P_OrbEn ] 0
|  9>     print[ P_Cartesian ] 0
| 10> end
| 11> *xyz 0 1
| 12>  C        1.0640480000     0.0545880000     0.0942590000
| 13>  C        2.5780440000    -0.0218880000    -0.0491620000
| 14>  C        3.0710770000    -1.4302360000    -0.3917000000
| 15>  C        2.7516470000    -1.7934770000    -1.8370230000
| 16>  C        3.2356100000    -0.6968350000    -2.7680900000
| 17>  O        2.7043460000     0.5609970000    -2.4152110000
| 18>  C        3.0896520000     0.9426950000    -1.1133970000
| 19>  H        0.7014680000    -0.6683600000     0.8297180000
| 20>  H        0.5625780000    -0.1459100000    -0.8544380000
| 21>  H        0.7547990000     1.0500470000     0.4236550000
| 22>  H        3.0297400000     0.2791200000     0.9040020000
| 23>  H        2.6390960000    -2.1628530000     0.2968630000
| 24>  H        4.1580780000    -1.4685020000    -0.2501340000
| 25>  H        1.6733190000    -1.9233670000    -1.9704310000
| 26>  H        3.2234570000    -2.7424930000    -2.1100610000
| 27>  H        2.9278190000    -0.8822990000    -3.7993830000
| 28>  H        4.3376960000    -0.6492300000    -2.7477980000
| 29>  H        2.6881610000     1.9472180000    -0.9578900000
| 30>  H        4.1891560000     1.0035860000    -1.0584790000
| 31> *
| 32>
| 33>                          ****END OF INPUT****
 Total Charge           Charge          ....    0
 Multiplicity           Mult            ....    1
 Number of Electrons    NEL             ....   56
 Basis Dimension        Dim             ....  158

MULLIKEN ATOMIC CHARGES
-----------------------
   0 C :    0.035101
   1 C :   -0.164870
   2 C :   -0.000672
   3 C :   -0.013475
   4 C :    0.180574
   5 O :   -0.344710
   6 C :    0.234825
   7 H :    0.013862
   8 H :    0.024738
   9 H :    0.011216
  10 H :   -0.001485
  11 H :    0.011324
  12 H :    0.004488
  13 H :    0.018426
  14 H :    0.006551
  15 H :    0.010361
  16 H :   -0.013850
  17 H :    0.002486
  18 H :   -0.014890
Sum of atomic charges:   -0.0000000

LOEWDIN ATOMIC CHARGES
----------------------
   0 C :   -0.058582
   1 C :   -0.064329
   2 C :   -0.039020
   3 C :   -0.059282
   4 C :    0.058716
   5 O :   -0.147046
   6 C :    0.064740
   7 H :    0.024152
   8 H :    0.024010
   9 H :    0.025660
  10 H :    0.026157
  11 H :    0.023793
  12 H :    0.021798
  13 H :    0.025688
  14 H :    0.027804
  15 H :    0.020895
  16 H :    0.002946
  17 H :    0.019003
  18 H :    0.002898

  Mayer bond orders larger than 0.1
B(  0-C ,  1-C ) :   1.0685 B(  0-C ,  7-H ) :   0.9617 B(  0-C ,  8-H ) :   0.9592
B(  0-C ,  9-H ) :   0.9587 B(  1-C ,  2-C ) :   1.0677 B(  1-C ,  6-C ) :   1.0473
B(  1-C , 10-H ) :   0.9006 B(  2-C ,  3-C ) :   1.0854 B(  2-C , 11-H ) :   0.9341
B(  2-C , 12-H ) :   0.9315 B(  3-C ,  4-C ) :   1.0916 B(  3-C , 13-H ) :   0.9243
B(  3-C , 14-H ) :   0.9210 B(  4-C ,  5-O ) :   1.0256 B(  4-C , 15-H ) :   0.9425
B(  4-C , 16-H ) :   0.9165 B(  5-O ,  6-C ) :   1.0282 B(  6-C , 17-H ) :   0.9398
B(  6-C , 18-H ) :   0.9134

FINAL SINGLE POINT ENERGY      -310.441914456813

DIPOLE MOMENT
-------------
                                X             Y             Z
Electronic contribution:      0.89408       1.94800      -2.87566
Nuclear contribution   :     -0.70278      -2.26835       3.19734
                        -----------------------------------------
Total Dipole Moment    :      0.19130      -0.32035       0.32169
                        -----------------------------------------
Magnitude (a.u.)       :      0.49265
Magnitude (Debye)      :      1.25221

                             ****ORCA TERMINATED NORMALLY****
TOTAL RUN TIME: 0 days 0 hours 0 minutes 8 seconds 337 msec
