                         Program Version 3.0.3 - RELEASE   -
|  1> ! RI PBE def2-SVP def2-SVP/J NBO PAL2
|  2> % maxcore 2000
|  3> % output
|  4>     # printlevel mini
|  5>     print[ P_Basis ] 0
|  6>     print[ P_SCFInfo ] 1
|  7>     print[ P_SCFIterInfo ] 1
|  8>     print[ P_OrbEn ] 0
|  9>     print[ P_Cartesian ] 0
| 10> end
| 11> *xyz 0 1
| 12>  C        1.1109680000     0.0014720000     0.0824900000
| 13>  C        2.4325710000    -0.0733790000    -0.0047150000
| 14>  C        3.2036990000    -1.3587170000    -0.0268770000
| 15>  C        4.2119450000    -1.3455340000    -1.1752390000
| 16>  C        5.0161940000    -0.0594910000    -1.1459930000
| 17>  O        4.1846540000     1.0762210000    -1.2087140000
| 18>  C        3.3011050000     1.1463390000    -0.1082260000
| 19>  H        0.4966250000    -0.8891900000     0.1658200000
| 20>  H        0.5969250000     0.9570470000     0.0795800000
| 21>  H        2.5291320000    -2.2153340000    -0.0949270000
| 22>  H        3.7547610000    -1.4541600000     0.9192040000
| 23>  H        3.6839310000    -1.4108120000    -2.1315420000
| 24>  H        4.8852680000    -2.2055940000    -1.1091860000
| 25>  H        5.6892100000     0.0065820000    -2.0032880000
| 26>  H        5.6301840000    -0.0216550000    -0.2301450000
| 27>  H        2.7014000000     2.0476240000    -0.2425470000
| 28>  H        3.8867370000     1.2581820000     0.8213240000
| 29> *
| 30>
| 31>                          ****END OF INPUT****
 Total Charge           Charge          ....    0
 Multiplicity           Mult            ....    1
 Number of Electrons    NEL             ....   54
 Basis Dimension        Dim             ....  148

MULLIKEN ATOMIC CHARGES
-----------------------
   0 C :   -0.026321
   1 C :   -0.243970
   2 C :    0.090208
   3 C :   -0.017466
   4 C :    0.166474
   5 O :   -0.343147
   6 C :    0.314527
   7 H :    0.007961
   8 H :    0.008259
   9 H :    0.003893
  10 H :    0.013738
  11 H :    0.016538
  12 H :    0.012735
  13 H :    0.020447
  14 H :   -0.015585
  15 H :    0.001675
  16 H :   -0.009964
Sum of atomic charges:    0.0000000

LOEWDIN ATOMIC CHARGES
----------------------
   0 C :   -0.066266
   1 C :   -0.049018
   2 C :   -0.033511
   3 C :   -0.053788
   4 C :    0.057337
   5 O :   -0.144251
   6 C :    0.069145
   7 H :    0.020613
   8 H :    0.021421
   9 H :    0.028947
  10 H :    0.032012
  11 H :    0.028017
  12 H :    0.028598
  13 H :    0.023896
  14 H :    0.001326
  15 H :    0.024943
  16 H :    0.010579

  Mayer bond orders larger than 0.1
B(  0-C ,  1-C ) :   2.0108 B(  0-C ,  7-H ) :   0.9320 B(  0-C ,  8-H ) :   0.9299
B(  1-C ,  2-C ) :   1.0557 B(  1-C ,  6-C ) :   1.0247 B(  2-C ,  3-C ) :   1.0781
B(  2-C ,  9-H ) :   0.9235 B(  2-C , 10-H ) :   0.9112 B(  3-C ,  4-C ) :   1.0927
B(  3-C , 11-H ) :   0.9211 B(  3-C , 12-H ) :   0.9240 B(  4-C ,  5-O ) :   1.0279
B(  4-C , 13-H ) :   0.9428 B(  4-C , 14-H ) :   0.9170 B(  5-O ,  6-C ) :   1.0127
B(  6-C , 15-H ) :   0.9305 B(  6-C , 16-H ) :   0.8964

FINAL SINGLE POINT ENERGY      -309.220661208560

DIPOLE MOMENT
-------------
                                X             Y             Z
Electronic contribution:      0.12633       2.57601      -1.07254
Nuclear contribution   :     -0.02105      -2.99548       1.34884
                        -----------------------------------------
Total Dipole Moment    :      0.10528      -0.41947       0.27630
                        -----------------------------------------
Magnitude (a.u.)       :      0.51321
Magnitude (Debye)      :      1.30447

                             ****ORCA TERMINATED NORMALLY****
TOTAL RUN TIME: 0 days 0 hours 0 minutes 7 seconds 433 msec
