                         Program Version 3.0.3 - RELEASE   -
|  1> ! RI PBE def2-SVP def2-SVP/J NBO PAL2
|  2> % maxcore 2000
|  3> % output
|  4>     # printlevel mini
|  5>     print[ P_Basis ] 0
|  6>     print[ P_SCFInfo ] 1
|  7>     print[ P_SCFIterInfo ] 1
|  8>     print[ P_OrbEn ] 0
|  9>     print[ P_Cartesian ] 0
| 10> end
| 11> *xyz 0 1
| 12>  C        1.0235610000    -0.0917900000     0.4515320000
| 13>  C        2.2888610000    -0.0632590000     0.0583260000
| 14>  C        3.0973480000     1.2065530000    -0.1538990000
| 15>  C        4.4925490000     0.7767760000    -0.6048440000
| 16>  C        4.4976560000    -0.7419390000    -0.6524840000
| 17>  O        5.4370430000    -1.4199600000    -0.9659530000
| 18>  C        3.1349420000    -1.2668090000    -0.2425290000
| 19>  H        0.4737120000     0.8220430000     0.6511140000
| 20>  H        0.4897660000    -1.0256300000     0.5888360000
| 21>  H        3.1335730000     1.7873220000     0.7708310000
| 22>  H        2.6106600000     1.8416230000    -0.8978800000
| 23>  H        5.2885290000     1.0989210000     0.0711140000
| 24>  H        4.7650030000     1.1490320000    -1.5955620000
| 25>  H        3.2554520000    -1.9336610000     0.6171060000
| 26>  H        2.7335560000    -1.8830020000    -1.0533080000
| 27> *
| 28>
| 29>                          ****END OF INPUT****
 Total Charge           Charge          ....    0
 Multiplicity           Mult            ....    1
 Number of Electrons    NEL             ....   52
 Basis Dimension        Dim             ....  138

MULLIKEN ATOMIC CHARGES
-----------------------
   0 C :   -0.027177
   1 C :   -0.248076
   2 C :    0.073146
   3 C :    0.032643
   4 C :   -0.114860
   5 O :   -0.140684
   6 C :    0.128900
   7 H :    0.007362
   8 H :    0.008010
   9 H :    0.034250
  10 H :    0.035712
  11 H :    0.045498
  12 H :    0.042223
  13 H :    0.061969
  14 H :    0.061082
Sum of atomic charges:   -0.0000000

LOEWDIN ATOMIC CHARGES
----------------------
   0 C :   -0.074047
   1 C :   -0.036668
   2 C :   -0.040133
   3 C :   -0.069951
   4 C :    0.057790
   5 O :   -0.115211
   6 C :   -0.067371
   7 H :    0.022577
   8 H :    0.023655
   9 H :    0.040194
  10 H :    0.040370
  11 H :    0.049885
  12 H :    0.049442
  13 H :    0.059884
  14 H :    0.059585

  Mayer bond orders larger than 0.1
B(  0-C ,  1-C ) :   2.0423 B(  0-C ,  7-H ) :   0.9335 B(  0-C ,  8-H ) :   0.9289
B(  1-C ,  2-C ) :   1.0553 B(  1-C ,  6-C ) :   1.0064 B(  2-C ,  3-C ) :   1.0834
B(  2-C ,  9-H ) :   0.9118 B(  2-C , 10-H ) :   0.9127 B(  3-C ,  4-C ) :   1.0125
B(  3-C , 11-H ) :   0.9049 B(  3-C , 12-H ) :   0.9045 B(  4-C ,  5-O ) :   2.2247
B(  4-C ,  6-C ) :   0.9468 B(  6-C , 13-H ) :   0.8976 B(  6-C , 14-H ) :   0.8987

FINAL SINGLE POINT ENERGY      -308.036566820606

DIPOLE MOMENT
-------------
                                X             Y             Z
Electronic contribution:      3.97975      -2.94371      -1.33040
Nuclear contribution   :     -4.59073       3.52126       1.54105
                        -----------------------------------------
Total Dipole Moment    :     -0.61098       0.57755       0.21065
                        -----------------------------------------
Magnitude (a.u.)       :      0.86673
Magnitude (Debye)      :      2.20306

                             ****ORCA TERMINATED NORMALLY****
TOTAL RUN TIME: 0 days 0 hours 0 minutes 7 seconds 92 msec
