                         Program Version 3.0.3 - RELEASE   -
|  1> ! RI PBE def2-SVP def2-SVP/J NBO PAL2
|  2> % maxcore 2000
|  3> % output
|  4>     # printlevel mini
|  5>     print[ P_Basis ] 0
|  6>     print[ P_SCFInfo ] 1
|  7>     print[ P_SCFIterInfo ] 1
|  8>     print[ P_OrbEn ] 0
|  9>     print[ P_Cartesian ] 0
| 10> end
| 11> *xyz 0 1
| 12>  C        1.0609520000    -0.1177510000    -0.0668840000
| 13>  C        2.5424960000    -0.0044620000     0.0736510000
| 14>  C        3.1992540000     1.1520620000     0.0791860000
| 15>  C        4.6907620000     1.2195500000     0.1687120000
| 16>  C        5.2865830000    -0.1420610000    -0.1320420000
| 17>  O        4.6310440000    -1.1525660000     0.6001900000
| 18>  C        3.2893170000    -1.2985000000     0.2141260000
| 19>  H        0.5990130000     0.8612970000    -0.2017930000
| 20>  H        0.6143240000    -0.5899790000     0.8147890000
| 21>  H        0.7919840000    -0.7410180000    -0.9268880000
| 22>  H        2.6452360000     2.0847000000     0.0074320000
| 23>  H        5.0013890000     1.5565610000     1.1653560000
| 24>  H        5.0817240000     1.9561700000    -0.5420980000
| 25>  H        6.3401530000    -0.1924860000     0.1489290000
| 26>  H        5.2103510000    -0.3510890000    -1.2105190000
| 27>  H        2.8145880000    -1.9165810000     0.9836630000
| 28>  H        3.2204090000    -1.8639580000    -0.7329100000
| 29> *
| 30>
| 31>                          ****END OF INPUT****
 Total Charge           Charge          ....    0
 Multiplicity           Mult            ....    1
 Number of Electrons    NEL             ....   54
 Basis Dimension        Dim             ....  148

MULLIKEN ATOMIC CHARGES
-----------------------
   0 C :    0.063928
   1 C :   -0.230992
   2 C :   -0.091737
   3 C :    0.056567
   4 C :    0.165104
   5 O :   -0.340047
   6 C :    0.269458
   7 H :    0.014271
   8 H :    0.028377
   9 H :    0.027496
  10 H :   -0.024557
  11 H :    0.023713
  12 H :    0.013473
  13 H :    0.013230
  14 H :   -0.004060
  15 H :    0.016587
  16 H :   -0.000809
Sum of atomic charges:    0.0000000

LOEWDIN ATOMIC CHARGES
----------------------
   0 C :   -0.054084
   1 C :   -0.067206
   2 C :   -0.056676
   3 C :   -0.059544
   4 C :    0.063311
   5 O :   -0.143808
   6 C :    0.059901
   7 H :    0.031694
   8 H :    0.034824
   9 H :    0.034551
  10 H :    0.020276
  11 H :    0.034192
  12 H :    0.033953
  13 H :    0.021684
  14 H :    0.005730
  15 H :    0.028651
  16 H :    0.012553

  Mayer bond orders larger than 0.1
B(  0-C ,  1-C ) :   1.0945 B(  0-C ,  7-H ) :   0.9505 B(  0-C ,  8-H ) :   0.9425
B(  0-C ,  9-H ) :   0.9476 B(  1-C ,  2-C ) :   1.9019 B(  1-C ,  6-C ) :   0.9990
B(  2-C ,  3-C ) :   1.0429 B(  2-C , 10-H ) :   0.9570 B(  3-C ,  4-C ) :   1.1035
B(  3-C , 11-H ) :   0.8975 B(  3-C , 12-H ) :   0.9105 B(  4-C ,  5-O ) :   1.0088
B(  4-C , 13-H ) :   0.9391 B(  4-C , 14-H ) :   0.9247 B(  5-O ,  6-C ) :   1.0437
B(  6-C , 15-H ) :   0.9235 B(  6-C , 16-H ) :   0.9091

FINAL SINGLE POINT ENERGY      -309.226217562816

DIPOLE MOMENT
-------------
                                X             Y             Z
Electronic contribution:      2.64183      -1.24082       1.42250
Nuclear contribution   :     -2.90195       1.49467      -1.71354
                        -----------------------------------------
Total Dipole Moment    :     -0.26012       0.25385      -0.29104
                        -----------------------------------------
Magnitude (a.u.)       :      0.46563
Magnitude (Debye)      :      1.18353

                             ****ORCA TERMINATED NORMALLY****
TOTAL RUN TIME: 0 days 0 hours 0 minutes 7 seconds 54 msec
