                         Program Version 3.0.3 - RELEASE   -
|  1> ! RI PBE def2-SVP def2-SVP/J NBO PAL2
|  2> % maxcore 2000
|  3> % output
|  4>     # printlevel mini
|  5>     print[ P_Basis ] 0
|  6>     print[ P_SCFInfo ] 1
|  7>     print[ P_SCFIterInfo ] 1
|  8>     print[ P_OrbEn ] 0
|  9>     print[ P_Cartesian ] 0
| 10> end
| 11> *xyz 0 1
| 12>  C        0.8844840000     0.0371440000    -0.0050730000
| 13>  C        2.3643400000    -0.0871490000    -0.0094340000
| 14>  C        3.1269130000    -1.1753810000    -0.0885740000
| 15>  C        2.7350420000    -2.6037010000    -0.1971250000
| 16>  C        4.5668180000    -0.7687350000    -0.0532040000
| 17>  O        4.5729320000     0.6418130000     0.0527080000
| 18>  C        3.2424740000     1.1211740000     0.0842340000
| 19>  H        0.3910770000    -0.9324540000    -0.0794800000
| 20>  H        0.5400950000     0.6558650000    -0.8404330000
| 21>  H        0.5342240000     0.5244480000     0.9109500000
| 22>  H        1.6522630000    -2.7322260000    -0.2104720000
| 23>  H        3.1333950000    -3.1848120000     0.6412480000
| 24>  H        3.1393760000    -3.0533460000    -1.1101300000
| 25>  H        5.1048360000    -1.0786750000    -0.9620720000
| 26>  H        5.0988980000    -1.2111670000     0.8027810000
| 27>  H        3.0751730000     1.8177590000    -0.7514380000
| 28>  H        3.0692500000     1.6852530000     1.0134140000
| 29> *
| 30>
| 31>                          ****END OF INPUT****
 Total Charge           Charge          ....    0
 Multiplicity           Mult            ....    1
 Number of Electrons    NEL             ....   54
 Basis Dimension        Dim             ....  148

MULLIKEN ATOMIC CHARGES
-----------------------
   0 C :    0.078403
   1 C :   -0.256686
   2 C :   -0.251480
   3 C :    0.076692
   4 C :    0.279453
   5 O :   -0.367793
   6 C :    0.280006
   7 H :    0.012982
   8 H :    0.029530
   9 H :    0.027815
  10 H :    0.013060
  11 H :    0.029439
  12 H :    0.026319
  13 H :    0.005487
  14 H :    0.005708
  15 H :    0.006821
  16 H :    0.004244
Sum of atomic charges:   -0.0000000

LOEWDIN ATOMIC CHARGES
----------------------
   0 C :   -0.057117
   1 C :   -0.069851
   2 C :   -0.069584
   3 C :   -0.057655
   4 C :    0.075737
   5 O :   -0.160874
   6 C :    0.075468
   7 H :    0.031278
   8 H :    0.037861
   9 H :    0.037587
  10 H :    0.031176
  11 H :    0.038037
  12 H :    0.037421
  13 H :    0.012536
  14 H :    0.012654
  15 H :    0.012869
  16 H :    0.012456

  Mayer bond orders larger than 0.1
B(  0-C ,  1-C ) :   1.1250 B(  0-C ,  7-H ) :   0.9423 B(  0-C ,  8-H ) :   0.9381
B(  0-C ,  9-H ) :   0.9381 B(  1-C ,  2-C ) :   1.8708 B(  1-C ,  6-C ) :   1.0355
B(  2-C ,  3-C ) :   1.1278 B(  2-C ,  4-C ) :   1.0350 B(  3-C , 10-H ) :   0.9415
B(  3-C , 11-H ) :   0.9372 B(  3-C , 12-H ) :   0.9370 B(  4-C ,  5-O ) :   1.0182
B(  4-C , 13-H ) :   0.9130 B(  4-C , 14-H ) :   0.9125 B(  5-O ,  6-C ) :   1.0186
B(  6-C , 15-H ) :   0.9127 B(  6-C , 16-H ) :   0.9116

FINAL SINGLE POINT ENERGY      -309.226629539853

DIPOLE MOMENT
-------------
                                X             Y             Z
Electronic contribution:      4.09391       2.85209       0.22814
Nuclear contribution   :     -4.73094      -3.29603      -0.26333
                        -----------------------------------------
Total Dipole Moment    :     -0.63703      -0.44394      -0.03519
                        -----------------------------------------
Magnitude (a.u.)       :      0.77726
Magnitude (Debye)      :      1.97563

                             ****ORCA TERMINATED NORMALLY****
TOTAL RUN TIME: 0 days 0 hours 0 minutes 7 seconds 256 msec
