                         Program Version 3.0.3 - RELEASE   -
|  1> ! RI PBE def2-SVP def2-SVP/J NBO PAL2
|  2> % maxcore 2000
|  3> % output
|  4>     # printlevel mini
|  5>     print[ P_Basis ] 0
|  6>     print[ P_SCFInfo ] 1
|  7>     print[ P_SCFIterInfo ] 1
|  8>     print[ P_OrbEn ] 0
|  9>     print[ P_Cartesian ] 0
| 10> end
| 11> *xyz 0 1
| 12>  C        1.0353690000     0.0438320000    -0.0798500000
| 13>  C        2.5206310000     0.1213670000    -0.0845310000
| 14>  C        3.2246430000     1.2540220000    -0.0766520000
| 15>  C        4.6743850000     1.2182170000    -0.0822410000
| 16>  C        5.2852200000     0.0327880000    -0.0953180000
| 17>  O        4.6533600000    -1.1540440000    -0.1039160000
| 18>  C        3.2242310000    -1.2032650000    -0.0993100000
| 19>  H        0.5861230000     1.0376260000    -0.0691090000
| 20>  H        0.6693870000    -0.5077440000     0.7946640000
| 21>  H        0.6630100000    -0.4916430000    -0.9616480000
| 22>  H        2.7133540000     2.2111280000    -0.0659760000
| 23>  H        5.2641020000     2.1236200000    -0.0760640000
| 24>  H        6.3604260000    -0.0988030000    -0.1003970000
| 25>  H        2.9242070000    -1.7975030000     0.7764640000
| 26>  H        2.9179530000    -1.7811870000    -0.9837970000
| 27> *
| 28>
| 29>                          ****END OF INPUT****
 Total Charge           Charge          ....    0
 Multiplicity           Mult            ....    1
 Number of Electrons    NEL             ....   52
 Basis Dimension        Dim             ....  138

MULLIKEN ATOMIC CHARGES
-----------------------
   0 C :    0.061531
   1 C :   -0.250169
   2 C :    0.048319
   3 C :   -0.060976
   4 C :    0.125432
   5 O :   -0.270787
   6 C :    0.268871
   7 H :    0.017593
   8 H :    0.027290
   9 H :    0.027147
  10 H :   -0.029260
  11 H :   -0.014364
  12 H :    0.015070
  13 H :    0.017286
  14 H :    0.017016
Sum of atomic charges:   -0.0000000

LOEWDIN ATOMIC CHARGES
----------------------
   0 C :   -0.052733
   1 C :   -0.064509
   2 C :   -0.045210
   3 C :   -0.126724
   4 C :    0.052090
   5 O :   -0.068331
   6 C :    0.083257
   7 H :    0.034074
   8 H :    0.034314
   9 H :    0.034282
  10 H :    0.025823
  11 H :    0.030827
  12 H :    0.024361
  13 H :    0.019272
  14 H :    0.019210

  Mayer bond orders larger than 0.1
B(  0-C ,  1-C ) :   1.1021 B(  0-C ,  7-H ) :   0.9506 B(  0-C ,  8-H ) :   0.9406
B(  0-C ,  9-H ) :   0.9406 B(  1-C ,  2-C ) :   1.8027 B(  1-C ,  6-C ) :   1.0398
B(  2-C ,  3-C ) :   1.0870 B(  2-C , 10-H ) :   0.9695 B(  3-C ,  4-C ) :   1.6917
B(  3-C ,  5-O ) :   0.1090 B(  3-C , 11-H ) :   0.9602 B(  4-C ,  5-O ) :   1.1571
B(  4-C , 12-H ) :   0.9683 B(  5-O ,  6-C ) :   0.9588 B(  6-C , 13-H ) :   0.9255
B(  6-C , 14-H ) :   0.9255

FINAL SINGLE POINT ENERGY      -308.017643892405

DIPOLE MOMENT
-------------
                                X             Y             Z
Electronic contribution:      5.15158      -0.59994      -0.02369
Nuclear contribution   :     -5.52472       0.64660       0.02578
                        -----------------------------------------
Total Dipole Moment    :     -0.37314       0.04666       0.00209
                        -----------------------------------------
Magnitude (a.u.)       :      0.37605
Magnitude (Debye)      :      0.95585

                             ****ORCA TERMINATED NORMALLY****
TOTAL RUN TIME: 0 days 0 hours 0 minutes 7 seconds 73 msec
