                         Program Version 3.0.3 - RELEASE   -
|  1> ! RI PBE def2-SVP def2-SVP/J NBO PAL2
|  2> % maxcore 2000
|  3> % output
|  4>     # printlevel mini
|  5>     print[ P_Basis ] 0
|  6>     print[ P_SCFInfo ] 1
|  7>     print[ P_SCFIterInfo ] 1
|  8>     print[ P_OrbEn ] 0
|  9>     print[ P_Cartesian ] 0
| 10> end
| 11> *xyz 0 1
| 12>  C        0.9228710000     0.1301160000    -0.0441870000
| 13>  C        2.4013910000     0.0283420000    -0.0126420000
| 14>  C        3.1809000000    -1.0544270000    -0.0121410000
| 15>  C        4.5734350000    -0.6473680000     0.0254740000
| 16>  C        5.6758250000    -1.3981430000     0.0384360000
| 17>  O        4.6146340000     0.7182160000     0.0478050000
| 18>  C        3.2921870000     1.2286110000     0.0261610000
| 19>  H        0.4564710000    -0.8549030000    -0.0702320000
| 20>  H        0.5858730000     0.6922680000    -0.9214210000
| 21>  H        0.5465060000     0.6644750000     0.8344120000
| 22>  H        2.8605790000    -2.0867040000    -0.0355160000
| 23>  H        5.5888920000    -2.4748220000     0.0196070000
| 24>  H        6.6599180000    -0.9514790000     0.0675140000
| 25>  H        3.1644250000     1.8744600000    -0.8532500000
| 26>  H        3.1246920000     1.8466580000     0.9187810000
| 27> *
| 28>
| 29>                          ****END OF INPUT****
 Total Charge           Charge          ....    0
 Multiplicity           Mult            ....    1
 Number of Electrons    NEL             ....   52
 Basis Dimension        Dim             ....  138

MULLIKEN ATOMIC CHARGES
-----------------------
   0 C :    0.085255
   1 C :   -0.245619
   2 C :   -0.006358
   3 C :    0.128817
   4 C :   -0.114028
   5 O :   -0.279599
   6 C :    0.275795
   7 H :    0.024160
   8 H :    0.036275
   9 H :    0.036337
  10 H :   -0.022940
  11 H :    0.008237
  12 H :    0.016126
  13 H :    0.029010
  14 H :    0.028533
Sum of atomic charges:   -0.0000000

LOEWDIN ATOMIC CHARGES
----------------------
   0 C :   -0.055608
   1 C :   -0.047028
   2 C :   -0.046683
   3 C :    0.031888
   4 C :   -0.142832
   5 O :   -0.081828
   6 C :    0.083199
   7 H :    0.038337
   8 H :    0.041323
   9 H :    0.041325
  10 H :    0.031299
  11 H :    0.027235
  12 H :    0.027372
  13 H :    0.026021
  14 H :    0.025979

  Mayer bond orders larger than 0.1
B(  0-C ,  1-C ) :   1.1042 B(  0-C ,  7-H ) :   0.9486 B(  0-C ,  8-H ) :   0.9387
B(  0-C ,  9-H ) :   0.9389 B(  1-C ,  2-C ) :   1.7283 B(  1-C ,  4-C ) :   0.1056
B(  1-C ,  6-C ) :   1.0492 B(  2-C ,  3-C ) :   1.0336 B(  2-C , 10-H ) :   1.0053
B(  3-C ,  4-C ) :   1.8250 B(  3-C ,  5-O ) :   1.1032 B(  4-C , 11-H ) :   0.9308
B(  4-C , 12-H ) :   0.9265 B(  5-O ,  6-C ) :   0.9962 B(  6-C , 13-H ) :   0.9158
B(  6-C , 14-H ) :   0.9154

FINAL SINGLE POINT ENERGY      -308.023583065669

DIPOLE MOMENT
-------------
                                X             Y             Z
Electronic contribution:      3.73462       0.52858       0.09163
Nuclear contribution   :     -4.79024      -0.38741      -0.11342
                        -----------------------------------------
Total Dipole Moment    :     -1.05562       0.14116      -0.02178
                        -----------------------------------------
Magnitude (a.u.)       :      1.06524
Magnitude (Debye)      :      2.70762

                             ****ORCA TERMINATED NORMALLY****
TOTAL RUN TIME: 0 days 0 hours 0 minutes 7 seconds 224 msec
