                         Program Version 3.0.3 - RELEASE   -
|  1> ! RI PBE def2-SVP def2-SVP/J NBO PAL2
|  2> % maxcore 2000
|  3> % output
|  4>     # printlevel mini
|  5>     print[ P_Basis ] 0
|  6>     print[ P_SCFInfo ] 1
|  7>     print[ P_SCFIterInfo ] 1
|  8>     print[ P_OrbEn ] 0
|  9>     print[ P_Cartesian ] 0
| 10> end
| 11> *xyz 0 1
| 12>  C        1.0624570000     0.0143680000     0.1403690000
| 13>  C        2.5455530000    -0.0112030000     0.0547710000
| 14>  C        3.3259820000    -1.0912410000    -0.0082780000
| 15>  C        4.7813820000    -0.7626750000    -0.0862830000
| 16>  C        4.7970280000     0.7606830000    -0.0615640000
| 17>  O        5.7736680000     1.4551840000    -0.1061440000
| 18>  C        3.3578320000     1.2496530000     0.0294460000
| 19>  H        0.6453250000    -0.9939760000     0.1470240000
| 20>  H        0.6293150000     0.5602200000    -0.7043070000
| 21>  H        0.7298980000     0.5301540000     1.0472420000
| 22>  H        2.9511240000    -2.1087320000    -0.0039610000
| 23>  H        5.2723080000    -1.1214610000    -0.9980990000
| 24>  H        5.3726510000    -1.1508460000     0.7508970000
| 25>  H        3.1299120000     1.8990800000    -0.8240090000
| 26>  H        3.2304660000     1.8693830000     0.9248860000
| 27> *
| 28>
| 29>                          ****END OF INPUT****
 Total Charge           Charge          ....    0
 Multiplicity           Mult            ....    1
 Number of Electrons    NEL             ....   52
 Basis Dimension        Dim             ....  138

MULLIKEN ATOMIC CHARGES
-----------------------
   0 C :    0.084108
   1 C :   -0.196250
   2 C :   -0.107434
   3 C :    0.090954
   4 C :   -0.096282
   5 O :   -0.137843
   6 C :    0.112688
   7 H :    0.015920
   8 H :    0.030662
   9 H :    0.029146
  10 H :   -0.023450
  11 H :    0.050155
  12 H :    0.052294
  13 H :    0.048102
  14 H :    0.047229
Sum of atomic charges:   -0.0000000

LOEWDIN ATOMIC CHARGES
----------------------
   0 C :   -0.057387
   1 C :   -0.044208
   2 C :   -0.053149
   3 C :   -0.069128
   4 C :    0.069743
   5 O :   -0.111843
   6 C :   -0.063810
   7 H :    0.033015
   8 H :    0.038154
   9 H :    0.037903
  10 H :    0.019555
  11 H :    0.050030
  12 H :    0.050510
  13 H :    0.050389
  14 H :    0.050227

  Mayer bond orders larger than 0.1
B(  0-C ,  1-C ) :   1.1107 B(  0-C ,  7-H ) :   0.9508 B(  0-C ,  8-H ) :   0.9409
B(  0-C ,  9-H ) :   0.9407 B(  1-C ,  2-C ) :   1.8504 B(  1-C ,  6-C ) :   1.0143
B(  2-C ,  3-C ) :   0.9996 B(  2-C , 10-H ) :   0.9844 B(  3-C ,  4-C ) :   0.9874
B(  3-C , 11-H ) :   0.8961 B(  3-C , 12-H ) :   0.8955 B(  4-C ,  5-O ) :   2.2348
B(  4-C ,  6-C ) :   0.9596 B(  6-C , 13-H ) :   0.8943 B(  6-C , 14-H ) :   0.8942

FINAL SINGLE POINT ENERGY      -308.046800631532

DIPOLE MOMENT
-------------
                                X             Y             Z
Electronic contribution:      6.03418       1.91704      -0.31500
Nuclear contribution   :     -6.93999      -2.39331       0.35884
                        -----------------------------------------
Total Dipole Moment    :     -0.90581      -0.47627       0.04384
                        -----------------------------------------
Magnitude (a.u.)       :      1.02433
Magnitude (Debye)      :      2.60364

                             ****ORCA TERMINATED NORMALLY****
TOTAL RUN TIME: 0 days 0 hours 0 minutes 6 seconds 806 msec
