                         Program Version 3.0.3 - RELEASE   -
|  1> ! RI PBE def2-SVP def2-SVP/J NBO PAL2
|  2> % maxcore 2000
|  3> % output
|  4>     # printlevel mini
|  5>     print[ P_Basis ] 0
|  6>     print[ P_SCFInfo ] 1
|  7>     print[ P_SCFIterInfo ] 1
|  8>     print[ P_OrbEn ] 0
|  9>     print[ P_Cartesian ] 0
| 10> end
| 11> *xyz 0 1
| 12>  C        0.9632660000    -0.0155170000     0.0882300000
| 13>  C        2.4488510000    -0.0543490000     0.0496400000
| 14>  C        3.2327690000    -1.1301400000    -0.0329580000
| 15>  C        4.6888330000    -0.7717440000     0.0142870000
| 16>  C        4.6779090000     0.7340130000    -0.2949240000
| 17>  O        4.8764700000     0.9772740000    -1.6747450000
| 18>  C        3.2854370000     1.1938660000     0.1580720000
| 19>  H        0.5309360000    -1.0146750000     0.0141930000
| 20>  H        0.5634470000     0.5945970000    -0.7286130000
| 21>  H        0.6088530000     0.4420610000     1.0182880000
| 22>  H        2.8699860000    -2.1510940000    -0.0853300000
| 23>  H        5.3116930000    -1.3086580000    -0.7067700000
| 24>  H        5.1093000000    -0.9726290000     1.0082780000
| 25>  H        5.4832920000     1.2726230000     0.2064510000
| 26>  H        4.1952220000     0.4928400000    -2.1526390000
| 27>  H        2.9277880000     2.0221670000    -0.4613470000
| 28>  H        3.2970390000     1.5546430000     1.1951980000
| 29> *
| 30>
| 31>                          ****END OF INPUT****
 Total Charge           Charge          ....    0
 Multiplicity           Mult            ....    1
 Number of Electrons    NEL             ....   54
 Basis Dimension        Dim             ....  148

MULLIKEN ATOMIC CHARGES
-----------------------
   0 C :    0.092663
   1 C :   -0.200640
   2 C :   -0.117502
   3 C :    0.097675
   4 C :    0.037303
   5 O :   -0.264075
   6 C :    0.102828
   7 H :    0.013423
   8 H :    0.026945
   9 H :    0.026208
  10 H :   -0.025537
  11 H :    0.014873
  12 H :    0.019984
  13 H :   -0.004034
  14 H :    0.151319
  15 H :    0.011123
  16 H :    0.017445
Sum of atomic charges:    0.0000000

LOEWDIN ATOMIC CHARGES
----------------------
   0 C :   -0.058952
   1 C :   -0.049708
   2 C :   -0.061239
   3 C :   -0.054937
   4 C :    0.059383
   5 O :   -0.111493
   6 C :   -0.049777
   7 H :    0.032098
   8 H :    0.036308
   9 H :    0.037594
  10 H :    0.017236
  11 H :    0.026684
  12 H :    0.033272
  13 H :    0.017696
  14 H :    0.065321
  15 H :    0.025974
  16 H :    0.034541

  Mayer bond orders larger than 0.1
B(  0-C ,  1-C ) :   1.1081 B(  0-C ,  7-H ) :   0.9501 B(  0-C ,  8-H ) :   0.9410
B(  0-C ,  9-H ) :   0.9384 B(  1-C ,  2-C ) :   1.8375 B(  1-C ,  6-C ) :   1.0213
B(  2-C ,  3-C ) :   0.9935 B(  2-C , 10-H ) :   0.9840 B(  3-C ,  4-C ) :   1.0459
B(  3-C , 11-H ) :   0.9205 B(  3-C , 12-H ) :   0.9034 B(  4-C ,  5-O ) :   1.0703
B(  4-C ,  6-C ) :   1.0375 B(  4-C , 13-H ) :   0.9164 B(  5-O , 14-H ) :   0.9806
B(  6-C , 15-H ) :   0.9209 B(  6-C , 16-H ) :   0.8951

FINAL SINGLE POINT ENERGY      -309.234081138918

DIPOLE MOMENT
-------------
                                X             Y             Z
Electronic contribution:      3.04525       0.38840      -1.71245
Nuclear contribution   :     -3.58268      -0.64772       1.97817
                        -----------------------------------------
Total Dipole Moment    :     -0.53743      -0.25932       0.26572
                        -----------------------------------------
Magnitude (a.u.)       :      0.65322
Magnitude (Debye)      :      1.66034

                             ****ORCA TERMINATED NORMALLY****
TOTAL RUN TIME: 0 days 0 hours 0 minutes 7 seconds 115 msec
