                         Program Version 3.0.3 - RELEASE   -
|  1> ! RI PBE def2-SVP def2-SVP/J NBO PAL2
|  2> % maxcore 2000
|  3> % output
|  4>     # printlevel mini
|  5>     print[ P_Basis ] 0
|  6>     print[ P_SCFInfo ] 1
|  7>     print[ P_SCFIterInfo ] 1
|  8>     print[ P_OrbEn ] 0
|  9>     print[ P_Cartesian ] 0
| 10> end
| 11> *xyz 0 1
| 12>  C        0.8963970000     0.0358840000     0.0656020000
| 13>  C        2.4144720000     0.0734210000     0.0372630000
| 14>  C        2.9221620000     0.1777400000    -1.3982480000
| 15>  C        3.0045060000     1.1920230000     0.9062590000
| 16>  C        4.3902730000     0.6656320000     1.2729240000
| 17>  O        4.3561400000    -0.7445090000     1.0852170000
| 18>  C        3.0445160000    -1.1317050000     0.7333070000
| 19>  H        0.4732560000     0.9369510000    -0.3866180000
| 20>  H        0.5199680000    -0.0346500000     1.0897850000
| 21>  H        0.5139410000    -0.8224440000    -0.4943250000
| 22>  H        2.5866000000     1.1086530000    -1.8636190000
| 23>  H        2.5473480000    -0.6525140000    -2.0031680000
| 24>  H        4.0135320000     0.1517470000    -1.4368090000
| 25>  H        2.3924700000     1.3190090000     1.8037980000
| 26>  H        3.0418420000     2.1530570000     0.3889580000
| 27>  H        4.6570630000     0.8931760000     2.3106240000
| 28>  H        5.1736100000     1.0782190000     0.6281060000
| 29>  H        2.4640680000    -1.3984470000     1.6303740000
| 30>  H        3.1103260000    -2.0149460000     0.0918780000
| 31> *
| 32>
| 33>                          ****END OF INPUT****
 Total Charge           Charge          ....    0
 Multiplicity           Mult            ....    1
 Number of Electrons    NEL             ....   56
 Basis Dimension        Dim             ....  158

MULLIKEN ATOMIC CHARGES
-----------------------
   0 C :    0.077723
   1 C :   -0.443229
   2 C :    0.080020
   3 C :    0.016562
   4 C :    0.228167
   5 O :   -0.364160
   6 C :    0.289785
   7 H :    0.016789
   8 H :    0.011106
   9 H :    0.017616
  10 H :    0.011639
  11 H :    0.014415
  12 H :    0.023312
  13 H :    0.009994
  14 H :    0.013523
  15 H :   -0.003159
  16 H :    0.008280
  17 H :   -0.010785
  18 H :    0.002403
Sum of atomic charges:    0.0000000

LOEWDIN ATOMIC CHARGES
----------------------
   0 C :   -0.048491
   1 C :   -0.082365
   2 C :   -0.047898
   3 C :   -0.043489
   4 C :    0.067677
   5 O :   -0.163093
   6 C :    0.072551
   7 H :    0.027106
   8 H :    0.023056
   9 H :    0.026737
  10 H :    0.023940
  11 H :    0.025160
  12 H :    0.028502
  13 H :    0.024884
  14 H :    0.027381
  15 H :    0.010914
  16 H :    0.009923
  17 H :    0.000990
  18 H :    0.016513

  Mayer bond orders larger than 0.1
B(  0-C ,  1-C ) :   1.0651 B(  0-C ,  7-H ) :   0.9578 B(  0-C ,  8-H ) :   0.9485
B(  0-C ,  9-H ) :   0.9602 B(  1-C ,  2-C ) :   1.0291 B(  1-C ,  3-C ) :   1.0384
B(  1-C ,  6-C ) :   1.0048 B(  2-C , 10-H ) :   0.9561 B(  2-C , 11-H ) :   0.9568
B(  2-C , 12-H ) :   0.9567 B(  3-C ,  4-C ) :   1.0946 B(  3-C , 13-H ) :   0.9266
B(  3-C , 14-H ) :   0.9316 B(  4-C ,  5-O ) :   1.0074 B(  4-C , 15-H ) :   0.9372
B(  4-C , 16-H ) :   0.9385 B(  5-O ,  6-C ) :   1.0231 B(  6-C , 17-H ) :   0.9308
B(  6-C , 18-H ) :   0.9325

FINAL SINGLE POINT ENERGY      -310.436233269670

DIPOLE MOMENT
-------------
                                X             Y             Z
Electronic contribution:      3.86233      -1.80851       2.53537
Nuclear contribution   :     -4.34332       2.20167      -2.67339
                        -----------------------------------------
Total Dipole Moment    :     -0.48099       0.39315      -0.13802
                        -----------------------------------------
Magnitude (a.u.)       :      0.63637
Magnitude (Debye)      :      1.61753

                             ****ORCA TERMINATED NORMALLY****
TOTAL RUN TIME: 0 days 0 hours 0 minutes 8 seconds 360 msec
