                         Program Version 3.0.3 - RELEASE   -
|  1> ! RI PBE def2-SVP def2-SVP/J NBO PAL2
|  2> % maxcore 2000
|  3> % output
|  4>     # printlevel mini
|  5>     print[ P_Basis ] 0
|  6>     print[ P_SCFInfo ] 1
|  7>     print[ P_SCFIterInfo ] 1
|  8>     print[ P_OrbEn ] 0
|  9>     print[ P_Cartesian ] 0
| 10> end
| 11> *xyz 0 1
| 12>  C        0.9846230000     0.0848050000     0.2132770000
| 13>  C        2.4772900000     0.0895470000    -0.0550890000
| 14>  C        2.7724880000     0.0700550000    -1.5425730000
| 15>  C        3.2455260000     1.2052200000     0.7174900000
| 16>  C        3.9876390000     0.1200890000     1.4809640000
| 17>  O        4.8251410000     0.1370140000     2.3319010000
| 18>  C        3.2581480000    -0.9947850000     0.7488240000
| 19>  H        0.5040290000     0.9595640000    -0.2342400000
| 20>  H        0.7719830000     0.0988620000     1.2859020000
| 21>  H        0.5141690000    -0.8077990000    -0.2090680000
| 22>  H        2.3410820000     0.9444150000    -2.0383810000
| 23>  H        2.3512220000    -0.8229620000    -2.0132100000
| 24>  H        3.8488570000     0.0734780000    -1.7358630000
| 25>  H        2.6343000000     1.8491420000     1.3557490000
| 26>  H        3.8989080000     1.8396460000     0.1123530000
| 27>  H        2.6542450000    -1.6272390000     1.4052620000
| 28>  H        3.9188630000    -1.6386500000     0.1618930000
| 29> *
| 30>
| 31>                          ****END OF INPUT****
 Total Charge           Charge          ....    0
 Multiplicity           Mult            ....    1
 Number of Electrons    NEL             ....   54
 Basis Dimension        Dim             ....  148

MULLIKEN ATOMIC CHARGES
-----------------------
   0 C :    0.078595
   1 C :   -0.495925
   2 C :    0.078688
   3 C :    0.164220
   4 C :   -0.106745
   5 O :   -0.124100
   6 C :    0.164807
   7 H :    0.021114
   8 H :    0.013615
   9 H :    0.020988
  10 H :    0.021356
  11 H :    0.020894
  12 H :    0.013854
  13 H :    0.032119
  14 H :    0.032147
  15 H :    0.032243
  16 H :    0.032129
Sum of atomic charges:   -0.0000000

LOEWDIN ATOMIC CHARGES
----------------------
   0 C :   -0.051162
   1 C :   -0.058918
   2 C :   -0.051276
   3 C :   -0.058053
   4 C :    0.054514
   5 O :   -0.099837
   6 C :   -0.058014
   7 H :    0.027424
   8 H :    0.024377
   9 H :    0.027379
  10 H :    0.027449
  11 H :    0.027368
  12 H :    0.024457
  13 H :    0.041068
  14 H :    0.041068
  15 H :    0.041108
  16 H :    0.041050

  Mayer bond orders larger than 0.1
B(  0-C ,  1-C ) :   1.0317 B(  0-C ,  7-H ) :   0.9586 B(  0-C ,  8-H ) :   0.9539
B(  0-C ,  9-H ) :   0.9587 B(  1-C ,  2-C ) :   1.0318 B(  1-C ,  3-C ) :   1.0384
B(  1-C ,  6-C ) :   1.0381 B(  2-C , 10-H ) :   0.9587 B(  2-C , 11-H ) :   0.9587
B(  2-C , 12-H ) :   0.9535 B(  3-C ,  4-C ) :   0.9945 B(  3-C ,  6-C ) :  -0.1382
B(  3-C , 13-H ) :   0.8969 B(  3-C , 14-H ) :   0.8968 B(  4-C ,  5-O ) :   2.2326
B(  4-C ,  6-C ) :   0.9945 B(  6-C , 15-H ) :   0.8968 B(  6-C , 16-H ) :   0.8969

FINAL SINGLE POINT ENERGY      -309.232978752323

DIPOLE MOMENT
-------------
                                X             Y             Z
Electronic contribution:      6.07117       0.12271       6.17473
Nuclear contribution   :     -6.82665      -0.13804      -6.94195
                        -----------------------------------------
Total Dipole Moment    :     -0.75549      -0.01533      -0.76722
                        -----------------------------------------
Magnitude (a.u.)       :      1.07686
Magnitude (Debye)      :      2.73715

                             ****ORCA TERMINATED NORMALLY****
TOTAL RUN TIME: 0 days 0 hours 0 minutes 7 seconds 696 msec
