                         Program Version 3.0.3 - RELEASE   -
|  1> ! RI PBE def2-SVP def2-SVP/J NBO PAL2
|  2> % maxcore 2000
|  3> % output
|  4>     # printlevel mini
|  5>     print[ P_Basis ] 0
|  6>     print[ P_SCFInfo ] 1
|  7>     print[ P_SCFIterInfo ] 1
|  8>     print[ P_OrbEn ] 0
|  9>     print[ P_Cartesian ] 0
| 10> end
| 11> *xyz 0 1
| 12>  C        0.8005360000    -0.0345370000     0.2681640000
| 13>  C        2.2915550000     0.0079930000     0.0039380000
| 14>  C        2.5790310000     0.0359780000    -1.4869650000
| 15>  C        3.0801040000     1.0975900000     0.7804510000
| 16>  C        4.0957270000     0.0447900000     1.2372040000
| 17>  O        5.2839630000     0.1639840000     0.4836410000
| 18>  C        3.1350760000    -1.0598350000     0.7523020000
| 19>  H        0.3024850000     0.8427020000    -0.1565540000
| 20>  H        0.5862930000    -0.0548340000     1.3403800000
| 21>  H        0.3470260000    -0.9233500000    -0.1816850000
| 22>  H        2.1207030000     0.9138970000    -1.9529540000
| 23>  H        2.1726870000    -0.8546050000    -1.9770100000
| 24>  H        3.6530210000     0.0723240000    -1.6797160000
| 25>  H        2.5109260000     1.5148910000     1.6138790000
| 26>  H        3.5038670000     1.9132850000     0.1919290000
| 27>  H        4.3238640000     0.0358510000     2.3096450000
| 28>  H        5.8309060000    -0.6058710000     0.6616870000
| 29>  H        2.5867070000    -1.5240450000     1.5759510000
| 30>  H        3.5851230000    -1.8447870000     0.1390120000
| 31> *
| 32>
| 33>                          ****END OF INPUT****
 Total Charge           Charge          ....    0
 Multiplicity           Mult            ....    1
 Number of Electrons    NEL             ....   56
 Basis Dimension        Dim             ....  158

MULLIKEN ATOMIC CHARGES
-----------------------
   0 C :    0.088638
   1 C :   -0.476472
   2 C :    0.093860
   3 C :    0.216941
   4 C :   -0.048669
   5 O :   -0.249587
   6 C :    0.206769
   7 H :    0.015099
   8 H :    0.004320
   9 H :    0.012703
  10 H :    0.009847
  11 H :    0.007912
  12 H :    0.010997
  13 H :   -0.010441
  14 H :    0.003472
  15 H :   -0.011013
  16 H :    0.153623
  17 H :   -0.014808
  18 H :   -0.013190
Sum of atomic charges:   -0.0000000

LOEWDIN ATOMIC CHARGES
----------------------
   0 C :   -0.055379
   1 C :   -0.056302
   2 C :   -0.050859
   3 C :   -0.026173
   4 C :    0.050704
   5 O :   -0.111590
   6 C :   -0.041233
   7 H :    0.025706
   8 H :    0.019761
   9 H :    0.025002
  10 H :    0.023480
  11 H :    0.022091
  12 H :    0.023245
  13 H :    0.023967
  14 H :    0.023985
  15 H :   -0.002479
  16 H :    0.068215
  17 H :    0.021787
  18 H :    0.016070

  Mayer bond orders larger than 0.1
B(  0-C ,  1-C ) :   1.0644 B(  0-C ,  7-H ) :   0.9565 B(  0-C ,  8-H ) :   0.9489
B(  0-C ,  9-H ) :   0.9558 B(  1-C ,  2-C ) :   1.0339 B(  1-C ,  3-C ) :   1.0617
B(  1-C ,  6-C ) :   1.0566 B(  2-C , 10-H ) :   0.9544 B(  2-C , 11-H ) :   0.9541
B(  2-C , 12-H ) :   0.9480 B(  3-C ,  4-C ) :   1.1087 B(  3-C , 13-H ) :   0.8975
B(  3-C , 14-H ) :   0.8981 B(  4-C ,  5-O ) :   1.0767 B(  4-C ,  6-C ) :   1.0936
B(  4-C , 15-H ) :   0.9073 B(  5-O , 16-H ) :   0.9813 B(  6-C , 17-H ) :   0.8902
B(  6-C , 18-H ) :   0.8991

FINAL SINGLE POINT ENERGY      -310.420006537215

DIPOLE MOMENT
-------------
                                X             Y             Z
Electronic contribution:      5.00294       0.40203       1.70105
Nuclear contribution   :     -5.04274      -0.84155      -1.41166
                        -----------------------------------------
Total Dipole Moment    :     -0.03980      -0.43952       0.28939
                        -----------------------------------------
Magnitude (a.u.)       :      0.52774
Magnitude (Debye)      :      1.34140

                             ****ORCA TERMINATED NORMALLY****
TOTAL RUN TIME: 0 days 0 hours 0 minutes 8 seconds 571 msec
