                         Program Version 3.0.3 - RELEASE   -
|  1> ! RI PBE def2-SVP def2-SVP/J NBO PAL2
|  2> % maxcore 2000
|  3> % output
|  4>     # printlevel mini
|  5>     print[ P_Basis ] 0
|  6>     print[ P_SCFInfo ] 1
|  7>     print[ P_SCFIterInfo ] 1
|  8>     print[ P_OrbEn ] 0
|  9>     print[ P_Cartesian ] 0
| 10> end
| 11> *xyz 0 1
| 12>  C        1.1045510000     0.2859020000     0.6895220000
| 13>  C        2.4358830000     0.1261570000    -0.0145890000
| 14>  C        3.5329530000     1.1392450000     0.3898420000
| 15>  C        4.2912880000     0.0145410000     1.1400160000
| 16>  C        4.2276120000     0.1074080000     2.6491710000
| 17>  O        5.6207150000    -0.2101630000     0.7150490000
| 18>  C        3.3384460000    -1.0158370000     0.5086980000
| 19>  H        0.5978970000     1.2011820000     0.3705710000
| 20>  H        1.2248840000     0.3373890000     1.7755730000
| 21>  H        0.4415550000    -0.5562430000     0.4719090000
| 22>  H        2.2658180000     0.0815070000    -1.0926200000
| 23>  H        3.2066350000     1.9927040000     0.9907000000
| 24>  H        4.1138430000     1.4994250000    -0.4604440000
| 25>  H        3.2029830000     0.2438810000     3.0005970000
| 26>  H        4.8142750000     0.9609990000     3.0075280000
| 27>  H        4.6302410000    -0.8033900000     3.0994570000
| 28>  H        6.1863640000     0.4473300000     1.1308050000
| 29>  H        2.8769140000    -1.7290580000     1.1960710000
| 30>  H        3.8422230000    -1.5642710000    -0.2878350000
| 31> *
| 32>
| 33>                          ****END OF INPUT****
 Total Charge           Charge          ....    0
 Multiplicity           Mult            ....    1
 Number of Electrons    NEL             ....   56
 Basis Dimension        Dim             ....  158

MULLIKEN ATOMIC CHARGES
-----------------------
   0 C :    0.049290
   1 C :   -0.255478
   2 C :    0.247555
   3 C :   -0.296260
   4 C :    0.070944
   5 O :   -0.241011
   6 C :    0.232234
   7 H :    0.020926
   8 H :    0.008031
   9 H :    0.024156
  10 H :    0.001374
  11 H :   -0.012608
  12 H :   -0.022323
  13 H :    0.003614
  14 H :    0.008191
  15 H :    0.024997
  16 H :    0.148623
  17 H :   -0.006169
  18 H :   -0.006084
Sum of atomic charges:   -0.0000000

LOEWDIN ATOMIC CHARGES
----------------------
   0 C :   -0.064061
   1 C :   -0.036090
   2 C :   -0.040636
   3 C :    0.020491
   4 C :   -0.069660
   5 O :   -0.105684
   6 C :   -0.026527
   7 H :    0.027089
   8 H :    0.020580
   9 H :    0.027950
  10 H :    0.021554
  11 H :    0.013363
  12 H :    0.024161
  13 H :    0.026197
  14 H :    0.021946
  15 H :    0.028500
  16 H :    0.064240
  17 H :    0.016815
  18 H :    0.029771

  Mayer bond orders larger than 0.1
B(  0-C ,  1-C ) :   1.0636 B(  0-C ,  7-H ) :   0.9560 B(  0-C ,  8-H ) :   0.9564
B(  0-C ,  9-H ) :   0.9566 B(  1-C ,  2-C ) :   1.1489 B(  1-C ,  6-C ) :   1.1270
B(  1-C , 10-H ) :   0.8858 B(  2-C ,  3-C ) :   1.0728 B(  2-C ,  6-C ) :  -0.1160
B(  2-C , 11-H ) :   0.9174 B(  2-C , 12-H ) :   0.8488 B(  3-C ,  4-C ) :   1.0380
B(  3-C ,  5-O ) :   1.0801 B(  3-C ,  6-C ) :   1.0665 B(  4-C , 13-H ) :   0.9399
B(  4-C , 14-H ) :   0.9469 B(  4-C , 15-H ) :   0.9511 B(  5-O , 16-H ) :   0.9810
B(  6-C , 17-H ) :   0.9187 B(  6-C , 18-H ) :   0.8591

FINAL SINGLE POINT ENERGY      -310.423756217003

DIPOLE MOMENT
-------------
                                X             Y             Z
Electronic contribution:      4.69399      -0.83907      -2.04302
Nuclear contribution   :     -4.78080       1.22800       2.36203
                        -----------------------------------------
Total Dipole Moment    :     -0.08682       0.38892       0.31901
                        -----------------------------------------
Magnitude (a.u.)       :      0.51045
Magnitude (Debye)      :      1.29747

                             ****ORCA TERMINATED NORMALLY****
TOTAL RUN TIME: 0 days 0 hours 0 minutes 8 seconds 524 msec
