                         Program Version 3.0.3 - RELEASE   -
|  1> ! RI PBE def2-SVP def2-SVP/J NBO PAL2
|  2> % maxcore 2000
|  3> % output
|  4>     # printlevel mini
|  5>     print[ P_Basis ] 0
|  6>     print[ P_SCFInfo ] 1
|  7>     print[ P_SCFIterInfo ] 1
|  8>     print[ P_OrbEn ] 0
|  9>     print[ P_Cartesian ] 0
| 10> end
| 11> *xyz 0 1
| 12>  C        0.9934910000     0.0748070000     0.6834320000
| 13>  C        2.2622610000     0.1644320000    -0.1394320000
| 14>  C        3.2810390000     1.2006360000     0.3902880000
| 15>  C        4.0627630000     0.0548660000     1.0631250000
| 16>  C        5.5618200000     0.0937130000     0.9691060000
| 17>  O        6.0819900000    -1.0884770000     1.5457120000
| 18>  C        3.2941410000    -0.9429110000     0.1739380000
| 19>  H        0.3779130000     0.9705360000     0.5609390000
| 20>  H        1.2185520000    -0.0300840000     1.7492380000
| 21>  H        0.3922590000    -0.7889880000     0.3862690000
| 22>  H        2.0055810000     0.2718670000    -1.1965320000
| 23>  H        2.8936930000     1.9944160000     1.0331160000
| 24>  H        3.8568640000     1.6594740000    -0.4187560000
| 25>  H        3.7802150000    -0.0569290000     2.1134580000
| 26>  H        5.9403820000     0.9861810000     1.4902390000
| 27>  H        5.8559530000     0.1769970000    -0.0884810000
| 28>  H        7.0370830000    -1.0810220000     1.4542900000
| 29>  H        2.9185580000    -1.8525690000     0.6459610000
| 30>  H        3.8812500000    -1.2247460000    -0.7041030000
| 31> *
| 32>
| 33>                          ****END OF INPUT****
 Total Charge           Charge          ....    0
 Multiplicity           Mult            ....    1
 Number of Electrons    NEL             ....   56
 Basis Dimension        Dim             ....  158

MULLIKEN ATOMIC CHARGES
-----------------------
   0 C :    0.045299
   1 C :   -0.219596
   2 C :    0.127443
   3 C :   -0.238255
   4 C :    0.230855
   5 O :   -0.278076
   6 C :    0.150216
   7 H :    0.021979
   8 H :    0.012473
   9 H :    0.021529
  10 H :   -0.002074
  11 H :    0.006124
  12 H :   -0.007989
  13 H :    0.013169
  14 H :   -0.008826
  15 H :   -0.024334
  16 H :    0.152632
  17 H :    0.005787
  18 H :   -0.008355
Sum of atomic charges:    0.0000000

LOEWDIN ATOMIC CHARGES
----------------------
   0 C :   -0.062130
   1 C :   -0.037387
   2 C :   -0.024966
   3 C :   -0.045250
   4 C :    0.056043
   5 O :   -0.129901
   6 C :   -0.022078
   7 H :    0.026327
   8 H :    0.024406
   9 H :    0.026931
  10 H :    0.015149
  11 H :    0.015619
  12 H :    0.021084
  13 H :    0.025857
  14 H :    0.002898
  15 H :   -0.002321
  16 H :    0.069428
  17 H :    0.017676
  18 H :    0.022614

  Mayer bond orders larger than 0.1
B(  0-C ,  1-C ) :   1.0692 B(  0-C ,  7-H ) :   0.9578 B(  0-C ,  8-H ) :   0.9586
B(  0-C ,  9-H ) :   0.9568 B(  1-C ,  2-C ) :   1.0921 B(  1-C ,  6-C ) :   1.0961
B(  1-C , 10-H ) :   0.9126 B(  2-C ,  3-C ) :   1.0742 B(  2-C , 11-H ) :   0.9275
B(  2-C , 12-H ) :   0.8993 B(  3-C ,  4-C ) :   1.0632 B(  3-C ,  6-C ) :   1.0818
B(  3-C , 13-H ) :   0.9020 B(  4-C ,  5-O ) :   1.1098 B(  4-C , 14-H ) :   0.9248
B(  4-C , 15-H ) :   0.9137 B(  5-O , 16-H ) :   0.9810 B(  6-C , 17-H ) :   0.9297
B(  6-C , 18-H ) :   0.9016

FINAL SINGLE POINT ENERGY      -310.413157608075

DIPOLE MOMENT
-------------
                                X             Y             Z
Electronic contribution:      4.40874      -1.59678       1.00502
Nuclear contribution   :     -4.04213       1.91667      -1.21150
                        -----------------------------------------
Total Dipole Moment    :      0.36661       0.31990      -0.20648
                        -----------------------------------------
Magnitude (a.u.)       :      0.52856
Magnitude (Debye)      :      1.34349

                             ****ORCA TERMINATED NORMALLY****
TOTAL RUN TIME: 0 days 0 hours 0 minutes 8 seconds 479 msec
