                         Program Version 3.0.3 - RELEASE   -
|  1> ! RI PBE def2-SVP def2-SVP/J NBO PAL2
|  2> % maxcore 2000
|  3> % output
|  4>     # printlevel mini
|  5>     print[ P_Basis ] 0
|  6>     print[ P_SCFInfo ] 1
|  7>     print[ P_SCFIterInfo ] 1
|  8>     print[ P_OrbEn ] 0
|  9>     print[ P_Cartesian ] 0
| 10> end
| 11> *xyz 0 1
| 12>  C        1.0097470000     0.1091650000    -0.0859610000
| 13>  C        2.5161740000     0.0804900000     0.0715570000
| 14>  C        3.0800480000     1.2232610000     0.9275810000
| 15>  C        4.4892790000     0.7702430000     1.2853360000
| 16>  C        4.4064960000    -0.7475560000     1.3354010000
| 17>  O        5.2562930000    -1.4842380000     1.7564100000
| 18>  C        3.0657400000    -1.1666360000     0.7595570000
| 19>  H        0.6786890000     1.0395420000    -0.5550430000
| 20>  H        0.5181420000     0.0336470000     0.8888910000
| 21>  H        0.6542160000    -0.7194270000    -0.7034360000
| 22>  H        2.9762910000     0.1497340000    -0.9230050000
| 23>  H        2.4745800000     1.3222150000     1.8359800000
| 24>  H        3.0485950000     2.1851260000     0.4120410000
| 25>  H        4.8938570000     1.1685920000     2.2167840000
| 26>  H        5.2033160000     1.0236730000     0.4926480000
| 27>  H        2.4264910000    -1.4454780000     1.6085510000
| 28>  H        3.1647450000    -2.0511730000     0.1286090000
| 29> *
| 30>
| 31>                          ****END OF INPUT****
 Total Charge           Charge          ....    0
 Multiplicity           Mult            ....    1
 Number of Electrons    NEL             ....   54
 Basis Dimension        Dim             ....  148

MULLIKEN ATOMIC CHARGES
-----------------------
   0 C :    0.057472
   1 C :   -0.209113
   2 C :    0.009549
   3 C :    0.057650
   4 C :   -0.102811
   5 O :   -0.143556
   6 C :    0.093432
   7 H :    0.017741
   8 H :    0.011297
   9 H :    0.023522
  10 H :    0.017912
  11 H :    0.014056
  12 H :    0.013233
  13 H :    0.030788
  14 H :    0.040979
  15 H :    0.034638
  16 H :    0.033210
Sum of atomic charges:   -0.0000000

LOEWDIN ATOMIC CHARGES
----------------------
   0 C :   -0.058360
   1 C :   -0.046501
   2 C :   -0.036143
   3 C :   -0.069386
   4 C :    0.057096
   5 O :   -0.116917
   6 C :   -0.065225
   7 H :    0.027452
   8 H :    0.024138
   9 H :    0.028591
  10 H :    0.026872
  11 H :    0.024643
  12 H :    0.025240
  13 H :    0.040535
  14 H :    0.050069
  15 H :    0.048185
  16 H :    0.039709

  Mayer bond orders larger than 0.1
B(  0-C ,  1-C ) :   1.0948 B(  0-C ,  7-H ) :   0.9570 B(  0-C ,  8-H ) :   0.9533
B(  0-C ,  9-H ) :   0.9605 B(  1-C ,  2-C ) :   1.0470 B(  1-C ,  6-C ) :   1.0343
B(  1-C , 10-H ) :   0.9151 B(  2-C ,  3-C ) :   1.0801 B(  2-C , 11-H ) :   0.9328
B(  2-C , 12-H ) :   0.9289 B(  3-C ,  4-C ) :   0.9761 B(  3-C , 13-H ) :   0.9200
B(  3-C , 14-H ) :   0.8986 B(  4-C ,  5-O ) :   2.2219 B(  4-C ,  6-C ) :   0.9782
B(  6-C , 15-H ) :   0.8947 B(  6-C , 16-H ) :   0.9182

FINAL SINGLE POINT ENERGY      -309.260719645250

DIPOLE MOMENT
-------------
                                X             Y             Z
Electronic contribution:      6.65407      -3.57866       2.65122
Nuclear contribution   :     -7.40925       4.22020      -3.05501
                        -----------------------------------------
Total Dipole Moment    :     -0.75517       0.64154      -0.40379
                        -----------------------------------------
Magnitude (a.u.)       :      1.07000
Magnitude (Debye)      :      2.71973

                             ****ORCA TERMINATED NORMALLY****
TOTAL RUN TIME: 0 days 0 hours 0 minutes 7 seconds 671 msec
