                         Program Version 3.0.3 - RELEASE   -
|  1> ! RI PBE def2-SVP def2-SVP/J NBO PAL2
|  2> % maxcore 2000
|  3> % output
|  4>     # printlevel mini
|  5>     print[ P_Basis ] 0
|  6>     print[ P_SCFInfo ] 1
|  7>     print[ P_SCFIterInfo ] 1
|  8>     print[ P_OrbEn ] 0
|  9>     print[ P_Cartesian ] 0
| 10> end
| 11> *xyz 0 1
| 12>  C        0.9255460000     0.1120620000     0.0745580000
| 13>  C        2.4419600000     0.1292150000     0.0702180000
| 14>  C        3.0624880000     1.2339380000     0.9334080000
| 15>  C        4.4801900000     0.7435310000     1.1749150000
| 16>  C        4.2887430000    -0.7428080000     1.4733730000
| 17>  O        5.4473310000    -1.5320480000     1.3216240000
| 18>  C        3.0931340000    -1.1661050000     0.5936940000
| 19>  H        0.5142990000     1.0591890000    -0.2856560000
| 20>  H        0.5445340000    -0.0539420000     1.0871270000
| 21>  H        0.5319400000    -0.6843900000    -0.5624560000
| 22>  H        2.7801610000     0.2932300000    -0.9602210000
| 23>  H        2.5239670000     1.3042120000     1.8866420000
| 24>  H        3.0113100000     2.2180330000     0.4615710000
| 25>  H        5.0127970000     1.2670660000     1.9709690000
| 26>  H        5.0731280000     0.8499030000     0.2566990000
| 27>  H        4.0227250000    -0.8581530000     2.5280770000
| 28>  H        5.7441000000    -1.4532510000     0.4103400000
| 29>  H        2.3801410000    -1.7645850000     1.1673690000
| 30>  H        3.4423060000    -1.8047860000    -0.2228490000
| 31> *
| 32>
| 33>                          ****END OF INPUT****
 Total Charge           Charge          ....    0
 Multiplicity           Mult            ....    1
 Number of Electrons    NEL             ....   56
 Basis Dimension        Dim             ....  158

MULLIKEN ATOMIC CHARGES
-----------------------
   0 C :    0.055659
   1 C :   -0.198267
   2 C :    0.028630
   3 C :    0.058513
   4 C :    0.021459
   5 O :   -0.264699
   6 C :    0.102616
   7 H :    0.012407
   8 H :    0.011409
   9 H :    0.020617
  10 H :   -0.000682
  11 H :    0.004818
  12 H :    0.008121
  13 H :    0.017174
  14 H :   -0.015177
  15 H :   -0.001380
  16 H :    0.148367
  17 H :   -0.000043
  18 H :   -0.009541
Sum of atomic charges:   -0.0000000

LOEWDIN ATOMIC CHARGES
----------------------
   0 C :   -0.058890
   1 C :   -0.046166
   2 C :   -0.036768
   3 C :   -0.055812
   4 C :    0.042789
   5 O :   -0.109316
   6 C :   -0.052818
   7 H :    0.025115
   8 H :    0.022470
   9 H :    0.026213
  10 H :    0.023215
  11 H :    0.022247
  12 H :    0.022528
  13 H :    0.024949
  14 H :    0.018444
  15 H :    0.021849
  16 H :    0.061386
  17 H :    0.025556
  18 H :    0.023009

  Mayer bond orders larger than 0.1
B(  0-C ,  1-C ) :   1.0842 B(  0-C ,  7-H ) :   0.9548 B(  0-C ,  8-H ) :   0.9549
B(  0-C ,  9-H ) :   0.9620 B(  1-C ,  2-C ) :   1.0720 B(  1-C ,  6-C ) :   1.0724
B(  1-C , 10-H ) :   0.9028 B(  2-C ,  3-C ) :   1.0635 B(  2-C , 11-H ) :   0.9262
B(  2-C , 12-H ) :   0.9316 B(  3-C ,  4-C ) :   1.0738 B(  3-C , 13-H ) :   0.9336
B(  3-C , 14-H ) :   0.9087 B(  4-C ,  5-O ) :   1.0713 B(  4-C ,  6-C ) :   1.0585
B(  4-C , 15-H ) :   0.8991 B(  5-O , 16-H ) :   0.9826 B(  6-C , 17-H ) :   0.9171
B(  6-C , 18-H ) :   0.9093

FINAL SINGLE POINT ENERGY      -310.444141469017

DIPOLE MOMENT
-------------
                                X             Y             Z
Electronic contribution:      4.87048      -2.29850       1.34936
Nuclear contribution   :     -5.11064       2.62443      -1.81887
                        -----------------------------------------
Total Dipole Moment    :     -0.24016       0.32593      -0.46951
                        -----------------------------------------
Magnitude (a.u.)       :      0.61995
Magnitude (Debye)      :      1.57580

                             ****ORCA TERMINATED NORMALLY****
TOTAL RUN TIME: 0 days 0 hours 0 minutes 8 seconds 508 msec
