                         Program Version 3.0.3 - RELEASE   -
|  1> ! RI PBE def2-SVP def2-SVP/J NBO PAL2
|  2> % maxcore 2000
|  3> % output
|  4>     # printlevel mini
|  5>     print[ P_Basis ] 0
|  6>     print[ P_SCFInfo ] 1
|  7>     print[ P_SCFIterInfo ] 1
|  8>     print[ P_OrbEn ] 0
|  9>     print[ P_Cartesian ] 0
| 10> end
| 11> *xyz 0 1
| 12>  C        0.9457540000     0.0022970000    -0.0148650000
| 13>  C        2.4099420000     0.1887020000    -0.0097080000
| 14>  C        3.2256590000     1.2654500000    -0.0094170000
| 15>  C        4.5750610000     0.7778910000    -0.0029260000
| 16>  C        4.4544480000    -0.5711150000     0.0001910000
| 17>  O        5.3147490000    -1.5960890000     0.0062260000
| 18>  O        3.1730540000    -0.9539750000    -0.0037320000
| 19>  H        0.4554400000     0.9759900000    -0.0193150000
| 20>  H        0.6062910000    -0.5476120000     0.8680020000
| 21>  H        0.6130980000    -0.5522510000    -0.8974230000
| 22>  H        2.9100430000     2.2970690000    -0.0133690000
| 23>  H        5.4884580000     1.3503800000    -0.0009270000
| 24>  H        6.2084920000    -1.2436270000     0.0087620000
| 25> *
| 26>
| 27>                          ****END OF INPUT****
 Total Charge           Charge          ....    0
 Multiplicity           Mult            ....    1
 Number of Electrons    NEL             ....   52
 Basis Dimension        Dim             ....  128

MULLIKEN ATOMIC CHARGES
-----------------------
   0 C :    0.095983
   1 C :   -0.025288
   2 C :   -0.046255
   3 C :   -0.142858
   4 C :    0.208695
   5 O :   -0.132873
   6 O :   -0.177456
   7 H :    0.018255
   8 H :    0.036300
   9 H :    0.036298
  10 H :   -0.023134
  11 H :   -0.028932
  12 H :    0.181266
Sum of atomic charges:   -0.0000000

LOEWDIN ATOMIC CHARGES
----------------------
   0 C :   -0.064949
   1 C :   -0.007151
   2 C :   -0.082170
   3 C :   -0.157216
   4 C :    0.038703
   5 O :   -0.014267
   6 O :    0.016320
   7 H :    0.042473
   8 H :    0.039259
   9 H :    0.039259
  10 H :    0.026638
  11 H :    0.023220
  12 H :    0.099881

  Mayer bond orders larger than 0.1
B(  0-C ,  1-C ) :   1.1291 B(  0-C ,  7-H ) :   0.9436 B(  0-C ,  8-H ) :   0.9346
B(  0-C ,  9-H ) :   0.9346 B(  1-C ,  2-C ) :   1.5996 B(  1-C ,  6-O ) :   1.0809
B(  2-C ,  3-C ) :   1.1357 B(  2-C , 10-H ) :   1.0093 B(  3-C ,  4-C ) :   1.4754
B(  3-C , 11-H ) :   1.0099 B(  4-C ,  5-O ) :   1.2459 B(  4-C ,  6-O ) :   1.1662
B(  5-O , 12-H ) :   0.9645

FINAL SINGLE POINT ENERGY      -343.910772707890

DIPOLE MOMENT
-------------
                                X             Y             Z
Electronic contribution:      4.59223      -2.81759       0.02517
Nuclear contribution   :     -4.19435       3.16974      -0.02458
                        -----------------------------------------
Total Dipole Moment    :      0.39788       0.35215       0.00059
                        -----------------------------------------
Magnitude (a.u.)       :      0.53134
Magnitude (Debye)      :      1.35055

                             ****ORCA TERMINATED NORMALLY****
TOTAL RUN TIME: 0 days 0 hours 0 minutes 6 seconds 482 msec
