                         Program Version 3.0.3 - RELEASE   -
|  1> ! RI PBE def2-SVP def2-SVP/J NBO PAL2
|  2> % maxcore 2000
|  3> % output
|  4>     # printlevel mini
|  5>     print[ P_Basis ] 0
|  6>     print[ P_SCFInfo ] 1
|  7>     print[ P_SCFIterInfo ] 1
|  8>     print[ P_OrbEn ] 0
|  9>     print[ P_Cartesian ] 0
| 10> end
| 11> *xyz 0 1
| 12>  C        1.0597670000    -0.1934220000     0.3089910000
| 13>  C        2.3175150000    -0.0248700000    -0.0606770000
| 14>  C        3.1356750000     1.2401500000    -0.1206470000
| 15>  C        4.4935200000     0.7697630000    -0.6235260000
| 16>  C        4.3457560000    -0.7213840000    -0.8094490000
| 17>  O        5.1529940000    -1.5091830000    -1.1852170000
| 18>  O        3.0798680000    -1.0951190000    -0.4676690000
| 19>  H        0.4736920000     0.6580170000     0.6263460000
| 20>  H        0.5991230000    -1.1717150000     0.3013710000
| 21>  H        3.1934030000     1.7029230000     0.8656100000
| 22>  H        2.6696400000     1.9634580000    -0.7913070000
| 23>  H        5.3122230000     0.9481790000     0.0750480000
| 24>  H        4.7887450000     1.2057930000    -1.5789640000
| 25> *
| 26>
| 27>                          ****END OF INPUT****
 Total Charge           Charge          ....    0
 Multiplicity           Mult            ....    1
 Number of Electrons    NEL             ....   52
 Basis Dimension        Dim             ....  128

MULLIKEN ATOMIC CHARGES
-----------------------
   0 C :   -0.070814
   1 C :   -0.018247
   2 C :    0.076325
   3 C :   -0.051991
   4 C :    0.096730
   5 O :   -0.125427
   6 O :   -0.178332
   7 H :    0.016564
   8 H :    0.033707
   9 H :    0.048621
  10 H :    0.051184
  11 H :    0.061738
  12 H :    0.059942
Sum of atomic charges:   -0.0000000

LOEWDIN ATOMIC CHARGES
----------------------
   0 C :   -0.110341
   1 C :    0.030587
   2 C :   -0.044964
   3 C :   -0.068995
   4 C :    0.049239
   5 O :   -0.111235
   6 O :   -0.016494
   7 H :    0.032889
   8 H :    0.036304
   9 H :    0.047056
  10 H :    0.047344
  11 H :    0.054341
  12 H :    0.054271

  Mayer bond orders larger than 0.1
B(  0-C ,  1-C ) :   1.9861 B(  0-C ,  7-H ) :   0.9274 B(  0-C ,  8-H ) :   0.9255
B(  1-C ,  2-C ) :   1.0198 B(  1-C ,  6-O ) :   1.0686 B(  2-C ,  3-C ) :   1.1063
B(  2-C ,  9-H ) :   0.9071 B(  2-C , 10-H ) :   0.9078 B(  3-C ,  4-C ) :   1.0027
B(  3-C , 11-H ) :   0.9092 B(  3-C , 12-H ) :   0.9080 B(  4-C ,  5-O ) :   2.2217
B(  4-C ,  6-O ) :   1.0746

FINAL SINGLE POINT ENERGY      -343.925287355977

DIPOLE MOMENT
-------------
                                X             Y             Z
Electronic contribution:      2.73885      -4.92116      -1.63000
Nuclear contribution   :     -3.11923       6.29342       1.96357
                        -----------------------------------------
Total Dipole Moment    :     -0.38038       1.37227       0.33357
                        -----------------------------------------
Magnitude (a.u.)       :      1.46256
Magnitude (Debye)      :      3.71752

                             ****ORCA TERMINATED NORMALLY****
TOTAL RUN TIME: 0 days 0 hours 0 minutes 6 seconds 40 msec
