                         Program Version 3.0.3 - RELEASE   -
|  1> ! RI PBE def2-SVP def2-SVP/J NBO PAL2
|  2> % maxcore 2000
|  3> % output
|  4>     # printlevel mini
|  5>     print[ P_Basis ] 0
|  6>     print[ P_SCFInfo ] 1
|  7>     print[ P_SCFIterInfo ] 1
|  8>     print[ P_OrbEn ] 0
|  9>     print[ P_Cartesian ] 0
| 10> end
| 11> *xyz 0 1
| 12>  C        1.0773980000     0.1637710000    -0.0664790000
| 13>  C        2.5387230000    -0.0271530000    -0.1253020000
| 14>  C        3.3067440000    -1.1109010000    -0.0786560000
| 15>  C        4.7284420000    -0.6816380000    -0.1843880000
| 16>  C        4.6049240000     0.8240080000    -0.2968590000
| 17>  O        5.4489870000     1.6541210000    -0.4050440000
| 18>  O        3.2704410000     1.1432120000    -0.2545920000
| 19>  H        0.5746370000    -0.7973450000     0.0346600000
| 20>  H        0.7178950000     0.6597980000    -0.9720180000
| 21>  H        0.8065490000     0.7979820000     0.7818760000
| 22>  H        2.9512160000    -2.1248510000     0.0192720000
| 23>  H        5.2570320000    -1.0651380000    -1.0627350000
| 24>  H        5.3454230000    -0.9272660000     0.6856560000
| 25> *
| 26>
| 27>                          ****END OF INPUT****
 Total Charge           Charge          ....    0
 Multiplicity           Mult            ....    1
 Number of Electrons    NEL             ....   52
 Basis Dimension        Dim             ....  128

MULLIKEN ATOMIC CHARGES
-----------------------
   0 C :    0.095603
   1 C :    0.004444
   2 C :   -0.148413
   3 C :    0.033271
   4 C :    0.098457
   5 O :   -0.127242
   6 O :   -0.210307
   7 H :    0.024353
   8 H :    0.047837
   9 H :    0.048678
  10 H :   -0.007002
  11 H :    0.070019
  12 H :    0.070301
Sum of atomic charges:   -0.0000000

LOEWDIN ATOMIC CHARGES
----------------------
   0 C :   -0.060620
   1 C :    0.034048
   2 C :   -0.101687
   3 C :   -0.064461
   4 C :    0.059663
   5 O :   -0.112614
   6 O :   -0.041014
   7 H :    0.042796
   8 H :    0.048007
   9 H :    0.048110
  10 H :    0.028354
  11 H :    0.059717
  12 H :    0.059699

  Mayer bond orders larger than 0.1
B(  0-C ,  1-C ) :   1.1219 B(  0-C ,  7-H ) :   0.9444 B(  0-C ,  8-H ) :   0.9319
B(  0-C ,  9-H ) :   0.9315 B(  1-C ,  2-C ) :   1.7738 B(  1-C ,  6-O ) :   1.0361
B(  2-C ,  3-C ) :   1.0119 B(  2-C , 10-H ) :   0.9946 B(  3-C ,  4-C ) :   0.9892
B(  3-C , 11-H ) :   0.8953 B(  3-C , 12-H ) :   0.8955 B(  4-C ,  5-O ) :   2.2247
B(  4-C ,  6-O ) :   1.0697

FINAL SINGLE POINT ENERGY      -343.930779750245

DIPOLE MOMENT
-------------
                                X             Y             Z
Electronic contribution:      4.59827       3.84573      -0.53413
Nuclear contribution   :     -5.40540      -5.00590       0.66806
                        -----------------------------------------
Total Dipole Moment    :     -0.80713      -1.16017       0.13392
                        -----------------------------------------
Magnitude (a.u.)       :      1.41964
Magnitude (Debye)      :      3.60845

                             ****ORCA TERMINATED NORMALLY****
TOTAL RUN TIME: 0 days 0 hours 0 minutes 6 seconds 128 msec
