                         Program Version 3.0.3 - RELEASE   -
|  1> ! RI PBE def2-SVP def2-SVP/J NBO PAL2
|  2> % maxcore 2000
|  3> % output
|  4>     # printlevel mini
|  5>     print[ P_Basis ] 0
|  6>     print[ P_SCFInfo ] 1
|  7>     print[ P_SCFIterInfo ] 1
|  8>     print[ P_OrbEn ] 0
|  9>     print[ P_Cartesian ] 0
| 10> end
| 11> *xyz 0 1
| 12>  C        0.9702710000    -0.1269930000     0.2885260000
| 13>  C        2.4325580000     0.0789600000    -0.0147660000
| 14>  C        2.7427160000     0.0873910000    -1.4900370000
| 15>  C        3.1498240000     1.1434020000     0.8283400000
| 16>  C        3.8851030000    -0.0404040000     1.4182710000
| 17>  O        4.7254270000    -0.2327860000     2.2324800000
| 18>  O        3.2360070000    -0.9618770000     0.6604580000
| 19>  H        0.3788890000     0.6901510000    -0.1314680000
| 20>  H        0.7964100000    -0.1633330000     1.3656070000
| 21>  H        0.6187270000    -1.0639650000    -0.1485610000
| 22>  H        2.2216760000     0.9130420000    -1.9806160000
| 23>  H        2.4171750000    -0.8464370000    -1.9532130000
| 24>  H        3.8144910000     0.2017190000    -1.6628900000
| 25>  H        2.5351200000     1.6871520000     1.5456330000
| 26>  H        3.7902070000     1.8390690000     0.2861360000
| 27> *
| 28>
| 29>                          ****END OF INPUT****
 Total Charge           Charge          ....    0
 Multiplicity           Mult            ....    1
 Number of Electrons    NEL             ....   54
 Basis Dimension        Dim             ....  138

MULLIKEN ATOMIC CHARGES
-----------------------
   0 C :    0.101622
   1 C :   -0.245381
   2 C :    0.102903
   3 C :    0.036603
   4 C :    0.115611
   5 O :   -0.129241
   6 O :   -0.235296
   7 H :    0.030590
   8 H :    0.020915
   9 H :    0.031823
  10 H :    0.028811
  11 H :    0.034459
  12 H :    0.020291
  13 H :    0.043307
  14 H :    0.042983
Sum of atomic charges:   -0.0000000

LOEWDIN ATOMIC CHARGES
----------------------
   0 C :   -0.056029
   1 C :    0.038307
   2 C :   -0.055818
   3 C :   -0.063985
   4 C :    0.034411
   5 O :   -0.113247
   6 O :   -0.082828
   7 H :    0.036748
   8 H :    0.032609
   9 H :    0.036180
  10 H :    0.036502
  11 H :    0.036420
  12 H :    0.032612
  13 H :    0.044145
  14 H :    0.043973

  Mayer bond orders larger than 0.1
B(  0-C ,  1-C ) :   1.0660 B(  0-C ,  7-H ) :   0.9510 B(  0-C ,  8-H ) :   0.9421
B(  0-C ,  9-H ) :   0.9506 B(  1-C ,  2-C ) :   1.0651 B(  1-C ,  3-C ) :   1.0553
B(  1-C ,  6-O ) :   0.9570 B(  2-C , 10-H ) :   0.9505 B(  2-C , 11-H ) :   0.9523
B(  2-C , 12-H ) :   0.9416 B(  3-C ,  4-C ) :   0.9536 B(  3-C , 13-H ) :   0.9155
B(  3-C , 14-H ) :   0.9160 B(  4-C ,  5-O ) :   2.2238 B(  4-C ,  6-O ) :   1.1281
B(  5-O ,  6-O ) :   0.1133

FINAL SINGLE POINT ENERGY      -345.127574809279

DIPOLE MOMENT
-------------
                                X             Y             Z
Electronic contribution:      6.02672      -2.40813       5.71427
Nuclear contribution   :     -7.09264       3.19708      -6.68249
                        -----------------------------------------
Total Dipole Moment    :     -1.06592       0.78895      -0.96822
                        -----------------------------------------
Magnitude (a.u.)       :      1.64198
Magnitude (Debye)      :      4.17357

                             ****ORCA TERMINATED NORMALLY****
TOTAL RUN TIME: 0 days 0 hours 0 minutes 6 seconds 898 msec
