                         Program Version 3.0.3 - RELEASE   -
|  1> ! RI PBE def2-SVP def2-SVP/J NBO PAL2
|  2> % maxcore 2000
|  3> % output
|  4>     # printlevel mini
|  5>     print[ P_Basis ] 0
|  6>     print[ P_SCFInfo ] 1
|  7>     print[ P_SCFIterInfo ] 1
|  8>     print[ P_OrbEn ] 0
|  9>     print[ P_Cartesian ] 0
| 10> end
| 11> *xyz 0 1
| 12>  C        1.0699710000    -0.1970790000     0.3878090000
| 13>  C        2.5212370000     0.0375040000     0.0745470000
| 14>  C        3.2095350000     1.2640950000     0.6876660000
| 15>  C        4.1723280000     0.2491850000     1.3046500000
| 16>  C        5.5674360000     0.2089960000     0.7330050000
| 17>  O        6.2174260000    -0.9893200000     1.0749280000
| 18>  O        3.3946880000    -0.8573410000     0.7998960000
| 19>  H        0.4462000000     0.5230740000    -0.1492120000
| 20>  H        0.8832130000    -0.0923260000     1.4590100000
| 21>  H        0.7702500000    -1.2022110000     0.0822940000
| 22>  H        2.6952900000    -0.0603790000    -1.0041820000
| 23>  H        2.5931960000     1.8021540000     1.4077290000
| 24>  H        3.6525510000     1.9720100000    -0.0138240000
| 25>  H        4.2163320000     0.2188370000     2.3984500000
| 26>  H        6.1638870000     1.0312390000     1.1396460000
| 27>  H        5.5162200000     0.3366440000    -0.3593760000
| 28>  H        5.6179520000    -1.7033820000     0.8309730000
| 29> *
| 30>
| 31>                          ****END OF INPUT****
 Total Charge           Charge          ....    0
 Multiplicity           Mult            ....    1
 Number of Electrons    NEL             ....   56
 Basis Dimension        Dim             ....  148

MULLIKEN ATOMIC CHARGES
-----------------------
   0 C :    0.061022
   1 C :    0.030867
   2 C :    0.032963
   3 C :   -0.018137
   4 C :    0.267092
   5 O :   -0.285860
   6 O :   -0.356558
   7 H :    0.023997
   8 H :    0.013641
   9 H :    0.030013
  10 H :    0.012963
  11 H :    0.010960
  12 H :    0.017715
  13 H :    0.016375
  14 H :    0.008066
  15 H :   -0.020718
  16 H :    0.155600
Sum of atomic charges:    0.0000000

LOEWDIN ATOMIC CHARGES
----------------------
   0 C :   -0.070845
   1 C :    0.068955
   2 C :   -0.045666
   3 C :    0.044171
   4 C :    0.041900
   5 O :   -0.118187
   6 O :   -0.185511
   7 H :    0.034080
   8 H :    0.027385
   9 H :    0.034449
  10 H :    0.011518
  11 H :    0.027678
  12 H :    0.024986
  13 H :    0.013306
  14 H :    0.023190
  15 H :    0.002660
  16 H :    0.065930

  Mayer bond orders larger than 0.1
B(  0-C ,  1-C ) :   1.1022 B(  0-C ,  7-H ) :   0.9477 B(  0-C ,  8-H ) :   0.9465
B(  0-C ,  9-H ) :   0.9518 B(  1-C ,  2-C ) :   1.0791 B(  1-C ,  6-O ) :   1.0114
B(  1-C , 10-H ) :   0.9178 B(  2-C ,  3-C ) :   1.0660 B(  2-C , 11-H ) :   0.9197
B(  2-C , 12-H ) :   0.9341 B(  3-C ,  4-C ) :   1.0410 B(  3-C ,  6-O ) :   1.0122
B(  3-C , 13-H ) :   0.9136 B(  4-C ,  5-O ) :   1.0741 B(  4-C , 14-H ) :   0.9240
B(  4-C , 15-H ) :   0.9075 B(  5-O , 16-H ) :   0.9725

FINAL SINGLE POINT ENERGY      -346.275761684967

DIPOLE MOMENT
-------------
                                X             Y             Z
Electronic contribution:      4.10002      -2.74165       1.05407
Nuclear contribution   :     -4.81705       3.35410      -1.36885
                        -----------------------------------------
Total Dipole Moment    :     -0.71703       0.61245      -0.31478
                        -----------------------------------------
Magnitude (a.u.)       :      0.99414
Magnitude (Debye)      :      2.52689

                             ****ORCA TERMINATED NORMALLY****
TOTAL RUN TIME: 0 days 0 hours 0 minutes 7 seconds 526 msec
