                         Program Version 3.0.3 - RELEASE   -
|  1> ! RI PBE def2-SVP def2-SVP/J NBO PAL2
|  2> % maxcore 2000
|  3> % output
|  4>     # printlevel mini
|  5>     print[ P_Basis ] 0
|  6>     print[ P_SCFInfo ] 1
|  7>     print[ P_SCFIterInfo ] 1
|  8>     print[ P_OrbEn ] 0
|  9>     print[ P_Cartesian ] 0
| 10> end
| 11> *xyz 0 1
| 12>  C        1.0429840000    -0.1375000000     0.1233450000
| 13>  C        2.5437550000    -0.0223100000     0.1158820000
| 14>  C        3.1193500000     1.1463320000     0.9116360000
| 15>  C        4.4642500000     0.6021840000     1.3576770000
| 16>  C        4.2343680000    -0.8929270000     1.4151630000
| 17>  O        4.8968740000    -1.7238900000     1.9570560000
| 18>  O        3.1128470000    -1.1945470000     0.7250530000
| 19>  H        0.6001590000     0.7446580000    -0.3452930000
| 20>  H        0.6709240000    -0.2107520000     1.1476420000
| 21>  H        0.7161060000    -1.0200170000    -0.4284970000
| 22>  H        2.9110940000     0.0099330000    -0.9177390000
| 23>  H        2.4813430000     1.3483400000     1.7769210000
| 24>  H        3.1800230000     2.0577210000     0.3162610000
| 25>  H        4.8235700000     0.9658770000     2.3188580000
| 26>  H        5.2512740000     0.7864000000     0.6193460000
| 27> *
| 28>
| 29>                          ****END OF INPUT****
 Total Charge           Charge          ....    0
 Multiplicity           Mult            ....    1
 Number of Electrons    NEL             ....   54
 Basis Dimension        Dim             ....  138

MULLIKEN ATOMIC CHARGES
-----------------------
   0 C :    0.044747
   1 C :    0.021894
   2 C :    0.000651
   3 C :   -0.025582
   4 C :    0.086381
   5 O :   -0.149357
   6 O :   -0.238923
   7 H :    0.027089
   8 H :    0.024802
   9 H :    0.040243
  10 H :    0.022176
  11 H :    0.024713
  12 H :    0.023708
  13 H :    0.044071
  14 H :    0.053389
Sum of atomic charges:    0.0000000

LOEWDIN ATOMIC CHARGES
----------------------
   0 C :   -0.064255
   1 C :    0.059014
   2 C :   -0.046509
   3 C :   -0.072052
   4 C :    0.036954
   5 O :   -0.130290
   6 O :   -0.066822
   7 H :    0.036098
   8 H :    0.031294
   9 H :    0.037060
  10 H :    0.019592
  11 H :    0.032069
  12 H :    0.032626
  13 H :    0.044703
  14 H :    0.050517

  Mayer bond orders larger than 0.1
B(  0-C ,  1-C ) :   1.1088 B(  0-C ,  7-H ) :   0.9514 B(  0-C ,  8-H ) :   0.9499
B(  0-C ,  9-H ) :   0.9551 B(  1-C ,  2-C ) :   1.0569 B(  1-C ,  6-O ) :   0.9455
B(  1-C , 10-H ) :   0.9210 B(  2-C ,  3-C ) :   1.1012 B(  2-C , 11-H ) :   0.9254
B(  2-C , 12-H ) :   0.9237 B(  3-C ,  4-C ) :   0.9687 B(  3-C , 13-H ) :   0.9281
B(  3-C , 14-H ) :   0.9126 B(  4-C ,  5-O ) :   2.1978 B(  4-C ,  6-O ) :   1.1395

FINAL SINGLE POINT ENERGY      -345.144274139805

DIPOLE MOMENT
-------------
                                X             Y             Z
Electronic contribution:      4.99292      -5.47287       2.25801
Nuclear contribution   :     -5.65817       6.87949      -2.86718
                        -----------------------------------------
Total Dipole Moment    :     -0.66525       1.40662      -0.60917
                        -----------------------------------------
Magnitude (a.u.)       :      1.67099
Magnitude (Debye)      :      4.24733

                             ****ORCA TERMINATED NORMALLY****
TOTAL RUN TIME: 0 days 0 hours 0 minutes 6 seconds 876 msec
