                         Program Version 3.0.3 - RELEASE   -
|  1> ! RI PBE def2-SVP def2-SVP/J NBO PAL2
|  2> % maxcore 2000
|  3> % output
|  4>     # printlevel mini
|  5>     print[ P_Basis ] 0
|  6>     print[ P_SCFInfo ] 1
|  7>     print[ P_SCFIterInfo ] 1
|  8>     print[ P_OrbEn ] 0
|  9>     print[ P_Cartesian ] 0
| 10> end
| 11> *xyz 0 1
| 12>  C        1.0148460000    -0.0570970000     0.2440340000
| 13>  C        2.4699510000     0.2299460000    -0.0593920000
| 14>  C        3.1638930000     1.2573430000     0.8529350000
| 15>  C        4.0791460000     0.0973270000     1.2374550000
| 16>  O        3.3196000000    -0.8316960000     0.4544950000
| 17>  C        2.6874520000     0.3711860000    -1.5341260000
| 18>  C        2.9202720000     1.4947680000    -2.1948610000
| 19>  H        0.8815920000    -0.2408550000     1.3122170000
| 20>  H        0.6801900000    -0.9423970000    -0.3022150000
| 21>  H        0.3900750000     0.7879090000    -0.0552670000
| 22>  H        2.5289550000     1.6245750000     1.6587810000
| 23>  H        3.6415250000     2.0982750000     0.3538690000
| 24>  H        4.0931390000    -0.1798780000     2.2954960000
| 25>  H        5.1091610000     0.1820350000     0.8755870000
| 26>  H        2.6198970000    -0.5719160000    -2.0736250000
| 27>  H        2.9918080000     2.4542760000    -1.6929540000
| 28>  H        3.0405870000     1.4996100000    -3.2718180000
| 29> *
| 30>
| 31>                          ****END OF INPUT****
 Total Charge           Charge          ....    0
 Multiplicity           Mult            ....    1
 Number of Electrons    NEL             ....   54
 Basis Dimension        Dim             ....  148

MULLIKEN ATOMIC CHARGES
-----------------------
   0 C :    0.109945
   1 C :   -0.114986
   2 C :    0.018541
   3 C :    0.193794
   4 O :   -0.347065
   5 C :    0.011411
   6 C :   -0.041415
   7 H :    0.011451
   8 H :    0.018968
   9 H :    0.024542
  10 H :    0.008757
  11 H :    0.017595
  12 H :    0.016077
  13 H :    0.013810
  14 H :    0.012258
  15 H :    0.015314
  16 H :    0.031002
Sum of atomic charges:    0.0000000

LOEWDIN ATOMIC CHARGES
----------------------
   0 C :   -0.057205
   1 C :    0.034957
   2 C :   -0.040812
   3 C :    0.084873
   4 O :   -0.175927
   5 C :   -0.025355
   6 C :   -0.063833
   7 H :    0.027313
   8 H :    0.032225
   9 H :    0.033790
  10 H :    0.025952
  11 H :    0.023749
  12 H :    0.010486
  13 H :    0.010192
  14 H :    0.032035
  15 H :    0.019723
  16 H :    0.027836

  Mayer bond orders larger than 0.1
B(  0-C ,  1-C ) :   1.0487 B(  0-C ,  7-H ) :   0.9370 B(  0-C ,  8-H ) :   0.9466
B(  0-C ,  9-H ) :   0.9502 B(  1-C ,  2-C ) :   1.0919 B(  1-C ,  4-O ) :   1.0100
B(  1-C ,  5-C ) :   0.9787 B(  2-C ,  3-C ) :   1.1165 B(  2-C , 10-H ) :   0.9239
B(  2-C , 11-H ) :   0.9266 B(  3-C ,  4-O ) :   1.0276 B(  3-C , 12-H ) :   0.9406
B(  3-C , 13-H ) :   0.9359 B(  5-C ,  6-C ) :   2.0076 B(  5-C , 14-H ) :   0.9456
B(  6-C , 15-H ) :   0.9410 B(  6-C , 16-H ) :   0.9405

FINAL SINGLE POINT ENERGY      -309.190231503395

DIPOLE MOMENT
-------------
                                X             Y             Z
Electronic contribution:      1.84302      -2.43244      -0.09140
Nuclear contribution   :     -1.95690       3.00831       0.22508
                        -----------------------------------------
Total Dipole Moment    :     -0.11388       0.57587       0.13368
                        -----------------------------------------
Magnitude (a.u.)       :      0.60204
Magnitude (Debye)      :      1.53028

                             ****ORCA TERMINATED NORMALLY****
TOTAL RUN TIME: 0 days 0 hours 0 minutes 7 seconds 661 msec
