                         Program Version 3.0.3 - RELEASE   -
|  1> ! RI PBE def2-SVP def2-SVP/J NBO PAL2
|  2> % maxcore 2000
|  3> % output
|  4>     # printlevel mini
|  5>     print[ P_Basis ] 0
|  6>     print[ P_SCFInfo ] 1
|  7>     print[ P_SCFIterInfo ] 1
|  8>     print[ P_OrbEn ] 0
|  9>     print[ P_Cartesian ] 0
| 10> end
| 11> *xyz 0 1
| 12>  C        0.9961050000    -0.1436160000     0.1201200000
| 13>  C        2.4814790000     0.0001730000    -0.1286550000
| 14>  C        3.2252910000     1.0843710000     0.6868790000
| 15>  C        4.0503730000    -0.0820590000     1.2254640000
| 16>  O        3.2313200000    -1.0409120000     0.5412040000
| 17>  C        2.7752470000     0.0330970000    -1.5591060000
| 18>  C        3.0120850000     0.0744290000    -2.7354170000
| 19>  H        0.8029500000    -0.1645580000     1.1940830000
| 20>  H        0.6318760000    -1.0725640000    -0.3221150000
| 21>  H        0.4523230000     0.6906580000    -0.3282620000
| 22>  H        2.5879920000     1.5741240000     1.4227430000
| 23>  H        3.7584340000     1.8302660000     0.1019270000
| 24>  H        4.0341340000    -0.2355750000     2.3077710000
| 25>  H        5.0860320000    -0.1129430000     0.8722900000
| 26>  H        3.2254590000     0.1007980000    -3.7779260000
| 27> *
| 28>
| 29>                          ****END OF INPUT****
 Total Charge           Charge          ....    0
 Multiplicity           Mult            ....    1
 Number of Electrons    NEL             ....   52
 Basis Dimension        Dim             ....  138

MULLIKEN ATOMIC CHARGES
-----------------------
   0 C :    0.099888
   1 C :   -0.160453
   2 C :    0.029336
   3 C :    0.196162
   4 O :   -0.322994
   5 C :    0.517979
   6 C :   -0.528323
   7 H :    0.013329
   8 H :    0.036676
   9 H :    0.030407
  10 H :    0.016221
  11 H :    0.028713
  12 H :    0.022335
  13 H :    0.019181
  14 H :    0.001543
Sum of atomic charges:   -0.0000000

LOEWDIN ATOMIC CHARGES
----------------------
   0 C :   -0.048638
   1 C :    0.025033
   2 C :   -0.030137
   3 C :    0.084917
   4 O :   -0.163044
   5 C :   -0.019307
   6 C :   -0.072362
   7 H :    0.028253
   8 H :    0.038615
   9 H :    0.036795
  10 H :    0.028456
  11 H :    0.030453
  12 H :    0.012509
  13 H :    0.012691
  14 H :    0.035767

  Mayer bond orders larger than 0.1
B(  0-C ,  1-C ) :   1.0492 B(  0-C ,  7-H ) :   0.9397 B(  0-C ,  8-H ) :   0.9515
B(  0-C ,  9-H ) :   0.9496 B(  1-C ,  2-C ) :   1.0835 B(  1-C ,  4-O ) :   1.0727
B(  1-C ,  5-C ) :   0.8774 B(  2-C ,  3-C ) :   1.1019 B(  2-C , 10-H ) :   0.9247
B(  2-C , 11-H ) :   0.9397 B(  3-C ,  4-O ) :   1.0169 B(  3-C , 12-H ) :   0.9421
B(  3-C , 13-H ) :   0.9369 B(  5-C ,  6-C ) :   2.2902 B(  5-C , 14-H ) :  -0.1163
B(  6-C , 14-H ) :   1.1053

FINAL SINGLE POINT ENERGY      -307.944760721147

DIPOLE MOMENT
-------------
                                X             Y             Z
Electronic contribution:      1.79704      -1.95428      -2.66556
Nuclear contribution   :     -1.85436       2.62237       2.84064
                        -----------------------------------------
Total Dipole Moment    :     -0.05732       0.66809       0.17509
                        -----------------------------------------
Magnitude (a.u.)       :      0.69303
Magnitude (Debye)      :      1.76153

                             ****ORCA TERMINATED NORMALLY****
TOTAL RUN TIME: 0 days 0 hours 0 minutes 6 seconds 840 msec
