                         Program Version 3.0.3 - RELEASE   -
|  1> ! RI PBE def2-SVP def2-SVP/J NBO PAL2
|  2> % maxcore 2000
|  3> % output
|  4>     # printlevel mini
|  5>     print[ P_Basis ] 0
|  6>     print[ P_SCFInfo ] 1
|  7>     print[ P_SCFIterInfo ] 1
|  8>     print[ P_OrbEn ] 0
|  9>     print[ P_Cartesian ] 0
| 10> end
| 11> *xyz 0 1
| 12>  C        0.9465440000    -0.2233170000     0.4504280000
| 13>  C        2.2834040000     0.2089650000    -0.0899140000
| 14>  C        2.9975500000     1.3644830000     0.6192400000
| 15>  C        4.0665460000     0.3177340000     0.9768760000
| 16>  O        3.3427480000    -0.7044240000     0.2615570000
| 17>  C        5.4344540000     0.5362490000     0.4408200000
| 18>  C        6.5298240000     0.5439220000     1.1869710000
| 19>  H        0.1768020000     0.5098230000     0.1924980000
| 20>  H        0.9818550000    -0.3244590000     1.5379500000
| 21>  H        0.6567240000    -1.1868190000     0.0249670000
| 22>  H        2.2296210000     0.3218750000    -1.1795260000
| 23>  H        2.4638380000     1.7898000000     1.4691720000
| 24>  H        3.3465070000     2.1687230000    -0.0281100000
| 25>  H        4.1218990000     0.0805610000     2.0460040000
| 26>  H        5.4993900000     0.7027540000    -0.6328790000
| 27>  H        6.4821130000     0.3652270000     2.2569870000
| 28>  H        7.5096700000     0.7280220000     0.7620810000
| 29> *
| 30>
| 31>                          ****END OF INPUT****
 Total Charge           Charge          ....    0
 Multiplicity           Mult            ....    1
 Number of Electrons    NEL             ....   54
 Basis Dimension        Dim             ....  148

MULLIKEN ATOMIC CHARGES
-----------------------
   0 C :    0.055346
   1 C :    0.026105
   2 C :    0.039857
   3 C :    0.090485
   4 O :   -0.336495
   5 C :    0.014648
   6 C :   -0.025867
   7 H :    0.022004
   8 H :    0.013196
   9 H :    0.029685
  10 H :    0.011070
  11 H :    0.012669
  12 H :    0.013815
  13 H :   -0.006848
  14 H :   -0.006039
  15 H :    0.022319
  16 H :    0.024052
Sum of atomic charges:   -0.0000000

LOEWDIN ATOMIC CHARGES
----------------------
   0 C :   -0.074670
   1 C :    0.063690
   2 C :   -0.039326
   3 C :    0.067661
   4 O :   -0.174547
   5 C :   -0.038552
   6 C :   -0.049452
   7 H :    0.031988
   8 H :    0.027161
   9 H :    0.034025
  10 H :    0.011002
  11 H :    0.025888
  12 H :    0.026272
  13 H :    0.012454
  14 H :    0.026850
  15 H :    0.023394
  16 H :    0.026165

  Mayer bond orders larger than 0.1
B(  0-C ,  1-C ) :   1.0948 B(  0-C ,  7-H ) :   0.9479 B(  0-C ,  8-H ) :   0.9464
B(  0-C ,  9-H ) :   0.9495 B(  1-C ,  2-C ) :   1.0784 B(  1-C ,  4-O ) :   1.0302
B(  1-C , 10-H ) :   0.9187 B(  2-C ,  3-C ) :   1.0755 B(  2-C , 11-H ) :   0.9298
B(  2-C , 12-H ) :   0.9296 B(  3-C ,  4-O ) :   1.0105 B(  3-C ,  5-C ) :   1.0410
B(  3-C , 13-H ) :   0.9119 B(  5-C ,  6-C ) :   1.9751 B(  5-C , 14-H ) :   0.9445
B(  6-C , 15-H ) :   0.9491 B(  6-C , 16-H ) :   0.9374

FINAL SINGLE POINT ENERGY      -309.193589644733

DIPOLE MOMENT
-------------
                                X             Y             Z
Electronic contribution:      2.29360      -1.62828      -0.82552
Nuclear contribution   :     -2.49755       2.24772       0.90936
                        -----------------------------------------
Total Dipole Moment    :     -0.20395       0.61944       0.08384
                        -----------------------------------------
Magnitude (a.u.)       :      0.65752
Magnitude (Debye)      :      1.67128

                             ****ORCA TERMINATED NORMALLY****
TOTAL RUN TIME: 0 days 0 hours 0 minutes 7 seconds 431 msec
