                         Program Version 3.0.3 - RELEASE   -
|  1> ! RI PBE def2-SVP def2-SVP/J NBO PAL2
|  2> % maxcore 2000
|  3> % output
|  4>     # printlevel mini
|  5>     print[ P_Basis ] 0
|  6>     print[ P_SCFInfo ] 1
|  7>     print[ P_SCFIterInfo ] 1
|  8>     print[ P_OrbEn ] 0
|  9>     print[ P_Cartesian ] 0
| 10> end
| 11> *xyz 0 1
| 12>  C        1.0127070000    -0.0523960000     0.3151220000
| 13>  C        2.4640970000     0.1302650000    -0.0276800000
| 14>  C        3.2767100000     1.1688650000     0.7531680000
| 15>  C        4.1913210000    -0.0176560000     1.1087940000
| 16>  O        3.2921390000    -0.9420450000     0.4739010000
| 17>  C        5.5207310000    -0.0017550000     0.5204890000
| 18>  C        6.6218640000     0.0267600000     0.0427750000
| 19>  H        0.4281700000     0.7970800000    -0.0493070000
| 20>  H        0.8769250000    -0.1338060000     1.3960380000
| 21>  H        0.6214370000    -0.9594770000    -0.1511420000
| 22>  H        2.5917730000     0.2200750000    -1.1134600000
| 23>  H        2.7537520000     1.5860650000     1.6138220000
| 24>  H        3.7394830000     1.9657510000     0.1753080000
| 25>  H        4.2765600000    -0.2314590000     2.1796590000
| 26>  H        7.5971300000     0.0427420000    -0.3833960000
| 27> *
| 28>
| 29>                          ****END OF INPUT****
 Total Charge           Charge          ....    0
 Multiplicity           Mult            ....    1
 Number of Electrons    NEL             ....   52
 Basis Dimension        Dim             ....  138

MULLIKEN ATOMIC CHARGES
-----------------------
   0 C :    0.054257
   1 C :    0.031722
   2 C :    0.047853
   3 C :    0.068786
   4 O :   -0.323987
   5 C :    0.437366
   6 C :   -0.488904
   7 H :    0.025845
   8 H :    0.013491
   9 H :    0.035384
  10 H :    0.017127
  11 H :    0.011825
  12 H :    0.028928
  13 H :    0.035481
  14 H :    0.004825
Sum of atomic charges:   -0.0000000

LOEWDIN ATOMIC CHARGES
----------------------
   0 C :   -0.072460
   1 C :    0.066670
   2 C :   -0.029695
   3 C :    0.058968
   4 O :   -0.165103
   5 C :   -0.031758
   6 C :   -0.066909
   7 H :    0.034565
   8 H :    0.026838
   9 H :    0.036273
  10 H :    0.014833
  11 H :    0.028792
  12 H :    0.030530
  13 H :    0.032131
  14 H :    0.036324

  Mayer bond orders larger than 0.1
B(  0-C ,  1-C ) :   1.0994 B(  0-C ,  7-H ) :   0.9486 B(  0-C ,  8-H ) :   0.9464
B(  0-C ,  9-H ) :   0.9514 B(  1-C ,  2-C ) :   1.0718 B(  1-C ,  4-O ) :   1.0151
B(  1-C , 10-H ) :   0.9174 B(  2-C ,  3-C ) :   1.1044 B(  2-C , 11-H ) :   0.9183
B(  2-C , 12-H ) :   0.9392 B(  3-C ,  4-O ) :   1.0735 B(  3-C ,  5-C ) :   0.9318
B(  3-C , 13-H ) :   0.8892 B(  5-C ,  6-C ) :   2.3171 B(  5-C , 14-H ) :  -0.1059
B(  6-C , 14-H ) :   1.0952

FINAL SINGLE POINT ENERGY      -307.946663361056

DIPOLE MOMENT
-------------
                                X             Y             Z
Electronic contribution:      5.85680      -2.13748       0.03825
Nuclear contribution   :     -6.09954       2.81133       0.01656
                        -----------------------------------------
Total Dipole Moment    :     -0.24274       0.67385       0.05481
                        -----------------------------------------
Magnitude (a.u.)       :      0.71833
Magnitude (Debye)      :      1.82585

                             ****ORCA TERMINATED NORMALLY****
TOTAL RUN TIME: 0 days 0 hours 0 minutes 6 seconds 727 msec
