                         Program Version 3.0.3 - RELEASE   -
|  1> ! RI PBE def2-SVP def2-SVP/J NBO PAL2
|  2> % maxcore 2000
|  3> % output
|  4>     # printlevel mini
|  5>     print[ P_Basis ] 0
|  6>     print[ P_SCFInfo ] 1
|  7>     print[ P_SCFIterInfo ] 1
|  8>     print[ P_OrbEn ] 0
|  9>     print[ P_Cartesian ] 0
| 10> end
| 11> *xyz 0 1
| 12>  C        1.0700440000    -0.0451790000     0.2356050000
| 13>  C        2.5592150000     0.1153170000     0.0434150000
| 14>  C        3.2911310000     1.1920460000     0.8496090000
| 15>  C        4.1203130000     0.0251940000     1.3863500000
| 16>  O        3.3163150000    -0.9380190000     0.6777570000
| 17>  C        2.8852990000     0.1033030000    -1.4355180000
| 18>  O        3.1202810000     1.0763090000    -2.0948280000
| 19>  H        0.8417370000    -0.1140880000     1.3008820000
| 20>  H        0.7130060000    -0.9567280000    -0.2510320000
| 21>  H        0.5377600000     0.8093280000    -0.1894760000
| 22>  H        2.6669380000     1.6893430000     1.5909910000
| 23>  H        3.8132950000     1.9334440000     0.2473700000
| 24>  H        4.0811290000    -0.1413190000     2.4656050000
| 25>  H        5.1625590000    -0.0007500000     1.0543930000
| 26>  H        2.8947690000    -0.9186990000    -1.8743930000
| 27> *
| 28>
| 29>                          ****END OF INPUT****
 Total Charge           Charge          ....    0
 Multiplicity           Mult            ....    1
 Number of Electrons    NEL             ....   54
 Basis Dimension        Dim             ....  138

MULLIKEN ATOMIC CHARGES
-----------------------
   0 C :    0.092426
   1 C :   -0.142850
   2 C :    0.025966
   3 C :    0.180692
   4 O :   -0.343171
   5 C :    0.159302
   6 O :   -0.155935
   7 H :    0.022704
   8 H :    0.028492
   9 H :    0.037040
  10 H :    0.015060
  11 H :    0.031285
  12 H :    0.026532
  13 H :    0.024591
  14 H :   -0.002133
Sum of atomic charges:   -0.0000000

LOEWDIN ATOMIC CHARGES
----------------------
   0 C :   -0.054323
   1 C :   -0.007445
   2 C :   -0.037872
   3 C :    0.088669
   4 O :   -0.168299
   5 C :    0.091091
   6 O :   -0.099217
   7 H :    0.033508
   8 H :    0.035176
   9 H :    0.039798
  10 H :    0.028543
  11 H :    0.029050
  12 H :    0.014999
  13 H :    0.013622
  14 H :   -0.007298

  Mayer bond orders larger than 0.1
B(  0-C ,  1-C ) :   1.0489 B(  0-C ,  7-H ) :   0.9383 B(  0-C ,  8-H ) :   0.9478
B(  0-C ,  9-H ) :   0.9474 B(  1-C ,  2-C ) :   1.0790 B(  1-C ,  4-O ) :   1.0126
B(  1-C ,  5-C ) :   0.8710 B(  2-C ,  3-C ) :   1.1089 B(  2-C , 10-H ) :   0.9274
B(  2-C , 11-H ) :   0.9278 B(  3-C ,  4-O ) :   1.0115 B(  3-C , 12-H ) :   0.9431
B(  3-C , 13-H ) :   0.9391 B(  5-C ,  6-O ) :   2.1896 B(  5-C , 14-H ) :   0.9168

FINAL SINGLE POINT ENERGY      -345.072450610681

DIPOLE MOMENT
-------------
                                X             Y             Z
Electronic contribution:      2.12921      -0.49344      -3.74261
Nuclear contribution   :     -2.38437       0.56217       4.45574
                        -----------------------------------------
Total Dipole Moment    :     -0.25516       0.06873       0.71312
                        -----------------------------------------
Magnitude (a.u.)       :      0.76051
Magnitude (Debye)      :      1.93307

                             ****ORCA TERMINATED NORMALLY****
TOTAL RUN TIME: 0 days 0 hours 0 minutes 6 seconds 906 msec
