                         Program Version 3.0.3 - RELEASE   -
|  1> ! RI PBE def2-SVP def2-SVP/J NBO PAL2
|  2> % maxcore 2000
|  3> % output
|  4>     # printlevel mini
|  5>     print[ P_Basis ] 0
|  6>     print[ P_SCFInfo ] 1
|  7>     print[ P_SCFIterInfo ] 1
|  8>     print[ P_OrbEn ] 0
|  9>     print[ P_Cartesian ] 0
| 10> end
| 11> *xyz 0 1
| 12>  C        1.0121180000     0.0231890000     0.3501360000
| 13>  C        2.4646070000     0.1736940000    -0.0007350000
| 14>  C        3.3010450000     1.1904280000     0.7886320000
| 15>  C        4.1629210000    -0.0182830000     1.1492430000
| 16>  O        3.2708760000    -0.9246990000     0.4949990000
| 17>  C        5.5434890000    -0.0664120000     0.5454610000
| 18>  O        6.2943440000     0.8680500000     0.5125110000
| 19>  H        0.4473160000     0.8891620000    -0.0060130000
| 20>  H        0.8815550000    -0.0590280000     1.4316610000
| 21>  H        0.5954170000    -0.8716110000    -0.1175020000
| 22>  H        2.5895300000     0.2617610000    -1.0868410000
| 23>  H        2.7749540000     1.6360240000     1.6321690000
| 24>  H        3.8100020000     1.9671270000     0.2200660000
| 25>  H        4.2625230000    -0.2403750000     2.2213730000
| 26>  H        5.8186130000    -1.0587170000     0.1262390000
| 27> *
| 28>
| 29>                          ****END OF INPUT****
 Total Charge           Charge          ....    0
 Multiplicity           Mult            ....    1
 Number of Electrons    NEL             ....   54
 Basis Dimension        Dim             ....  138

MULLIKEN ATOMIC CHARGES
-----------------------
   0 C :    0.053938
   1 C :    0.020405
   2 C :    0.039559
   3 C :    0.084395
   4 O :   -0.342951
   5 C :    0.119188
   6 O :   -0.160323
   7 H :    0.028124
   8 H :    0.015187
   9 H :    0.036049
  10 H :    0.019715
  11 H :    0.013795
  12 H :    0.031723
  13 H :    0.039915
  14 H :    0.001283
Sum of atomic charges:    0.0000000

LOEWDIN ATOMIC CHARGES
----------------------
   0 C :   -0.070740
   1 C :    0.069868
   2 C :   -0.033517
   3 C :    0.026150
   4 O :   -0.173064
   5 C :    0.082259
   6 O :   -0.099985
   7 H :    0.035673
   8 H :    0.027980
   9 H :    0.036372
  10 H :    0.014868
  11 H :    0.029953
  12 H :    0.029816
  13 H :    0.031989
  14 H :   -0.007621

  Mayer bond orders larger than 0.1
B(  0-C ,  1-C ) :   1.1017 B(  0-C ,  7-H ) :   0.9487 B(  0-C ,  8-H ) :   0.9466
B(  0-C ,  9-H ) :   0.9517 B(  1-C ,  2-C ) :   1.0760 B(  1-C ,  4-O ) :   1.0087
B(  1-C , 10-H ) :   0.9178 B(  2-C ,  3-C ) :   1.0989 B(  2-C , 11-H ) :   0.9213
B(  2-C , 12-H ) :   0.9329 B(  3-C ,  4-O ) :   1.0222 B(  3-C ,  5-C ) :   0.9108
B(  3-C , 13-H ) :   0.8807 B(  5-C ,  6-O ) :   2.1729 B(  5-C , 14-H ) :   0.9170

FINAL SINGLE POINT ENERGY      -345.072578344882

DIPOLE MOMENT
-------------
                                X             Y             Z
Electronic contribution:      7.18582      -0.95691       0.07782
Nuclear contribution   :     -8.01366       1.06662       0.05345
                        -----------------------------------------
Total Dipole Moment    :     -0.82784       0.10971       0.13127
                        -----------------------------------------
Magnitude (a.u.)       :      0.84533
Magnitude (Debye)      :      2.14866

                             ****ORCA TERMINATED NORMALLY****
TOTAL RUN TIME: 0 days 0 hours 0 minutes 6 seconds 354 msec
