                         Program Version 3.0.3 - RELEASE   -
|  1> ! RI PBE def2-SVP def2-SVP/J NBO PAL2
|  2> % maxcore 2000
|  3> % output
|  4>     # printlevel mini
|  5>     print[ P_Basis ] 0
|  6>     print[ P_SCFInfo ] 1
|  7>     print[ P_SCFIterInfo ] 1
|  8>     print[ P_OrbEn ] 0
|  9>     print[ P_Cartesian ] 0
| 10> end
| 11> *xyz 0 1
| 12>  C        0.9859700000    -0.0346060000    -0.0232590000
| 13>  C        2.4515570000     0.1590070000    -0.0270360000
| 14>  C        3.2538520000     1.2570980000    -0.0243790000
| 15>  C        2.8482040000     2.6893930000    -0.0163070000
| 16>  C        4.5970650000     0.7550310000    -0.0310710000
| 17>  C        4.5027360000    -0.5916320000    -0.0371080000
| 18>  O        3.2059740000    -0.9725450000    -0.0347830000
| 19>  H        0.4773890000     0.9291070000    -0.0173090000
| 20>  H        0.6610370000    -0.5958960000     0.8576370000
| 21>  H        0.6554570000    -0.5879460000    -0.9071010000
| 22>  H        1.7628540000     2.7999410000    -0.0120650000
| 23>  H        3.2304100000     3.2162780000    -0.8953360000
| 24>  H        3.2364480000     3.2080600000     0.8649590000
| 25>  H        5.5080480000     1.3337440000    -0.0312550000
| 26>  H        5.2300080000    -1.3866230000    -0.0431770000
| 27> *
| 28>
| 29>                          ****END OF INPUT****
 Total Charge           Charge          ....    0
 Multiplicity           Mult            ....    1
 Number of Electrons    NEL             ....   52
 Basis Dimension        Dim             ....  138

MULLIKEN ATOMIC CHARGES
-----------------------
   0 C :    0.094750
   1 C :   -0.077112
   2 C :   -0.118607
   3 C :    0.078648
   4 C :   -0.036485
   5 C :    0.112408
   6 O :   -0.179891
   7 H :    0.015021
   8 H :    0.036455
   9 H :    0.036398
  10 H :    0.009395
  11 H :    0.029253
  12 H :    0.029039
  13 H :   -0.028694
  14 H :   -0.000577
Sum of atomic charges:   -0.0000000

LOEWDIN ATOMIC CHARGES
----------------------
   0 C :   -0.065501
   1 C :   -0.007053
   2 C :   -0.090018
   3 C :   -0.056736
   4 C :   -0.082625
   5 C :    0.010217
   6 O :    0.022393
   7 H :    0.038995
   8 H :    0.040875
   9 H :    0.040869
  10 H :    0.030073
  11 H :    0.036811
  12 H :    0.036766
  13 H :    0.026532
  14 H :    0.018400

  Mayer bond orders larger than 0.1
B(  0-C ,  1-C ) :   1.1403 B(  0-C ,  7-H ) :   0.9403 B(  0-C ,  8-H ) :   0.9326
B(  0-C ,  9-H ) :   0.9326 B(  1-C ,  2-C ) :   1.5615 B(  1-C ,  6-O ) :   1.1336
B(  2-C ,  3-C ) :   1.1257 B(  2-C ,  4-C ) :   1.2194 B(  3-C , 10-H ) :   0.9449
B(  3-C , 11-H ) :   0.9414 B(  3-C , 12-H ) :   0.9414 B(  4-C ,  5-C ) :   1.5260
B(  4-C , 13-H ) :   1.0050 B(  5-C ,  6-O ) :   1.1445 B(  5-C , 14-H ) :   1.0002

FINAL SINGLE POINT ENERGY      -308.049414736151

DIPOLE MOMENT
-------------
                                X             Y             Z
Electronic contribution:      3.50599      -4.62969      -0.03317
Nuclear contribution   :     -3.63831       4.88649       0.03476
                        -----------------------------------------
Total Dipole Moment    :     -0.13232       0.25680       0.00158
                        -----------------------------------------
Magnitude (a.u.)       :      0.28889
Magnitude (Debye)      :      0.73430

                             ****ORCA TERMINATED NORMALLY****
TOTAL RUN TIME: 0 days 0 hours 0 minutes 7 seconds 69 msec
