                         Program Version 3.0.3 - RELEASE   -
|  1> ! RI PBE def2-SVP def2-SVP/J NBO PAL2
|  2> % maxcore 2000
|  3> % output
|  4>     # printlevel mini
|  5>     print[ P_Basis ] 0
|  6>     print[ P_SCFInfo ] 1
|  7>     print[ P_SCFIterInfo ] 1
|  8>     print[ P_OrbEn ] 0
|  9>     print[ P_Cartesian ] 0
| 10> end
| 11> *xyz 0 1
| 12>  C        1.0820770000    -0.0578390000    -0.1649620000
| 13>  C        2.5914950000     0.0129480000    -0.0655900000
| 14>  C        3.1228780000     1.0983560000     0.8637020000
| 15>  C        4.5318800000     0.6098580000     1.1784520000
| 16>  O        4.5357830000    -0.7947770000     0.9602140000
| 17>  C        3.2494600000    -1.2245340000     0.5372760000
| 18>  C        3.4049130000    -2.4052170000    -0.3884210000
| 19>  H        0.6680490000     0.8685800000    -0.5700550000
| 20>  H        0.6352130000    -0.2190490000     0.8208040000
| 21>  H        0.7598250000    -0.8739030000    -0.8165740000
| 22>  H        3.0191920000     0.1607570000    -1.0659490000
| 23>  H        2.5114610000     1.1323010000     1.7713760000
| 24>  H        3.1110390000     2.0944270000     0.4172640000
| 25>  H        4.8275530000     0.8216240000     2.2112190000
| 26>  H        5.2757180000     1.0659920000     0.5149480000
| 27>  H        2.6625680000    -1.5329010000     1.4206070000
| 28>  H        3.9766940000    -2.1208880000    -1.2751030000
| 29>  H        2.4278530000    -2.7796530000    -0.7038320000
| 30>  H        3.9329480000    -3.2181530000     0.1133440000
| 31> *
| 32>
| 33>                          ****END OF INPUT****
 Total Charge           Charge          ....    0
 Multiplicity           Mult            ....    1
 Number of Electrons    NEL             ....   56
 Basis Dimension        Dim             ....  158

MULLIKEN ATOMIC CHARGES
-----------------------
   0 C :    0.060992
   1 C :   -0.180276
   2 C :   -0.011414
   3 C :    0.233955
   4 O :   -0.360133
   5 C :    0.081212
   6 C :    0.063139
   7 H :    0.019764
   8 H :    0.011630
   9 H :    0.020519
  10 H :    0.003729
  11 H :    0.009492
  12 H :    0.016108
  13 H :   -0.003615
  14 H :    0.002602
  15 H :   -0.015635
  16 H :    0.011748
  17 H :    0.007147
  18 H :    0.029036
Sum of atomic charges:   -0.0000000

LOEWDIN ATOMIC CHARGES
----------------------
   0 C :   -0.055891
   1 C :   -0.054918
   2 C :   -0.050046
   3 C :    0.069113
   4 O :   -0.162339
   5 C :    0.050475
   6 C :   -0.065868
   7 H :    0.028906
   8 H :    0.024903
   9 H :    0.026746
  10 H :    0.025357
  11 H :    0.024809
  12 H :    0.027929
  13 H :    0.010709
  14 H :    0.010289
  15 H :    0.002987
  16 H :    0.026517
  17 H :    0.027549
  18 H :    0.032774

  Mayer bond orders larger than 0.1
B(  0-C ,  1-C ) :   1.0889 B(  0-C ,  7-H ) :   0.9560 B(  0-C ,  8-H ) :   0.9504
B(  0-C ,  9-H ) :   0.9591 B(  1-C ,  2-C ) :   1.0715 B(  1-C ,  5-C ) :   1.0195
B(  1-C , 10-H ) :   0.8979 B(  2-C ,  3-C ) :   1.1010 B(  2-C , 11-H ) :   0.9224
B(  2-C , 12-H ) :   0.9335 B(  3-C ,  4-O ) :   1.0132 B(  3-C , 13-H ) :   0.9369
B(  3-C , 14-H ) :   0.9384 B(  4-O ,  5-C ) :   1.0043 B(  5-C ,  6-C ) :   1.1038
B(  5-C , 15-H ) :   0.9101 B(  6-C , 16-H ) :   0.9470 B(  6-C , 17-H ) :   0.9455
B(  6-C , 18-H ) :   0.9524

FINAL SINGLE POINT ENERGY      -310.442078373492

DIPOLE MOMENT
-------------
                                X             Y             Z
Electronic contribution:      4.04516       0.06435       1.87453
Nuclear contribution   :     -4.52703       0.28314      -2.02436
                        -----------------------------------------
Total Dipole Moment    :     -0.48187       0.34749      -0.14983
                        -----------------------------------------
Magnitude (a.u.)       :      0.61270
Magnitude (Debye)      :      1.55736

                             ****ORCA TERMINATED NORMALLY****
TOTAL RUN TIME: 0 days 0 hours 0 minutes 8 seconds 202 msec
