                         Program Version 3.0.3 - RELEASE   -
|  1> ! RI PBE def2-SVP def2-SVP/J NBO PAL2
|  2> % maxcore 2000
|  3> % output
|  4>     # printlevel mini
|  5>     print[ P_Basis ] 0
|  6>     print[ P_SCFInfo ] 1
|  7>     print[ P_SCFIterInfo ] 1
|  8>     print[ P_OrbEn ] 0
|  9>     print[ P_Cartesian ] 0
| 10> end
| 11> *xyz 0 1
| 12>  C        1.1666300000    -0.0227250000     0.4018000000
| 13>  C        2.4380710000     0.0190090000     0.0200160000
| 14>  C        3.2409450000     1.2620870000    -0.2585170000
| 15>  C        4.6159920000     0.7267700000    -0.6576440000
| 16>  O        4.5552640000    -0.6945670000    -0.5927310000
| 17>  C        3.3264360000    -1.1310940000    -0.2101850000
| 18>  C        3.0592780000    -2.4302600000    -0.0888100000
| 19>  H        0.5915280000     0.8842650000     0.5458370000
| 20>  H        0.6592360000    -0.9626110000     0.5826760000
| 21>  H        3.2956550000     1.8998180000     0.6260140000
| 22>  H        2.7875900000     1.8509530000    -1.0583510000
| 23>  H        5.4072530000     1.0624860000     0.0173440000
| 24>  H        4.8938160000     1.0072490000    -1.6767830000
| 25>  H        3.8153990000    -3.1756590000    -0.2922640000
| 26>  H        2.0761080000    -2.7566310000     0.2168880000
| 27> *
| 28>
| 29>                          ****END OF INPUT****
 Total Charge           Charge          ....    0
 Multiplicity           Mult            ....    1
 Number of Electrons    NEL             ....   52
 Basis Dimension        Dim             ....  138

MULLIKEN ATOMIC CHARGES
-----------------------
   0 C :   -0.057013
   1 C :   -0.113802
   2 C :    0.011233
   3 C :    0.217761
   4 O :   -0.280590
   5 C :    0.146654
   6 C :   -0.113579
   7 H :    0.015136
   8 H :    0.020228
   9 H :    0.043119
  10 H :    0.042294
  11 H :    0.023707
  12 H :    0.019759
  13 H :    0.020778
  14 H :    0.004316
Sum of atomic charges:   -0.0000000

LOEWDIN ATOMIC CHARGES
----------------------
   0 C :   -0.050619
   1 C :   -0.040007
   2 C :   -0.047521
   3 C :    0.081615
   4 O :   -0.080238
   5 C :    0.025450
   6 C :   -0.123525
   7 H :    0.026077
   8 H :    0.027415
   9 H :    0.043402
  10 H :    0.043212
  11 H :    0.019793
  12 H :    0.019062
  13 H :    0.029684
  14 H :    0.026200

  Mayer bond orders larger than 0.1
B(  0-C ,  1-C ) :   1.9928 B(  0-C ,  6-C ) :   0.1016 B(  0-C ,  7-H ) :   0.9327
B(  0-C ,  8-H ) :   0.9217 B(  1-C ,  2-C ) :   1.0411 B(  1-C ,  5-C ) :   1.0097
B(  2-C ,  3-C ) :   1.1062 B(  2-C ,  9-H ) :   0.9116 B(  2-C , 10-H ) :   0.9120
B(  3-C ,  4-O ) :   0.9815 B(  3-C , 11-H ) :   0.9427 B(  3-C , 12-H ) :   0.9422
B(  4-O ,  5-C ) :   1.1017 B(  5-C ,  6-C ) :   1.8994 B(  6-C , 13-H ) :   0.9203
B(  6-C , 14-H ) :   0.9212

FINAL SINGLE POINT ENERGY      -308.009690794367

DIPOLE MOMENT
-------------
                                X             Y             Z
Electronic contribution:      2.02890      -1.34045      -0.56242
Nuclear contribution   :     -2.18696       2.17672       0.58602
                        -----------------------------------------
Total Dipole Moment    :     -0.15806       0.83627       0.02360
                        -----------------------------------------
Magnitude (a.u.)       :      0.85140
Magnitude (Debye)      :      2.16409

                             ****ORCA TERMINATED NORMALLY****
TOTAL RUN TIME: 0 days 0 hours 0 minutes 6 seconds 697 msec
