                         Program Version 3.0.3 - RELEASE   -
|  1> ! RI PBE def2-SVP def2-SVP/J NBO PAL2
|  2> % maxcore 2000
|  3> % output
|  4>     # printlevel mini
|  5>     print[ P_Basis ] 0
|  6>     print[ P_SCFInfo ] 1
|  7>     print[ P_SCFIterInfo ] 1
|  8>     print[ P_OrbEn ] 0
|  9>     print[ P_Cartesian ] 0
| 10> end
| 11> *xyz 0 1
| 12>  C        1.0411390000     0.0719220000     0.1276070000
| 13>  C        2.5235830000    -0.0000800000     0.1150280000
| 14>  C        3.3111010000    -1.0683350000    -0.0217260000
| 15>  C        4.7356890000    -0.6450830000     0.0283640000
| 16>  O        4.6880300000     0.7635440000     0.2063510000
| 17>  C        3.3886120000     1.1704000000     0.2607940000
| 18>  C        3.0392090000     2.4472150000     0.4228540000
| 19>  H        0.5966410000    -0.9157870000     0.0040030000
| 20>  H        0.6771870000     0.7182670000    -0.6760450000
| 21>  H        0.6812950000     0.4981280000     1.0683170000
| 22>  H        2.9941060000    -2.0947770000    -0.1505910000
| 23>  H        5.2847940000    -0.8721510000    -0.8946900000
| 24>  H        5.2889350000    -1.0941610000     0.8634420000
| 25>  H        3.7818080000     3.2269510000     0.5195680000
| 26>  H        1.9933000000     2.7155570000     0.4592040000
| 27> *
| 28>
| 29>                          ****END OF INPUT****
 Total Charge           Charge          ....    0
 Multiplicity           Mult            ....    1
 Number of Electrons    NEL             ....   52
 Basis Dimension        Dim             ....  138

MULLIKEN ATOMIC CHARGES
-----------------------
   0 C :    0.081187
   1 C :   -0.046650
   2 C :   -0.194954
   3 C :    0.266827
   4 O :   -0.275141
   5 C :    0.114867
   6 C :   -0.127300
   7 H :    0.016671
   8 H :    0.042183
   9 H :    0.040300
  10 H :   -0.009252
  11 H :    0.035430
  12 H :    0.037630
  13 H :    0.017304
  14 H :    0.000899
Sum of atomic charges:    0.0000000

LOEWDIN ATOMIC CHARGES
----------------------
   0 C :   -0.053187
   1 C :   -0.039649
   2 C :   -0.055117
   3 C :    0.081223
   4 O :   -0.078829
   5 C :    0.030926
   6 C :   -0.142966
   7 H :    0.035667
   8 H :    0.043373
   9 H :    0.043100
  10 H :    0.026849
  11 H :    0.027308
  12 H :    0.027796
  13 H :    0.028573
  14 H :    0.024934

  Mayer bond orders larger than 0.1
B(  0-C ,  1-C ) :   1.1271 B(  0-C ,  7-H ) :   0.9461 B(  0-C ,  8-H ) :   0.9345
B(  0-C ,  9-H ) :   0.9344 B(  1-C ,  2-C ) :   1.7351 B(  1-C ,  5-C ) :   1.0296
B(  2-C ,  3-C ) :   1.0248 B(  2-C ,  6-C ) :   0.1092 B(  2-C , 10-H ) :   0.9817
B(  3-C ,  4-O ) :   0.9907 B(  3-C , 11-H ) :   0.9189 B(  3-C , 12-H ) :   0.9191
B(  4-O ,  5-C ) :   1.1068 B(  5-C ,  6-C ) :   1.8639 B(  6-C , 13-H ) :   0.9228
B(  6-C , 14-H ) :   0.9193

FINAL SINGLE POINT ENERGY      -308.023056926051

DIPOLE MOMENT
-------------
                                X             Y             Z
Electronic contribution:      4.09513       0.14981       0.00960
Nuclear contribution   :     -4.44657      -0.92604      -0.10647
                        -----------------------------------------
Total Dipole Moment    :     -0.35144      -0.77623      -0.09687
                        -----------------------------------------
Magnitude (a.u.)       :      0.85757
Magnitude (Debye)      :      2.17977

                             ****ORCA TERMINATED NORMALLY****
TOTAL RUN TIME: 0 days 0 hours 0 minutes 6 seconds 575 msec
