                         Program Version 3.0.3 - RELEASE   -
|  1> ! RI PBE def2-SVP def2-SVP/J NBO PAL2
|  2> % maxcore 2000
|  3> % output
|  4>     # printlevel mini
|  5>     print[ P_Basis ] 0
|  6>     print[ P_SCFInfo ] 1
|  7>     print[ P_SCFIterInfo ] 1
|  8>     print[ P_OrbEn ] 0
|  9>     print[ P_Cartesian ] 0
| 10> end
| 11> *xyz 0 1
| 12>  C        0.8490700000    -0.1022670000    -0.1490680000
| 13>  C        2.3726020000    -0.0245300000    -0.0795880000
| 14>  C        3.0748080000    -1.2401940000    -0.6171690000
| 15>  C        3.8557580000    -0.8612970000    -1.6170280000
| 16>  O        3.8295640000     0.4829500000    -1.8706120000
| 17>  C        2.9606460000     1.0553710000    -0.9654390000
| 18>  C        2.7400130000     2.3618530000    -0.9639820000
| 19>  H        0.4760340000    -0.9119040000     0.4828240000
| 20>  H        0.5204060000    -0.2855330000    -1.1738190000
| 21>  H        0.3980550000     0.8317950000     0.1925990000
| 22>  H        2.6619680000     0.1609540000     0.9623660000
| 23>  H        2.9484450000    -2.2487600000    -0.2552010000
| 24>  H        4.5092370000    -1.4278870000    -2.2637400000
| 25>  H        3.2319060000     3.0138590000    -1.6730470000
| 26>  H        2.0596980000     2.7957780000    -0.2446060000
| 27> *
| 28>
| 29>                          ****END OF INPUT****
 Total Charge           Charge          ....    0
 Multiplicity           Mult            ....    1
 Number of Electrons    NEL             ....   52
 Basis Dimension        Dim             ....  138

MULLIKEN ATOMIC CHARGES
-----------------------
   0 C :    0.049742
   1 C :   -0.040819
   2 C :   -0.074310
   3 C :    0.143918
   4 O :   -0.212369
   5 C :    0.069564
   6 C :   -0.087243
   7 H :    0.020997
   8 H :    0.023548
   9 H :    0.023868
  10 H :    0.043904
  11 H :   -0.002085
  12 H :    0.006358
  13 H :    0.022867
  14 H :    0.012061
Sum of atomic charges:   -0.0000000

LOEWDIN ATOMIC CHARGES
----------------------
   0 C :   -0.044448
   1 C :   -0.043340
   2 C :   -0.092748
   3 C :    0.045814
   4 O :   -0.032697
   5 C :    0.047294
   6 C :   -0.122843
   7 H :    0.027380
   8 H :    0.029156
   9 H :    0.027294
  10 H :    0.045205
  11 H :    0.028835
  12 H :    0.024435
  13 H :    0.031609
  14 H :    0.029054

  Mayer bond orders larger than 0.1
B(  0-C ,  1-C ) :   1.0634 B(  0-C ,  7-H ) :   0.9601 B(  0-C ,  8-H ) :   0.9628
B(  0-C ,  9-H ) :   0.9589 B(  1-C ,  2-C ) :   1.0117 B(  1-C ,  5-C ) :   0.9585
B(  1-C , 10-H ) :   0.8776 B(  2-C ,  3-C ) :   1.7512 B(  2-C , 11-H ) :   0.9868
B(  3-C ,  4-O ) :   1.0697 B(  3-C , 12-H ) :   0.9961 B(  4-O ,  5-C ) :   1.0834
B(  5-C ,  6-C ) :   1.9653 B(  6-C , 13-H ) :   0.9211 B(  6-C , 14-H ) :   0.9276

FINAL SINGLE POINT ENERGY      -308.013743127356

DIPOLE MOMENT
-------------
                                X             Y             Z
Electronic contribution:      4.98146      -0.35943      -2.71926
Nuclear contribution   :     -5.19072      -0.05744       3.02694
                        -----------------------------------------
Total Dipole Moment    :     -0.20925      -0.41688       0.30768
                        -----------------------------------------
Magnitude (a.u.)       :      0.55879
Magnitude (Debye)      :      1.42032

                             ****ORCA TERMINATED NORMALLY****
TOTAL RUN TIME: 0 days 0 hours 0 minutes 7 seconds 121 msec
