                         Program Version 3.0.3 - RELEASE   -
|  1> ! RI PBE def2-SVP def2-SVP/J NBO PAL2
|  2> % maxcore 2000
|  3> % output
|  4>     # printlevel mini
|  5>     print[ P_Basis ] 0
|  6>     print[ P_SCFInfo ] 1
|  7>     print[ P_SCFIterInfo ] 1
|  8>     print[ P_OrbEn ] 0
|  9>     print[ P_Cartesian ] 0
| 10> end
| 11> *xyz 0 1
| 12>  C        0.9154210000    -0.0747180000     0.0658610000
| 13>  C        2.4255690000    -0.0703580000     0.0843660000
| 14>  C        3.1460820000     1.0144000000     0.9247890000
| 15>  C        4.0816560000    -0.0836160000     1.4065120000
| 16>  O        5.1833490000    -0.0915870000     1.8686850000
| 17>  C        3.1510300000    -1.1786850000     0.8990720000
| 18>  C        3.7454300000    -2.3891640000     0.2210090000
| 19>  H        0.5200620000     0.8063640000    -0.4463020000
| 20>  H        0.5143760000    -0.0761900000     1.0840340000
| 21>  H        0.5264050000    -0.9581830000    -0.4474880000
| 22>  H        2.8185780000    -0.0627540000    -0.9372450000
| 23>  H        2.5215220000     1.3840020000     1.7448070000
| 24>  H        3.6046070000     1.8648160000     0.4184190000
| 25>  H        2.5058070000    -1.4784210000     1.7366300000
| 26>  H        4.3888160000    -2.0928760000    -0.6111540000
| 27>  H        2.9659320000    -3.0479480000    -0.1696940000
| 28>  H        4.3542590000    -2.9637720000     0.9220120000
| 29> *
| 30>
| 31>                          ****END OF INPUT****
 Total Charge           Charge          ....    0
 Multiplicity           Mult            ....    1
 Number of Electrons    NEL             ....   54
 Basis Dimension        Dim             ....  148

MULLIKEN ATOMIC CHARGES
-----------------------
   0 C :    0.060737
   1 C :   -0.200371
   2 C :    0.099118
   3 C :   -0.042525
   4 O :   -0.118381
   5 C :   -0.098488
   6 C :    0.060993
   7 H :    0.026644
   8 H :    0.009999
   9 H :    0.024679
  10 H :    0.007818
  11 H :    0.028777
  12 H :    0.033510
  13 H :    0.023990
  14 H :    0.019093
  15 H :    0.025293
  16 H :    0.039114
Sum of atomic charges:    0.0000000

LOEWDIN ATOMIC CHARGES
----------------------
   0 C :   -0.062046
   1 C :   -0.031835
   2 C :   -0.059144
   3 C :    0.055995
   4 O :   -0.103532
   5 C :   -0.069820
   6 C :   -0.057102
   7 H :    0.030327
   8 H :    0.023777
   9 H :    0.029740
  10 H :    0.026722
  11 H :    0.043742
  12 H :    0.033995
  13 H :    0.042523
  14 H :    0.028828
  15 H :    0.030527
  16 H :    0.037304

  Mayer bond orders larger than 0.1
B(  0-C ,  1-C ) :   1.0745 B(  0-C ,  7-H ) :   0.9576 B(  0-C ,  8-H ) :   0.9536
B(  0-C ,  9-H ) :   0.9576 B(  1-C ,  2-C ) :   1.0661 B(  1-C ,  5-C ) :   1.0153
B(  1-C , 10-H ) :   0.9056 B(  2-C ,  3-C ) :   1.0021 B(  2-C ,  5-C ) :  -0.1107
B(  2-C , 11-H ) :   0.8865 B(  2-C , 12-H ) :   0.9188 B(  3-C ,  4-O ) :   2.2657
B(  3-C ,  5-C ) :   0.9293 B(  5-C ,  6-C ) :   1.0988 B(  5-C , 13-H ) :   0.8642
B(  6-C , 14-H ) :   0.9569 B(  6-C , 15-H ) :   0.9572 B(  6-C , 16-H ) :   0.9533

FINAL SINGLE POINT ENERGY      -309.235358885490

DIPOLE MOMENT
-------------
                                X             Y             Z
Electronic contribution:      6.16941       2.16187       3.75864
Nuclear contribution   :     -7.14079      -2.23776      -4.20396
                        -----------------------------------------
Total Dipole Moment    :     -0.97139      -0.07589      -0.44532
                        -----------------------------------------
Magnitude (a.u.)       :      1.07129
Magnitude (Debye)      :      2.72300

                             ****ORCA TERMINATED NORMALLY****
TOTAL RUN TIME: 0 days 0 hours 0 minutes 7 seconds 363 msec
