                         Program Version 3.0.3 - RELEASE   -
|  1> ! RI PBE def2-SVP def2-SVP/J NBO PAL2
|  2> % maxcore 2000
|  3> % output
|  4>     # printlevel mini
|  5>     print[ P_Basis ] 0
|  6>     print[ P_SCFInfo ] 1
|  7>     print[ P_SCFIterInfo ] 1
|  8>     print[ P_OrbEn ] 0
|  9>     print[ P_Cartesian ] 0
| 10> end
| 11> *xyz 0 1
| 12>  C        0.8354520000    -0.0265030000    -0.0118340000
| 13>  C        2.3434920000    -0.0070260000    -0.0664510000
| 14>  C        3.1122450000     1.0908790000     0.6964660000
| 15>  C        4.1819480000     0.0431560000     1.0568050000
| 16>  O        5.2335860000    -0.0227970000     0.1171440000
| 17>  C        3.1412280000    -1.0518460000     0.7482570000
| 18>  C        3.5816630000    -2.3408640000     0.0993710000
| 19>  H        0.4053780000     0.8317770000    -0.5362330000
| 20>  H        0.4808810000     0.0046070000     1.0233330000
| 21>  H        0.4311130000    -0.9310630000    -0.4754240000
| 22>  H        2.6866160000    -0.0334170000    -1.1052900000
| 23>  H        2.5633890000     1.4225550000     1.5826710000
| 24>  H        3.4505310000     1.9678360000     0.1390870000
| 25>  H        4.5814540000     0.0671070000     2.0781710000
| 26>  H        5.7471600000     0.7856320000     0.1878070000
| 27>  H        2.5920660000    -1.2589660000     1.6744250000
| 28>  H        4.1883200000    -2.1412400000    -0.7853470000
| 29>  H        2.7149540000    -2.9351470000    -0.2039220000
| 30>  H        4.1788240000    -2.9501790000     0.7831520000
| 31> *
| 32>
| 33>                          ****END OF INPUT****
 Total Charge           Charge          ....    0
 Multiplicity           Mult            ....    1
 Number of Electrons    NEL             ....   56
 Basis Dimension        Dim             ....  158

MULLIKEN ATOMIC CHARGES
-----------------------
   0 C :    0.074834
   1 C :   -0.159965
   2 C :    0.117581
   3 C :    0.047659
   4 O :   -0.253381
   5 C :   -0.110231
   6 C :    0.067186
   7 H :    0.018240
   8 H :    0.001380
   9 H :    0.017269
  10 H :    0.003327
  11 H :   -0.005854
  12 H :   -0.008171
  13 H :   -0.013644
  14 H :    0.155570
  15 H :   -0.007520
  16 H :    0.022769
  17 H :    0.013798
  18 H :    0.019152
Sum of atomic charges:   -0.0000000

LOEWDIN ATOMIC CHARGES
----------------------
   0 C :   -0.064241
   1 C :   -0.033054
   2 C :   -0.046136
   3 C :    0.053797
   4 O :   -0.111317
   5 C :   -0.040593
   6 C :   -0.065767
   7 H :    0.027480
   8 H :    0.020703
   9 H :    0.027251
  10 H :    0.025013
  11 H :    0.022610
  12 H :    0.013825
  13 H :   -0.006940
  14 H :    0.069992
  15 H :    0.023877
  16 H :    0.027838
  17 H :    0.026555
  18 H :    0.029108

  Mayer bond orders larger than 0.1
B(  0-C ,  1-C ) :   1.1097 B(  0-C ,  7-H ) :   0.9565 B(  0-C ,  8-H ) :   0.9488
B(  0-C ,  9-H ) :   0.9570 B(  1-C ,  2-C ) :   1.0820 B(  1-C ,  5-C ) :   1.0405
B(  1-C , 10-H ) :   0.8949 B(  2-C ,  3-C ) :   1.0842 B(  2-C , 11-H ) :   0.9041
B(  2-C , 12-H ) :   0.9060 B(  3-C ,  4-O ) :   1.0952 B(  3-C ,  5-C ) :   1.0279
B(  3-C , 13-H ) :   0.9228 B(  4-O , 14-H ) :   0.9813 B(  5-C ,  6-C ) :   1.1127
B(  5-C , 15-H ) :   0.8952 B(  6-C , 16-H ) :   0.9440 B(  6-C , 17-H ) :   0.9535
B(  6-C , 18-H ) :   0.9548

FINAL SINGLE POINT ENERGY      -310.421067159061

DIPOLE MOMENT
-------------
                                X             Y             Z
Electronic contribution:      4.50912       1.55469       0.24601
Nuclear contribution   :     -4.53446      -1.12491      -0.02149
                        -----------------------------------------
Total Dipole Moment    :     -0.02534       0.42978       0.22452
                        -----------------------------------------
Magnitude (a.u.)       :      0.48556
Magnitude (Debye)      :      1.23418

                             ****ORCA TERMINATED NORMALLY****
TOTAL RUN TIME: 0 days 0 hours 0 minutes 8 seconds 459 msec
