                         Program Version 3.0.3 - RELEASE   -
|  1> ! RI PBE def2-SVP def2-SVP/J NBO PAL2
|  2> % maxcore 2000
|  3> % output
|  4>     # printlevel mini
|  5>     print[ P_Basis ] 0
|  6>     print[ P_SCFInfo ] 1
|  7>     print[ P_SCFIterInfo ] 1
|  8>     print[ P_OrbEn ] 0
|  9>     print[ P_Cartesian ] 0
| 10> end
| 11> *xyz 0 1
| 12>  C        0.9624640000     0.0919590000     0.0362920000
| 13>  C        2.4746460000     0.1030110000     0.1153500000
| 14>  C        3.0798460000     1.2195270000     0.9651450000
| 15>  C        4.4437750000     0.6458220000     1.2949060000
| 16>  O        4.2419500000    -0.7623000000     1.3937440000
| 17>  C        3.0988390000    -1.1169490000     0.7448570000
| 18>  C        2.6676100000    -2.3727210000     0.7228690000
| 19>  H        0.5915140000     1.0192890000    -0.4067460000
| 20>  H        0.5238240000    -0.0138660000     1.0313620000
| 21>  H        0.6027860000    -0.7348370000    -0.5792890000
| 22>  H        2.8842140000     0.1897200000    -0.9008570000
| 23>  H        2.4907990000     1.3522440000     1.8779320000
| 24>  H        3.1339720000     2.1779610000     0.4470150000
| 25>  H        4.8586860000     0.9926300000     2.2422960000
| 26>  H        5.1706910000     0.8496590000     0.4991260000
| 27>  H        3.2217120000    -3.1625260000     1.2121580000
| 28>  H        1.7510920000    -2.6237220000     0.2090100000
| 29> *
| 30>
| 31>                          ****END OF INPUT****
 Total Charge           Charge          ....    0
 Multiplicity           Mult            ....    1
 Number of Electrons    NEL             ....   54
 Basis Dimension        Dim             ....  148

MULLIKEN ATOMIC CHARGES
-----------------------
   0 C :    0.050697
   1 C :   -0.136247
   2 C :   -0.016968
   3 C :    0.208152
   4 O :   -0.272623
   5 C :    0.075250
   6 C :   -0.098405
   7 H :    0.017220
   8 H :    0.020889
   9 H :    0.032347
  10 H :    0.033481
  11 H :    0.022859
  12 H :    0.016867
  13 H :    0.020040
  14 H :    0.015515
  15 H :    0.012755
  16 H :   -0.001831
Sum of atomic charges:    0.0000000

LOEWDIN ATOMIC CHARGES
----------------------
   0 C :   -0.050683
   1 C :   -0.051785
   2 C :   -0.045978
   3 C :    0.076046
   4 O :   -0.081517
   5 C :    0.028099
   6 C :   -0.148281
   7 H :    0.028142
   8 H :    0.029026
   9 H :    0.030225
  10 H :    0.039903
  11 H :    0.029780
  12 H :    0.030119
  13 H :    0.021691
  14 H :    0.014352
  15 H :    0.027296
  16 H :    0.023566

  Mayer bond orders larger than 0.1
B(  0-C ,  1-C ) :   1.1085 B(  0-C ,  7-H ) :   0.9542 B(  0-C ,  8-H ) :   0.9568
B(  0-C ,  9-H ) :   0.9534 B(  1-C ,  2-C ) :   1.0577 B(  1-C ,  5-C ) :   0.9628
B(  1-C , 10-H ) :   0.8861 B(  2-C ,  3-C ) :   1.0960 B(  2-C , 11-H ) :   0.9269
B(  2-C , 12-H ) :   0.9275 B(  3-C ,  4-O ) :   0.9704 B(  3-C , 13-H ) :   0.9463
B(  3-C , 14-H ) :   0.9383 B(  4-O ,  5-C ) :   1.1332 B(  5-C ,  6-C ) :   1.9445
B(  6-C , 15-H ) :   0.9221 B(  6-C , 16-H ) :   0.9223

FINAL SINGLE POINT ENERGY      -309.230736779254

DIPOLE MOMENT
-------------
                                X             Y             Z
Electronic contribution:      4.26728      -1.98988       1.60945
Nuclear contribution   :     -4.43569       2.83926      -1.83514
                        -----------------------------------------
Total Dipole Moment    :     -0.16841       0.84938      -0.22569
                        -----------------------------------------
Magnitude (a.u.)       :      0.89484
Magnitude (Debye)      :      2.27450

                             ****ORCA TERMINATED NORMALLY****
TOTAL RUN TIME: 0 days 0 hours 0 minutes 7 seconds 661 msec
