                         Program Version 3.0.3 - RELEASE   -
|  1> ! RI PBE def2-SVP def2-SVP/J NBO PAL2
|  2> % maxcore 2000
|  3> % output
|  4>     # printlevel mini
|  5>     print[ P_Basis ] 0
|  6>     print[ P_SCFInfo ] 1
|  7>     print[ P_SCFIterInfo ] 1
|  8>     print[ P_OrbEn ] 0
|  9>     print[ P_Cartesian ] 0
| 10> end
| 11> *xyz 0 1
| 12>  C        0.8230660000     0.0367670000     0.0382430000
| 13>  C        2.3113330000     0.0521810000     0.0380970000
| 14>  C        3.1357740000     1.1318760000     0.0349890000
| 15>  O        2.9379010000     2.4563330000     0.0312670000
| 16>  O        4.4274850000     0.7861010000     0.0358730000
| 17>  C        4.4615950000    -0.5785850000     0.0397220000
| 18>  C        3.2066030000    -1.0710130000     0.0412140000
| 19>  H        0.4042890000     1.0475010000     0.0355970000
| 20>  H        0.4229600000    -0.4699210000     0.9211610000
| 21>  H        0.4228190000    -0.4746090000    -0.8419040000
| 22>  H        1.9911500000     2.6222270000     0.0307560000
| 23>  H        5.4417600000    -1.0225300000     0.0409080000
| 24>  H        2.9315760000    -2.1147290000     0.0441880000
| 25> *
| 26>
| 27>                          ****END OF INPUT****
 Total Charge           Charge          ....    0
 Multiplicity           Mult            ....    1
 Number of Electrons    NEL             ....   52
 Basis Dimension        Dim             ....  128

MULLIKEN ATOMIC CHARGES
-----------------------
   0 C :    0.078646
   1 C :   -0.176950
   2 C :    0.121250
   3 O :   -0.128342
   4 O :   -0.166334
   5 C :    0.096083
   6 C :   -0.035252
   7 H :   -0.014538
   8 H :    0.035999
   9 H :    0.036068
  10 H :    0.175123
  11 H :   -0.001875
  12 H :   -0.019877
Sum of atomic charges:   -0.0000000

LOEWDIN ATOMIC CHARGES
----------------------
   0 C :   -0.056274
   1 C :   -0.149963
   2 C :    0.031678
   3 O :   -0.013903
   4 O :    0.025671
   5 C :    0.001335
   6 C :   -0.075523
   7 H :    0.020961
   8 H :    0.037351
   9 H :    0.037361
  10 H :    0.094753
  11 H :    0.018452
  12 H :    0.028102

  Mayer bond orders larger than 0.1
B(  0-C ,  1-C ) :   1.1092 B(  0-C ,  7-H ) :   0.9430 B(  0-C ,  8-H ) :   0.9453
B(  0-C ,  9-H ) :   0.9454 B(  1-C ,  2-C ) :   1.4758 B(  1-C ,  6-C ) :   1.2100
B(  2-C ,  3-O ) :   1.2617 B(  2-C ,  4-O ) :   1.1781 B(  3-O , 10-H ) :   0.9623
B(  4-O ,  5-C ) :   1.0985 B(  5-C ,  6-C ) :   1.5507 B(  5-C , 11-H ) :   1.0063
B(  6-C , 12-H ) :   1.0129

FINAL SINGLE POINT ENERGY      -343.906089831133

DIPOLE MOMENT
-------------
                                X             Y             Z
Electronic contribution:      5.31956       2.90969      -0.00853
Nuclear contribution   :     -6.12375      -3.00989       0.00886
                        -----------------------------------------
Total Dipole Moment    :     -0.80419      -0.10020       0.00033
                        -----------------------------------------
Magnitude (a.u.)       :      0.81041
Magnitude (Debye)      :      2.05989

                             ****ORCA TERMINATED NORMALLY****
TOTAL RUN TIME: 0 days 0 hours 0 minutes 6 seconds 331 msec
