                         Program Version 3.0.3 - RELEASE   -
|  1> ! RI PBE def2-SVP def2-SVP/J NBO PAL2
|  2> % maxcore 2000
|  3> % output
|  4>     # printlevel mini
|  5>     print[ P_Basis ] 0
|  6>     print[ P_SCFInfo ] 1
|  7>     print[ P_SCFIterInfo ] 1
|  8>     print[ P_OrbEn ] 0
|  9>     print[ P_Cartesian ] 0
| 10> end
| 11> *xyz 0 1
| 12>  C        1.0710630000     0.0982400000    -0.1541390000
| 13>  C        2.3916540000    -0.0223630000    -0.0187260000
| 14>  C        3.2582010000    -1.1699650000     0.1310790000
| 15>  C        4.5024880000    -0.6942540000     0.2247300000
| 16>  O        4.5872210000     0.6713620000     0.1553700000
| 17>  C        3.3034450000     1.1609240000     0.0027650000
| 18>  O        3.0769940000     2.3251150000    -0.0856320000
| 19>  H        0.4155370000    -0.7639990000    -0.1688270000
| 20>  H        0.6294020000     1.0828590000    -0.2531520000
| 21>  H        2.9672970000    -2.2077400000     0.1619870000
| 22>  H        5.4479890000    -1.2007890000     0.3454550000
| 23> *
| 24>
| 25>                          ****END OF INPUT****
 Total Charge           Charge          ....    0
 Multiplicity           Mult            ....    1
 Number of Electrons    NEL             ....   50
 Basis Dimension        Dim             ....  118

MULLIKEN ATOMIC CHARGES
-----------------------
   0 C :   -0.014184
   1 C :   -0.111628
   2 C :    0.001526
   3 C :    0.143605
   4 O :   -0.207720
   5 C :    0.191281
   6 O :   -0.105888
   7 H :    0.033939
   8 H :    0.047889
   9 H :   -0.002115
  10 H :    0.023295
Sum of atomic charges:   -0.0000000

LOEWDIN ATOMIC CHARGES
----------------------
   0 C :    0.014297
   1 C :   -0.078431
   2 C :   -0.085074
   3 C :    0.073089
   4 O :   -0.033866
   5 C :    0.065148
   6 O :   -0.093859
   7 H :    0.033771
   8 H :    0.039312
   9 H :    0.036342
  10 H :    0.029271

  Mayer bond orders larger than 0.1
B(  0-C ,  1-C ) :   1.8799 B(  0-C ,  3-C ) :   0.1223 B(  0-C ,  7-H ) :   0.9364
B(  0-C ,  8-H ) :   0.9239 B(  1-C ,  2-C ) :   1.0826 B(  1-C ,  5-C ) :   0.9174
B(  2-C ,  3-C ) :   1.6204 B(  2-C ,  9-H ) :   1.0111 B(  3-C ,  4-O ) :   1.0852
B(  3-C , 10-H ) :   0.9924 B(  4-O ,  5-C ) :   1.0381 B(  5-C ,  6-O ) :   2.2273

FINAL SINGLE POINT ENERGY      -342.708833437411

DIPOLE MOMENT
-------------
                                X             Y             Z
Electronic contribution:      2.83060       2.99160       0.10643
Nuclear contribution   :     -3.08176      -4.32223      -0.05390
                        -----------------------------------------
Total Dipole Moment    :     -0.25116      -1.33064       0.05252
                        -----------------------------------------
Magnitude (a.u.)       :      1.35515
Magnitude (Debye)      :      3.44452

                             ****ORCA TERMINATED NORMALLY****
TOTAL RUN TIME: 0 days 0 hours 0 minutes 5 seconds 914 msec
