                         Program Version 3.0.3 - RELEASE   -
|  1> ! RI PBE def2-SVP def2-SVP/J NBO PAL2
|  2> % maxcore 2000
|  3> % output
|  4>     # printlevel mini
|  5>     print[ P_Basis ] 0
|  6>     print[ P_SCFInfo ] 1
|  7>     print[ P_SCFIterInfo ] 1
|  8>     print[ P_OrbEn ] 0
|  9>     print[ P_Cartesian ] 0
| 10> end
| 11> *xyz 0 1
| 12>  C        1.0195500000    -0.1518010000     0.3376650000
| 13>  C        2.2781690000    -0.0078180000    -0.0501070000
| 14>  C        3.1115460000     1.2232280000    -0.2023590000
| 15>  C        4.4612250000     0.6730880000    -0.6875970000
| 16>  O        4.3416260000    -0.7471050000    -0.7774550000
| 17>  C        3.1130140000    -1.1823380000    -0.4237060000
| 18>  O        2.8127420000    -2.3386770000    -0.4341320000
| 19>  H        0.3967900000     0.6913460000     0.6135190000
| 20>  H        0.5895680000    -1.1461530000     0.3834270000
| 21>  H        3.2149570000     1.7601000000     0.7427670000
| 22>  H        2.6789620000     1.9170860000    -0.9259260000
| 23>  H        5.2765640000     0.8938070000     0.0033250000
| 24>  H        4.7343860000     1.0458560000    -1.6762220000
| 25> *
| 26>
| 27>                          ****END OF INPUT****
 Total Charge           Charge          ....    0
 Multiplicity           Mult            ....    1
 Number of Electrons    NEL             ....   52
 Basis Dimension        Dim             ....  128

MULLIKEN ATOMIC CHARGES
-----------------------
   0 C :   -0.012149
   1 C :   -0.246204
   2 C :    0.047019
   3 C :    0.189899
   4 O :   -0.252638
   5 C :    0.182056
   6 O :   -0.139440
   7 H :    0.025272
   8 H :    0.043516
   9 H :    0.046659
  10 H :    0.048279
  11 H :    0.034803
  12 H :    0.032928
Sum of atomic charges:   -0.0000000

LOEWDIN ATOMIC CHARGES
----------------------
   0 C :   -0.003528
   1 C :   -0.083164
   2 C :   -0.050309
   3 C :    0.083149
   4 O :   -0.060859
   5 C :    0.034453
   6 O :   -0.128297
   7 H :    0.029809
   8 H :    0.038265
   9 H :    0.045728
  10 H :    0.045885
  11 H :    0.024565
  12 H :    0.024304

  Mayer bond orders larger than 0.1
B(  0-C ,  1-C ) :   2.0146 B(  0-C ,  7-H ) :   0.9378 B(  0-C ,  8-H ) :   0.9173
B(  1-C ,  2-C ) :   1.0557 B(  1-C ,  5-C ) :   0.9270 B(  2-C ,  3-C ) :   1.0936
B(  2-C ,  9-H ) :   0.9095 B(  2-C , 10-H ) :   0.9097 B(  3-C ,  4-O ) :   0.9778
B(  3-C , 11-H ) :   0.9432 B(  3-C , 12-H ) :   0.9430 B(  4-O ,  5-C ) :   1.1159
B(  5-C ,  6-O ) :   2.1967

FINAL SINGLE POINT ENERGY      -343.918317589885

DIPOLE MOMENT
-------------
                                X             Y             Z
Electronic contribution:      1.24246      -5.23369      -0.87147
Nuclear contribution   :     -1.31975       6.96078       1.05505
                        -----------------------------------------
Total Dipole Moment    :     -0.07729       1.72709       0.18358
                        -----------------------------------------
Magnitude (a.u.)       :      1.73854
Magnitude (Debye)      :      4.41902

                             ****ORCA TERMINATED NORMALLY****
TOTAL RUN TIME: 0 days 0 hours 0 minutes 5 seconds 989 msec
