                         Program Version 3.0.3 - RELEASE   -
|  1> ! RI PBE def2-SVP def2-SVP/J NBO PAL2
|  2> % maxcore 2000
|  3> % output
|  4>     # printlevel mini
|  5>     print[ P_Basis ] 0
|  6>     print[ P_SCFInfo ] 1
|  7>     print[ P_SCFIterInfo ] 1
|  8>     print[ P_OrbEn ] 0
|  9>     print[ P_Cartesian ] 0
| 10> end
| 11> *xyz 0 1
| 12>  C        0.9785720000    -0.0333360000    -0.0548640000
| 13>  C        2.4551730000    -0.1469220000    -0.0648530000
| 14>  C        3.2556150000    -1.2074180000    -0.1307600000
| 15>  C        4.6746740000    -0.7619120000    -0.1067710000
| 16>  O        4.6196700000     0.6504320000    -0.0211110000
| 17>  C        3.3204490000     1.0558140000     0.0061980000
| 18>  O        3.0024280000     2.2060730000     0.0764780000
| 19>  H        0.5000050000    -1.0109960000    -0.1135060000
| 20>  H        0.6387150000     0.5796010000    -0.8935440000
| 21>  H        0.6423270000     0.4730050000     0.8535110000
| 22>  H        2.9635090000    -2.2479590000    -0.1931810000
| 23>  H        5.2225650000    -1.0431970000    -1.0129760000
| 24>  H        5.2262990000    -1.1503750000     0.7565480000
| 25> *
| 26>
| 27>                          ****END OF INPUT****
 Total Charge           Charge          ....    0
 Multiplicity           Mult            ....    1
 Number of Electrons    NEL             ....   52
 Basis Dimension        Dim             ....  128

MULLIKEN ATOMIC CHARGES
-----------------------
   0 C :    0.089930
   1 C :   -0.151786
   2 C :   -0.157893
   3 C :    0.246973
   4 O :   -0.251256
   5 C :    0.146013
   6 O :   -0.144346
   7 H :    0.018184
   8 H :    0.048919
   9 H :    0.047719
  10 H :    0.003144
  11 H :    0.051703
  12 H :    0.052697
Sum of atomic charges:   -0.0000000

LOEWDIN ATOMIC CHARGES
----------------------
   0 C :   -0.050476
   1 C :   -0.072416
   2 C :   -0.030007
   3 C :    0.078481
   4 O :   -0.066019
   5 C :    0.034364
   6 O :   -0.133392
   7 H :    0.035097
   8 H :    0.049542
   9 H :    0.049388
  10 H :    0.030185
  11 H :    0.037510
  12 H :    0.037743

  Mayer bond orders larger than 0.1
B(  0-C ,  1-C ) :   1.1169 B(  0-C ,  7-H ) :   0.9494 B(  0-C ,  8-H ) :   0.9371
B(  0-C ,  9-H ) :   0.9371 B(  1-C ,  2-C ) :   1.7649 B(  1-C ,  5-C ) :   0.9495
B(  2-C ,  3-C ) :   1.0227 B(  2-C , 10-H ) :   0.9919 B(  3-C ,  4-O ) :   0.9983
B(  3-C , 11-H ) :   0.9160 B(  3-C , 12-H ) :   0.9159 B(  4-O ,  5-C ) :   1.0999
B(  5-C ,  6-O ) :   2.1946

FINAL SINGLE POINT ENERGY      -343.931205089203

DIPOLE MOMENT
-------------
                                X             Y             Z
Electronic contribution:      3.58602       4.02824       0.23550
Nuclear contribution   :     -3.72425      -5.70817      -0.33785
                        -----------------------------------------
Total Dipole Moment    :     -0.13823      -1.67994      -0.10236
                        -----------------------------------------
Magnitude (a.u.)       :      1.68872
Magnitude (Debye)      :      4.29238

                             ****ORCA TERMINATED NORMALLY****
TOTAL RUN TIME: 0 days 0 hours 0 minutes 6 seconds 376 msec
