                         Program Version 3.0.3 - RELEASE   -
|  1> ! RI PBE def2-SVP def2-SVP/J NBO PAL2
|  2> % maxcore 2000
|  3> % output
|  4>     # printlevel mini
|  5>     print[ P_Basis ] 0
|  6>     print[ P_SCFInfo ] 1
|  7>     print[ P_SCFIterInfo ] 1
|  8>     print[ P_OrbEn ] 0
|  9>     print[ P_Cartesian ] 0
| 10> end
| 11> *xyz 0 1
| 12>  C        0.7275220000     0.2384410000    -0.0636250000
| 13>  C        2.2102330000     0.0819480000     0.1454540000
| 14>  C        2.6447620000     0.0085250000     1.5850470000
| 15>  C        2.9879240000    -0.7331340000    -0.8501710000
| 16>  O        2.2854530000    -1.3754710000    -1.8659540000
| 17>  C        3.1193960000     0.7633430000    -0.8392060000
| 18>  O        4.2755710000     1.3697220000    -0.3560490000
| 19>  H        0.1845660000    -0.5954560000     0.3900110000
| 20>  H        0.4701190000     0.2597370000    -1.1224480000
| 21>  H        0.3752980000     1.1635320000     0.4014970000
| 22>  H        2.1820640000    -0.8519840000     2.0766050000
| 23>  H        2.3410490000     0.9095200000     2.1253590000
| 24>  H        3.7274450000    -0.0781740000     1.6750310000
| 25>  H        3.8326530000    -1.2886640000    -0.4425000000
| 26>  H        2.8107440000    -1.3424420000    -2.6697890000
| 27>  H        2.6187060000     1.2916080000    -1.6507610000
| 28>  H        4.9801930000     1.2392400000    -0.9960910000
| 29> *
| 30>
| 31>                          ****END OF INPUT****
 Total Charge           Charge          ....    0
 Multiplicity           Mult            ....    1
 Number of Electrons    NEL             ....   56
 Basis Dimension        Dim             ....  148

MULLIKEN ATOMIC CHARGES
-----------------------
   0 C :    0.113879
   1 C :   -0.309774
   2 C :    0.108270
   3 C :    0.067833
   4 O :   -0.221570
   5 C :    0.063200
   6 O :   -0.222438
   7 H :    0.019500
   8 H :    0.008115
   9 H :    0.011796
  10 H :    0.013594
  11 H :    0.020294
  12 H :    0.010953
  13 H :   -0.000678
  14 H :    0.158243
  15 H :    0.000227
  16 H :    0.158556
Sum of atomic charges:   -0.0000000

LOEWDIN ATOMIC CHARGES
----------------------
   0 C :   -0.041800
   1 C :   -0.075375
   2 C :   -0.043257
   3 C :    0.012077
   4 O :   -0.093265
   5 C :    0.011224
   6 O :   -0.093491
   7 H :    0.029639
   8 H :    0.024616
   9 H :    0.027304
  10 H :    0.027722
  11 H :    0.029675
  12 H :    0.025326
  13 H :    0.006326
  14 H :    0.073386
  15 H :    0.006481
  16 H :    0.073412

  Mayer bond orders larger than 0.1
B(  0-C ,  1-C ) :   1.0914 B(  0-C ,  7-H ) :   0.9574 B(  0-C ,  8-H ) :   0.9394
B(  0-C ,  9-H ) :   0.9559 B(  1-C ,  2-C ) :   1.0925 B(  1-C ,  3-C ) :   0.8881
B(  1-C ,  5-C ) :   0.8892 B(  2-C , 10-H ) :   0.9549 B(  2-C , 11-H ) :   0.9585
B(  2-C , 12-H ) :   0.9382 B(  3-C ,  4-O ) :   1.1442 B(  3-C ,  5-C ) :   0.9165
B(  3-C , 13-H ) :   0.9387 B(  4-O , 14-H ) :   0.9793 B(  5-C ,  6-O ) :   1.1425
B(  5-C , 15-H ) :   0.9387 B(  6-O , 16-H ) :   0.9797

FINAL SINGLE POINT ENERGY      -346.272089102167

DIPOLE MOMENT
-------------
                                X             Y             Z
Electronic contribution:      3.17495      -0.25366      -3.72857
Nuclear contribution   :     -2.63025       0.20847       3.08776
                        -----------------------------------------
Total Dipole Moment    :      0.54470      -0.04519      -0.64080
                        -----------------------------------------
Magnitude (a.u.)       :      0.84224
Magnitude (Debye)      :      2.14081

                             ****ORCA TERMINATED NORMALLY****
TOTAL RUN TIME: 0 days 0 hours 0 minutes 7 seconds 88 msec
