                         Program Version 3.0.3 - RELEASE   -
|  1> ! RI PBE def2-SVP def2-SVP/J NBO PAL2
|  2> % maxcore 2000
|  3> % output
|  4>     # printlevel mini
|  5>     print[ P_Basis ] 0
|  6>     print[ P_SCFInfo ] 1
|  7>     print[ P_SCFIterInfo ] 1
|  8>     print[ P_OrbEn ] 0
|  9>     print[ P_Cartesian ] 0
| 10> end
| 11> *xyz 0 1
| 12>  C        0.8121130000    -0.0170930000     0.0618760000
| 13>  C        2.3183030000     0.0575140000    -0.1062950000
| 14>  C        2.7395410000     0.0329360000    -1.5638320000
| 15>  C        3.0435320000     1.0769670000     0.7848810000
| 16>  O        3.6917780000     0.0021110000     1.5203420000
| 17>  C        3.0759190000    -0.9460970000     0.7610150000
| 18>  O        3.1786770000    -2.1237890000     0.8466420000
| 19>  H        0.3304970000     0.8243780000    -0.4432220000
| 20>  H        0.5216480000     0.0026170000     1.1146540000
| 21>  H        0.4287690000    -0.9408310000    -0.3763100000
| 22>  H        2.2973400000     0.8754280000    -2.1021760000
| 23>  H        2.4002740000    -0.8896600000    -2.0391920000
| 24>  H        3.8250820000     0.0883670000    -1.6716580000
| 25>  H        2.4130440000     1.6694510000     1.4491610000
| 26>  H        3.7860830000     1.7051000000     0.2910330000
| 27> *
| 28>
| 29>                          ****END OF INPUT****
 Total Charge           Charge          ....    0
 Multiplicity           Mult            ....    1
 Number of Electrons    NEL             ....   54
 Basis Dimension        Dim             ....  138

MULLIKEN ATOMIC CHARGES
-----------------------
   0 C :    0.084934
   1 C :   -0.520591
   2 C :    0.082961
   3 C :    0.300294
   4 O :   -0.257785
   5 C :    0.203965
   6 O :   -0.128505
   7 H :    0.029149
   8 H :    0.025022
   9 H :    0.038115
  10 H :    0.029341
  11 H :    0.039794
  12 H :    0.027041
  13 H :    0.023387
  14 H :    0.022878
Sum of atomic charges:   -0.0000000

LOEWDIN ATOMIC CHARGES
----------------------
   0 C :   -0.040144
   1 C :   -0.105080
   2 C :   -0.041285
   3 C :    0.099759
   4 O :   -0.081035
   5 C :    0.039949
   6 O :   -0.109533
   7 H :    0.030711
   8 H :    0.030809
   9 H :    0.037061
  10 H :    0.030773
  11 H :    0.037285
  12 H :    0.031349
  13 H :    0.019796
  14 H :    0.019584

  Mayer bond orders larger than 0.1
B(  0-C ,  1-C ) :   1.0393 B(  0-C ,  7-H ) :   0.9586 B(  0-C ,  8-H ) :   0.9549
B(  0-C ,  9-H ) :   0.9576 B(  1-C ,  2-C ) :   1.0392 B(  1-C ,  3-C ) :   1.0218
B(  1-C ,  5-C ) :   0.8803 B(  2-C , 10-H ) :   0.9583 B(  2-C , 11-H ) :   0.9579
B(  2-C , 12-H ) :   0.9530 B(  3-C ,  4-O ) :   0.9875 B(  3-C , 13-H ) :   0.9342
B(  3-C , 14-H ) :   0.9351 B(  4-O ,  5-C ) :   1.1345 B(  4-O ,  6-O ) :   0.1137
B(  5-C ,  6-O ) :   2.2406

FINAL SINGLE POINT ENERGY      -345.119096012997

DIPOLE MOMENT
-------------
                                X             Y             Z
Electronic contribution:      4.60423      -3.99960       5.33860
Nuclear contribution   :     -5.20991       5.21443      -6.01631
                        -----------------------------------------
Total Dipole Moment    :     -0.60568       1.21483      -0.67771
                        -----------------------------------------
Magnitude (a.u.)       :      1.51722
Magnitude (Debye)      :      3.85647

                             ****ORCA TERMINATED NORMALLY****
TOTAL RUN TIME: 0 days 0 hours 0 minutes 7 seconds 399 msec
