                         Program Version 3.0.3 - RELEASE   -
|  1> ! RI PBE def2-SVP def2-SVP/J NBO PAL2
|  2> % maxcore 2000
|  3> % output
|  4>     # printlevel mini
|  5>     print[ P_Basis ] 0
|  6>     print[ P_SCFInfo ] 1
|  7>     print[ P_SCFIterInfo ] 1
|  8>     print[ P_OrbEn ] 0
|  9>     print[ P_Cartesian ] 0
| 10> end
| 11> *xyz 0 1
| 12>  C        0.8784940000     0.0520650000     0.0022280000
| 13>  C        2.4006220000    -0.0196940000     0.0650600000
| 14>  C        3.0332070000    -1.2324810000    -0.5368230000
| 15>  C        3.8705770000    -0.8302620000    -1.4807620000
| 16>  O        3.9236220000     0.5373020000    -1.6390500000
| 17>  C        3.0478880000     1.0973880000    -0.7398180000
| 18>  O        2.8776840000     2.2722100000    -0.6737490000
| 19>  H        0.4340970000    -0.7209300000     0.6313920000
| 20>  H        0.5248420000    -0.0933410000    -1.0202730000
| 21>  H        0.5356120000     1.0271400000     0.3516380000
| 22>  H        2.7170470000     0.1187620000     1.1067850000
| 23>  H        2.8423980000    -2.2560510000    -0.2533410000
| 24>  H        4.5162210000    -1.3840990000    -2.1453170000
| 25> *
| 26>
| 27>                          ****END OF INPUT****
 Total Charge           Charge          ....    0
 Multiplicity           Mult            ....    1
 Number of Electrons    NEL             ....   52
 Basis Dimension        Dim             ....  128

MULLIKEN ATOMIC CHARGES
-----------------------
   0 C :    0.037804
   1 C :   -0.142924
   2 C :   -0.049813
   3 C :    0.126574
   4 O :   -0.201519
   5 C :    0.153463
   6 O :   -0.124420
   7 H :    0.030842
   8 H :    0.030160
   9 H :    0.043996
  10 H :    0.066693
  11 H :    0.009933
  12 H :    0.019210
Sum of atomic charges:    0.0000000

LOEWDIN ATOMIC CHARGES
----------------------
   0 C :   -0.038723
   1 C :   -0.072010
   2 C :   -0.081589
   3 C :    0.050943
   4 O :   -0.034000
   5 C :    0.064161
   6 O :   -0.108077
   7 H :    0.031592
   8 H :    0.031813
   9 H :    0.036490
  10 H :    0.059768
  11 H :    0.031999
  12 H :    0.027634

  Mayer bond orders larger than 0.1
B(  0-C ,  1-C ) :   1.0646 B(  0-C ,  7-H ) :   0.9638 B(  0-C ,  8-H ) :   0.9681
B(  0-C ,  9-H ) :   0.9568 B(  1-C ,  2-C ) :   1.0096 B(  1-C ,  5-C ) :   0.9266
B(  1-C , 10-H ) :   0.8690 B(  2-C ,  3-C ) :   1.7644 B(  2-C , 11-H ) :   0.9944
B(  3-C ,  4-O ) :   1.0533 B(  3-C , 12-H ) :   0.9984 B(  4-O ,  5-C ) :   1.0764
B(  5-C ,  6-O ) :   2.2252

FINAL SINGLE POINT ENERGY      -343.920868071119

DIPOLE MOMENT
-------------
                                X             Y             Z
Electronic contribution:      4.93891       3.51339      -2.48550
Nuclear contribution   :     -5.16032      -4.81643       2.79425
                        -----------------------------------------
Total Dipole Moment    :     -0.22141      -1.30304       0.30874
                        -----------------------------------------
Magnitude (a.u.)       :      1.35730
Magnitude (Debye)      :      3.44998

                             ****ORCA TERMINATED NORMALLY****
TOTAL RUN TIME: 0 days 0 hours 0 minutes 6 seconds 461 msec
