                         Program Version 3.0.3 - RELEASE   -
|  1> ! RI PBE def2-SVP def2-SVP/J NBO PAL2
|  2> % maxcore 2000
|  3> % output
|  4>     # printlevel mini
|  5>     print[ P_Basis ] 0
|  6>     print[ P_SCFInfo ] 1
|  7>     print[ P_SCFIterInfo ] 1
|  8>     print[ P_OrbEn ] 0
|  9>     print[ P_Cartesian ] 0
| 10> end
| 11> *xyz 0 1
| 12>  C        0.8289040000    -0.1284330000     0.2844770000
| 13>  C        2.3265790000    -0.0384340000     0.1262730000
| 14>  C        3.1011600000     1.0830270000     0.8713950000
| 15>  C        4.1842510000     0.0403400000     1.0771800000
| 16>  O        5.3808050000     0.0586660000     1.0509370000
| 17>  C        3.2051570000    -1.0954540000     0.8653940000
| 18>  O        3.6426490000    -2.2528830000     0.2426580000
| 19>  H        0.3266210000     0.7244960000    -0.1785440000
| 20>  H        0.5512040000    -0.1463590000     1.3424480000
| 21>  H        0.4421730000    -1.0383490000    -0.1806160000
| 22>  H        2.6149680000    -0.0343980000    -0.9288000000
| 23>  H        2.6149410000     1.3609620000     1.8107960000
| 24>  H        3.3880100000     1.9821460000     0.3275510000
| 25>  H        2.7061690000    -1.3455390000     1.8126740000
| 26>  H        4.5641100000    -2.1193890000    -0.0070130000
| 27> *
| 28>
| 29>                          ****END OF INPUT****
 Total Charge           Charge          ....    0
 Multiplicity           Mult            ....    1
 Number of Electrons    NEL             ....   54
 Basis Dimension        Dim             ....  138

MULLIKEN ATOMIC CHARGES
-----------------------
   0 C :    0.072267
   1 C :   -0.228299
   2 C :    0.078155
   3 C :   -0.045060
   4 O :   -0.127790
   5 C :    0.131922
   6 O :   -0.215929
   7 H :    0.028671
   8 H :    0.010634
   9 H :    0.034092
  10 H :    0.017590
  11 H :    0.030786
  12 H :    0.038102
  13 H :    0.015817
  14 H :    0.159040
Sum of atomic charges:   -0.0000000

LOEWDIN ATOMIC CHARGES
----------------------
   0 C :   -0.059657
   1 C :   -0.043884
   2 C :   -0.054506
   3 C :    0.034133
   4 O :   -0.107118
   5 C :    0.013033
   6 O :   -0.088695
   7 H :    0.031248
   8 H :    0.024968
   9 H :    0.034975
  10 H :    0.030595
  11 H :    0.043851
  12 H :    0.035418
  13 H :    0.030714
  14 H :    0.074923

  Mayer bond orders larger than 0.1
B(  0-C ,  1-C ) :   1.0791 B(  0-C ,  7-H ) :   0.9572 B(  0-C ,  8-H ) :   0.9534
B(  0-C ,  9-H ) :   0.9550 B(  1-C ,  2-C ) :   1.0346 B(  1-C ,  5-C ) :   0.9385
B(  1-C , 10-H ) :   0.9086 B(  2-C ,  3-C ) :   0.9881 B(  2-C , 11-H ) :   0.8882
B(  2-C , 12-H ) :   0.9248 B(  3-C ,  4-O ) :   2.2237 B(  3-C ,  5-C ) :   0.9376
B(  5-C ,  6-O ) :   1.2017 B(  5-C , 13-H ) :   0.8806 B(  6-O , 14-H ) :   0.9663

FINAL SINGLE POINT ENERGY      -345.090264652763

DIPOLE MOMENT
-------------
                                X             Y             Z
Electronic contribution:      7.50600      -1.82004       0.93289
Nuclear contribution   :     -8.22860       2.20369      -1.00560
                        -----------------------------------------
Total Dipole Moment    :     -0.72260       0.38366      -0.07271
                        -----------------------------------------
Magnitude (a.u.)       :      0.82135
Magnitude (Debye)      :      2.08772

                             ****ORCA TERMINATED NORMALLY****
TOTAL RUN TIME: 0 days 0 hours 0 minutes 7 seconds 302 msec
