                         Program Version 3.0.3 - RELEASE   -
|  1> ! RI PBE def2-SVP def2-SVP/J NBO PAL2
|  2> % maxcore 2000
|  3> % output
|  4>     # printlevel mini
|  5>     print[ P_Basis ] 0
|  6>     print[ P_SCFInfo ] 1
|  7>     print[ P_SCFIterInfo ] 1
|  8>     print[ P_OrbEn ] 0
|  9>     print[ P_Cartesian ] 0
| 10> end
| 11> *xyz 0 1
| 12>  C        0.8776570000     0.0108720000     0.1367650000
| 13>  C        2.3848800000     0.0179960000     0.0889380000
| 14>  C        3.1777380000     1.0973760000     0.8598370000
| 15>  C        4.2405510000     0.0375180000     1.1948860000
| 16>  O        5.2312320000    -0.0951240000     0.1943540000
| 17>  C        3.1721450000    -1.0331770000     0.9039840000
| 18>  O        3.5800860000    -2.2266370000     0.3192500000
| 19>  H        0.4541410000     0.8716420000    -0.3883510000
| 20>  H        0.5181460000     0.0427110000     1.1701080000
| 21>  H        0.4759320000    -0.8929930000    -0.3288740000
| 22>  H        2.7396770000    -0.0167610000    -0.9452030000
| 23>  H        2.6493770000     1.4273940000     1.7584540000
| 24>  H        3.5175990000     1.9748690000     0.3062580000
| 25>  H        4.6945740000     0.0540720000     2.1915140000
| 26>  H        5.8096180000     0.6700820000     0.2228350000
| 27>  H        2.6256570000    -1.2812690000     1.8192960000
| 28>  H        4.3113910000    -2.0065600000    -0.2695320000
| 29> *
| 30>
| 31>                          ****END OF INPUT****
 Total Charge           Charge          ....    0
 Multiplicity           Mult            ....    1
 Number of Electrons    NEL             ....   56
 Basis Dimension        Dim             ....  148

MULLIKEN ATOMIC CHARGES
-----------------------
   0 C :    0.069092
   1 C :   -0.151482
   2 C :    0.098103
   3 C :    0.025807
   4 O :   -0.267432
   5 C :    0.113791
   6 O :   -0.236566
   7 H :    0.018850
   8 H :    0.002371
   9 H :    0.026627
  10 H :   -0.004335
  11 H :    0.002580
  12 H :   -0.002434
  13 H :   -0.005813
  14 H :    0.163458
  15 H :   -0.007316
  16 H :    0.154699
Sum of atomic charges:    0.0000000

LOEWDIN ATOMIC CHARGES
----------------------
   0 C :   -0.063585
   1 C :   -0.054231
   2 C :   -0.046370
   3 C :    0.035628
   4 O :   -0.111420
   5 C :    0.037884
   6 O :   -0.097181
   7 H :    0.027049
   8 H :    0.021272
   9 H :    0.031657
  10 H :    0.023947
  11 H :    0.025288
  12 H :    0.017031
  13 H :   -0.004056
  14 H :    0.075012
  15 H :    0.019185
  16 H :    0.062891

  Mayer bond orders larger than 0.1
B(  0-C ,  1-C ) :   1.1129 B(  0-C ,  7-H ) :   0.9580 B(  0-C ,  8-H ) :   0.9501
B(  0-C ,  9-H ) :   0.9565 B(  1-C ,  2-C ) :   1.0663 B(  1-C ,  5-C ) :   0.9834
B(  1-C , 10-H ) :   0.8790 B(  2-C ,  3-C ) :   1.0767 B(  2-C , 11-H ) :   0.9116
B(  2-C , 12-H ) :   0.9027 B(  3-C ,  4-O ) :   1.0771 B(  3-C ,  5-C ) :   1.0140
B(  3-C , 13-H ) :   0.9251 B(  4-O , 14-H ) :   0.9765 B(  5-C ,  6-O ) :   1.1664
B(  5-C , 15-H ) :   0.9142 B(  6-O , 16-H ) :   0.9614

FINAL SINGLE POINT ENERGY      -346.282423597470

DIPOLE MOMENT
-------------
                                X             Y             Z
Electronic contribution:      5.02808      -3.01354      -0.33090
Nuclear contribution   :     -4.69649       3.95678       0.40589
                        -----------------------------------------
Total Dipole Moment    :      0.33160       0.94325       0.07500
                        -----------------------------------------
Magnitude (a.u.)       :      1.00264
Magnitude (Debye)      :      2.54852

                             ****ORCA TERMINATED NORMALLY****
TOTAL RUN TIME: 0 days 0 hours 0 minutes 7 seconds 390 msec
