                         Program Version 3.0.3 - RELEASE   -
|  1> ! RI PBE def2-SVP def2-SVP/J NBO PAL2
|  2> % maxcore 2000
|  3> % output
|  4>     # printlevel mini
|  5>     print[ P_Basis ] 0
|  6>     print[ P_SCFInfo ] 1
|  7>     print[ P_SCFIterInfo ] 1
|  8>     print[ P_OrbEn ] 0
|  9>     print[ P_Cartesian ] 0
| 10> end
| 11> *xyz 0 1
| 12>  C        0.8899200000    -0.1151300000     0.5695230000
| 13>  C        2.2359650000     0.0631450000    -0.1113800000
| 14>  C        3.1587540000     1.1534560000     0.5016240000
| 15>  C        3.9162050000     0.0585090000     1.3094680000
| 16>  O        5.2939060000     0.0879350000     1.4656000000
| 17>  C        3.3268290000    -0.9171120000     0.3086670000
| 18>  O        3.7867100000    -1.9091990000    -0.1787180000
| 19>  H        0.2397330000     0.7349550000     0.3504570000
| 20>  H        0.9916560000    -0.1850080000     1.6552450000
| 21>  H        0.3924320000    -1.0216340000     0.2188350000
| 22>  H        2.1133760000     0.1058840000    -1.1959460000
| 23>  H        2.6735990000     1.9312660000     1.0907540000
| 24>  H        3.8125560000     1.6039000000    -0.2456880000
| 25>  H        3.4352190000    -0.0566970000     2.2887630000
| 26>  H        5.6696590000    -0.5615690000     0.8603950000
| 27> *
| 28>
| 29>                          ****END OF INPUT****
 Total Charge           Charge          ....    0
 Multiplicity           Mult            ....    1
 Number of Electrons    NEL             ....   54
 Basis Dimension        Dim             ....  138

MULLIKEN ATOMIC CHARGES
-----------------------
   0 C :    0.051417
   1 C :   -0.224279
   2 C :    0.100224
   3 C :    0.044888
   4 O :   -0.220952
   5 C :    0.028003
   6 O :   -0.127784
   7 H :    0.037453
   8 H :    0.022723
   9 H :    0.037167
  10 H :    0.033877
  11 H :    0.009816
  12 H :    0.017333
  13 H :    0.032160
  14 H :    0.157955
Sum of atomic charges:    0.0000000

LOEWDIN ATOMIC CHARGES
----------------------
   0 C :   -0.050411
   1 C :   -0.064335
   2 C :   -0.033082
   3 C :    0.012888
   4 O :   -0.090041
   5 C :    0.035546
   6 O :   -0.105187
   7 H :    0.033512
   8 H :    0.027490
   9 H :    0.035469
  10 H :    0.035668
  11 H :    0.024932
  12 H :    0.031475
  13 H :    0.031973
  14 H :    0.074105

  Mayer bond orders larger than 0.1
B(  0-C ,  1-C ) :   1.0599 B(  0-C ,  7-H ) :   0.9579 B(  0-C ,  8-H ) :   0.9589
B(  0-C ,  9-H ) :   0.9573 B(  1-C ,  2-C ) :   1.0519 B(  1-C ,  5-C ) :   0.9270
B(  1-C , 10-H ) :   0.9088 B(  2-C ,  3-C ) :   1.0133 B(  2-C , 11-H ) :   0.9030
B(  2-C , 12-H ) :   0.9119 B(  3-C ,  4-O ) :   1.1811 B(  3-C ,  5-C ) :   0.9345
B(  3-C , 13-H ) :   0.8912 B(  4-O , 14-H ) :   0.9675 B(  5-C ,  6-O ) :   2.2301

FINAL SINGLE POINT ENERGY      -345.087600099897

DIPOLE MOMENT
-------------
                                X             Y             Z
Electronic contribution:      5.72567      -3.65409      -0.50993
Nuclear contribution   :     -6.36144       4.14637       0.47037
                        -----------------------------------------
Total Dipole Moment    :     -0.63577       0.49228      -0.03956
                        -----------------------------------------
Magnitude (a.u.)       :      0.80505
Magnitude (Debye)      :      2.04629

                             ****ORCA TERMINATED NORMALLY****
TOTAL RUN TIME: 0 days 0 hours 0 minutes 7 seconds 324 msec
