                         Program Version 3.0.3 - RELEASE   -
|  1> ! RI PBE def2-SVP def2-SVP/J NBO PAL2
|  2> % maxcore 2000
|  3> % output
|  4>     # printlevel mini
|  5>     print[ P_Basis ] 0
|  6>     print[ P_SCFInfo ] 1
|  7>     print[ P_SCFIterInfo ] 1
|  8>     print[ P_OrbEn ] 0
|  9>     print[ P_Cartesian ] 0
| 10> end
| 11> *xyz 0 1
| 12>  C        0.8728910000    -0.0583880000     0.0095070000
| 13>  C        2.3836500000     0.0293890000     0.0447310000
| 14>  C        2.9949170000     1.1550960000     0.8667730000
| 15>  C        4.3470030000     0.5708000000     1.2477800000
| 16>  O        4.1428310000    -0.8423170000     1.3309820000
| 17>  C        3.0332070000    -1.2038150000     0.6501700000
| 18>  O        2.6746530000    -2.3390250000     0.5685760000
| 19>  H        0.4430790000     0.7998780000    -0.5108080000
| 20>  H        0.4626670000    -0.0840630000     1.0219670000
| 21>  H        0.5581570000    -0.9693600000    -0.5012920000
| 22>  H        2.7694470000     0.0795140000    -0.9829920000
| 23>  H        2.3909380000     1.3298080000     1.7621570000
| 24>  H        3.0837720000     2.0988240000     0.3279320000
| 25>  H        4.7219060000     0.9094750000     2.2133620000
| 26>  H        5.1083830000     0.7668830000     0.4858450000
| 27> *
| 28>
| 29>                          ****END OF INPUT****
 Total Charge           Charge          ....    0
 Multiplicity           Mult            ....    1
 Number of Electrons    NEL             ....   54
 Basis Dimension        Dim             ....  138

MULLIKEN ATOMIC CHARGES
-----------------------
   0 C :    0.057926
   1 C :   -0.231177
   2 C :   -0.007427
   3 C :    0.190390
   4 O :   -0.246923
   5 C :    0.136311
   6 O :   -0.146024
   7 H :    0.023721
   8 H :    0.020254
   9 H :    0.041542
  10 H :    0.048812
  11 H :    0.028322
  12 H :    0.025622
  13 H :    0.030382
  14 H :    0.028268
Sum of atomic charges:    0.0000000

LOEWDIN ATOMIC CHARGES
----------------------
   0 C :   -0.049371
   1 C :   -0.083164
   2 C :   -0.047116
   3 C :    0.078642
   4 O :   -0.064994
   5 C :    0.040141
   6 O :   -0.127963
   7 H :    0.029265
   8 H :    0.029631
   9 H :    0.036874
  10 H :    0.048437
  11 H :    0.031839
  12 H :    0.032574
  13 H :    0.025411
  14 H :    0.019792

  Mayer bond orders larger than 0.1
B(  0-C ,  1-C ) :   1.1036 B(  0-C ,  7-H ) :   0.9603 B(  0-C ,  8-H ) :   0.9598
B(  0-C ,  9-H ) :   0.9521 B(  1-C ,  2-C ) :   1.0617 B(  1-C ,  5-C ) :   0.9110
B(  1-C , 10-H ) :   0.8855 B(  2-C ,  3-C ) :   1.0911 B(  2-C , 11-H ) :   0.9281
B(  2-C , 12-H ) :   0.9277 B(  3-C ,  4-O ) :   0.9559 B(  3-C , 13-H ) :   0.9488
B(  3-C , 14-H ) :   0.9412 B(  4-O ,  5-C ) :   1.1500 B(  5-C ,  6-O ) :   2.2013

FINAL SINGLE POINT ENERGY      -345.140636508801

DIPOLE MOMENT
-------------
                                X             Y             Z
Electronic contribution:      3.62303      -5.98651       1.33982
Nuclear contribution   :     -3.58266       7.58995      -1.51672
                        -----------------------------------------
Total Dipole Moment    :      0.04037       1.60344      -0.17689
                        -----------------------------------------
Magnitude (a.u.)       :      1.61367
Magnitude (Debye)      :      4.10162

                             ****ORCA TERMINATED NORMALLY****
TOTAL RUN TIME: 0 days 0 hours 0 minutes 6 seconds 781 msec
