                         Program Version 3.0.3 - RELEASE   -
|  1> ! RI PBE def2-SVP def2-SVP/J NBO PAL2
|  2> % maxcore 2000
|  3> % output
|  4>     # printlevel mini
|  5>     print[ P_Basis ] 0
|  6>     print[ P_SCFInfo ] 1
|  7>     print[ P_SCFIterInfo ] 1
|  8>     print[ P_OrbEn ] 0
|  9>     print[ P_Cartesian ] 0
| 10> end
| 11> *xyz 0 1
| 12>  C        0.9871690000     0.0650390000     0.2875970000
| 13>  C        2.4986180000     0.0180910000     0.0964070000
| 14>  C        2.9950300000    -1.3715540000    -0.3124680000
| 15>  C        2.6975270000    -1.6703590000    -1.7715280000
| 16>  O        3.2364820000    -0.6867850000    -2.6266170000
| 17>  C        2.6935960000     0.5866190000    -2.3568290000
| 18>  C        2.9908370000     1.0355110000    -0.9366910000
| 19>  H        0.6701680000    -0.6494760000     1.0519370000
| 20>  H        0.4420720000    -0.1734790000    -0.6284930000
| 21>  H        0.6671910000     1.0599180000     0.6086410000
| 22>  H        2.9547860000     0.2689310000     1.0606090000
| 23>  H        2.5444840000    -2.1435500000     0.3203980000
| 24>  H        4.0791580000    -1.4262850000    -0.1679950000
| 25>  H        1.6116060000    -1.7503420000    -1.9390370000
| 26>  H        3.1464360000    -2.6191710000    -2.0729760000
| 27>  H        1.6075620000     0.5715720000    -2.5411780000
| 28>  H        3.1396610000     1.2708190000    -3.0817650000
| 29>  H        2.5372380000     2.0162960000    -0.7583730000
| 30>  H        4.0746580000     1.1570940000    -0.8379410000
| 31> *
| 32>
| 33>                          ****END OF INPUT****
 Total Charge           Charge          ....    0
 Multiplicity           Mult            ....    1
 Number of Electrons    NEL             ....   56
 Basis Dimension        Dim             ....  158

MULLIKEN ATOMIC CHARGES
-----------------------
   0 C :    0.028979
   1 C :   -0.156319
   2 C :    0.005087
   3 C :    0.196335
   4 O :   -0.346075
   5 C :    0.184776
   6 C :    0.013405
   7 H :    0.015161
   8 H :    0.017203
   9 H :    0.013539
  10 H :    0.003360
  11 H :    0.004307
  12 H :    0.012021
  13 H :   -0.013964
  14 H :    0.008509
  15 H :   -0.014092
  16 H :    0.013469
  17 H :    0.001933
  18 H :    0.012366
Sum of atomic charges:   -0.0000000

LOEWDIN ATOMIC CHARGES
----------------------
   0 C :   -0.060738
   1 C :   -0.048394
   2 C :   -0.053665
   3 C :    0.058858
   4 O :   -0.149245
   5 C :    0.057480
   6 C :   -0.053100
   7 H :    0.025993
   8 H :    0.019239
   9 H :    0.026055
  10 H :    0.024994
  11 H :    0.025605
  12 H :    0.026380
  13 H :    0.002716
  14 H :    0.021458
  15 H :    0.002368
  16 H :    0.022430
  17 H :    0.024954
  18 H :    0.026612

  Mayer bond orders larger than 0.1
B(  0-C ,  1-C ) :   1.0766 B(  0-C ,  7-H ) :   0.9583 B(  0-C ,  8-H ) :   0.9605
B(  0-C ,  9-H ) :   0.9572 B(  1-C ,  2-C ) :   1.0641 B(  1-C ,  6-C ) :   1.0637
B(  1-C , 10-H ) :   0.9127 B(  2-C ,  3-C ) :   1.0927 B(  2-C , 11-H ) :   0.9216
B(  2-C , 12-H ) :   0.9193 B(  3-C ,  4-O ) :   1.0196 B(  3-C , 13-H ) :   0.9192
B(  3-C , 14-H ) :   0.9393 B(  4-O ,  5-C ) :   1.0264 B(  5-C ,  6-C ) :   1.0896
B(  5-C , 15-H ) :   0.9203 B(  5-C , 16-H ) :   0.9393 B(  6-C , 17-H ) :   0.9218
B(  6-C , 18-H ) :   0.9182

FINAL SINGLE POINT ENERGY      -310.440512911109

DIPOLE MOMENT
-------------
                                X             Y             Z
Electronic contribution:      2.95311      -0.92738      -3.59724
Nuclear contribution   :     -3.21218       1.03949       4.02992
                        -----------------------------------------
Total Dipole Moment    :     -0.25907       0.11210       0.43268
                        -----------------------------------------
Magnitude (a.u.)       :      0.51662
Magnitude (Debye)      :      1.31314

                             ****ORCA TERMINATED NORMALLY****
TOTAL RUN TIME: 0 days 0 hours 0 minutes 8 seconds 373 msec
