                         Program Version 3.0.3 - RELEASE   -
|  1> ! RI PBE def2-SVP def2-SVP/J NBO PAL2
|  2> % maxcore 2000
|  3> % output
|  4>     # printlevel mini
|  5>     print[ P_Basis ] 0
|  6>     print[ P_SCFInfo ] 1
|  7>     print[ P_SCFIterInfo ] 1
|  8>     print[ P_OrbEn ] 0
|  9>     print[ P_Cartesian ] 0
| 10> end
| 11> *xyz 0 1
| 12>  C        1.0617140000    -0.0277400000     0.1407060000
| 13>  C        2.3894720000    -0.0408700000     0.1058420000
| 14>  C        3.2037550000    -1.2984420000     0.0689630000
| 15>  C        4.1861780000    -1.2444360000    -1.0975640000
| 16>  O        4.9831040000    -0.0850620000    -1.0513630000
| 17>  C        4.2081910000     1.0869060000    -1.1372550000
| 18>  C        3.2273380000     1.1991210000     0.0264430000
| 19>  H        0.4873800000    -0.9475390000     0.1757610000
| 20>  H        0.5048570000     0.9033980000     0.1442490000
| 21>  H        2.5646960000    -2.1812030000    -0.0153110000
| 22>  H        3.7828550000    -1.3885710000     0.9961480000
| 23>  H        3.6316580000    -1.2800880000    -2.0484210000
| 24>  H        4.8721310000    -2.0934680000    -1.0709230000
| 25>  H        3.6541370000     1.1006350000    -2.0889520000
| 26>  H        4.9100590000     1.9232520000    -1.1393070000
| 27>  H        2.6050290000     2.0904090000    -0.0880340000
| 28>  H        3.8083340000     1.3098080000     0.9502080000
| 29> *
| 30>
| 31>                          ****END OF INPUT****
 Total Charge           Charge          ....    0
 Multiplicity           Mult            ....    1
 Number of Electrons    NEL             ....   54
 Basis Dimension        Dim             ....  148

MULLIKEN ATOMIC CHARGES
-----------------------
   0 C :   -0.029289
   1 C :   -0.230245
   2 C :    0.096508
   3 C :    0.182129
   4 O :   -0.344835
   5 C :    0.180557
   6 C :    0.097030
   7 H :    0.005275
   8 H :    0.005454
   9 H :    0.000110
  10 H :    0.018032
  11 H :   -0.014059
  12 H :    0.014273
  13 H :   -0.014238
  14 H :    0.014889
  15 H :   -0.000149
  16 H :    0.018556
Sum of atomic charges:    0.0000000

LOEWDIN ATOMIC CHARGES
----------------------
   0 C :   -0.077504
   1 C :   -0.035615
   2 C :   -0.047769
   3 C :    0.064583
   4 O :   -0.145251
   5 C :    0.064304
   6 C :   -0.047741
   7 H :    0.019808
   8 H :    0.019825
   9 H :    0.030964
  10 H :    0.034857
  11 H :    0.004241
  12 H :    0.022509
  13 H :    0.004231
  14 H :    0.022622
  15 H :    0.030963
  16 H :    0.034973

  Mayer bond orders larger than 0.1
B(  0-C ,  1-C ) :   2.0096 B(  0-C ,  7-H ) :   0.9298 B(  0-C ,  8-H ) :   0.9300
B(  1-C ,  2-C ) :   1.0577 B(  1-C ,  6-C ) :   1.0580 B(  2-C ,  3-C ) :   1.0769
B(  2-C ,  9-H ) :   0.9103 B(  2-C , 10-H ) :   0.8953 B(  3-C ,  4-O ) :   1.0256
B(  3-C , 11-H ) :   0.9154 B(  3-C , 12-H ) :   0.9410 B(  4-O ,  5-C ) :   1.0258
B(  5-C ,  6-C ) :   1.0773 B(  5-C , 13-H ) :   0.9154 B(  5-C , 14-H ) :   0.9410
B(  6-C , 15-H ) :   0.9100 B(  6-C , 16-H ) :   0.8952

FINAL SINGLE POINT ENERGY      -309.223247072571

DIPOLE MOMENT
-------------
                                X             Y             Z
Electronic contribution:      2.38778      -0.02667      -0.23411
Nuclear contribution   :     -2.63534       0.02913       0.24957
                        -----------------------------------------
Total Dipole Moment    :     -0.24756       0.00246       0.01546
                        -----------------------------------------
Magnitude (a.u.)       :      0.24805
Magnitude (Debye)      :      0.63050

                             ****ORCA TERMINATED NORMALLY****
TOTAL RUN TIME: 0 days 0 hours 0 minutes 7 seconds 437 msec
