                         Program Version 3.0.3 - RELEASE   -
|  1> ! RI PBE def2-SVP def2-SVP/J NBO PAL2
|  2> % maxcore 2000
|  3> % output
|  4>     # printlevel mini
|  5>     print[ P_Basis ] 0
|  6>     print[ P_SCFInfo ] 1
|  7>     print[ P_SCFIterInfo ] 1
|  8>     print[ P_OrbEn ] 0
|  9>     print[ P_Cartesian ] 0
| 10> end
| 11> *xyz 0 1
| 12>  C        0.9468910000     0.0421700000    -0.1911640000
| 13>  C        2.2794240000     0.0472720000    -0.0275290000
| 14>  C        3.0779250000     1.2578960000     0.0699210000
| 15>  C        4.4007950000     1.2082990000     0.2324210000
| 16>  O        5.1147390000     0.0581310000     0.3207000000
| 17>  C        4.4093550000    -1.0974700000     0.2346300000
| 18>  C        3.0868900000    -1.1572000000     0.0722360000
| 19>  H        0.3863660000     0.9661920000    -0.2604610000
| 20>  H        0.3932400000    -0.8861190000    -0.2586860000
| 21>  H        2.6012800000     2.2286330000     0.0108780000
| 22>  H        5.0422800000     2.0755290000     0.3107610000
| 23>  H        5.0572590000    -1.9597630000     0.3146280000
| 24>  H        2.6174670000    -2.1315610000     0.0150560000
| 25> *
| 26>
| 27>                          ****END OF INPUT****
 Total Charge           Charge          ....    0
 Multiplicity           Mult            ....    1
 Number of Electrons    NEL             ....   50
 Basis Dimension        Dim             ....  128

MULLIKEN ATOMIC CHARGES
-----------------------
   0 C :   -0.071321
   1 C :    0.035302
   2 C :   -0.020929
   3 C :    0.123313
   4 O :   -0.189013
   5 C :    0.123294
   6 C :   -0.021114
   7 H :    0.002171
   8 H :    0.002189
   9 H :   -0.006763
  10 H :    0.014763
  11 H :    0.014896
  12 H :   -0.006788
Sum of atomic charges:    0.0000000

LOEWDIN ATOMIC CHARGES
----------------------
   0 C :   -0.103666
   1 C :   -0.041577
   2 C :   -0.056793
   3 C :    0.046116
   4 O :   -0.002710
   5 C :    0.046089
   6 C :   -0.056798
   7 H :    0.018592
   8 H :    0.018588
   9 H :    0.038492
  10 H :    0.027581
  11 H :    0.027607
  12 H :    0.038479

  Mayer bond orders larger than 0.1
B(  0-C ,  1-C ) :   1.8294 B(  0-C ,  7-H ) :   0.9348 B(  0-C ,  8-H ) :   0.9348
B(  1-C ,  2-C ) :   1.0991 B(  1-C ,  6-C ) :   1.0992 B(  2-C ,  3-C ) :   1.7094
B(  2-C ,  9-H ) :   0.9586 B(  3-C ,  4-O ) :   1.1005 B(  3-C , 10-H ) :   0.9687
B(  4-O ,  5-C ) :   1.1007 B(  5-C ,  6-C ) :   1.7093 B(  5-C , 11-H ) :   0.9687
B(  6-C , 12-H ) :   0.9587

FINAL SINGLE POINT ENERGY      -306.816804998535

DIPOLE MOMENT
-------------
                                X             Y             Z
Electronic contribution:      4.09136       0.01570       0.50006
Nuclear contribution   :     -3.81221      -0.01460      -0.46822
                        -----------------------------------------
Total Dipole Moment    :      0.27916       0.00110       0.03185
                        -----------------------------------------
Magnitude (a.u.)       :      0.28097
Magnitude (Debye)      :      0.71417

                             ****ORCA TERMINATED NORMALLY****
TOTAL RUN TIME: 0 days 0 hours 0 minutes 6 seconds 400 msec
