                         Program Version 3.0.3 - RELEASE   -
|  1> ! RI PBE def2-SVP def2-SVP/J NBO PAL2
|  2> % maxcore 2000
|  3> % output
|  4>     # printlevel mini
|  5>     print[ P_Basis ] 0
|  6>     print[ P_SCFInfo ] 1
|  7>     print[ P_SCFIterInfo ] 1
|  8>     print[ P_OrbEn ] 0
|  9>     print[ P_Cartesian ] 0
| 10> end
| 11> *xyz 0 1
| 12>  C        1.1046350000     0.0621880000    -0.2545870000
| 13>  C        2.4167040000     0.0308120000    -0.0257480000
| 14>  C        3.3071990000    -1.1751570000     0.0738970000
| 15>  C        4.6923500000    -0.5976310000     0.3442330000
| 16>  O        5.7083670000    -1.2293960000     0.4929110000
| 17>  C        4.5421670000     0.8685050000     0.3867280000
| 18>  C        3.2584910000     1.2008570000     0.1770000000
| 19>  H        0.5279550000    -0.8440150000    -0.3983960000
| 20>  H        0.5696110000     1.0041210000    -0.3042410000
| 21>  H        3.3264360000    -1.7666350000    -0.8450200000
| 22>  H        3.0223960000    -1.8480720000     0.8867280000
| 23>  H        5.3721580000     1.5389230000     0.5639240000
| 24>  H        2.8618290000     2.2096890000     0.1547610000
| 25> *
| 26>
| 27>                          ****END OF INPUT****
 Total Charge           Charge          ....    0
 Multiplicity           Mult            ....    1
 Number of Electrons    NEL             ....   50
 Basis Dimension        Dim             ....  128

MULLIKEN ATOMIC CHARGES
-----------------------
   0 C :   -0.023706
   1 C :   -0.144058
   2 C :    0.137688
   3 C :   -0.019323
   4 O :   -0.146746
   5 C :   -0.016099
   6 C :    0.064187
   7 H :    0.022632
   8 H :    0.019577
   9 H :    0.057535
  10 H :    0.059050
  11 H :   -0.003844
  12 H :   -0.006893
Sum of atomic charges:    0.0000000

LOEWDIN ATOMIC CHARGES
----------------------
   0 C :   -0.037172
   1 C :   -0.035264
   2 C :   -0.055863
   3 C :    0.036292
   4 O :   -0.122977
   5 C :   -0.044954
   6 C :    0.023463
   7 H :    0.029263
   8 H :    0.027678
   9 H :    0.057276
  10 H :    0.057531
  11 H :    0.033508
  12 H :    0.031218

  Mayer bond orders larger than 0.1
B(  0-C ,  1-C ) :   1.9050 B(  0-C ,  5-C ) :   0.1283 B(  0-C ,  7-H ) :   0.9337
B(  0-C ,  8-H ) :   0.9315 B(  1-C ,  2-C ) :   1.0009 B(  1-C ,  6-C ) :   1.1039
B(  2-C ,  3-C ) :   0.9483 B(  2-C ,  9-H ) :   0.8921 B(  2-C , 10-H ) :   0.8920
B(  3-C ,  4-O ) :   2.1569 B(  3-C ,  5-C ) :   1.0375 B(  5-C ,  6-C ) :   1.5774
B(  5-C , 11-H ) :   0.9972 B(  6-C , 12-H ) :   0.9915

FINAL SINGLE POINT ENERGY      -306.835335206003

DIPOLE MOMENT
-------------
                                X             Y             Z
Electronic contribution:      4.48033      -0.57197       0.75973
Nuclear contribution   :     -5.54635       1.13881      -0.92023
                        -----------------------------------------
Total Dipole Moment    :     -1.06601       0.56684      -0.16051
                        -----------------------------------------
Magnitude (a.u.)       :      1.21797
Magnitude (Debye)      :      3.09584

                             ****ORCA TERMINATED NORMALLY****
TOTAL RUN TIME: 0 days 0 hours 0 minutes 6 seconds 149 msec
