                         Program Version 3.0.3 - RELEASE   -
|  1> ! RI PBE def2-SVP def2-SVP/J NBO PAL2
|  2> % maxcore 2000
|  3> % output
|  4>     # printlevel mini
|  5>     print[ P_Basis ] 0
|  6>     print[ P_SCFInfo ] 1
|  7>     print[ P_SCFIterInfo ] 1
|  8>     print[ P_OrbEn ] 0
|  9>     print[ P_Cartesian ] 0
| 10> end
| 11> *xyz 0 1
| 12>  C        0.9703860000    -0.0182160000     0.3604600000
| 13>  C        2.2744040000    -0.0023400000     0.0744360000
| 14>  C        3.0163270000     1.2496740000    -0.3056710000
| 15>  C        4.4322870000     1.1917550000     0.2297350000
| 16>  O        5.1328790000     0.0406620000    -0.2317850000
| 17>  C        4.4310540000    -1.1040600000    -0.1556090000
| 18>  C        3.1081840000    -1.1882320000     0.0420720000
| 19>  H        0.3813720000     0.8917690000     0.3620780000
| 20>  H        0.4566230000    -0.9441520000     0.5935420000
| 21>  H        2.5133540000     2.1422620000     0.0729850000
| 22>  H        3.0530680000     1.3304150000    -1.3983470000
| 23>  H        4.4183170000     1.1609350000     1.3263460000
| 24>  H        5.0257830000     2.0480650000    -0.0910880000
| 25>  H        5.0687900000    -1.9730320000    -0.2707190000
| 26>  H        2.6593830000    -2.1697940000     0.1308450000
| 27> *
| 28>
| 29>                          ****END OF INPUT****
 Total Charge           Charge          ....    0
 Multiplicity           Mult            ....    1
 Number of Electrons    NEL             ....   52
 Basis Dimension        Dim             ....  138

MULLIKEN ATOMIC CHARGES
-----------------------
   0 C :   -0.056568
   1 C :   -0.084121
   2 C :    0.043301
   3 C :    0.161294
   4 O :   -0.259621
   5 C :    0.116754
   6 C :   -0.025827
   7 H :    0.005607
   8 H :    0.006445
   9 H :    0.008991
  10 H :    0.045125
  11 H :    0.030590
  12 H :    0.018831
  13 H :    0.007583
  14 H :   -0.018382
Sum of atomic charges:   -0.0000000

LOEWDIN ATOMIC CHARGES
----------------------
   0 C :   -0.078140
   1 C :   -0.036176
   2 C :   -0.046155
   3 C :    0.075734
   4 O :   -0.067365
   5 C :    0.039666
   6 C :   -0.110195
   7 H :    0.019104
   8 H :    0.020833
   9 H :    0.037022
  10 H :    0.042116
  11 H :    0.021883
  12 H :    0.025595
  13 H :    0.023325
  14 H :    0.032752

  Mayer bond orders larger than 0.1
B(  0-C ,  1-C ) :   1.9122 B(  0-C ,  5-C ) :   0.1164 B(  0-C ,  7-H ) :   0.9324
B(  0-C ,  8-H ) :   0.9342 B(  1-C ,  2-C ) :   1.0487 B(  1-C ,  6-C ) :   1.1252
B(  2-C ,  3-C ) :   1.0805 B(  2-C ,  9-H ) :   0.9077 B(  2-C , 10-H ) :   0.9071
B(  3-C ,  4-O ) :   0.9644 B(  3-C , 11-H ) :   0.9419 B(  3-C , 12-H ) :   0.9403
B(  4-O ,  5-C ) :   1.1651 B(  5-C ,  6-C ) :   1.6500 B(  5-C , 13-H ) :   0.9685
B(  6-C , 14-H ) :   0.9625

FINAL SINGLE POINT ENERGY      -308.020632460824

DIPOLE MOMENT
-------------
                                X             Y             Z
Electronic contribution:      3.24158      -1.69314      -0.61812
Nuclear contribution   :     -3.22034       1.96556       0.67963
                        -----------------------------------------
Total Dipole Moment    :      0.02125       0.27243       0.06151
                        -----------------------------------------
Magnitude (a.u.)       :      0.28009
Magnitude (Debye)      :      0.71193

                             ****ORCA TERMINATED NORMALLY****
TOTAL RUN TIME: 0 days 0 hours 0 minutes 7 seconds 169 msec
