                         Program Version 3.0.3 - RELEASE   -
|  1> ! RI PBE def2-SVP def2-SVP/J NBO PAL2
|  2> % maxcore 2000
|  3> % output
|  4>     # printlevel mini
|  5>     print[ P_Basis ] 0
|  6>     print[ P_SCFInfo ] 1
|  7>     print[ P_SCFIterInfo ] 1
|  8>     print[ P_OrbEn ] 0
|  9>     print[ P_Cartesian ] 0
| 10> end
| 11> *xyz 0 1
| 12>  C        0.9533570000     0.0709910000    -0.1418000000
| 13>  C        2.4437560000     0.0853330000    -0.0572870000
| 14>  C        3.1654640000     1.2012060000    -0.1114990000
| 15>  C        4.6534330000     1.2134590000     0.0283880000
| 16>  O        5.1843290000    -0.0118180000     0.4682030000
| 17>  C        4.6169260000    -1.1055200000    -0.2138520000
| 18>  C        3.1381360000    -1.2367520000     0.0964060000
| 19>  H        0.5444430000     1.0787360000    -0.2311550000
| 20>  H        0.5178080000    -0.3970390000     0.7479210000
| 21>  H        0.6137920000    -0.5168780000    -1.0014260000
| 22>  H        2.6816970000     2.1641400000    -0.2548090000
| 23>  H        4.9566510000     1.9603130000     0.7687970000
| 24>  H        5.1191390000     1.5081680000    -0.9288990000
| 25>  H        5.1726050000    -1.9900150000     0.1034800000
| 26>  H        4.7589710000    -0.9867630000    -1.2994200000
| 27>  H        2.9946400000    -1.6180740000     1.1151500000
| 28>  H        2.6852650000    -1.9761560000    -0.5751880000
| 29> *
| 30>
| 31>                          ****END OF INPUT****
 Total Charge           Charge          ....    0
 Multiplicity           Mult            ....    1
 Number of Electrons    NEL             ....   54
 Basis Dimension        Dim             ....  148

MULLIKEN ATOMIC CHARGES
-----------------------
   0 C :    0.072343
   1 C :   -0.184359
   2 C :   -0.144519
   3 C :    0.263833
   4 O :   -0.343195
   5 C :    0.181298
   6 C :    0.059185
   7 H :    0.011498
   8 H :    0.026345
   9 H :    0.025200
  10 H :   -0.020219
  11 H :    0.020364
  12 H :    0.002242
  13 H :    0.007175
  14 H :   -0.006650
  15 H :    0.022129
  16 H :    0.007329
Sum of atomic charges:   -0.0000000

LOEWDIN ATOMIC CHARGES
----------------------
   0 C :   -0.054371
   1 C :   -0.046426
   2 C :   -0.078950
   3 C :    0.057802
   4 O :   -0.145900
   5 C :    0.064557
   6 C :   -0.053690
   7 H :    0.029777
   8 H :    0.035335
   9 H :    0.033342
  10 H :    0.022862
  11 H :    0.029370
  12 H :    0.012657
  13 H :    0.021084
  14 H :    0.005729
  15 H :    0.034771
  16 H :    0.032052

  Mayer bond orders larger than 0.1
B(  0-C ,  1-C ) :   1.1043 B(  0-C ,  7-H ) :   0.9522 B(  0-C ,  8-H ) :   0.9448
B(  0-C ,  9-H ) :   0.9435 B(  1-C ,  2-C ) :   1.9052 B(  1-C ,  6-C ) :   1.0440
B(  2-C ,  3-C ) :   1.0080 B(  2-C , 10-H ) :   0.9398 B(  3-C ,  4-O ) :   1.0411
B(  3-C , 11-H ) :   0.9264 B(  3-C , 12-H ) :   0.9111 B(  4-O ,  5-C ) :   1.0130
B(  5-C ,  6-C ) :   1.0960 B(  5-C , 13-H ) :   0.9379 B(  5-C , 14-H ) :   0.9234
B(  6-C , 15-H ) :   0.8934 B(  6-C , 16-H ) :   0.9076

FINAL SINGLE POINT ENERGY      -309.226331117916

DIPOLE MOMENT
-------------
                                X             Y             Z
Electronic contribution:      3.94521       0.82954       1.28896
Nuclear contribution   :     -4.39238      -0.89617      -1.55994
                        -----------------------------------------
Total Dipole Moment    :     -0.44717      -0.06663      -0.27098
                        -----------------------------------------
Magnitude (a.u.)       :      0.52710
Magnitude (Debye)      :      1.33977

                             ****ORCA TERMINATED NORMALLY****
TOTAL RUN TIME: 0 days 0 hours 0 minutes 7 seconds 613 msec
