                         Program Version 3.0.3 - RELEASE   -
|  1> ! RI PBE def2-SVP def2-SVP/J NBO PAL2
|  2> % maxcore 2000
|  3> % output
|  4>     # printlevel mini
|  5>     print[ P_Basis ] 0
|  6>     print[ P_SCFInfo ] 1
|  7>     print[ P_SCFIterInfo ] 1
|  8>     print[ P_OrbEn ] 0
|  9>     print[ P_Cartesian ] 0
| 10> end
| 11> *xyz 0 1
| 12>  C        0.9916990000     0.1670740000     0.1204770000
| 13>  C        2.4644140000     0.1134220000    -0.0526850000
| 14>  C        3.2520710000    -0.9502720000    -0.2102230000
| 15>  C        2.9493810000    -2.3975190000    -0.2662340000
| 16>  O        4.5811790000    -0.6589510000    -0.3447110000
| 17>  C        4.7260200000     0.7662660000    -0.2737730000
| 18>  C        3.3216400000     1.3498840000    -0.0729010000
| 19>  H        0.5418800000    -0.8270810000     0.1095310000
| 20>  H        0.5166020000     0.7549660000    -0.6736260000
| 21>  H        0.7174660000     0.6449020000     1.0683320000
| 22>  H        1.8818010000    -2.5817230000    -0.1549030000
| 23>  H        3.4821860000    -2.9297790000     0.5268420000
| 24>  H        3.2812710000    -2.8202540000    -1.2187510000
| 25>  H        5.1942700000     1.1032890000    -1.2016230000
| 26>  H        5.4008660000     0.9948880000     0.5544540000
| 27>  H        3.0358640000     2.0317220000    -0.8822640000
| 28>  H        3.2381990000     1.9195650000     0.8599580000
| 29> *
| 30>
| 31>                          ****END OF INPUT****
 Total Charge           Charge          ....    0
 Multiplicity           Mult            ....    1
 Number of Electrons    NEL             ....   54
 Basis Dimension        Dim             ....  148

MULLIKEN ATOMIC CHARGES
-----------------------
   0 C :    0.083396
   1 C :   -0.259009
   2 C :   -0.030410
   3 C :    0.099136
   4 O :   -0.305791
   5 C :    0.204088
   6 C :    0.018227
   7 H :    0.005681
   8 H :    0.020728
   9 H :    0.016953
  10 H :    0.010398
  11 H :    0.032806
  12 H :    0.030373
  13 H :    0.018469
  14 H :    0.021473
  15 H :    0.018141
  16 H :    0.015342
Sum of atomic charges:   -0.0000000

LOEWDIN ATOMIC CHARGES
----------------------
   0 C :   -0.056546
   1 C :   -0.123857
   2 C :    0.012289
   3 C :   -0.062221
   4 O :   -0.105943
   5 C :    0.083457
   6 C :   -0.042758
   7 H :    0.029212
   8 H :    0.030592
   9 H :    0.029976
  10 H :    0.034831
  11 H :    0.041262
  12 H :    0.040664
  13 H :    0.017758
  14 H :    0.018435
  15 H :    0.026784
  16 H :    0.026064

  Mayer bond orders larger than 0.1
B(  0-C ,  1-C ) :   1.1388 B(  0-C ,  7-H ) :   0.9425 B(  0-C ,  8-H ) :   0.9399
B(  0-C ,  9-H ) :   0.9386 B(  1-C ,  2-C ) :   1.7397 B(  1-C ,  4-O ) :   0.1093
B(  1-C ,  6-C ) :   1.0547 B(  2-C ,  3-C ) :   1.1404 B(  2-C ,  4-O ) :   1.0851
B(  3-C , 10-H ) :   0.9435 B(  3-C , 11-H ) :   0.9293 B(  3-C , 12-H ) :   0.9299
B(  4-O ,  5-C ) :   0.9703 B(  5-C ,  6-C ) :   1.1135 B(  5-C , 13-H ) :   0.9455
B(  5-C , 14-H ) :   0.9457 B(  6-C , 15-H ) :   0.9116 B(  6-C , 16-H ) :   0.9116

FINAL SINGLE POINT ENERGY      -309.235832021003

DIPOLE MOMENT
-------------
                                X             Y             Z
Electronic contribution:      4.11188      -0.42392      -0.49905
Nuclear contribution   :     -4.34022       0.65455       0.53971
                        -----------------------------------------
Total Dipole Moment    :     -0.22835       0.23063       0.04067
                        -----------------------------------------
Magnitude (a.u.)       :      0.32709
Magnitude (Debye)      :      0.83139

                             ****ORCA TERMINATED NORMALLY****
TOTAL RUN TIME: 0 days 0 hours 0 minutes 7 seconds 549 msec
