                         Program Version 3.0.3 - RELEASE   -
|  1> ! RI PBE def2-SVP def2-SVP/J NBO PAL2
|  2> % maxcore 2000
|  3> % output
|  4>     # printlevel mini
|  5>     print[ P_Basis ] 0
|  6>     print[ P_SCFInfo ] 1
|  7>     print[ P_SCFIterInfo ] 1
|  8>     print[ P_OrbEn ] 0
|  9>     print[ P_Cartesian ] 0
| 10> end
| 11> *xyz 0 1
| 12>  C        1.0549330000     0.0482550000     0.1929300000
| 13>  C        2.5314070000     0.0106000000     0.0604040000
| 14>  C        3.3074820000    -1.0774320000    -0.0287090000
| 15>  C        4.7215410000    -0.7042730000    -0.1482460000
| 16>  O        5.6693830000    -1.4451020000    -0.2457280000
| 17>  C        4.7851660000     0.8189760000    -0.1265750000
| 18>  C        3.3367070000     1.2796690000     0.0118100000
| 19>  H        0.6202130000    -0.9509370000     0.2135370000
| 20>  H        0.6094270000     0.6064340000    -0.6370280000
| 21>  H        0.7652600000     0.5746280000     1.1082950000
| 22>  H        2.9727680000    -2.1068920000    -0.0174600000
| 23>  H        5.2636110000     1.1683180000    -1.0437890000
| 24>  H        5.4208760000     1.1372790000     0.7021290000
| 25>  H        3.0076440000     1.9055140000    -0.8246850000
| 26>  H        3.1637710000     1.8728540000     0.9162140000
| 27> *
| 28>
| 29>                          ****END OF INPUT****
 Total Charge           Charge          ....    0
 Multiplicity           Mult            ....    1
 Number of Electrons    NEL             ....   52
 Basis Dimension        Dim             ....  138

MULLIKEN ATOMIC CHARGES
-----------------------
   0 C :    0.087605
   1 C :   -0.212574
   2 C :   -0.004453
   3 C :   -0.020528
   4 O :   -0.160900
   5 C :    0.023287
   6 C :    0.061391
   7 H :    0.024953
   8 H :    0.040108
   9 H :    0.037953
  10 H :   -0.020979
  11 H :    0.040470
  12 H :    0.043133
  13 H :    0.030989
  14 H :    0.029545
Sum of atomic charges:   -0.0000000

LOEWDIN ATOMIC CHARGES
----------------------
   0 C :   -0.056288
   1 C :    0.008489
   2 C :   -0.074142
   3 C :    0.033540
   4 O :   -0.137775
   5 C :   -0.062667
   6 C :   -0.035402
   7 H :    0.037028
   8 H :    0.045196
   9 H :    0.044863
  10 H :    0.028316
  11 H :    0.045739
  12 H :    0.046300
  13 H :    0.038565
  14 H :    0.038239

  Mayer bond orders larger than 0.1
B(  0-C ,  1-C ) :   1.1059 B(  0-C ,  7-H ) :   0.9503 B(  0-C ,  8-H ) :   0.9377
B(  0-C ,  9-H ) :   0.9373 B(  1-C ,  2-C ) :   1.6647 B(  1-C ,  6-C ) :   1.0770
B(  2-C ,  3-C ) :   1.0041 B(  2-C , 10-H ) :   1.0115 B(  3-C ,  4-O ) :   2.1556
B(  3-C ,  5-C ) :   1.0032 B(  5-C ,  6-C ) :   1.0870 B(  5-C , 11-H ) :   0.9079
B(  5-C , 12-H ) :   0.9074 B(  6-C , 13-H ) :   0.9039 B(  6-C , 14-H ) :   0.9043

FINAL SINGLE POINT ENERGY      -308.056428554364

DIPOLE MOMENT
-------------
                                X             Y             Z
Electronic contribution:      5.53941      -4.10298      -0.56921
Nuclear contribution   :     -6.80414       5.04955       0.69851
                        -----------------------------------------
Total Dipole Moment    :     -1.26473       0.94657       0.12930
                        -----------------------------------------
Magnitude (a.u.)       :      1.58501
Magnitude (Debye)      :      4.02878

                             ****ORCA TERMINATED NORMALLY****
TOTAL RUN TIME: 0 days 0 hours 0 minutes 7 seconds 303 msec
