                         Program Version 3.0.3 - RELEASE   -
|  1> ! RI PBE def2-SVP def2-SVP/J NBO PAL2
|  2> % maxcore 2000
|  3> % output
|  4>     # printlevel mini
|  5>     print[ P_Basis ] 0
|  6>     print[ P_SCFInfo ] 1
|  7>     print[ P_SCFIterInfo ] 1
|  8>     print[ P_OrbEn ] 0
|  9>     print[ P_Cartesian ] 0
| 10> end
| 11> *xyz 0 1
| 12>  C        1.0459520000    -0.0520020000     0.0291560000
| 13>  C        2.5230560000    -0.1503440000     0.0301670000
| 14>  C        3.2965720000    -1.2405980000     0.0307560000
| 15>  C        4.7197630000    -0.7957930000     0.0317610000
| 16>  O        5.7054460000    -1.4873240000     0.0324100000
| 17>  C        4.6818270000     0.7097890000     0.0315040000
| 18>  C        3.4011410000     1.0681390000     0.0306660000
| 19>  H        0.5733770000    -1.0339250000     0.0289160000
| 20>  H        0.6984410000     0.5038560000    -0.8482980000
| 21>  H        0.6972460000     0.5040020000     0.9060440000
| 22>  H        2.9931050000    -2.2771850000     0.0306060000
| 23>  H        5.5647180000     1.3314880000     0.0319930000
| 24>  H        3.0057540000     2.0766970000     0.0303100000
| 25> *
| 26>
| 27>                          ****END OF INPUT****
 Total Charge           Charge          ....    0
 Multiplicity           Mult            ....    1
 Number of Electrons    NEL             ....   50
 Basis Dimension        Dim             ....  128

MULLIKEN ATOMIC CHARGES
-----------------------
   0 C :    0.081744
   1 C :   -0.088331
   2 C :   -0.064011
   3 C :    0.091091
   4 O :   -0.117143
   5 C :   -0.021514
   6 C :    0.035242
   7 H :    0.027699
   8 H :    0.042260
   9 H :    0.042272
  10 H :   -0.016845
  11 H :   -0.003496
  12 H :   -0.008968
Sum of atomic charges:    0.0000000

LOEWDIN ATOMIC CHARGES
----------------------
   0 C :   -0.056492
   1 C :   -0.003243
   2 C :   -0.082987
   3 C :    0.055802
   4 O :   -0.081888
   5 C :   -0.052723
   6 C :    0.004228
   7 H :    0.038740
   8 H :    0.046474
   9 H :    0.046476
  10 H :    0.028375
  11 H :    0.031248
  12 H :    0.025989

  Mayer bond orders larger than 0.1
B(  0-C ,  1-C ) :   1.1081 B(  0-C ,  7-H ) :   0.9522 B(  0-C ,  8-H ) :   0.9343
B(  0-C ,  9-H ) :   0.9343 B(  1-C ,  2-C ) :   1.6798 B(  1-C ,  6-C ) :   1.0071
B(  2-C ,  3-C ) :   0.9522 B(  2-C , 10-H ) :   1.0183 B(  3-C ,  4-O ) :   2.1448
B(  3-C ,  5-C ) :   0.9587 B(  5-C ,  6-C ) :   1.7134 B(  5-C , 11-H ) :   1.0032
B(  6-C , 12-H ) :   0.9975

FINAL SINGLE POINT ENERGY      -306.822637661928

DIPOLE MOMENT
-------------
                                X             Y             Z
Electronic contribution:      6.52629      -1.99222       0.00473
Nuclear contribution   :     -7.67849       2.70675      -0.00554
                        -----------------------------------------
Total Dipole Moment    :     -1.15220       0.71452      -0.00082
                        -----------------------------------------
Magnitude (a.u.)       :      1.35577
Magnitude (Debye)      :      3.44610

                             ****ORCA TERMINATED NORMALLY****
TOTAL RUN TIME: 0 days 0 hours 0 minutes 6 seconds 369 msec
