                         Program Version 3.0.3 - RELEASE   -
|  1> ! RI PBE def2-SVP def2-SVP/J NBO PAL2
|  2> % maxcore 2000
|  3> % output
|  4>     # printlevel mini
|  5>     print[ P_Basis ] 0
|  6>     print[ P_SCFInfo ] 1
|  7>     print[ P_SCFIterInfo ] 1
|  8>     print[ P_OrbEn ] 0
|  9>     print[ P_Cartesian ] 0
| 10> end
| 11> *xyz 0 1
| 12>  C        1.0667500000    -0.0379750000     0.0916480000
| 13>  C        2.5516340000    -0.0560180000     0.0170030000
| 14>  C        3.3433060000    -1.1271220000    -0.0429180000
| 15>  C        4.7986380000    -0.7695300000    -0.0124490000
| 16>  O        5.4056180000    -1.1451200000     1.2194940000
| 17>  C        4.7866960000     0.7486320000    -0.2672080000
| 18>  C        3.3547590000     1.2165770000     0.0224890000
| 19>  H        0.6494440000    -1.0456990000     0.1029740000
| 20>  H        0.6402790000     0.5019080000    -0.7601590000
| 21>  H        0.7279540000     0.4858300000     0.9918550000
| 22>  H        3.0001010000    -2.1560610000    -0.0336380000
| 23>  H        5.3866500000    -1.2960090000    -0.7685550000
| 24>  H        4.7981710000    -0.9015170000     1.9244550000
| 25>  H        5.0322790000     0.9416320000    -1.3141680000
| 26>  H        5.5448540000     1.2439360000     0.3412380000
| 27>  H        2.9902890000     1.9267980000    -0.7266610000
| 28>  H        3.2550770000     1.7252180000     0.9896910000
| 29> *
| 30>
| 31>                          ****END OF INPUT****
 Total Charge           Charge          ....    0
 Multiplicity           Mult            ....    1
 Number of Electrons    NEL             ....   54
 Basis Dimension        Dim             ....  148

MULLIKEN ATOMIC CHARGES
-----------------------
   0 C :    0.088844
   1 C :   -0.196036
   2 C :   -0.087320
   3 C :    0.122612
   4 O :   -0.269964
   5 C :    0.041478
   6 C :    0.050864
   7 H :    0.016736
   8 H :    0.030654
   9 H :    0.026341
  10 H :   -0.023841
  11 H :   -0.000248
  12 H :    0.144075
  13 H :    0.009823
  14 H :    0.007582
  15 H :    0.019722
  16 H :    0.018679
Sum of atomic charges:   -0.0000000

LOEWDIN ATOMIC CHARGES
----------------------
   0 C :   -0.058418
   1 C :   -0.033592
   2 C :   -0.075253
   3 C :    0.047071
   4 O :   -0.117799
   5 C :   -0.047886
   6 C :   -0.038859
   7 H :    0.033095
   8 H :    0.038701
   9 H :    0.037709
  10 H :    0.018880
  11 H :    0.019956
  12 H :    0.060921
  13 H :    0.029711
  14 H :    0.025855
  15 H :    0.030325
  16 H :    0.029582

  Mayer bond orders larger than 0.1
B(  0-C ,  1-C ) :   1.1032 B(  0-C ,  7-H ) :   0.9515 B(  0-C ,  8-H ) :   0.9408
B(  0-C ,  9-H ) :   0.9404 B(  1-C ,  2-C ) :   1.7976 B(  1-C ,  6-C ) :   1.0512
B(  2-C ,  3-C ) :   1.0109 B(  2-C , 10-H ) :   0.9960 B(  3-C ,  4-O ) :   1.0561
B(  3-C ,  5-C ) :   1.0400 B(  3-C , 11-H ) :   0.9076 B(  4-O , 12-H ) :   0.9824
B(  5-C ,  6-C ) :   1.0830 B(  5-C , 13-H ) :   0.9242 B(  5-C , 14-H ) :   0.9227
B(  6-C , 15-H ) :   0.9243 B(  6-C , 16-H ) :   0.9096

FINAL SINGLE POINT ENERGY      -309.233628694858

DIPOLE MOMENT
-------------
                                X             Y             Z
Electronic contribution:      3.40488      -2.56095       0.98963
Nuclear contribution   :     -4.13177       2.96662      -1.00105
                        -----------------------------------------
Total Dipole Moment    :     -0.72689       0.40568      -0.01142
                        -----------------------------------------
Magnitude (a.u.)       :      0.83251
Magnitude (Debye)      :      2.11608

                             ****ORCA TERMINATED NORMALLY****
TOTAL RUN TIME: 0 days 0 hours 0 minutes 7 seconds 55 msec
