                         Program Version 3.0.3 - RELEASE   -
|  1> ! RI PBE def2-SVP def2-SVP/J NBO PAL2
|  2> % maxcore 2000
|  3> % output
|  4>     # printlevel mini
|  5>     print[ P_Basis ] 0
|  6>     print[ P_SCFInfo ] 1
|  7>     print[ P_SCFIterInfo ] 1
|  8>     print[ P_OrbEn ] 0
|  9>     print[ P_Cartesian ] 0
| 10> end
| 11> *xyz 0 1
| 12>  C        0.9937940000     0.1423240000     0.0710390000
| 13>  C        2.4770320000     0.0744340000    -0.0011080000
| 14>  C        3.2576120000    -1.0112020000    -0.0861650000
| 15>  C        4.7050770000    -0.6033220000    -0.0669430000
| 16>  O        5.5321500000    -1.1752550000    -1.0574070000
| 17>  C        4.6272360000     0.9012470000    -0.0558740000
| 18>  C        3.3460510000     1.2704440000     0.0168580000
| 19>  H        0.5444650000    -0.8486770000    -0.0011140000
| 20>  H        0.5914400000     0.7629950000    -0.7360720000
| 21>  H        0.6671590000     0.5980940000     1.0111160000
| 22>  H        2.9357190000    -2.0438440000    -0.1214200000
| 23>  H        5.1417780000    -0.9238490000     0.8910220000
| 24>  H        5.1630330000    -0.9340950000    -1.9121740000
| 25>  H        5.5006300000     1.5390160000    -0.0714620000
| 26>  H        2.9717450000     2.2854810000     0.0830930000
| 27> *
| 28>
| 29>                          ****END OF INPUT****
 Total Charge           Charge          ....    0
 Multiplicity           Mult            ....    1
 Number of Electrons    NEL             ....   52
 Basis Dimension        Dim             ....  138

MULLIKEN ATOMIC CHARGES
-----------------------
   0 C :    0.085049
   1 C :   -0.081980
   2 C :   -0.122507
   3 C :    0.210017
   4 O :   -0.274424
   5 C :   -0.060166
   6 C :    0.019053
   7 H :    0.017377
   8 H :    0.030522
   9 H :    0.031517
  10 H :   -0.020823
  11 H :    0.036160
  12 H :    0.159053
  13 H :   -0.006021
  14 H :   -0.022826
Sum of atomic charges:    0.0000000

LOEWDIN ATOMIC CHARGES
----------------------
   0 C :   -0.059096
   1 C :   -0.036825
   2 C :   -0.070586
   3 C :    0.047102
   4 O :   -0.104124
   5 C :   -0.048415
   6 C :   -0.027607
   7 H :    0.034180
   8 H :    0.038418
   9 H :    0.039749
  10 H :    0.019777
  11 H :    0.049569
  12 H :    0.073681
  13 H :    0.023175
  14 H :    0.021003

  Mayer bond orders larger than 0.1
B(  0-C ,  1-C ) :   1.0977 B(  0-C ,  7-H ) :   0.9525 B(  0-C ,  8-H ) :   0.9411
B(  0-C ,  9-H ) :   0.9395 B(  1-C ,  2-C ) :   1.7282 B(  1-C ,  6-C ) :   1.0558
B(  2-C ,  3-C ) :   0.9918 B(  2-C , 10-H ) :   1.0022 B(  3-C ,  4-O ) :   1.0434
B(  3-C ,  5-C ) :   1.0153 B(  3-C , 11-H ) :   0.8625 B(  4-O , 12-H ) :   0.9846
B(  5-C ,  6-C ) :   1.7247 B(  5-C , 13-H ) :   0.9923 B(  6-C , 14-H ) :   1.0005

FINAL SINGLE POINT ENERGY      -308.012682605330

DIPOLE MOMENT
-------------
                                X             Y             Z
Electronic contribution:      4.32342      -0.78167      -0.79237
Nuclear contribution   :     -4.86961       1.10029       0.68619
                        -----------------------------------------
Total Dipole Moment    :     -0.54619       0.31862      -0.10618
                        -----------------------------------------
Magnitude (a.u.)       :      0.64118
Magnitude (Debye)      :      1.62974

                             ****ORCA TERMINATED NORMALLY****
TOTAL RUN TIME: 0 days 0 hours 0 minutes 6 seconds 801 msec
