                         Program Version 3.0.3 - RELEASE   -
|  1> ! RI PBE def2-SVP def2-SVP/J NBO PAL2
|  2> % maxcore 2000
|  3> % output
|  4>     # printlevel mini
|  5>     print[ P_Basis ] 0
|  6>     print[ P_SCFInfo ] 1
|  7>     print[ P_SCFIterInfo ] 1
|  8>     print[ P_OrbEn ] 0
|  9>     print[ P_Cartesian ] 0
| 10> end
| 11> *xyz 0 1
| 12>  C        0.8879950000    -0.1285560000    -0.0079170000
| 13>  C        2.3792600000    -0.0701960000    -0.0165510000
| 14>  C        3.0666980000     1.0720330000    -0.0300400000
| 15>  C        4.5602850000     1.1162900000    -0.0385960000
| 16>  O        5.2034700000    -0.1665780000    -0.0310120000
| 17>  C        4.4612440000    -1.2838180000    -0.0174810000
| 18>  C        3.1281150000    -1.3214820000    -0.0099620000
| 19>  H        0.4463700000     0.8687110000    -0.0139460000
| 20>  H        0.5263540000    -0.6615870000     0.8772650000
| 21>  H        0.5167700000    -0.6764510000    -0.8799590000
| 22>  H        2.5618410000     2.0331700000    -0.0354730000
| 23>  H        4.9396500000     1.6639040000     0.8347880000
| 24>  H        4.9300210000     1.6486900000    -0.9254170000
| 25>  H        5.0893900000    -2.1671350000    -0.0133260000
| 26>  H        2.6218380000    -2.2771960000     0.0009290000
| 27> *
| 28>
| 29>                          ****END OF INPUT****
 Total Charge           Charge          ....    0
 Multiplicity           Mult            ....    1
 Number of Electrons    NEL             ....   52
 Basis Dimension        Dim             ....  138

MULLIKEN ATOMIC CHARGES
-----------------------
   0 C :    0.066494
   1 C :   -0.034453
   2 C :   -0.184669
   3 C :    0.261257
   4 O :   -0.274330
   5 C :    0.143219
   6 C :   -0.068553
   7 H :    0.011897
   8 H :    0.031146
   9 H :    0.031431
  10 H :   -0.014826
  11 H :    0.023227
  12 H :    0.022871
  13 H :    0.009030
  14 H :   -0.023741
Sum of atomic charges:   -0.0000000

LOEWDIN ATOMIC CHARGES
----------------------
   0 C :   -0.051594
   1 C :   -0.035853
   2 C :   -0.081601
   3 C :    0.083443
   4 O :   -0.069445
   5 C :    0.060172
   6 C :   -0.128020
   7 H :    0.030031
   8 H :    0.037186
   9 H :    0.037234
  10 H :    0.024831
  11 H :    0.020361
  12 H :    0.020276
  13 H :    0.024216
  14 H :    0.028763

  Mayer bond orders larger than 0.1
B(  0-C ,  1-C ) :   1.0917 B(  0-C ,  7-H ) :   0.9539 B(  0-C ,  8-H ) :   0.9449
B(  0-C ,  9-H ) :   0.9449 B(  1-C ,  2-C ) :   1.8284 B(  1-C ,  6-C ) :   1.0785
B(  2-C ,  3-C ) :   1.0475 B(  2-C , 10-H ) :   0.9391 B(  3-C ,  4-O ) :   0.9479
B(  3-C , 11-H ) :   0.9315 B(  3-C , 12-H ) :   0.9314 B(  4-O ,  5-C ) :   1.1711
B(  4-O ,  6-C ) :   0.1134 B(  5-C ,  6-C ) :   1.6894 B(  5-C , 13-H ) :   0.9667
B(  6-C , 14-H ) :   0.9615

FINAL SINGLE POINT ENERGY      -308.015930012632

DIPOLE MOMENT
-------------
                                X             Y             Z
Electronic contribution:      4.93538      -1.02493      -0.01775
Nuclear contribution   :     -5.21436       1.15590       0.01831
                        -----------------------------------------
Total Dipole Moment    :     -0.27898       0.13097       0.00056
                        -----------------------------------------
Magnitude (a.u.)       :      0.30819
Magnitude (Debye)      :      0.78336

                             ****ORCA TERMINATED NORMALLY****
TOTAL RUN TIME: 0 days 0 hours 0 minutes 7 seconds 170 msec
