                         Program Version 3.0.3 - RELEASE   -
|  1> ! RI PBE def2-SVP def2-SVP/J NBO PAL2
|  2> % maxcore 2000
|  3> % output
|  4>     # printlevel mini
|  5>     print[ P_Basis ] 0
|  6>     print[ P_SCFInfo ] 1
|  7>     print[ P_SCFIterInfo ] 1
|  8>     print[ P_OrbEn ] 0
|  9>     print[ P_Cartesian ] 0
| 10> end
| 11> *xyz 0 1
| 12>  C        0.8347070000    -0.0504520000    -0.0850370000
| 13>  C        2.3606380000    -0.0010390000    -0.0171750000
| 14>  C        2.9366890000     0.1806270000    -1.4209480000
| 15>  C        2.9391200000    -1.2629080000     0.6747110000
| 16>  O        3.6406880000    -0.8442140000     1.8560610000
| 17>  C        3.5322420000     0.5052100000     1.9175750000
| 18>  C        2.8464220000     1.0672640000     0.9324560000
| 19>  H        0.4982710000    -0.8790360000    -0.7164840000
| 20>  H        0.4340540000     0.8741890000    -0.5090800000
| 21>  H        0.4042730000    -0.1796550000     0.9102810000
| 22>  H        2.6377990000    -0.6442020000    -2.0757660000
| 23>  H        4.0277060000     0.2193310000    -1.3925670000
| 24>  H        2.5771670000     1.1095150000    -1.8717320000
| 25>  H        3.6487520000    -1.7936560000     0.0343170000
| 26>  H        2.1544320000    -1.9600220000     0.9806820000
| 27>  H        4.0223950000     0.9579060000     2.7690940000
| 28>  H        2.6568540000     2.1242330000     0.8159220000
| 29> *
| 30>
| 31>                          ****END OF INPUT****
 Total Charge           Charge          ....    0
 Multiplicity           Mult            ....    1
 Number of Electrons    NEL             ....   54
 Basis Dimension        Dim             ....  148

MULLIKEN ATOMIC CHARGES
-----------------------
   0 C :    0.078159
   1 C :   -0.400039
   2 C :    0.065368
   3 C :    0.332436
   4 O :   -0.291470
   5 C :    0.124867
   6 C :   -0.030965
   7 H :    0.016757
   8 H :    0.012143
   9 H :    0.020458
  10 H :    0.018757
  11 H :    0.024219
  12 H :    0.013838
  13 H :    0.009133
  14 H :    0.007652
  15 H :    0.005538
  16 H :   -0.006853
Sum of atomic charges:   -0.0000000

LOEWDIN ATOMIC CHARGES
----------------------
   0 C :   -0.048512
   1 C :   -0.071344
   2 C :   -0.051078
   3 C :    0.097174
   4 O :   -0.091212
   5 C :    0.039044
   6 C :   -0.109269
   7 H :    0.023299
   8 H :    0.025535
   9 H :    0.025492
  10 H :    0.023679
  11 H :    0.026198
  12 H :    0.025879
  13 H :    0.019094
  14 H :    0.018702
  15 H :    0.021616
  16 H :    0.025703

  Mayer bond orders larger than 0.1
B(  0-C ,  1-C ) :   1.0348 B(  0-C ,  7-H ) :   0.9569 B(  0-C ,  8-H ) :   0.9589
B(  0-C ,  9-H ) :   0.9577 B(  1-C ,  2-C ) :   1.0355 B(  1-C ,  3-C ) :   1.0168
B(  1-C ,  6-C ) :   1.0044 B(  2-C , 10-H ) :   0.9555 B(  2-C , 11-H ) :   0.9575
B(  2-C , 12-H ) :   0.9588 B(  3-C ,  4-O ) :   0.9676 B(  3-C , 13-H ) :   0.9339
B(  3-C , 14-H ) :   0.9327 B(  4-O ,  5-C ) :   1.1168 B(  4-O ,  6-C ) :   0.1246
B(  5-C ,  6-C ) :   1.7328 B(  5-C , 15-H ) :   0.9878 B(  6-C , 16-H ) :   0.9937

FINAL SINGLE POINT ENERGY      -309.223140262987

DIPOLE MOMENT
-------------
                                X             Y             Z
Electronic contribution:      3.65727      -0.54203       5.68201
Nuclear contribution   :     -3.87907       0.63191      -6.00557
                        -----------------------------------------
Total Dipole Moment    :     -0.22180       0.08988      -0.32356
                        -----------------------------------------
Magnitude (a.u.)       :      0.40245
Magnitude (Debye)      :      1.02294

                             ****ORCA TERMINATED NORMALLY****
TOTAL RUN TIME: 0 days 0 hours 0 minutes 8 seconds 67 msec
