                         Program Version 3.0.3 - RELEASE   -
|  1> ! RI PBE def2-SVP def2-SVP/J NBO PAL2
|  2> % maxcore 2000
|  3> % output
|  4>     # printlevel mini
|  5>     print[ P_Basis ] 0
|  6>     print[ P_SCFInfo ] 1
|  7>     print[ P_SCFIterInfo ] 1
|  8>     print[ P_OrbEn ] 0
|  9>     print[ P_Cartesian ] 0
| 10> end
| 11> *xyz 0 1
| 12>  C        0.7843150000    -0.2253610000    -0.9054930000
| 13>  C        2.1699840000    -0.1254920000    -0.3187810000
| 14>  C        2.2497400000    -0.1412710000     1.1929080000
| 15>  C        1.6994110000    -1.4028700000     1.8360830000
| 16>  O        2.3930300000    -2.5699220000     1.4496210000
| 17>  C        3.3008800000    -0.7557800000    -1.0934540000
| 18>  C        3.1570900000     0.7368220000    -1.0430640000
| 19>  H        0.2962040000    -1.1700980000    -0.6488090000
| 20>  H        0.8184090000    -0.1604650000    -1.9953660000
| 21>  H        0.1466910000     0.5865940000    -0.5422720000
| 22>  H        1.6961500000     0.7187590000     1.5906690000
| 23>  H        3.2939470000    -0.0174020000     1.4987930000
| 24>  H        0.6256470000    -1.5004570000     1.6200430000
| 25>  H        1.7998020000    -1.3359850000     2.9220980000
| 26>  H        2.4444920000    -2.5704770000     0.4896420000
| 27>  H        3.0646500000    -1.2546120000    -2.0265490000
| 28>  H        4.1219740000    -1.1983570000    -0.5416020000
| 29>  H        2.8245400000     1.2443060000    -1.9407540000
| 30>  H        3.8758440000     1.2935670000    -0.4533030000
| 31> *
| 32>
| 33>                          ****END OF INPUT****
 Total Charge           Charge          ....    0
 Multiplicity           Mult            ....    1
 Number of Electrons    NEL             ....   56
 Basis Dimension        Dim             ....  158

MULLIKEN ATOMIC CHARGES
-----------------------
   0 C :    0.090380
   1 C :   -0.357609
   2 C :    0.080492
   3 C :    0.160074
   4 O :   -0.285755
   5 C :   -0.031587
   6 C :    0.006233
   7 H :    0.021977
   8 H :    0.010372
   9 H :    0.023688
  10 H :    0.003537
  11 H :   -0.006988
  12 H :   -0.000315
  13 H :    0.015702
  14 H :    0.153614
  15 H :    0.027071
  16 H :    0.034455
  17 H :    0.025594
  18 H :    0.029066
Sum of atomic charges:    0.0000000

LOEWDIN ATOMIC CHARGES
----------------------
   0 C :   -0.049790
   1 C :   -0.070276
   2 C :   -0.045501
   3 C :    0.053906
   4 O :   -0.121375
   5 C :   -0.053443
   6 C :   -0.037296
   7 H :    0.025201
   8 H :    0.028678
   9 H :    0.030267
  10 H :    0.029155
  11 H :    0.025713
  12 H :    0.001842
  13 H :    0.021863
  14 H :    0.061225
  15 H :    0.023985
  16 H :    0.024387
  17 H :    0.025288
  18 H :    0.026171

  Mayer bond orders larger than 0.1
B(  0-C ,  1-C ) :   1.0784 B(  0-C ,  7-H ) :   0.9545 B(  0-C ,  8-H ) :   0.9400
B(  0-C ,  9-H ) :   0.9538 B(  1-C ,  2-C ) :   1.0636 B(  1-C ,  5-C ) :   0.9660
B(  1-C ,  6-C ) :   0.9791 B(  2-C ,  3-C ) :   1.0811 B(  2-C , 10-H ) :   0.9074
B(  2-C , 11-H ) :   0.9016 B(  3-C ,  4-O ) :   1.0754 B(  3-C , 12-H ) :   0.9286
B(  3-C , 13-H ) :   0.9364 B(  4-O , 14-H ) :   0.9842 B(  5-C ,  6-C ) :   1.0302
B(  5-C , 15-H ) :   0.9460 B(  5-C , 16-H ) :   0.9381 B(  6-C , 17-H ) :   0.9428
B(  6-C , 18-H ) :   0.9410

FINAL SINGLE POINT ENERGY      -310.412319499868

DIPOLE MOMENT
-------------
                                X             Y             Z
Electronic contribution:      1.50642      -2.27901       1.72838
Nuclear contribution   :     -1.71067       2.75248      -2.16290
                        -----------------------------------------
Total Dipole Moment    :     -0.20425       0.47346      -0.43452
                        -----------------------------------------
Magnitude (a.u.)       :      0.67431
Magnitude (Debye)      :      1.71395

                             ****ORCA TERMINATED NORMALLY****
TOTAL RUN TIME: 0 days 0 hours 0 minutes 8 seconds 488 msec
