                         Program Version 3.0.3 - RELEASE   -
|  1> ! RI PBE def2-SVP def2-SVP/J NBO PAL2
|  2> % maxcore 2000
|  3> % output
|  4>     # printlevel mini
|  5>     print[ P_Basis ] 0
|  6>     print[ P_SCFInfo ] 1
|  7>     print[ P_SCFIterInfo ] 1
|  8>     print[ P_OrbEn ] 0
|  9>     print[ P_Cartesian ] 0
| 10> end
| 11> *xyz 0 1
| 12>  C        0.8715570000    -0.0537400000    -0.3073380000
| 13>  C        2.3903240000    -0.0483810000    -0.1163360000
| 14>  C        2.8568500000     1.1653330000     0.6321480000
| 15>  C        3.5133600000     1.1012450000     1.7826860000
| 16>  O        3.8705720000    -0.0515960000     2.4140780000
| 17>  C        3.5225340000    -1.2026700000     1.7743920000
| 18>  C        2.8665220000    -1.2636990000     0.6234040000
| 19>  H        0.5463970000     0.8314390000    -0.8607980000
| 20>  H        0.3632980000    -0.0592420000     0.6594420000
| 21>  H        0.5534400000    -0.9374760000    -0.8671620000
| 22>  H        2.8366740000    -0.0429810000    -1.1224040000
| 23>  H        2.6367590000     2.1486090000     0.2315850000
| 24>  H        3.8422990000     1.9678050000     2.3411440000
| 25>  H        3.8583790000    -2.0705810000     2.3266060000
| 26>  H        2.6542560000    -2.2457860000     0.2157650000
| 27> *
| 28>
| 29>                          ****END OF INPUT****
 Total Charge           Charge          ....    0
 Multiplicity           Mult            ....    1
 Number of Electrons    NEL             ....   52
 Basis Dimension        Dim             ....  138

MULLIKEN ATOMIC CHARGES
-----------------------
   0 C :    0.014264
   1 C :    0.053828
   2 C :   -0.096815
   3 C :    0.123990
   4 O :   -0.210106
   5 C :    0.124218
   6 C :   -0.097060
   7 H :    0.017492
   8 H :    0.021384
   9 H :    0.017576
  10 H :    0.019152
  11 H :   -0.001050
  12 H :    0.007093
  13 H :    0.006965
  14 H :   -0.000929
Sum of atomic charges:   -0.0000000

LOEWDIN ATOMIC CHARGES
----------------------
   0 C :   -0.057299
   1 C :   -0.040938
   2 C :   -0.079470
   3 C :    0.034915
   4 O :   -0.029723
   5 C :    0.034960
   6 C :   -0.079494
   7 H :    0.025007
   8 H :    0.025281
   9 H :    0.025017
  10 H :    0.030854
  11 H :    0.030907
  12 H :    0.024538
  13 H :    0.024520
  14 H :    0.030926

  Mayer bond orders larger than 0.1
B(  0-C ,  1-C ) :   1.0646 B(  0-C ,  7-H ) :   0.9611 B(  0-C ,  8-H ) :   0.9630
B(  0-C ,  9-H ) :   0.9611 B(  1-C ,  2-C ) :   1.0128 B(  1-C ,  6-C ) :   1.0128
B(  1-C , 10-H ) :   0.8874 B(  2-C ,  3-C ) :   1.8316 B(  2-C , 11-H ) :   0.9516
B(  3-C ,  4-O ) :   1.0897 B(  3-C , 12-H ) :   0.9709 B(  4-O ,  5-C ) :   1.0897
B(  5-C ,  6-C ) :   1.8316 B(  5-C , 13-H ) :   0.9709 B(  6-C , 14-H ) :   0.9516

FINAL SINGLE POINT ENERGY      -308.017239099114

DIPOLE MOMENT
-------------
                                X             Y             Z
Electronic contribution:      4.85722       0.00359       4.35963
Nuclear contribution   :     -4.98211      -0.00329      -4.59694
                        -----------------------------------------
Total Dipole Moment    :     -0.12489       0.00030      -0.23731
                        -----------------------------------------
Magnitude (a.u.)       :      0.26817
Magnitude (Debye)      :      0.68162

                             ****ORCA TERMINATED NORMALLY****
TOTAL RUN TIME: 0 days 0 hours 0 minutes 7 seconds 99 msec
