                         Program Version 3.0.3 - RELEASE   -
|  1> ! RI PBE def2-SVP def2-SVP/J NBO PAL2
|  2> % maxcore 2000
|  3> % output
|  4>     # printlevel mini
|  5>     print[ P_Basis ] 0
|  6>     print[ P_SCFInfo ] 1
|  7>     print[ P_SCFIterInfo ] 1
|  8>     print[ P_OrbEn ] 0
|  9>     print[ P_Cartesian ] 0
| 10> end
| 11> *xyz 0 1
| 12>  C        0.9658760000     0.0954850000    -0.3176890000
| 13>  C        2.4560280000     0.0408220000    -0.0019970000
| 14>  C        2.9165680000    -1.2527120000     0.6774220000
| 15>  C        3.6407790000    -0.8255410000     1.9476090000
| 16>  O        4.1961170000    -1.5585190000     2.7275650000
| 17>  C        3.5271440000     0.6420020000     2.0332630000
| 18>  C        2.8805570000     1.1094900000     0.9652410000
| 19>  H        0.6918610000    -0.6852950000    -1.0305670000
| 20>  H        0.6879310000     1.0590670000    -0.7522490000
| 21>  H        0.3719160000    -0.0493210000     0.5886960000
| 22>  H        3.0048710000     0.1920750000    -0.9404970000
| 23>  H        3.5830530000    -1.8612130000     0.0631650000
| 24>  H        2.0736670000    -1.8901870000     0.9588700000
| 25>  H        3.9308350000     1.2142920000     2.8579710000
| 26>  H        2.6615870000     2.1562630000     0.7783870000
| 27> *
| 28>
| 29>                          ****END OF INPUT****
 Total Charge           Charge          ....    0
 Multiplicity           Mult            ....    1
 Number of Electrons    NEL             ....   52
 Basis Dimension        Dim             ....  138

MULLIKEN ATOMIC CHARGES
-----------------------
   0 C :    0.014279
   1 C :   -0.115818
   2 C :    0.082418
   3 C :   -0.024282
   4 O :   -0.153847
   5 C :   -0.001934
   6 C :    0.000676
   7 H :    0.033141
   8 H :    0.022489
   9 H :    0.027774
  10 H :    0.032752
  11 H :    0.040435
  12 H :    0.039048
  13 H :   -0.003797
  14 H :    0.006665
Sum of atomic charges:    0.0000000

LOEWDIN ATOMIC CHARGES
----------------------
   0 C :   -0.054265
   1 C :   -0.044364
   2 C :   -0.058490
   3 C :    0.037845
   4 O :   -0.128678
   5 C :   -0.060076
   6 C :    0.027171
   7 H :    0.030897
   8 H :    0.027488
   9 H :    0.028352
  10 H :    0.040918
  11 H :    0.046399
  12 H :    0.047917
  13 H :    0.032105
  14 H :    0.026781

  Mayer bond orders larger than 0.1
B(  0-C ,  1-C ) :   1.0680 B(  0-C ,  7-H ) :   0.9607 B(  0-C ,  8-H ) :   0.9612
B(  0-C ,  9-H ) :   0.9613 B(  1-C ,  2-C ) :   1.0405 B(  1-C ,  6-C ) :   1.0407
B(  1-C , 10-H ) :   0.8826 B(  2-C ,  3-C ) :   0.9816 B(  2-C , 11-H ) :   0.9032
B(  2-C , 12-H ) :   0.9047 B(  3-C ,  4-O ) :   2.1602 B(  3-C ,  5-C ) :   1.0153
B(  5-C ,  6-C ) :   1.7021 B(  5-C , 13-H ) :   0.9975 B(  6-C , 14-H ) :   0.9794

FINAL SINGLE POINT ENERGY      -308.047653142880

DIPOLE MOMENT
-------------
                                X             Y             Z
Electronic contribution:      5.32278      -1.48486       5.25458
Nuclear contribution   :     -5.97405       2.22315      -6.18839
                        -----------------------------------------
Total Dipole Moment    :     -0.65127       0.73829      -0.93381
                        -----------------------------------------
Magnitude (a.u.)       :      1.35691
Magnitude (Debye)      :      3.44900

                             ****ORCA TERMINATED NORMALLY****
TOTAL RUN TIME: 0 days 0 hours 0 minutes 7 seconds 116 msec
