                         Program Version 3.0.3 - RELEASE   -
|  1> ! RI PBE def2-SVP def2-SVP/J NBO PAL2
|  2> % maxcore 2000
|  3> % output
|  4>     # printlevel mini
|  5>     print[ P_Basis ] 0
|  6>     print[ P_SCFInfo ] 1
|  7>     print[ P_SCFIterInfo ] 1
|  8>     print[ P_OrbEn ] 0
|  9>     print[ P_Cartesian ] 0
| 10> end
| 11> *xyz 0 1
| 12>  C        1.0036370000     0.0309300000    -0.0146890000
| 13>  C        2.5254710000    -0.0207440000     0.1041910000
| 14>  C        3.0420720000    -1.3066770000     0.7774080000
| 15>  C        3.4441260000    -0.9272470000     2.2153360000
| 16>  O        4.6338360000    -1.5485170000     2.6654650000
| 17>  C        3.5193750000     0.5719710000     2.1602560000
| 18>  C        3.0497320000     1.0542890000     1.0161550000
| 19>  H        0.6382060000    -0.7549180000    -0.6805780000
| 20>  H        0.6692950000     0.9914450000    -0.4152860000
| 21>  H        0.5329090000    -0.1041730000     0.9629610000
| 22>  H        2.9428930000     0.0912700000    -0.9034030000
| 23>  H        3.9402980000    -1.6651570000     0.2662740000
| 24>  H        2.3132900000    -2.1189700000     0.7464150000
| 25>  H        2.6905580000    -1.2478500000     2.9430330000
| 26>  H        5.3548080000    -1.2310040000     2.1130010000
| 27>  H        3.8994140000     1.1565760000     2.9904830000
| 28>  H        2.9849720000     2.1078760000     0.7638770000
| 29> *
| 30>
| 31>                          ****END OF INPUT****
 Total Charge           Charge          ....    0
 Multiplicity           Mult            ....    1
 Number of Electrons    NEL             ....   54
 Basis Dimension        Dim             ....  148

MULLIKEN ATOMIC CHARGES
-----------------------
   0 C :    0.038145
   1 C :   -0.111362
   2 C :    0.074006
   3 C :    0.136285
   4 O :   -0.273487
   5 C :   -0.066551
   6 C :   -0.012035
   7 H :    0.023554
   8 H :    0.015529
   9 H :    0.017640
  10 H :    0.009321
  11 H :   -0.005031
  12 H :    0.007978
  13 H :    0.012393
  14 H :    0.145803
  15 H :   -0.005725
  16 H :   -0.006463
Sum of atomic charges:   -0.0000000

LOEWDIN ATOMIC CHARGES
----------------------
   0 C :   -0.054302
   1 C :   -0.044301
   2 C :   -0.042295
   3 C :    0.044220
   4 O :   -0.111654
   5 C :   -0.058173
   6 C :   -0.020307
   7 H :    0.026403
   8 H :    0.025484
   9 H :    0.025450
  10 H :    0.026138
  11 H :    0.026760
  12 H :    0.025850
  13 H :    0.025287
  14 H :    0.061386
  15 H :    0.022880
  16 H :    0.021174

  Mayer bond orders larger than 0.1
B(  0-C ,  1-C ) :   1.0632 B(  0-C ,  7-H ) :   0.9594 B(  0-C ,  8-H ) :   0.9608
B(  0-C ,  9-H ) :   0.9620 B(  1-C ,  2-C ) :   1.0502 B(  1-C ,  6-C ) :   1.0091
B(  1-C , 10-H ) :   0.9063 B(  2-C ,  3-C ) :   1.0548 B(  2-C , 11-H ) :   0.9126
B(  2-C , 12-H ) :   0.9270 B(  3-C ,  4-O ) :   1.0504 B(  3-C ,  5-C ) :   1.0169
B(  3-C , 13-H ) :   0.8891 B(  4-O , 14-H ) :   0.9817 B(  5-C ,  6-C ) :   1.8229
B(  5-C , 15-H ) :   0.9875 B(  6-C , 16-H ) :   0.9831

FINAL SINGLE POINT ENERGY      -309.226157176690

DIPOLE MOMENT
-------------
                                X             Y             Z
Electronic contribution:      4.16627      -0.33552       3.31788
Nuclear contribution   :     -4.24539       0.70059      -3.84505
                        -----------------------------------------
Total Dipole Moment    :     -0.07912       0.36507      -0.52717
                        -----------------------------------------
Magnitude (a.u.)       :      0.64610
Magnitude (Debye)      :      1.64226

                             ****ORCA TERMINATED NORMALLY****
TOTAL RUN TIME: 0 days 0 hours 0 minutes 7 seconds 397 msec
