                         Program Version 3.0.3 - RELEASE   -
|  1> ! RI PBE def2-SVP def2-SVP/J NBO PAL2
|  2> % maxcore 2000
|  3> % output
|  4>     # printlevel mini
|  5>     print[ P_Basis ] 0
|  6>     print[ P_SCFInfo ] 1
|  7>     print[ P_SCFIterInfo ] 1
|  8>     print[ P_OrbEn ] 0
|  9>     print[ P_Cartesian ] 0
| 10> end
| 11> *xyz 0 1
| 12>  C        0.9681090000     0.0670210000    -0.1746350000
| 13>  C        2.4704200000    -0.0216500000     0.0804410000
| 14>  C        3.2219360000     1.2289140000    -0.3811600000
| 15>  C        3.5333200000     1.1441730000    -1.8608150000
| 16>  O        4.3570520000     0.0283370000    -2.1667660000
| 17>  C        3.9754880000    -1.1198370000    -1.5658280000
| 18>  C        3.0968420000    -1.2183660000    -0.5700890000
| 19>  H        0.5229500000     0.8855370000     0.3985880000
| 20>  H        0.4658170000    -0.8596880000     0.1134230000
| 21>  H        0.7570610000     0.2356300000    -1.2338620000
| 22>  H        2.6112940000    -0.1189700000     1.1642880000
| 23>  H        4.1638290000     1.3215880000     0.1677590000
| 24>  H        2.6378810000     2.1327940000    -0.1837990000
| 25>  H        4.0778360000     2.0215790000    -2.2116640000
| 26>  H        2.6069440000     1.0569160000    -2.4435270000
| 27>  H        4.4835280000    -1.9771730000    -1.9928530000
| 28>  H        2.8624840000    -2.2084930000    -0.1964110000
| 29> *
| 30>
| 31>                          ****END OF INPUT****
 Total Charge           Charge          ....    0
 Multiplicity           Mult            ....    1
 Number of Electrons    NEL             ....   54
 Basis Dimension        Dim             ....  148

MULLIKEN ATOMIC CHARGES
-----------------------
   0 C :    0.047392
   1 C :   -0.076361
   2 C :   -0.011683
   3 C :    0.186813
   4 O :   -0.269876
   5 C :    0.118422
   6 C :   -0.100684
   7 H :    0.012609
   8 H :    0.016482
   9 H :    0.008624
  10 H :    0.017939
  11 H :    0.023273
  12 H :    0.006191
  13 H :    0.016279
  14 H :    0.014771
  15 H :   -0.001870
  16 H :   -0.008321
Sum of atomic charges:   -0.0000000

LOEWDIN ATOMIC CHARGES
----------------------
   0 C :   -0.055585
   1 C :   -0.045398
   2 C :   -0.048476
   3 C :    0.072157
   4 O :   -0.078705
   5 C :    0.022597
   6 C :   -0.117727
   7 H :    0.022415
   8 H :    0.027197
   9 H :    0.020369
  10 H :    0.034991
  11 H :    0.031425
  12 H :    0.028953
  13 H :    0.023881
  14 H :    0.014881
  15 H :    0.020643
  16 H :    0.026379

  Mayer bond orders larger than 0.1
B(  0-C ,  1-C ) :   1.0739 B(  0-C ,  7-H ) :   0.9542 B(  0-C ,  8-H ) :   0.9585
B(  0-C ,  9-H ) :   0.9581 B(  1-C ,  2-C ) :   1.0741 B(  1-C ,  6-C ) :   1.0168
B(  1-C , 10-H ) :   0.8978 B(  2-C ,  3-C ) :   1.0851 B(  2-C , 11-H ) :   0.9180
B(  2-C , 12-H ) :   0.9232 B(  3-C ,  4-O ) :   0.9780 B(  3-C , 13-H ) :   0.9418
B(  3-C , 14-H ) :   0.9368 B(  4-O ,  5-C ) :   1.1417 B(  4-O ,  6-C ) :   0.1086
B(  5-C ,  6-C ) :   1.7883 B(  5-C , 15-H ) :   0.9699 B(  6-C , 16-H ) :   0.9543

FINAL SINGLE POINT ENERGY      -309.231162998079

DIPOLE MOMENT
-------------
                                X             Y             Z
Electronic contribution:      4.97590      -1.70079      -2.79931
Nuclear contribution   :     -5.26343       1.96024       3.02774
                        -----------------------------------------
Total Dipole Moment    :     -0.28753       0.25945       0.22843
                        -----------------------------------------
Magnitude (a.u.)       :      0.44963
Magnitude (Debye)      :      1.14288

                             ****ORCA TERMINATED NORMALLY****
TOTAL RUN TIME: 0 days 0 hours 0 minutes 8 seconds 2 msec
