                         Program Version 3.0.3 - RELEASE   -
|  1> ! RI PBE def2-SVP def2-SVP/J NBO PAL2
|  2> % maxcore 2000
|  3> % output
|  4>     # printlevel mini
|  5>     print[ P_Basis ] 0
|  6>     print[ P_SCFInfo ] 1
|  7>     print[ P_SCFIterInfo ] 1
|  8>     print[ P_OrbEn ] 0
|  9>     print[ P_Cartesian ] 0
| 10> end
| 11> *xyz 0 1
| 12>  C        1.0350580000    -0.0613260000     0.0879060000
| 13>  C        2.5062160000     0.0791590000     0.0935060000
| 14>  C        3.3319290000     1.1579700000     0.0956870000
| 15>  C        4.6615140000     0.6374270000     0.1013690000
| 16>  O        5.8270230000     1.3264400000     0.1052460000
| 17>  C        4.5506220000    -0.7125020000     0.1022370000
| 18>  O        3.2309200000    -1.0561120000     0.0974240000
| 19>  H        0.5671840000     0.9228860000     0.0851400000
| 20>  H        0.6861520000    -0.6064260000     0.9694190000
| 21>  H        0.6930310000    -0.6081150000    -0.7952560000
| 22>  H        3.0302630000     2.1947410000     0.0935130000
| 23>  H        5.6335920000     2.2661110000     0.1036050000
| 24>  H        5.2677850000    -1.5139720000     0.1058040000
| 25> *
| 26>
| 27>                          ****END OF INPUT****
 Total Charge           Charge          ....    0
 Multiplicity           Mult            ....    1
 Number of Electrons    NEL             ....   52
 Basis Dimension        Dim             ....  128

MULLIKEN ATOMIC CHARGES
-----------------------
   0 C :    0.096349
   1 C :   -0.013335
   2 C :   -0.117115
   3 C :    0.133409
   4 O :   -0.168657
   5 C :    0.021695
   6 O :   -0.176525
   7 H :    0.018595
   8 H :    0.040609
   9 H :    0.040571
  10 H :   -0.036996
  11 H :    0.170510
  12 H :   -0.009109
Sum of atomic charges:   -0.0000000

LOEWDIN ATOMIC CHARGES
----------------------
   0 C :   -0.063875
   1 C :    0.006568
   2 C :   -0.132464
   3 C :   -0.020518
   4 O :   -0.035104
   5 C :   -0.038457
   6 O :    0.025960
   7 H :    0.041446
   8 H :    0.042425
   9 H :    0.042420
  10 H :    0.024315
  11 H :    0.088293
  12 H :    0.018992

  Mayer bond orders larger than 0.1
B(  0-C ,  1-C ) :   1.1157 B(  0-C ,  7-H ) :   0.9460 B(  0-C ,  8-H ) :   0.9355
B(  0-C ,  9-H ) :   0.9354 B(  1-C ,  2-C ) :   1.5026 B(  1-C ,  5-C ) :   0.1043
B(  1-C ,  6-O ) :   1.1815 B(  2-C ,  3-C ) :   1.1636 B(  2-C , 10-H ) :   1.0086
B(  3-C ,  4-O ) :   1.1904 B(  3-C ,  5-C ) :   1.4977 B(  4-O , 11-H ) :   0.9721
B(  5-C ,  6-O ) :   1.0969 B(  5-C , 12-H ) :   1.0109

FINAL SINGLE POINT ENERGY      -343.904271286749

DIPOLE MOMENT
-------------
                                X             Y             Z
Electronic contribution:      4.95324      -0.64392       0.01991
Nuclear contribution   :     -5.39616       1.32861      -0.02230
                        -----------------------------------------
Total Dipole Moment    :     -0.44292       0.68469      -0.00239
                        -----------------------------------------
Magnitude (a.u.)       :      0.81547
Magnitude (Debye)      :      2.07275

                             ****ORCA TERMINATED NORMALLY****
TOTAL RUN TIME: 0 days 0 hours 0 minutes 6 seconds 289 msec
