                         Program Version 3.0.3 - RELEASE   -
|  1> ! RI PBE def2-SVP def2-SVP/J NBO PAL2
|  2> % maxcore 2000
|  3> % output
|  4>     # printlevel mini
|  5>     print[ P_Basis ] 0
|  6>     print[ P_SCFInfo ] 1
|  7>     print[ P_SCFIterInfo ] 1
|  8>     print[ P_OrbEn ] 0
|  9>     print[ P_Cartesian ] 0
| 10> end
| 11> *xyz 0 1
| 12>  C        0.9260060000     0.1516310000     0.0779590000
| 13>  C        2.4298710000     0.0811110000    -0.1332110000
| 14>  C        2.9398150000    -1.3139500000    -0.4902780000
| 15>  C        2.6680830000    -1.6229740000    -1.9514530000
| 16>  O        3.1792620000    -0.5892380000    -2.7687200000
| 17>  C        2.5999300000     0.6312530000    -2.4220910000
| 18>  O        2.8797940000     1.0168180000    -1.1117960000
| 19>  H        0.6467210000    -0.4474020000     0.9481560000
| 20>  H        0.3585070000    -0.2231550000    -0.7760280000
| 21>  H        0.6237760000     1.1842160000     0.2618860000
| 22>  H        2.9161110000     0.4098670000     0.7890490000
| 23>  H        2.4763810000    -2.0664980000     0.1543780000
| 24>  H        4.0198690000    -1.3477300000    -0.3249570000
| 25>  H        1.5894370000    -1.7405390000    -2.1387470000
| 26>  H        3.1618340000    -2.5450410000    -2.2619310000
| 27>  H        1.5095700000     0.5772450000    -2.5862440000
| 28>  H        3.0339330000     1.3919960000    -3.0704820000
| 29> *
| 30>
| 31>                          ****END OF INPUT****
 Total Charge           Charge          ....    0
 Multiplicity           Mult            ....    1
 Number of Electrons    NEL             ....   56
 Basis Dimension        Dim             ....  148

MULLIKEN ATOMIC CHARGES
-----------------------
   0 C :    0.020716
   1 C :    0.022198
   2 C :    0.012018
   3 C :    0.167651
   4 O :   -0.335934
   5 C :    0.333444
   6 O :   -0.331275
   7 H :    0.017032
   8 H :    0.019396
   9 H :    0.030143
  10 H :    0.007224
  11 H :    0.009698
  12 H :    0.025530
  13 H :   -0.005309
  14 H :    0.017384
  15 H :   -0.031247
  16 H :    0.021329
Sum of atomic charges:    0.0000000

LOEWDIN ATOMIC CHARGES
----------------------
   0 C :   -0.075286
   1 C :    0.045976
   2 C :   -0.066463
   3 C :    0.060297
   4 O :   -0.142468
   5 C :    0.118283
   6 O :   -0.142460
   7 H :    0.031625
   8 H :    0.021139
   9 H :    0.032521
  10 H :    0.024345
  11 H :    0.030116
  12 H :    0.031850
  13 H :    0.004357
  14 H :    0.023917
  15 H :   -0.016678
  16 H :    0.018929

  Mayer bond orders larger than 0.1
B(  0-C ,  1-C ) :   1.0755 B(  0-C ,  7-H ) :   0.9494 B(  0-C ,  8-H ) :   0.9528
B(  0-C ,  9-H ) :   0.9533 B(  1-C ,  2-C ) :   1.0604 B(  1-C ,  6-O ) :   0.9920
B(  1-C , 10-H ) :   0.9224 B(  2-C ,  3-C ) :   1.0864 B(  2-C , 11-H ) :   0.9214
B(  2-C , 12-H ) :   0.9132 B(  3-C ,  4-O ) :   1.0022 B(  3-C , 13-H ) :   0.9237
B(  3-C , 14-H ) :   0.9437 B(  4-O ,  5-C ) :   1.0662 B(  5-C ,  6-O ) :   1.0659
B(  5-C , 15-H ) :   0.9183 B(  5-C , 16-H ) :   0.9521

FINAL SINGLE POINT ENERGY      -346.295790063183

DIPOLE MOMENT
-------------
                                X             Y             Z
Electronic contribution:      3.94389       1.96983      -3.10601
Nuclear contribution   :     -4.45172      -2.39310       3.49615
                        -----------------------------------------
Total Dipole Moment    :     -0.50783      -0.42327       0.39014
                        -----------------------------------------
Magnitude (a.u.)       :      0.76763
Magnitude (Debye)      :      1.95116

                             ****ORCA TERMINATED NORMALLY****
TOTAL RUN TIME: 0 days 0 hours 0 minutes 7 seconds 238 msec
