                         Program Version 3.0.3 - RELEASE   -
|  1> ! RI PBE def2-SVP def2-SVP/J NBO PAL2
|  2> % maxcore 2000
|  3> % output
|  4>     # printlevel mini
|  5>     print[ P_Basis ] 0
|  6>     print[ P_SCFInfo ] 1
|  7>     print[ P_SCFIterInfo ] 1
|  8>     print[ P_OrbEn ] 0
|  9>     print[ P_Cartesian ] 0
| 10> end
| 11> *xyz 0 1
| 12>  C        1.0084230000     0.0442830000     0.0069470000
| 13>  C        2.3228610000    -0.0362060000    -0.1543300000
| 14>  C        3.1314640000    -1.2972080000    -0.1469390000
| 15>  C        4.1766810000    -1.2500550000    -1.2498570000
| 16>  O        4.9028490000    -0.0392450000    -1.1615050000
| 17>  C        4.0496150000     1.0439900000    -1.2907310000
| 18>  O        3.0684140000     1.1052010000    -0.2768170000
| 19>  H        0.4226560000    -0.8498780000     0.1719260000
| 20>  H        0.5082460000     1.0040870000     0.0082080000
| 21>  H        2.4821330000    -2.1673480000    -0.2564590000
| 22>  H        3.6502170000    -1.3737560000     0.8150320000
| 23>  H        3.6971860000    -1.3217170000    -2.2376330000
| 24>  H        4.8994650000    -2.0610930000    -1.1562460000
| 25>  H        3.5401030000     1.0117170000    -2.2684830000
| 26>  H        4.6446870000     1.9507280000    -1.1968130000
| 27> *
| 28>
| 29>                          ****END OF INPUT****
 Total Charge           Charge          ....    0
 Multiplicity           Mult            ....    1
 Number of Electrons    NEL             ....   54
 Basis Dimension        Dim             ....  138

MULLIKEN ATOMIC CHARGES
-----------------------
   0 C :   -0.055589
   1 C :   -0.032684
   2 C :    0.089871
   3 C :    0.150774
   4 O :   -0.330443
   5 C :    0.355332
   6 O :   -0.283285
   7 H :    0.009061
   8 H :    0.020729
   9 H :    0.011051
  10 H :    0.038119
  11 H :   -0.001916
  12 H :    0.023391
  13 H :   -0.021611
  14 H :    0.027200
Sum of atomic charges:    0.0000000

LOEWDIN ATOMIC CHARGES
----------------------
   0 C :   -0.110401
   1 C :    0.019358
   2 C :   -0.059556
   3 C :    0.065224
   4 O :   -0.132762
   5 C :    0.134339
   6 O :   -0.095848
   7 H :    0.026791
   8 H :    0.028938
   9 H :    0.037571
  10 H :    0.042144
  11 H :    0.007550
  12 H :    0.025370
  13 H :   -0.009985
  14 H :    0.021269

  Mayer bond orders larger than 0.1
B(  0-C ,  1-C ) :   1.9654 B(  0-C ,  7-H ) :   0.9270 B(  0-C ,  8-H ) :   0.9280
B(  1-C ,  2-C ) :   1.0285 B(  1-C ,  6-O ) :   1.0850 B(  2-C ,  3-C ) :   1.0707
B(  2-C ,  9-H ) :   0.9138 B(  2-C , 10-H ) :   0.8948 B(  3-C ,  4-O ) :   0.9967
B(  3-C , 11-H ) :   0.9227 B(  3-C , 12-H ) :   0.9437 B(  4-O ,  5-C ) :   1.0836
B(  5-C ,  6-O ) :   0.9995 B(  5-C , 13-H ) :   0.9177 B(  5-C , 14-H ) :   0.9554

FINAL SINGLE POINT ENERGY      -345.081397674085

DIPOLE MOMENT
-------------
                                X             Y             Z
Electronic contribution:      2.13493       2.70907       0.70013
Nuclear contribution   :     -2.19730      -3.19920      -1.00445
                        -----------------------------------------
Total Dipole Moment    :     -0.06237      -0.49014      -0.30432
                        -----------------------------------------
Magnitude (a.u.)       :      0.58029
Magnitude (Debye)      :      1.47498

                             ****ORCA TERMINATED NORMALLY****
TOTAL RUN TIME: 0 days 0 hours 0 minutes 6 seconds 912 msec
