                         Program Version 3.0.3 - RELEASE   -
|  1> ! RI PBE def2-SVP def2-SVP/J NBO PAL2
|  2> % maxcore 2000
|  3> % output
|  4>     # printlevel mini
|  5>     print[ P_Basis ] 0
|  6>     print[ P_SCFInfo ] 1
|  7>     print[ P_SCFIterInfo ] 1
|  8>     print[ P_OrbEn ] 0
|  9>     print[ P_Cartesian ] 0
| 10> end
| 11> *xyz 0 1
| 12>  C        1.0046090000    -0.0705590000     0.2238290000
| 13>  C        2.2829760000     0.0654070000    -0.0976770000
| 14>  C        3.1022770000     1.3182760000    -0.1417960000
| 15>  C        4.4712690000     0.8469490000    -0.5723390000
| 16>  O        5.4535790000     1.5102300000    -0.7427140000
| 17>  C        4.3741530000    -0.6531290000    -0.7551490000
| 18>  O        3.0461410000    -1.0166420000    -0.4513540000
| 19>  H        0.4212070000     0.7962080000     0.4996510000
| 20>  H        0.5278630000    -1.0414820000     0.2158260000
| 21>  H        3.1729520000     1.8181900000     0.8275810000
| 22>  H        2.7236210000     2.0528160000    -0.8570940000
| 23>  H        5.0740660000    -1.1634870000    -0.0853130000
| 24>  H        4.6201560000    -0.9268760000    -1.7864510000
| 25> *
| 26>
| 27>                          ****END OF INPUT****
 Total Charge           Charge          ....    0
 Multiplicity           Mult            ....    1
 Number of Electrons    NEL             ....   52
 Basis Dimension        Dim             ....  128

MULLIKEN ATOMIC CHARGES
-----------------------
   0 C :   -0.083825
   1 C :   -0.007719
   2 C :    0.105159
   3 C :   -0.138836
   4 O :   -0.128294
   5 C :    0.234258
   6 O :   -0.270497
   7 H :    0.010518
   8 H :    0.022337
   9 H :    0.073518
  10 H :    0.076681
  11 H :    0.056089
  12 H :    0.050611
Sum of atomic charges:   -0.0000000

LOEWDIN ATOMIC CHARGES
----------------------
   0 C :   -0.136853
   1 C :    0.023707
   2 C :   -0.072544
   3 C :    0.046669
   4 O :   -0.099189
   5 C :    0.044585
   6 O :   -0.079780
   7 H :    0.029475
   8 H :    0.030506
   9 H :    0.065953
  10 H :    0.066281
  11 H :    0.041084
  12 H :    0.040107

  Mayer bond orders larger than 0.1
B(  0-C ,  1-C ) :   1.9456 B(  0-C ,  7-H ) :   0.9296 B(  0-C ,  8-H ) :   0.9265
B(  1-C ,  2-C ) :   0.9838 B(  1-C ,  6-O ) :   1.1054 B(  2-C ,  3-C ) :   0.9672
B(  2-C ,  9-H ) :   0.8914 B(  2-C , 10-H ) :   0.8926 B(  3-C ,  4-O ) :   2.2233
B(  3-C ,  5-C ) :   0.9736 B(  5-C ,  6-O ) :   0.9969 B(  5-C , 11-H ) :   0.9187
B(  5-C , 12-H ) :   0.9182

FINAL SINGLE POINT ENERGY      -343.893534496211

DIPOLE MOMENT
-------------
                                X             Y             Z
Electronic contribution:      3.54711       0.15672      -0.92119
Nuclear contribution   :     -3.71787      -0.14107       0.97129
                        -----------------------------------------
Total Dipole Moment    :     -0.17076       0.01565       0.05009
                        -----------------------------------------
Magnitude (a.u.)       :      0.17864
Magnitude (Debye)      :      0.45408

                             ****ORCA TERMINATED NORMALLY****
TOTAL RUN TIME: 0 days 0 hours 0 minutes 6 seconds 552 msec
