                         Program Version 3.0.3 - RELEASE   -
|  1> ! RI PBE def2-SVP def2-SVP/J NBO PAL2
|  2> % maxcore 2000
|  3> % output
|  4>     # printlevel mini
|  5>     print[ P_Basis ] 0
|  6>     print[ P_SCFInfo ] 1
|  7>     print[ P_SCFIterInfo ] 1
|  8>     print[ P_OrbEn ] 0
|  9>     print[ P_Cartesian ] 0
| 10> end
| 11> *xyz 0 1
| 12>  C        1.0153030000    -0.1822500000     0.0227700000
| 13>  C        2.4951440000    -0.0647150000     0.0383570000
| 14>  C        3.2017800000     1.0520340000    -0.1401240000
| 15>  C        4.6847360000     1.0624620000     0.0307600000
| 16>  O        5.1405530000    -0.1752550000     0.5505170000
| 17>  C        4.4790010000    -1.2342540000    -0.0462230000
| 18>  O        3.1046950000    -1.2604430000     0.2716000000
| 19>  H        0.5513830000     0.7890930000    -0.1446140000
| 20>  H        0.6613050000    -0.5818780000     0.9772510000
| 21>  H        0.6916930000    -0.8745480000    -0.7591810000
| 22>  H        2.6912430000     1.9806540000    -0.3606990000
| 23>  H        4.9862460000     1.8202850000     0.7595290000
| 24>  H        5.2060330000     1.2910740000    -0.9122130000
| 25>  H        4.9067040000    -2.1581950000     0.3392960000
| 26>  H        4.5733710000    -1.1832750000    -1.1424260000
| 27> *
| 28>
| 29>                          ****END OF INPUT****
 Total Charge           Charge          ....    0
 Multiplicity           Mult            ....    1
 Number of Electrons    NEL             ....   54
 Basis Dimension        Dim             ....  138

MULLIKEN ATOMIC CHARGES
-----------------------
   0 C :    0.088444
   1 C :   -0.000097
   2 C :   -0.213301
   3 C :    0.270699
   4 O :   -0.330999
   5 C :    0.323723
   6 O :   -0.273897
   7 H :    0.015602
   8 H :    0.037029
   9 H :    0.036291
  10 H :   -0.010607
  11 H :    0.029228
  12 H :    0.008786
  13 H :    0.023388
  14 H :   -0.004288
Sum of atomic charges:    0.0000000

LOEWDIN ATOMIC CHARGES
----------------------
   0 C :   -0.059499
   1 C :    0.017596
   2 C :   -0.147068
   3 C :    0.067756
   4 O :   -0.133834
   5 C :    0.136014
   6 O :   -0.086408
   7 H :    0.036450
   8 H :    0.042689
   9 H :    0.038932
  10 H :    0.028450
  11 H :    0.030931
  12 H :    0.012071
  13 H :    0.019598
  14 H :   -0.003678

  Mayer bond orders larger than 0.1
B(  0-C ,  1-C ) :   1.1079 B(  0-C ,  7-H ) :   0.9508 B(  0-C ,  8-H ) :   0.9345
B(  0-C ,  9-H ) :   0.9412 B(  1-C ,  2-C ) :   1.7869 B(  1-C ,  6-O ) :   1.1180
B(  2-C ,  3-C ) :   1.0234 B(  2-C , 10-H ) :   0.9333 B(  3-C ,  4-O ) :   1.0126
B(  3-C , 11-H ) :   0.9303 B(  3-C , 12-H ) :   0.9208 B(  4-O ,  5-C ) :   1.0829
B(  5-C ,  6-O ) :   0.9974 B(  5-C , 13-H ) :   0.9555 B(  5-C , 14-H ) :   0.9253

FINAL SINGLE POINT ENERGY      -345.089893234761

DIPOLE MOMENT
-------------
                                X             Y             Z
Electronic contribution:      3.02627      -1.84772       1.55863
Nuclear contribution   :     -3.23109       2.06911      -1.96428
                        -----------------------------------------
Total Dipole Moment    :     -0.20482       0.22139      -0.40565
                        -----------------------------------------
Magnitude (a.u.)       :      0.50549
Magnitude (Debye)      :      1.28486

                             ****ORCA TERMINATED NORMALLY****
TOTAL RUN TIME: 0 days 0 hours 0 minutes 6 seconds 860 msec
