                         Program Version 3.0.3 - RELEASE   -
|  1> ! RI PBE def2-SVP def2-SVP/J NBO PAL2
|  2> % maxcore 2000
|  3> % output
|  4>     # printlevel mini
|  5>     print[ P_Basis ] 0
|  6>     print[ P_SCFInfo ] 1
|  7>     print[ P_SCFIterInfo ] 1
|  8>     print[ P_OrbEn ] 0
|  9>     print[ P_Cartesian ] 0
| 10> end
| 11> *xyz 0 1
| 12>  C        0.8988960000     0.1988600000     0.0968610000
| 13>  C        2.3504940000     0.0025250000    -0.0590460000
| 14>  C        3.1211070000    -1.0740720000    -0.1522820000
| 15>  C        2.8458410000    -2.5211500000    -0.1386910000
| 16>  O        4.4474570000    -0.7016930000    -0.2887790000
| 17>  C        4.4592030000     0.7124650000    -0.2748370000
| 18>  O        3.1222210000     1.1497510000    -0.1284380000
| 19>  H        0.3860870000    -0.7618010000     0.1408270000
| 20>  H        0.4892110000     0.7722600000    -0.7403360000
| 21>  H        0.6750060000     0.7533380000     1.0133520000
| 22>  H        1.7774900000    -2.7056900000    -0.0275730000
| 23>  H        3.3698840000    -3.0116420000     0.6873380000
| 24>  H        3.1842260000    -2.9927880000    -1.0663640000
| 25>  H        4.8716620000     1.0895320000    -1.2197890000
| 26>  H        5.0614040000     1.0703060000     0.5704660000
| 27> *
| 28>
| 29>                          ****END OF INPUT****
 Total Charge           Charge          ....    0
 Multiplicity           Mult            ....    1
 Number of Electrons    NEL             ....   54
 Basis Dimension        Dim             ....  138

MULLIKEN ATOMIC CHARGES
-----------------------
   0 C :    0.095080
   1 C :   -0.065181
   2 C :   -0.068218
   3 C :    0.099745
   4 O :   -0.305571
   5 C :    0.355132
   6 O :   -0.306645
   7 H :    0.015770
   8 H :    0.035568
   9 H :    0.033720
  10 H :    0.013467
  11 H :    0.033812
  12 H :    0.032616
  13 H :    0.013706
  14 H :    0.016997
Sum of atomic charges:   -0.0000000

LOEWDIN ATOMIC CHARGES
----------------------
   0 C :   -0.060650
   1 C :   -0.032679
   2 C :   -0.033045
   3 C :   -0.060047
   4 O :   -0.112530
   5 C :    0.171873
   6 O :   -0.112699
   7 H :    0.039021
   8 H :    0.039536
   9 H :    0.039308
  10 H :    0.038821
  11 H :    0.039348
  12 H :    0.039047
  13 H :    0.002016
  14 H :    0.002680

  Mayer bond orders larger than 0.1
B(  0-C ,  1-C ) :   1.1510 B(  0-C ,  7-H ) :   0.9427 B(  0-C ,  8-H ) :   0.9294
B(  0-C ,  9-H ) :   0.9277 B(  1-C ,  2-C ) :   1.7017 B(  1-C ,  6-O ) :   1.0282
B(  2-C ,  3-C ) :   1.1519 B(  2-C ,  4-O ) :   1.0288 B(  3-C , 10-H ) :   0.9412
B(  3-C , 11-H ) :   0.9288 B(  3-C , 12-H ) :   0.9291 B(  4-O ,  5-C ) :   1.0152
B(  5-C ,  6-O ) :   1.0153 B(  5-C , 13-H ) :   0.9436 B(  5-C , 14-H ) :   0.9442

FINAL SINGLE POINT ENERGY      -345.087821084675

DIPOLE MOMENT
-------------
                                X             Y             Z
Electronic contribution:      3.99362       2.89236      -0.39030
Nuclear contribution   :     -4.27839      -3.09876       0.41983
                        -----------------------------------------
Total Dipole Moment    :     -0.28477      -0.20640       0.02953
                        -----------------------------------------
Magnitude (a.u.)       :      0.35294
Magnitude (Debye)      :      0.89711

                             ****ORCA TERMINATED NORMALLY****
TOTAL RUN TIME: 0 days 0 hours 0 minutes 6 seconds 467 msec
