                         Program Version 3.0.3 - RELEASE   -
|  1> ! RI PBE def2-SVP def2-SVP/J NBO PAL2
|  2> % maxcore 2000
|  3> % output
|  4>     # printlevel mini
|  5>     print[ P_Basis ] 0
|  6>     print[ P_SCFInfo ] 1
|  7>     print[ P_SCFIterInfo ] 1
|  8>     print[ P_OrbEn ] 0
|  9>     print[ P_Cartesian ] 0
| 10> end
| 11> *xyz 0 1
| 12>  C        1.1195560000     0.1434290000    -0.0556460000
| 13>  C        2.5902330000     0.0030200000    -0.1312400000
| 14>  C        3.3679890000    -1.0840810000    -0.1401230000
| 15>  C        4.8001500000    -0.6550820000    -0.1023840000
| 16>  O        5.4262670000    -0.9170660000     1.1458590000
| 17>  C        4.6478360000     0.8375140000    -0.4218230000
| 18>  O        3.2720350000     1.1746770000    -0.1955650000
| 19>  H        0.6422640000    -0.8323440000     0.0212700000
| 20>  H        0.7401790000     0.6580160000    -0.9422680000
| 21>  H        0.8413690000     0.7463160000     0.8128740000
| 22>  H        3.0263230000    -2.1062580000    -0.0828830000
| 23>  H        5.4374770000    -1.1469060000    -0.8404350000
| 24>  H        4.7646430000    -0.7773560000     1.8304960000
| 25>  H        4.8714940000     1.0430600000    -1.4726640000
| 26>  H        5.2746030000     1.4605600000     0.2167210000
| 27> *
| 28>
| 29>                          ****END OF INPUT****
 Total Charge           Charge          ....    0
 Multiplicity           Mult            ....    1
 Number of Electrons    NEL             ....   54
 Basis Dimension        Dim             ....  138

MULLIKEN ATOMIC CHARGES
-----------------------
   0 C :    0.098205
   1 C :    0.003469
   2 C :   -0.159917
   3 C :    0.071514
   4 O :   -0.264413
   5 C :    0.257677
   6 O :   -0.288618
   7 H :    0.022830
   8 H :    0.042628
   9 H :    0.040094
  10 H :   -0.015076
  11 H :    0.008824
  12 H :    0.147155
  13 H :    0.016861
  14 H :    0.018767
Sum of atomic charges:   -0.0000000

LOEWDIN ATOMIC CHARGES
----------------------
   0 C :   -0.062043
   1 C :    0.030682
   2 C :   -0.152759
   3 C :    0.033878
   4 O :   -0.118491
   5 C :    0.070617
   6 O :   -0.089842
   7 H :    0.040417
   8 H :    0.045284
   9 H :    0.045324
  10 H :    0.023777
  11 H :    0.024539
  12 H :    0.062381
  13 H :    0.022133
  14 H :    0.024103

  Mayer bond orders larger than 0.1
B(  0-C ,  1-C ) :   1.1058 B(  0-C ,  7-H ) :   0.9495 B(  0-C ,  8-H ) :   0.9358
B(  0-C ,  9-H ) :   0.9310 B(  1-C ,  2-C ) :   1.6678 B(  1-C ,  6-O ) :   1.1349
B(  2-C ,  3-C ) :   1.0313 B(  2-C , 10-H ) :   0.9985 B(  3-C ,  4-O ) :   1.0702
B(  3-C ,  5-C ) :   1.0272 B(  3-C , 11-H ) :   0.9009 B(  4-O , 12-H ) :   0.9805
B(  5-C ,  6-O ) :   0.9552 B(  5-C , 13-H ) :   0.9290 B(  5-C , 14-H ) :   0.9294

FINAL SINGLE POINT ENERGY      -345.093212884795

DIPOLE MOMENT
-------------
                                X             Y             Z
Electronic contribution:      2.64008       0.49034       0.67347
Nuclear contribution   :     -3.21012      -0.44714      -0.75472
                        -----------------------------------------
Total Dipole Moment    :     -0.57004       0.04321      -0.08124
                        -----------------------------------------
Magnitude (a.u.)       :      0.57742
Magnitude (Debye)      :      1.46768

                             ****ORCA TERMINATED NORMALLY****
TOTAL RUN TIME: 0 days 0 hours 0 minutes 7 seconds 246 msec
