                         Program Version 3.0.3 - RELEASE   -
|  1> ! RI PBE def2-SVP def2-SVP/J NBO PAL2
|  2> % maxcore 2000
|  3> % output
|  4>     # printlevel mini
|  5>     print[ P_Basis ] 0
|  6>     print[ P_SCFInfo ] 1
|  7>     print[ P_SCFIterInfo ] 1
|  8>     print[ P_OrbEn ] 0
|  9>     print[ P_Cartesian ] 0
| 10> end
| 11> *xyz 0 1
| 12>  C        1.1752200000    -0.0908880000     0.1356270000
| 13>  C        2.6737050000     0.0317470000    -0.0570520000
| 14>  C        3.0446320000     0.2017680000    -1.5197170000
| 15>  C        3.3007150000     1.1235390000     0.8252370000
| 16>  O        4.5253280000     0.5611770000     1.2390330000
| 17>  C        4.2107310000    -0.7838060000     1.4454750000
| 18>  O        3.3195090000    -1.1562410000     0.4284900000
| 19>  H        0.6689610000     0.8288700000    -0.1699670000
| 20>  H        0.9360670000    -0.2857590000     1.1830190000
| 21>  H        0.7804420000    -0.9121100000    -0.4657160000
| 22>  H        2.5320040000     1.0632890000    -1.9554280000
| 23>  H        2.7618430000    -0.6894480000    -2.0833400000
| 24>  H        4.1222500000     0.3449760000    -1.6203140000
| 25>  H        2.6608590000     1.3388950000     1.6933920000
| 26>  H        3.5044940000     2.0503740000     0.2887610000
| 27>  H        3.7378040000    -0.9201320000     2.4338460000
| 28>  H        5.1232370000    -1.3799700000     1.3786630000
| 29> *
| 30>
| 31>                          ****END OF INPUT****
 Total Charge           Charge          ....    0
 Multiplicity           Mult            ....    1
 Number of Electrons    NEL             ....   56
 Basis Dimension        Dim             ....  148

MULLIKEN ATOMIC CHARGES
-----------------------
   0 C :    0.075919
   1 C :   -0.204476
   2 C :    0.084313
   3 C :    0.242025
   4 O :   -0.339018
   5 C :    0.352446
   6 O :   -0.343367
   7 H :    0.019459
   8 H :    0.012561
   9 H :    0.025718
  10 H :    0.011596
  11 H :    0.026941
  12 H :    0.017512
  13 H :   -0.004984
  14 H :    0.017404
  15 H :   -0.017652
  16 H :    0.023601
Sum of atomic charges:   -0.0000000

LOEWDIN ATOMIC CHARGES
----------------------
   0 C :   -0.059813
   1 C :    0.006270
   2 C :   -0.060580
   3 C :    0.061395
   4 O :   -0.137489
   5 C :    0.137979
   6 O :   -0.152647
   7 H :    0.029536
   8 H :    0.025873
   9 H :    0.032005
  10 H :    0.025935
  11 H :    0.031165
  12 H :    0.028161
  13 H :    0.007563
  14 H :    0.024744
  15 H :   -0.013795
  16 H :    0.013699

  Mayer bond orders larger than 0.1
B(  0-C ,  1-C ) :   1.0582 B(  0-C ,  7-H ) :   0.9536 B(  0-C ,  8-H ) :   0.9442
B(  0-C ,  9-H ) :   0.9529 B(  1-C ,  2-C ) :   1.0490 B(  1-C ,  3-C ) :   1.0256
B(  1-C ,  6-O ) :   0.9843 B(  2-C , 10-H ) :   0.9510 B(  2-C , 11-H ) :   0.9530
B(  2-C , 12-H ) :   0.9460 B(  3-C ,  4-O ) :   1.0102 B(  3-C , 13-H ) :   0.9238
B(  3-C , 14-H ) :   0.9378 B(  4-O ,  5-C ) :   1.0440 B(  5-C ,  6-O ) :   1.0338
B(  5-C , 15-H ) :   0.9267 B(  5-C , 16-H ) :   0.9507

FINAL SINGLE POINT ENERGY      -346.296629692296

DIPOLE MOMENT
-------------
                                X             Y             Z
Electronic contribution:      4.30140      -1.26216       2.75282
Nuclear contribution   :     -4.71527       1.55098      -2.77462
                        -----------------------------------------
Total Dipole Moment    :     -0.41387       0.28882      -0.02180
                        -----------------------------------------
Magnitude (a.u.)       :      0.50516
Magnitude (Debye)      :      1.28401

                             ****ORCA TERMINATED NORMALLY****
TOTAL RUN TIME: 0 days 0 hours 0 minutes 7 seconds 168 msec
