                         Program Version 3.0.3 - RELEASE   -
|  1> ! RI PBE def2-SVP def2-SVP/J NBO PAL2
|  2> % maxcore 2000
|  3> % output
|  4>     # printlevel mini
|  5>     print[ P_Basis ] 0
|  6>     print[ P_SCFInfo ] 1
|  7>     print[ P_SCFIterInfo ] 1
|  8>     print[ P_OrbEn ] 0
|  9>     print[ P_Cartesian ] 0
| 10> end
| 11> *xyz 0 1
| 12>  C        1.0028680000    -0.4238540000    -1.2552750000
| 13>  C        2.2488570000    -0.4270740000    -0.4182820000
| 14>  C        2.1172670000    -0.0341460000     1.0336440000
| 15>  C        1.4245350000    -1.0543740000     1.9238940000
| 16>  O        0.0494400000    -1.2341270000     1.6504150000
| 17>  C        3.3849890000    -1.2600930000    -0.8112710000
| 18>  O        3.3931120000     0.1353620000    -1.0648080000
| 19>  H        0.2683610000    -1.1234060000    -0.8537730000
| 20>  H        1.2376110000    -0.6921090000    -2.2862270000
| 21>  H        0.5539080000     0.5738680000    -1.2564040000
| 22>  H        1.5934780000     0.9283790000     1.1034150000
| 23>  H        3.1252560000     0.1352340000     1.4248540000
| 24>  H        1.5743520000    -0.7713530000     2.9744400000
| 25>  H        1.8814340000    -2.0382360000     1.7879170000
| 26>  H       -0.4053880000    -0.4075300000     1.8315050000
| 27>  H        3.3059130000    -1.8938820000    -1.6917260000
| 28>  H        4.0937960000    -1.5991480000    -0.0578180000
| 29> *
| 30>
| 31>                          ****END OF INPUT****
 Total Charge           Charge          ....    0
 Multiplicity           Mult            ....    1
 Number of Electrons    NEL             ....   56
 Basis Dimension        Dim             ....  148

MULLIKEN ATOMIC CHARGES
-----------------------
   0 C :    0.108274
   1 C :   -0.209202
   2 C :    0.061985
   3 C :    0.178914
   4 O :   -0.282439
   5 C :    0.170039
   6 O :   -0.290473
   7 H :    0.034860
   8 H :    0.007976
   9 H :    0.013616
  10 H :    0.001817
  11 H :    0.000392
  12 H :    0.006019
  13 H :    0.007010
  14 H :    0.154348
  15 H :    0.021692
  16 H :    0.015172
Sum of atomic charges:   -0.0000000

LOEWDIN ATOMIC CHARGES
----------------------
   0 C :   -0.063420
   1 C :    0.010471
   2 C :   -0.060774
   3 C :    0.057485
   4 O :   -0.117011
   5 C :    0.053741
   6 O :   -0.157287
   7 H :    0.032524
   8 H :    0.031170
   9 H :    0.029867
  10 H :    0.024797
  11 H :    0.037131
  12 H :    0.008237
  13 H :    0.021260
  14 H :    0.067878
  15 H :    0.013677
  16 H :    0.010253

  Mayer bond orders larger than 0.1
B(  0-C ,  1-C ) :   1.0854 B(  0-C ,  7-H ) :   0.9376 B(  0-C ,  8-H ) :   0.9313
B(  0-C ,  9-H ) :   0.9445 B(  1-C ,  2-C ) :   1.0464 B(  1-C ,  5-C ) :   1.0882
B(  1-C ,  6-O ) :   0.9569 B(  2-C ,  3-C ) :   1.0685 B(  2-C , 10-H ) :   0.9138
B(  2-C , 11-H ) :   0.8855 B(  3-C ,  4-O ) :   1.0511 B(  3-C , 12-H ) :   0.9374
B(  3-C , 13-H ) :   0.9361 B(  4-O , 14-H ) :   0.9818 B(  5-C ,  6-O ) :   1.0092
B(  5-C , 15-H ) :   0.9264 B(  5-C , 16-H ) :   0.9236

FINAL SINGLE POINT ENERGY      -346.268203721714

DIPOLE MOMENT
-------------
                                X             Y             Z
Electronic contribution:      1.46802       0.68573      -0.62272
Nuclear contribution   :     -1.72653      -0.67767       1.13787
                        -----------------------------------------
Total Dipole Moment    :     -0.25851       0.00806       0.51514
                        -----------------------------------------
Magnitude (a.u.)       :      0.57642
Magnitude (Debye)      :      1.46515

                             ****ORCA TERMINATED NORMALLY****
TOTAL RUN TIME: 0 days 0 hours 0 minutes 7 seconds 589 msec
