                         Program Version 3.0.3 - RELEASE   -
|  1> ! RI PBE def2-SVP def2-SVP/J NBO PAL2
|  2> % maxcore 2000
|  3> % output
|  4>     # printlevel mini
|  5>     print[ P_Basis ] 0
|  6>     print[ P_SCFInfo ] 1
|  7>     print[ P_SCFIterInfo ] 1
|  8>     print[ P_OrbEn ] 0
|  9>     print[ P_Cartesian ] 0
| 10> end
| 11> *xyz 0 1
| 12>  C        1.0385270000    -0.0158550000     0.1153970000
| 13>  C        2.5394430000     0.0230130000     0.2142400000
| 14>  C        3.1329150000     1.2395200000     0.9114050000
| 15>  C        4.4094970000     0.6887420000     1.5112330000
| 16>  O        5.3380460000     1.3030470000     1.9548150000
| 17>  C        4.2922680000    -0.8232310000     1.4215830000
| 18>  O        2.9771930000    -1.0843450000     1.0043610000
| 19>  H        0.6753100000     0.8056860000    -0.5058330000
| 20>  H        0.5910830000     0.0717500000     1.1081110000
| 21>  H        0.7094820000    -0.9562090000    -0.3302570000
| 22>  H        2.9800590000    -0.0670090000    -0.7919490000
| 23>  H        2.4850950000     1.5668080000     1.7329930000
| 24>  H        3.3336150000     2.0975380000     0.2700630000
| 25>  H        4.4824060000    -1.3016800000     2.3842230000
| 26>  H        5.0388630000    -1.1891960000     0.6987250000
| 27> *
| 28>
| 29>                          ****END OF INPUT****
 Total Charge           Charge          ....    0
 Multiplicity           Mult            ....    1
 Number of Electrons    NEL             ....   54
 Basis Dimension        Dim             ....  138

MULLIKEN ATOMIC CHARGES
-----------------------
   0 C :    0.040487
   1 C :    0.011677
   2 C :    0.078499
   3 C :   -0.134916
   4 O :   -0.137789
   5 C :    0.255236
   6 O :   -0.346471
   7 H :    0.026226
   8 H :    0.021667
   9 H :    0.032498
  10 H :    0.003781
  11 H :    0.042904
  12 H :    0.041856
  13 H :    0.040591
  14 H :    0.023756
Sum of atomic charges:   -0.0000000

LOEWDIN ATOMIC CHARGES
----------------------
   0 C :   -0.064389
   1 C :    0.051430
   2 C :   -0.076992
   3 C :    0.044520
   4 O :   -0.106310
   5 C :    0.032431
   6 O :   -0.151677
   7 H :    0.034449
   8 H :    0.029245
   9 H :    0.034840
  10 H :    0.009487
  11 H :    0.052415
  12 H :    0.045211
  13 H :    0.037640
  14 H :    0.027701

  Mayer bond orders larger than 0.1
B(  0-C ,  1-C ) :   1.0988 B(  0-C ,  7-H ) :   0.9545 B(  0-C ,  8-H ) :   0.9515
B(  0-C ,  9-H ) :   0.9517 B(  1-C ,  2-C ) :   1.0511 B(  1-C ,  6-O ) :   0.9853
B(  1-C , 10-H ) :   0.9038 B(  2-C ,  3-C ) :   0.9816 B(  2-C , 11-H ) :   0.8859
B(  2-C , 12-H ) :   0.9135 B(  3-C ,  4-O ) :   2.2170 B(  3-C ,  5-C ) :   0.9544
B(  5-C ,  6-O ) :   1.0319 B(  5-C , 13-H ) :   0.9279 B(  5-C , 14-H ) :   0.8958

FINAL SINGLE POINT ENERGY      -345.109103204001

DIPOLE MOMENT
-------------
                                X             Y             Z
Electronic contribution:      5.71986       0.35871       2.89438
Nuclear contribution   :     -6.32068      -0.37931      -3.35508
                        -----------------------------------------
Total Dipole Moment    :     -0.60081      -0.02060      -0.46070
                        -----------------------------------------
Magnitude (a.u.)       :      0.75739
Magnitude (Debye)      :      1.92514

                             ****ORCA TERMINATED NORMALLY****
TOTAL RUN TIME: 0 days 0 hours 0 minutes 6 seconds 837 msec
