                         Program Version 3.0.3 - RELEASE   -
|  1> ! RI PBE def2-SVP def2-SVP/J NBO PAL2
|  2> % maxcore 2000
|  3> % output
|  4>     # printlevel mini
|  5>     print[ P_Basis ] 0
|  6>     print[ P_SCFInfo ] 1
|  7>     print[ P_SCFIterInfo ] 1
|  8>     print[ P_OrbEn ] 0
|  9>     print[ P_Cartesian ] 0
| 10> end
| 11> *xyz 0 1
| 12>  C        0.8389350000     0.0096790000     0.0873730000
| 13>  C        2.3450070000     0.0684050000     0.0734100000
| 14>  C        2.9685550000     1.2138810000     0.8555330000
| 15>  C        4.3673300000     0.6907400000     1.1195870000
| 16>  O        5.1494960000     0.9818880000    -0.0254920000
| 17>  C        4.1112960000    -0.8075970000     1.2977710000
| 18>  O        2.8632160000    -1.1020450000     0.7017010000
| 19>  H        0.4196250000     0.8862840000    -0.4122600000
| 20>  H        0.4665340000    -0.0205660000     1.1143000000
| 21>  H        0.4841470000    -0.8816620000    -0.4333010000
| 22>  H        2.7062860000     0.1062410000    -0.9643800000
| 23>  H        2.4330090000     1.3539030000     1.7994220000
| 24>  H        2.9890640000     2.1590840000     0.3125460000
| 25>  H        4.8231750000     1.1317260000     2.0144210000
| 26>  H        5.9917230000     0.5272850000     0.0543310000
| 27>  H        4.0705660000    -1.0824050000     2.3581590000
| 28>  H        4.9078480000    -1.3957400000     0.8233580000
| 29> *
| 30>
| 31>                          ****END OF INPUT****
 Total Charge           Charge          ....    0
 Multiplicity           Mult            ....    1
 Number of Electrons    NEL             ....   56
 Basis Dimension        Dim             ....  148

MULLIKEN ATOMIC CHARGES
-----------------------
   0 C :    0.061026
   1 C :    0.035203
   2 C :    0.069361
   3 C :   -0.053297
   4 O :   -0.262196
   5 C :    0.291245
   6 O :   -0.361312
   7 H :    0.015799
   8 H :    0.009342
   9 H :    0.028516
  10 H :    0.002973
  11 H :    0.007156
  12 H :    0.022088
  13 H :   -0.000302
  14 H :    0.155529
  15 H :   -0.000938
  16 H :   -0.020192
Sum of atomic charges:   -0.0000000

LOEWDIN ATOMIC CHARGES
----------------------
   0 C :   -0.066268
   1 C :    0.051648
   2 C :   -0.049231
   3 C :    0.030554
   4 O :   -0.114896
   5 C :    0.053621
   6 O :   -0.160179
   7 H :    0.031165
   8 H :    0.024570
   9 H :    0.032321
  10 H :    0.008961
  11 H :    0.028950
  12 H :    0.033563
  13 H :    0.007471
  14 H :    0.066487
  15 H :    0.012926
  16 H :    0.008338

  Mayer bond orders larger than 0.1
B(  0-C ,  1-C ) :   1.0999 B(  0-C ,  7-H ) :   0.9512 B(  0-C ,  8-H ) :   0.9478
B(  0-C ,  9-H ) :   0.9548 B(  1-C ,  2-C ) :   1.0441 B(  1-C ,  6-O ) :   0.9900
B(  1-C , 10-H ) :   0.9194 B(  2-C ,  3-C ) :   1.0757 B(  2-C , 11-H ) :   0.9154
B(  2-C , 12-H ) :   0.9169 B(  3-C ,  4-O ) :   1.0628 B(  3-C ,  5-C ) :   1.0345
B(  3-C , 13-H ) :   0.9227 B(  4-O , 14-H ) :   0.9786 B(  5-C ,  6-O ) :   1.0364
B(  5-C , 15-H ) :   0.9269 B(  5-C , 16-H ) :   0.9135

FINAL SINGLE POINT ENERGY      -346.297797531445

DIPOLE MOMENT
-------------
                                X             Y             Z
Electronic contribution:      3.54182      -1.03176      -0.49695
Nuclear contribution   :     -3.12774       1.22819       0.84795
                        -----------------------------------------
Total Dipole Moment    :      0.41408       0.19643       0.35099
                        -----------------------------------------
Magnitude (a.u.)       :      0.57727
Magnitude (Debye)      :      1.46731

                             ****ORCA TERMINATED NORMALLY****
TOTAL RUN TIME: 0 days 0 hours 0 minutes 7 seconds 624 msec
