                         Program Version 3.0.3 - RELEASE   -
|  1> ! RI PBE def2-SVP def2-SVP/J NBO PAL2
|  2> % maxcore 2000
|  3> % output
|  4>     # printlevel mini
|  5>     print[ P_Basis ] 0
|  6>     print[ P_SCFInfo ] 1
|  7>     print[ P_SCFIterInfo ] 1
|  8>     print[ P_OrbEn ] 0
|  9>     print[ P_Cartesian ] 0
| 10> end
| 11> *xyz 0 1
| 12>  C        0.9366580000     0.1000120000     0.0786510000
| 13>  C        2.4157710000     0.0176920000     0.0621540000
| 14>  C        3.2111240000    -1.0463970000    -0.0263400000
| 15>  C        4.6143950000    -0.6064110000    -0.0021030000
| 16>  O        5.6234400000    -1.2428100000    -0.0576840000
| 17>  O        4.6162190000     0.7581350000     0.1055540000
| 18>  C        3.2859980000     1.2304790000     0.1515630000
| 19>  H        0.4800640000    -0.8865680000     0.0045940000
| 20>  H        0.5730580000     0.7131520000    -0.7517910000
| 21>  H        0.5849960000     0.5761900000     0.9991730000
| 22>  H        2.9342000000    -2.0871380000    -0.1056240000
| 23>  H        3.1165880000     1.9215550000    -0.6823840000
| 24>  H        3.1283880000     1.7827190000     1.0853480000
| 25> *
| 26>
| 27>                          ****END OF INPUT****
 Total Charge           Charge          ....    0
 Multiplicity           Mult            ....    1
 Number of Electrons    NEL             ....   52
 Basis Dimension        Dim             ....  128

MULLIKEN ATOMIC CHARGES
-----------------------
   0 C :    0.082544
   1 C :   -0.219234
   2 C :   -0.089370
   3 C :    0.164155
   4 O :   -0.148307
   5 O :   -0.258746
   6 C :    0.262611
   7 H :    0.033726
   8 H :    0.045423
   9 H :    0.043568
  10 H :   -0.006312
  11 H :    0.046093
  12 H :    0.043847
Sum of atomic charges:   -0.0000000

LOEWDIN ATOMIC CHARGES
----------------------
   0 C :   -0.054527
   1 C :   -0.021625
   2 C :   -0.075224
   3 C :    0.033312
   4 O :   -0.131669
   5 O :   -0.074935
   6 C :    0.079345
   7 H :    0.042047
   8 H :    0.046868
   9 H :    0.046550
  10 H :    0.036289
  11 H :    0.036937
  12 H :    0.036634

  Mayer bond orders larger than 0.1
B(  0-C ,  1-C ) :   1.1020 B(  0-C ,  7-H ) :   0.9502 B(  0-C ,  8-H ) :   0.9388
B(  0-C ,  9-H ) :   0.9388 B(  1-C ,  2-C ) :   1.7226 B(  1-C ,  6-C ) :   1.0383
B(  2-C ,  3-C ) :   0.9591 B(  2-C , 10-H ) :   1.0215 B(  3-C ,  4-O ) :   2.1684
B(  3-C ,  5-O ) :   1.0809 B(  5-O ,  6-C ) :   1.0069 B(  6-C , 11-H ) :   0.9146
B(  6-C , 12-H ) :   0.9140

FINAL SINGLE POINT ENERGY      -343.930969599208

DIPOLE MOMENT
-------------
                                X             Y             Z
Electronic contribution:      7.83606      -1.78558      -0.19611
Nuclear contribution   :     -9.79950       2.42875       0.25710
                        -----------------------------------------
Total Dipole Moment    :     -1.96344       0.64317       0.06098
                        -----------------------------------------
Magnitude (a.u.)       :      2.06700
Magnitude (Debye)      :      5.25390

                             ****ORCA TERMINATED NORMALLY****
TOTAL RUN TIME: 0 days 0 hours 0 minutes 6 seconds 52 msec
