                         Program Version 3.0.3 - RELEASE   -
|  1> ! RI PBE def2-SVP def2-SVP/J NBO PAL2
|  2> % maxcore 2000
|  3> % output
|  4>     # printlevel mini
|  5>     print[ P_Basis ] 0
|  6>     print[ P_SCFInfo ] 1
|  7>     print[ P_SCFIterInfo ] 1
|  8>     print[ P_OrbEn ] 0
|  9>     print[ P_Cartesian ] 0
| 10> end
| 11> *xyz 0 1
| 12>  C        0.9568280000     0.2532940000    -0.3023370000
| 13>  C        2.3796230000    -0.1150350000     0.0082170000
| 14>  C        3.1623500000    -0.8853630000    -0.9573140000
| 15>  O        3.3558600000     0.5152720000    -0.8162290000
| 16>  C        2.7235490000    -0.1730490000     1.4631520000
| 17>  C        4.1350620000    -0.0108970000     1.9227380000
| 18>  C        3.1395310000     1.0814370000     2.1714900000
| 19>  H        0.7946220000     0.2950720000    -1.3801870000
| 20>  H        0.7183490000     1.2308530000     0.1241410000
| 21>  H        0.2675440000    -0.4784290000     0.1272310000
| 22>  H        2.7071010000    -1.1964460000    -1.8949960000
| 23>  H        3.9851770000    -1.5025780000    -0.6040510000
| 24>  H        2.1011210000    -0.8598670000     2.0287100000
| 25>  H        4.8805500000     0.1767080000     1.1599600000
| 26>  H        4.4698130000    -0.6072700000     2.7621210000
| 27>  H        3.2378680000     1.9776530000     1.5706930000
| 28>  H        2.7862420000     1.2446260000     3.1818610000
| 29> *
| 30>
| 31>                          ****END OF INPUT****
 Total Charge           Charge          ....    0
 Multiplicity           Mult            ....    1
 Number of Electrons    NEL             ....   54
 Basis Dimension        Dim             ....  148

MULLIKEN ATOMIC CHARGES
-----------------------
   0 C :    0.130445
   1 C :   -0.127271
   2 C :    0.169056
   3 O :   -0.295266
   4 C :   -0.068421
   5 C :   -0.031481
   6 C :   -0.029506
   7 H :    0.011566
   8 H :    0.019200
   9 H :    0.020825
  10 H :    0.017216
  11 H :    0.025645
  12 H :    0.017662
  13 H :    0.042725
  14 H :    0.027114
  15 H :    0.040622
  16 H :    0.029869
Sum of atomic charges:   -0.0000000

LOEWDIN ATOMIC CHARGES
----------------------
   0 C :   -0.055246
   1 C :    0.012912
   2 C :    0.060706
   3 O :   -0.153811
   4 C :   -0.049895
   5 C :   -0.043732
   6 C :   -0.037867
   7 H :    0.031809
   8 H :    0.033854
   9 H :    0.033975
  10 H :    0.012229
  11 H :    0.013805
  12 H :    0.030528
  13 H :    0.029132
  14 H :    0.026192
  15 H :    0.029958
  16 H :    0.025451

  Mayer bond orders larger than 0.1
B(  0-C ,  1-C ) :   1.0807 B(  0-C ,  7-H ) :   0.9364 B(  0-C ,  8-H ) :   0.9464
B(  0-C ,  9-H ) :   0.9470 B(  1-C ,  2-C ) :   1.0810 B(  1-C ,  3-O ) :   0.9577
B(  1-C ,  4-C ) :   1.0299 B(  2-C ,  3-O ) :   0.9943 B(  2-C , 10-H ) :   0.9293
B(  2-C , 11-H ) :   0.9268 B(  4-C ,  5-C ) :   0.9937 B(  4-C ,  6-C ) :   0.9949
B(  4-C , 12-H ) :   0.9409 B(  5-C ,  6-C ) :   1.0499 B(  5-C , 13-H ) :   0.9345
B(  5-C , 14-H ) :   0.9375 B(  6-C , 15-H ) :   0.9443 B(  6-C , 16-H ) :   0.9484

FINAL SINGLE POINT ENERGY      -309.189408296335

DIPOLE MOMENT
-------------
                                X             Y             Z
Electronic contribution:      1.83308       0.23262      -2.00761
Nuclear contribution   :     -2.22151      -0.71866       2.24179
                        -----------------------------------------
Total Dipole Moment    :     -0.38842      -0.48603       0.23417
                        -----------------------------------------
Magnitude (a.u.)       :      0.66479
Magnitude (Debye)      :      1.68975

                             ****ORCA TERMINATED NORMALLY****
TOTAL RUN TIME: 0 days 0 hours 0 minutes 7 seconds 658 msec
