                         Program Version 3.0.3 - RELEASE   -
|  1> ! RI PBE def2-SVP def2-SVP/J NBO PAL2
|  2> % maxcore 2000
|  3> % output
|  4>     # printlevel mini
|  5>     print[ P_Basis ] 0
|  6>     print[ P_SCFInfo ] 1
|  7>     print[ P_SCFIterInfo ] 1
|  8>     print[ P_OrbEn ] 0
|  9>     print[ P_Cartesian ] 0
| 10> end
| 11> *xyz 0 1
| 12>  C        0.9313100000     0.2697320000    -0.1330220000
| 13>  C        2.3326760000    -0.1961160000     0.1343540000
| 14>  C        3.0812330000    -0.9512200000    -0.8694930000
| 15>  O        3.3427380000     0.4249840000    -0.6484280000
| 16>  C        2.6703140000    -0.3998570000     1.5763870000
| 17>  C        3.9532780000     0.0016150000     2.1364730000
| 18>  O        2.7819610000     0.7708220000     2.3695020000
| 19>  H        0.7684860000     0.3971450000    -1.2037440000
| 20>  H        0.7569230000     1.2259290000     0.3651940000
| 21>  H        0.2040400000    -0.4509810000     0.2499250000
| 22>  H        2.6055710000    -1.1888550000    -1.8183520000
| 23>  H        3.8718500000    -1.6297400000    -0.5560160000
| 24>  H        2.1211810000    -1.2095590000     2.0582490000
| 25>  H        4.6834700000     0.4664430000     1.4811110000
| 26>  H        4.3434690000    -0.5224300000     3.0055600000
| 27> *
| 28>
| 29>                          ****END OF INPUT****
 Total Charge           Charge          ....    0
 Multiplicity           Mult            ....    1
 Number of Electrons    NEL             ....   54
 Basis Dimension        Dim             ....  138

MULLIKEN ATOMIC CHARGES
-----------------------
   0 C :    0.113611
   1 C :   -0.132575
   2 C :    0.175308
   3 O :   -0.278902
   4 C :    0.059689
   5 C :    0.148042
   6 O :   -0.291849
   7 H :    0.016610
   8 H :    0.040692
   9 H :    0.022591
  10 H :    0.020774
  11 H :    0.025763
  12 H :    0.017327
  13 H :    0.038527
  14 H :    0.024393
Sum of atomic charges:    0.0000000

LOEWDIN ATOMIC CHARGES
----------------------
   0 C :   -0.053859
   1 C :   -0.002086
   2 C :    0.063106
   3 O :   -0.141220
   4 C :    0.031180
   5 C :    0.062177
   6 O :   -0.150892
   7 H :    0.033747
   8 H :    0.040521
   9 H :    0.035461
  10 H :    0.015339
  11 H :    0.014852
  12 H :    0.018096
  13 H :    0.018732
  14 H :    0.014847

  Mayer bond orders larger than 0.1
B(  0-C ,  1-C ) :   1.0749 B(  0-C ,  7-H ) :   0.9397 B(  0-C ,  8-H ) :   0.9460
B(  0-C ,  9-H ) :   0.9470 B(  1-C ,  2-C ) :   1.0782 B(  1-C ,  3-O ) :   0.9690
B(  1-C ,  4-C ) :   0.9892 B(  2-C ,  3-O ) :   1.0049 B(  2-C , 10-H ) :   0.9265
B(  2-C , 11-H ) :   0.9285 B(  4-C ,  5-C ) :   1.1036 B(  4-C ,  6-O ) :   0.9696
B(  4-C , 12-H ) :   0.9292 B(  5-C ,  6-O ) :   1.0039 B(  5-C , 13-H ) :   0.9236
B(  5-C , 14-H ) :   0.9297

FINAL SINGLE POINT ENERGY      -345.038804365488

DIPOLE MOMENT
-------------
                                X             Y             Z
Electronic contribution:      2.17149       1.79925       1.34669
Nuclear contribution   :     -2.31762      -2.77997      -1.52970
                        -----------------------------------------
Total Dipole Moment    :     -0.14613      -0.98072      -0.18301
                        -----------------------------------------
Magnitude (a.u.)       :      1.00830
Magnitude (Debye)      :      2.56288

                             ****ORCA TERMINATED NORMALLY****
TOTAL RUN TIME: 0 days 0 hours 0 minutes 6 seconds 835 msec
