                         Program Version 3.0.3 - RELEASE   -
|  1> ! RI PBE def2-SVP def2-SVP/J NBO PAL2
|  2> % maxcore 2000
|  3> % output
|  4>     # printlevel mini
|  5>     print[ P_Basis ] 0
|  6>     print[ P_SCFInfo ] 1
|  7>     print[ P_SCFIterInfo ] 1
|  8>     print[ P_OrbEn ] 0
|  9>     print[ P_Cartesian ] 0
| 10> end
| 11> *xyz 0 1
| 12>  C        0.9654430000     0.1776730000    -0.2479080000
| 13>  C        2.4554630000     0.2328260000    -0.0318600000
| 14>  C        2.8323560000     0.0343490000     1.4132710000
| 15>  O        3.2404060000    -0.4983230000    -0.9771690000
| 16>  C        3.3518880000     0.9271210000    -0.9794350000
| 17>  C        2.8219690000     1.6156280000    -2.2102840000
| 18>  C        4.6889220000     1.4721750000    -0.5491620000
| 19>  H        0.5719390000    -0.7591400000     0.1563230000
| 20>  H        0.6945240000     0.2251480000    -1.2999300000
| 21>  H        0.4705880000     0.9988220000     0.2780730000
| 22>  H        2.3977960000    -0.9000240000     1.7792930000
| 23>  H        2.4360300000     0.8469720000     2.0284070000
| 24>  H        3.9084100000    -0.0199030000     1.5600920000
| 25>  H        1.9039420000     1.1638360000    -2.5783900000
| 26>  H        3.5660190000     1.5589310000    -3.0096850000
| 27>  H        2.6341350000     2.6736400000    -2.0074220000
| 28>  H        5.1187760000     0.9157480000     0.2803050000
| 29>  H        4.5994670000     2.5221400000    -0.2569400000
| 30>  H        5.3912170000     1.4201610000    -1.3857890000
| 31> *
| 32>
| 33>                          ****END OF INPUT****
 Total Charge           Charge          ....    0
 Multiplicity           Mult            ....    1
 Number of Electrons    NEL             ....   56
 Basis Dimension        Dim             ....  158

MULLIKEN ATOMIC CHARGES
-----------------------
   0 C :    0.107309
   1 C :   -0.148843
   2 C :    0.101832
   3 O :   -0.285863
   4 C :   -0.150954
   5 C :    0.099483
   6 C :    0.099996
   7 H :    0.016350
   8 H :    0.004599
   9 H :    0.019760
  10 H :    0.015529
  11 H :    0.022006
  12 H :    0.006717
  13 H :    0.001073
  14 H :    0.022616
  15 H :    0.022227
  16 H :    0.004051
  17 H :    0.020312
  18 H :    0.021799
Sum of atomic charges:   -0.0000000

LOEWDIN ATOMIC CHARGES
----------------------
   0 C :   -0.057939
   1 C :    0.012640
   2 C :   -0.059425
   3 O :   -0.159916
   4 C :    0.013350
   5 C :   -0.060665
   6 C :   -0.060809
   7 H :    0.032015
   8 H :    0.027154
   9 H :    0.032831
  10 H :    0.032028
  11 H :    0.033228
  12 H :    0.027695
  13 H :    0.027228
  14 H :    0.033139
  15 H :    0.033564
  16 H :    0.027636
  17 H :    0.033328
  18 H :    0.032919

  Mayer bond orders larger than 0.1
B(  0-C ,  1-C ) :   1.0862 B(  0-C ,  7-H ) :   0.9428 B(  0-C ,  8-H ) :   0.9370
B(  0-C ,  9-H ) :   0.9502 B(  1-C ,  2-C ) :   1.0884 B(  1-C ,  3-O ) :   0.9634
B(  1-C ,  4-C ) :   1.0007 B(  2-C , 10-H ) :   0.9414 B(  2-C , 11-H ) :   0.9502
B(  2-C , 12-H ) :   0.9359 B(  3-O ,  4-C ) :   0.9624 B(  4-C ,  5-C ) :   1.0930
B(  4-C ,  6-C ) :   1.0938 B(  5-C , 13-H ) :   0.9318 B(  5-C , 14-H ) :   0.9429
B(  5-C , 15-H ) :   0.9488 B(  6-C , 16-H ) :   0.9323 B(  6-C , 17-H ) :   0.9478
B(  6-C , 18-H ) :   0.9427

FINAL SINGLE POINT ENERGY      -310.423825956031

DIPOLE MOMENT
-------------
                                X             Y             Z
Electronic contribution:      0.94026      -3.03086      -1.32325
Nuclear contribution   :     -1.13716       3.64149       1.59236
                        -----------------------------------------
Total Dipole Moment    :     -0.19690       0.61063       0.26911
                        -----------------------------------------
Magnitude (a.u.)       :      0.69574
Magnitude (Debye)      :      1.76844

                             ****ORCA TERMINATED NORMALLY****
TOTAL RUN TIME: 0 days 0 hours 0 minutes 8 seconds 510 msec
