                         Program Version 3.0.3 - RELEASE   -
|  1> ! RI PBE def2-SVP def2-SVP/J NBO PAL2
|  2> % maxcore 2000
|  3> % output
|  4>     # printlevel mini
|  5>     print[ P_Basis ] 0
|  6>     print[ P_SCFInfo ] 1
|  7>     print[ P_SCFIterInfo ] 1
|  8>     print[ P_OrbEn ] 0
|  9>     print[ P_Cartesian ] 0
| 10> end
| 11> *xyz 0 1
| 12>  C        0.8229330000     0.0009800000     0.2401920000
| 13>  C        2.3087860000     0.1240500000    -0.0670980000
| 14>  C        3.0210500000     1.1410600000     0.8399990000
| 15>  O        3.5516650000     0.0979530000     1.6667420000
| 16>  C        3.1525210000    -0.9013920000     0.7241220000
| 17>  C        2.5411970000     0.1731000000    -1.5387870000
| 18>  C        3.0576940000     1.1791460000    -2.2300550000
| 19>  H        0.6616970000    -0.0939540000     1.3169760000
| 20>  H        0.3955720000    -0.8801490000    -0.2468000000
| 21>  H        0.2792740000     0.8794750000    -0.1160690000
| 22>  H        2.3765420000     1.8244080000     1.4013150000
| 23>  H        3.8216480000     1.7096370000     0.3547860000
| 24>  H        2.6041340000    -1.7225370000     1.1971430000
| 25>  H        4.0098430000    -1.3001460000     0.1694870000
| 26>  H        2.2217010000    -0.7196880000    -2.0766400000
| 27>  H        3.3849770000     2.0984670000    -1.7561520000
| 28>  H        3.1699650000     1.1206880000    -3.3062610000
| 29> *
| 30>
| 31>                          ****END OF INPUT****
 Total Charge           Charge          ....    0
 Multiplicity           Mult            ....    1
 Number of Electrons    NEL             ....   54
 Basis Dimension        Dim             ....  148

MULLIKEN ATOMIC CHARGES
-----------------------
   0 C :    0.084358
   1 C :   -0.449016
   2 C :    0.314767
   3 O :   -0.363999
   4 C :    0.308450
   5 C :    0.020331
   6 C :   -0.039818
   7 H :    0.025859
   8 H :    0.018841
   9 H :    0.027534
  10 H :    0.003572
  11 H :    0.000050
  12 H :    0.002311
  13 H :    0.000251
  14 H :    0.002609
  15 H :    0.014269
  16 H :    0.029631
Sum of atomic charges:    0.0000000

LOEWDIN ATOMIC CHARGES
----------------------
   0 C :   -0.042318
   1 C :   -0.082106
   2 C :    0.096488
   3 O :   -0.179731
   4 C :    0.099197
   5 C :   -0.022478
   6 C :   -0.063514
   7 H :    0.029614
   8 H :    0.027200
   9 H :    0.029832
  10 H :    0.009648
  11 H :    0.007607
  12 H :    0.008238
  13 H :    0.007847
  14 H :    0.027204
  15 H :    0.019768
  16 H :    0.027504

  Mayer bond orders larger than 0.1
B(  0-C ,  1-C ) :   1.0196 B(  0-C ,  7-H ) :   0.9490 B(  0-C ,  8-H ) :   0.9544
B(  0-C ,  9-H ) :   0.9572 B(  1-C ,  2-C ) :   1.0617 B(  1-C ,  4-C ) :   1.0369
B(  1-C ,  5-C ) :   0.9817 B(  2-C ,  3-O ) :   1.0296 B(  2-C , 10-H ) :   0.9293
B(  2-C , 11-H ) :   0.9180 B(  3-O ,  4-C ) :   1.0356 B(  4-C , 12-H ) :   0.9286
B(  4-C , 13-H ) :   0.9273 B(  5-C ,  6-C ) :   2.0264 B(  5-C , 14-H ) :   0.9474
B(  6-C , 15-H ) :   0.9372 B(  6-C , 16-H ) :   0.9410

FINAL SINGLE POINT ENERGY      -309.182794951830

DIPOLE MOMENT
-------------
                                X             Y             Z
Electronic contribution:      2.81829      -0.37212       2.26377
Nuclear contribution   :     -3.23133       0.33148      -2.76951
                        -----------------------------------------
Total Dipole Moment    :     -0.41304      -0.04064      -0.50574
                        -----------------------------------------
Magnitude (a.u.)       :      0.65424
Magnitude (Debye)      :      1.66294

                             ****ORCA TERMINATED NORMALLY****
TOTAL RUN TIME: 0 days 0 hours 0 minutes 7 seconds 705 msec
