                         Program Version 3.0.3 - RELEASE   -
|  1> ! RI PBE def2-SVP def2-SVP/J NBO PAL2
|  2> % maxcore 2000
|  3> % output
|  4>     # printlevel mini
|  5>     print[ P_Basis ] 0
|  6>     print[ P_SCFInfo ] 1
|  7>     print[ P_SCFIterInfo ] 1
|  8>     print[ P_OrbEn ] 0
|  9>     print[ P_Cartesian ] 0
| 10> end
| 11> *xyz 0 1
| 12>  C        0.8091210000     0.0253440000     0.1312690000
| 13>  C        2.3135340000     0.0254150000    -0.1001030000
| 14>  C        3.0647410000     1.0485660000     0.7841210000
| 15>  O        3.4725860000     0.0249430000     1.6956020000
| 16>  C        3.0647840000    -0.9981950000     0.7835560000
| 17>  C        2.6458000000     0.0258360000    -1.5098260000
| 18>  C        2.9225120000     0.0261070000    -2.6787430000
| 19>  H        0.5993210000     0.0250270000     1.2034050000
| 20>  H        0.3497610000    -0.8588370000    -0.3152690000
| 21>  H        0.3497890000     0.9098140000    -0.3147340000
| 22>  H        2.4434680000     1.8104410000     1.2640710000
| 23>  H        3.9191430000     1.5193350000     0.2873380000
| 24>  H        2.4435590000    -1.7603660000     1.2630870000
| 25>  H        3.9192070000    -1.4686120000     0.2864730000
| 26>  H        3.1697630000     0.0264800000    -3.7139570000
| 27> *
| 28>
| 29>                          ****END OF INPUT****
 Total Charge           Charge          ....    0
 Multiplicity           Mult            ....    1
 Number of Electrons    NEL             ....   52
 Basis Dimension        Dim             ....  138

MULLIKEN ATOMIC CHARGES
-----------------------
   0 C :    0.086572
   1 C :   -0.522582
   2 C :    0.335004
   3 O :   -0.361115
   4 C :    0.335010
   5 C :    0.528434
   6 C :   -0.527447
   7 H :    0.026879
   8 H :    0.033865
   9 H :    0.033860
  10 H :    0.010419
  11 H :    0.005604
  12 H :    0.010419
  13 H :    0.005599
  14 H :   -0.000520
Sum of atomic charges:   -0.0000000

LOEWDIN ATOMIC CHARGES
----------------------
   0 C :   -0.034876
   1 C :   -0.090669
   2 C :    0.108511
   3 O :   -0.177898
   4 C :    0.108513
   5 C :   -0.014823
   6 C :   -0.082543
   7 H :    0.030782
   8 H :    0.033331
   9 H :    0.033331
  10 H :    0.012246
  11 H :    0.013108
  12 H :    0.012245
  13 H :    0.013110
  14 H :    0.035631

  Mayer bond orders larger than 0.1
B(  0-C ,  1-C ) :   1.0146 B(  0-C ,  7-H ) :   0.9484 B(  0-C ,  8-H ) :   0.9576
B(  0-C ,  9-H ) :   0.9576 B(  1-C ,  2-C ) :   1.0338 B(  1-C ,  4-C ) :   1.0338
B(  1-C ,  5-C ) :   0.9110 B(  2-C ,  3-O ) :   1.0299 B(  2-C , 10-H ) :   0.9298
B(  2-C , 11-H ) :   0.9260 B(  3-O ,  4-C ) :   1.0299 B(  4-C , 12-H ) :   0.9299
B(  4-C , 13-H ) :   0.9260 B(  5-C ,  6-C ) :   2.2533 B(  5-C , 14-H ) :  -0.1212
B(  6-C , 14-H ) :   1.1109

FINAL SINGLE POINT ENERGY      -307.940573564269

DIPOLE MOMENT
-------------
                                X             Y             Z
Electronic contribution:      3.07074       0.00012      -0.66305
Nuclear contribution   :     -3.44548       0.00000       0.30220
                        -----------------------------------------
Total Dipole Moment    :     -0.37474       0.00012      -0.36085
                        -----------------------------------------
Magnitude (a.u.)       :      0.52024
Magnitude (Debye)      :      1.32234

                             ****ORCA TERMINATED NORMALLY****
TOTAL RUN TIME: 0 days 0 hours 0 minutes 6 seconds 823 msec
