                         Program Version 3.0.3 - RELEASE   -
|  1> ! RI PBE def2-SVP def2-SVP/J NBO PAL2
|  2> % maxcore 2000
|  3> % output
|  4>     # printlevel mini
|  5>     print[ P_Basis ] 0
|  6>     print[ P_SCFInfo ] 1
|  7>     print[ P_SCFIterInfo ] 1
|  8>     print[ P_OrbEn ] 0
|  9>     print[ P_Cartesian ] 0
| 10> end
| 11> *xyz 0 1
| 12>  C        0.9528450000     0.0970040000     0.0517600000
| 13>  C        2.4517820000     0.0124080000    -0.0160480000
| 14>  C        3.1352450000    -0.7492630000    -1.1094080000
| 15>  O        2.3116690000    -1.3491290000    -2.0596960000
| 16>  C        3.2738210000     0.7512130000    -1.0509100000
| 17>  C        2.5820120000     1.5864990000    -2.0947430000
| 18>  C        4.6029520000     1.2992670000    -0.6007730000
| 19>  H        0.5541440000    -0.7070190000     0.6756940000
| 20>  H        0.4955940000    -0.0024200000    -0.9319110000
| 21>  H        0.6308590000     1.0466290000     0.4877850000
| 22>  H        2.9315290000    -0.0688160000     0.9556530000
| 23>  H        4.0105320000    -1.3395520000    -0.8398770000
| 24>  H        2.7592510000    -1.3201910000    -2.9094230000
| 25>  H        1.6847600000     1.1042210000    -2.4813570000
| 26>  H        3.2521570000     1.7738640000    -2.9403060000
| 27>  H        2.2940750000     2.5599420000    -1.6864710000
| 28>  H        5.0838910000     0.6360440000     0.1226060000
| 29>  H        4.4828260000     2.2771880000    -0.1234350000
| 30>  H        5.2868440000     1.4243110000    -1.4467390000
| 31> *
| 32>
| 33>                          ****END OF INPUT****
 Total Charge           Charge          ....    0
 Multiplicity           Mult            ....    1
 Number of Electrons    NEL             ....   56
 Basis Dimension        Dim             ....  158

MULLIKEN ATOMIC CHARGES
-----------------------
   0 C :    0.096637
   1 C :   -0.135575
   2 C :    0.099930
   3 O :   -0.227245
   4 C :   -0.309038
   5 C :    0.109879
   6 C :    0.086259
   7 H :    0.021502
   8 H :    0.016171
   9 H :    0.014667
  10 H :    0.008435
  11 H :   -0.002640
  12 H :    0.161012
  13 H :    0.001111
  14 H :    0.008932
  15 H :    0.014500
  16 H :    0.008407
  17 H :    0.014986
  18 H :    0.012070
Sum of atomic charges:    0.0000000

LOEWDIN ATOMIC CHARGES
----------------------
   0 C :   -0.054354
   1 C :   -0.050214
   2 C :    0.033436
   3 O :   -0.090269
   4 C :   -0.083328
   5 C :   -0.049514
   6 C :   -0.048407
   7 H :    0.031867
   8 H :    0.027451
   9 H :    0.027250
  10 H :    0.024195
  11 H :    0.003391
  12 H :    0.075601
  13 H :    0.023543
  14 H :    0.024518
  15 H :    0.028967
  16 H :    0.024694
  17 H :    0.026833
  18 H :    0.024341

  Mayer bond orders larger than 0.1
B(  0-C ,  1-C ) :   1.1201 B(  0-C ,  7-H ) :   0.9538 B(  0-C ,  8-H ) :   0.9416
B(  0-C ,  9-H ) :   0.9576 B(  1-C ,  2-C ) :   0.9334 B(  1-C ,  4-C ) :   0.9117
B(  1-C , 10-H ) :   0.9280 B(  2-C ,  3-O ) :   1.1550 B(  2-C ,  4-C ) :   0.8899
B(  2-C , 11-H ) :   0.9448 B(  3-O , 12-H ) :   0.9781 B(  4-C ,  5-C ) :   1.1092
B(  4-C ,  6-C ) :   1.0912 B(  5-C , 13-H ) :   0.9323 B(  5-C , 14-H ) :   0.9527
B(  5-C , 15-H ) :   0.9526 B(  6-C , 16-H ) :   0.9432 B(  6-C , 17-H ) :   0.9522
B(  6-C , 18-H ) :   0.9533

FINAL SINGLE POINT ENERGY      -310.417150265567

DIPOLE MOMENT
-------------
                                X             Y             Z
Electronic contribution:     -0.10290      -4.25994      -1.27108
Nuclear contribution   :      0.49341       4.44776       1.02509
                        -----------------------------------------
Total Dipole Moment    :      0.39052       0.18782      -0.24599
                        -----------------------------------------
Magnitude (a.u.)       :      0.49829
Magnitude (Debye)      :      1.26655

                             ****ORCA TERMINATED NORMALLY****
TOTAL RUN TIME: 0 days 0 hours 0 minutes 8 seconds 220 msec
