                         Program Version 3.0.3 - RELEASE   -
|  1> ! RI PBE def2-SVP def2-SVP/J NBO PAL2
|  2> % maxcore 2000
|  3> % output
|  4>     # printlevel mini
|  5>     print[ P_Basis ] 0
|  6>     print[ P_SCFInfo ] 1
|  7>     print[ P_SCFIterInfo ] 1
|  8>     print[ P_OrbEn ] 0
|  9>     print[ P_Cartesian ] 0
| 10> end
| 11> *xyz 0 1
| 12>  C        1.3806100000    -0.2041710000     0.3778460000
| 13>  C        2.7699000000    -0.1178470000    -0.1868490000
| 14>  C        3.0481130000    -0.4994050000    -1.5934670000
| 15>  O        1.9837840000    -0.9703930000    -2.3493300000
| 16>  C        3.1065810000     0.9637070000    -1.1852890000
| 17>  C        4.3870280000     1.6897790000    -1.1873830000
| 18>  C        5.4674440000     1.4023540000    -0.4683270000
| 19>  H        1.1833800000    -1.2014080000     0.7794280000
| 20>  H        0.6320810000    -0.0056980000    -0.3898850000
| 21>  H        1.2471420000     0.5184030000     1.1866250000
| 22>  H        3.5617800000    -0.3573580000     0.5161960000
| 23>  H        4.0120120000    -0.9605000000    -1.8032770000
| 24>  H        2.1352220000    -0.7312520000    -3.2674920000
| 25>  H        2.2470210000     1.5326020000    -1.5270990000
| 26>  H        4.4411550000     2.5273120000    -1.8801890000
| 27>  H        5.4888150000     0.5901920000     0.2507460000
| 28>  H        6.3774310000     1.9801740000    -0.5740660000
| 29> *
| 30>
| 31>                          ****END OF INPUT****
 Total Charge           Charge          ....    0
 Multiplicity           Mult            ....    1
 Number of Electrons    NEL             ....   54
 Basis Dimension        Dim             ....  148

MULLIKEN ATOMIC CHARGES
-----------------------
   0 C :    0.077991
   1 C :   -0.138192
   2 C :    0.093418
   3 O :   -0.222520
   4 C :   -0.060508
   5 C :    0.019682
   6 C :   -0.070345
   7 H :    0.023633
   8 H :    0.017150
   9 H :    0.024504
  10 H :    0.025386
  11 H :    0.007703
  12 H :    0.163856
  13 H :    0.007166
  14 H :   -0.004517
  15 H :    0.014567
  16 H :    0.021026
Sum of atomic charges:    0.0000000

LOEWDIN ATOMIC CHARGES
----------------------
   0 C :   -0.052003
   1 C :   -0.040259
   2 C :    0.048166
   3 O :   -0.086883
   4 C :   -0.063980
   5 C :   -0.026806
   6 C :   -0.084070
   7 H :    0.031654
   8 H :    0.028781
   9 H :    0.030685
  10 H :    0.028613
  11 H :    0.008791
  12 H :    0.078254
  13 H :    0.029256
  14 H :    0.028267
  15 H :    0.017271
  16 H :    0.024263

  Mayer bond orders larger than 0.1
B(  0-C ,  1-C ) :   1.1128 B(  0-C ,  7-H ) :   0.9575 B(  0-C ,  8-H ) :   0.9446
B(  0-C ,  9-H ) :   0.9594 B(  1-C ,  2-C ) :   0.9614 B(  1-C ,  4-C ) :   0.9189
B(  1-C , 10-H ) :   0.9224 B(  2-C ,  3-O ) :   1.1547 B(  2-C ,  4-C ) :   0.8834
B(  2-C , 11-H ) :   0.9402 B(  3-O , 12-H ) :   0.9790 B(  4-C ,  5-C ) :   1.0734
B(  4-C , 13-H ) :   0.9293 B(  5-C ,  6-C ) :   1.9639 B(  5-C , 14-H ) :   0.9588
B(  6-C , 15-H ) :   0.9424 B(  6-C , 16-H ) :   0.9418

FINAL SINGLE POINT ENERGY      -309.193217707921

DIPOLE MOMENT
-------------
                                X             Y             Z
Electronic contribution:     -0.10208      -0.90801      -3.18500
Nuclear contribution   :      0.17414       1.02881       2.79690
                        -----------------------------------------
Total Dipole Moment    :      0.07207       0.12080      -0.38810
                        -----------------------------------------
Magnitude (a.u.)       :      0.41281
Magnitude (Debye)      :      1.04928

                             ****ORCA TERMINATED NORMALLY****
TOTAL RUN TIME: 0 days 0 hours 0 minutes 7 seconds 269 msec
