                         Program Version 3.0.3 - RELEASE   -
|  1> ! RI PBE def2-SVP def2-SVP/J NBO PAL2
|  2> % maxcore 2000
|  3> % output
|  4>     # printlevel mini
|  5>     print[ P_Basis ] 0
|  6>     print[ P_SCFInfo ] 1
|  7>     print[ P_SCFIterInfo ] 1
|  8>     print[ P_OrbEn ] 0
|  9>     print[ P_Cartesian ] 0
| 10> end
| 11> *xyz 0 1
| 12>  C        0.9352760000     0.0573480000    -0.0052660000
| 13>  C        2.4318920000    -0.0225960000    -0.0794030000
| 14>  C        3.1112330000    -0.7584370000    -1.1742490000
| 15>  O        2.3061020000    -1.3831960000    -2.1142920000
| 16>  C        3.1746590000     0.7573960000    -1.1537240000
| 17>  C        4.4003530000     1.4286670000    -0.8631310000
| 18>  C        5.4396260000     1.9789820000    -0.6112220000
| 19>  H        0.5304070000    -0.7966080000     0.5435680000
| 20>  H        0.4912490000     0.0491880000    -1.0010220000
| 21>  H        0.6216010000     0.9689380000     0.5086200000
| 22>  H        2.9453120000    -0.0588540000     0.8755560000
| 23>  H        4.0351970000    -1.2772890000    -0.9298280000
| 24>  H        2.7707660000    -1.3899380000    -2.9555430000
| 25>  H        2.5312730000     1.2376560000    -1.8850830000
| 26>  H        6.3560330000     2.4714540000    -0.3884820000
| 27> *
| 28>
| 29>                          ****END OF INPUT****
 Total Charge           Charge          ....    0
 Multiplicity           Mult            ....    1
 Number of Electrons    NEL             ....   52
 Basis Dimension        Dim             ....  138

MULLIKEN ATOMIC CHARGES
-----------------------
   0 C :    0.078578
   1 C :   -0.123059
   2 C :    0.106683
   3 O :   -0.221715
   4 C :   -0.156076
   5 C :    0.461811
   6 C :   -0.480512
   7 H :    0.031163
   8 H :    0.019184
   9 H :    0.026969
  10 H :    0.030876
  11 H :    0.018541
  12 H :    0.166175
  13 H :    0.045049
  14 H :   -0.003666
Sum of atomic charges:   -0.0000000

LOEWDIN ATOMIC CHARGES
----------------------
   0 C :   -0.051614
   1 C :   -0.028927
   2 C :    0.052535
   3 O :   -0.084525
   4 C :   -0.072586
   5 C :   -0.020597
   6 C :   -0.098957
   7 H :    0.034809
   8 H :    0.029549
   9 H :    0.032499
  10 H :    0.034718
  11 H :    0.014929
  12 H :    0.080723
  13 H :    0.044793
  14 H :    0.032651

  Mayer bond orders larger than 0.1
B(  0-C ,  1-C ) :   1.1027 B(  0-C ,  7-H ) :   0.9581 B(  0-C ,  8-H ) :   0.9455
B(  0-C ,  9-H ) :   0.9593 B(  1-C ,  2-C ) :   0.9412 B(  1-C ,  4-C ) :   0.9028
B(  1-C , 10-H ) :   0.9326 B(  2-C ,  3-O ) :   1.1524 B(  2-C ,  4-C ) :   0.8956
B(  2-C , 11-H ) :   0.9452 B(  3-O , 12-H ) :   0.9774 B(  4-C ,  5-C ) :   1.0121
B(  4-C , 13-H ) :   0.9183 B(  5-C ,  6-C ) :   2.2568 B(  5-C , 14-H ) :  -0.1063
B(  6-C , 14-H ) :   1.0966

FINAL SINGLE POINT ENERGY      -307.951547258906

DIPOLE MOMENT
-------------
                                X             Y             Z
Electronic contribution:      3.80158       0.32963      -2.00842
Nuclear contribution   :     -3.73976      -0.48773       1.77116
                        -----------------------------------------
Total Dipole Moment    :      0.06182      -0.15810      -0.23726
                        -----------------------------------------
Magnitude (a.u.)       :      0.29174
Magnitude (Debye)      :      0.74153

                             ****ORCA TERMINATED NORMALLY****
TOTAL RUN TIME: 0 days 0 hours 0 minutes 6 seconds 730 msec
