                         Program Version 3.0.3 - RELEASE   -
|  1> ! RI PBE def2-SVP def2-SVP/J NBO PAL2
|  2> % maxcore 2000
|  3> % output
|  4>     # printlevel mini
|  5>     print[ P_Basis ] 0
|  6>     print[ P_SCFInfo ] 1
|  7>     print[ P_SCFIterInfo ] 1
|  8>     print[ P_OrbEn ] 0
|  9>     print[ P_Cartesian ] 0
| 10> end
| 11> *xyz 0 1
| 12>  C        0.9658380000     0.0607160000     0.0570630000
| 13>  C        2.4702790000    -0.0588520000     0.0366070000
| 14>  C        3.3067200000     0.9332870000     0.8441370000
| 15>  O        4.0912160000    -0.1165260000     1.4180210000
| 16>  C        3.1988580000    -1.1318330000     0.8892160000
| 17>  C        2.3917480000    -1.7510390000     2.0108150000
| 18>  C        3.9687760000    -2.1745580000     0.1147610000
| 19>  H        0.6451500000     0.9532440000    -0.4872710000
| 20>  H        0.5770900000     0.1388340000     1.0748250000
| 21>  H        0.4890970000    -0.7997350000    -0.4201860000
| 22>  H        2.8230720000    -0.1150540000    -0.9966840000
| 23>  H        2.7351990000     1.4773290000     1.6081820000
| 24>  H        3.9188440000     1.6470140000     0.2849600000
| 25>  H        1.8839980000    -0.9891590000     2.6044780000
| 26>  H        3.0588870000    -2.3046960000     2.6757690000
| 27>  H        1.6416020000    -2.4454220000     1.6230540000
| 28>  H        4.5782400000    -1.7043730000    -0.6592020000
| 29>  H        3.2849670000    -2.8838120000    -0.3601690000
| 30>  H        4.6311090000    -2.7334550000     0.7809240000
| 31> *
| 32>
| 33>                          ****END OF INPUT****
 Total Charge           Charge          ....    0
 Multiplicity           Mult            ....    1
 Number of Electrons    NEL             ....   56
 Basis Dimension        Dim             ....  158

MULLIKEN ATOMIC CHARGES
-----------------------
   0 C :    0.078740
   1 C :   -0.186205
   2 C :    0.257958
   3 O :   -0.344534
   4 C :   -0.141574
   5 C :    0.099877
   6 C :    0.088699
   7 H :    0.022840
   8 H :    0.009506
   9 H :    0.022594
  10 H :   -0.000829
  11 H :   -0.006813
  12 H :    0.006744
  13 H :    0.007475
  14 H :    0.024314
  15 H :    0.013842
  16 H :    0.009386
  17 H :    0.015293
  18 H :    0.022688
Sum of atomic charges:   -0.0000000

LOEWDIN ATOMIC CHARGES
----------------------
   0 C :   -0.062580
   1 C :   -0.052098
   2 C :    0.085600
   3 O :   -0.178721
   4 C :    0.035968
   5 C :   -0.063150
   6 C :   -0.062516
   7 H :    0.031320
   8 H :    0.024150
   9 H :    0.029621
  10 H :    0.025568
  11 H :    0.002999
  12 H :    0.009394
  13 H :    0.026339
  14 H :    0.032784
  15 H :    0.028602
  16 H :    0.025119
  17 H :    0.030181
  18 H :    0.031420

  Mayer bond orders larger than 0.1
B(  0-C ,  1-C ) :   1.1096 B(  0-C ,  7-H ) :   0.9512 B(  0-C ,  8-H ) :   0.9402
B(  0-C ,  9-H ) :   0.9550 B(  1-C ,  2-C ) :   1.0811 B(  1-C ,  4-C ) :   1.0186
B(  1-C , 10-H ) :   0.9009 B(  2-C ,  3-O ) :   1.0363 B(  2-C , 11-H ) :   0.9274
B(  2-C , 12-H ) :   0.9337 B(  3-O ,  4-C ) :   1.0234 B(  4-C ,  5-C ) :   1.0740
B(  4-C ,  6-C ) :   1.0678 B(  5-C , 13-H ) :   0.9364 B(  5-C , 14-H ) :   0.9469
B(  5-C , 15-H ) :   0.9405 B(  6-C , 16-H ) :   0.9413 B(  6-C , 17-H ) :   0.9516
B(  6-C , 18-H ) :   0.9492

FINAL SINGLE POINT ENERGY      -310.419530263998

DIPOLE MOMENT
-------------
                                X             Y             Z
Electronic contribution:      3.81269       2.18683       1.11380
Nuclear contribution   :     -4.38164      -2.26811      -1.50150
                        -----------------------------------------
Total Dipole Moment    :     -0.56895      -0.08128      -0.38770
                        -----------------------------------------
Magnitude (a.u.)       :      0.69327
Magnitude (Debye)      :      1.76215

                             ****ORCA TERMINATED NORMALLY****
TOTAL RUN TIME: 0 days 0 hours 0 minutes 8 seconds 540 msec
