                         Program Version 3.0.3 - RELEASE   -
|  1> ! RI PBE def2-SVP def2-SVP/J NBO PAL2
|  2> % maxcore 2000
|  3> % output
|  4>     # printlevel mini
|  5>     print[ P_Basis ] 0
|  6>     print[ P_SCFInfo ] 1
|  7>     print[ P_SCFIterInfo ] 1
|  8>     print[ P_OrbEn ] 0
|  9>     print[ P_Cartesian ] 0
| 10> end
| 11> *xyz 0 1
| 12>  C        0.9340510000    -0.0383530000     0.2708170000
| 13>  C        2.4342900000     0.0224680000     0.1353970000
| 14>  C        3.2118090000     1.1302780000     0.8499360000
| 15>  O        4.1274870000     0.1809890000     1.4127180000
| 16>  C        3.2915170000    -0.9206550000     1.0061630000
| 17>  C        4.0386780000    -2.0140610000     0.3398440000
| 18>  C        3.9086540000    -3.2965000000     0.6499190000
| 19>  H        0.4527920000     0.7724440000    -0.2826470000
| 20>  H        0.6306300000     0.0450000000     1.3181060000
| 21>  H        0.5419650000    -0.9814510000    -0.1190840000
| 22>  H        2.7315620000    -0.0544080000    -0.9138020000
| 23>  H        2.6341630000     1.6441340000     1.6295800000
| 24>  H        3.7200360000     1.8742200000     0.2303410000
| 25>  H        2.7273770000    -1.3164360000     1.8631010000
| 26>  H        4.7105570000    -1.7052260000    -0.4584640000
| 27>  H        3.2539430000    -3.6172470000     1.4545710000
| 28>  H        4.4463990000    -4.0709050000     0.1154060000
| 29> *
| 30>
| 31>                          ****END OF INPUT****
 Total Charge           Charge          ....    0
 Multiplicity           Mult            ....    1
 Number of Electrons    NEL             ....   54
 Basis Dimension        Dim             ....  148

MULLIKEN ATOMIC CHARGES
-----------------------
   0 C :    0.063415
   1 C :   -0.209399
   2 C :    0.256949
   3 O :   -0.347177
   4 C :    0.146581
   5 C :    0.000247
   6 C :   -0.018570
   7 H :    0.027219
   8 H :    0.014223
   9 H :    0.026424
  10 H :    0.008779
  11 H :   -0.005060
  12 H :    0.011980
  13 H :   -0.021576
  14 H :   -0.003163
  15 H :    0.022994
  16 H :    0.026135
Sum of atomic charges:   -0.0000000

LOEWDIN ATOMIC CHARGES
----------------------
   0 C :   -0.060876
   1 C :   -0.051060
   2 C :    0.086360
   3 O :   -0.176529
   4 C :    0.068948
   5 C :   -0.040926
   6 C :   -0.044395
   7 H :    0.031178
   8 H :    0.024454
   9 H :    0.031662
  10 H :    0.027286
  11 H :    0.005400
  12 H :    0.010172
  13 H :    0.010384
  14 H :    0.027238
  15 H :    0.023706
  16 H :    0.026999

  Mayer bond orders larger than 0.1
B(  0-C ,  1-C ) :   1.0826 B(  0-C ,  7-H ) :   0.9564 B(  0-C ,  8-H ) :   0.9528
B(  0-C ,  9-H ) :   0.9570 B(  1-C ,  2-C ) :   1.0755 B(  1-C ,  4-C ) :   1.0319
B(  1-C , 10-H ) :   0.9025 B(  2-C ,  3-O ) :   1.0278 B(  2-C , 11-H ) :   0.9274
B(  2-C , 12-H ) :   0.9378 B(  3-O ,  4-C ) :   1.0252 B(  4-C ,  5-C ) :   1.0513
B(  4-C , 13-H ) :   0.9083 B(  5-C ,  6-C ) :   1.9743 B(  5-C , 14-H ) :   0.9427
B(  6-C , 15-H ) :   0.9489 B(  6-C , 16-H ) :   0.9360

FINAL SINGLE POINT ENERGY      -309.189391598788

DIPOLE MOMENT
-------------
                                X             Y             Z
Electronic contribution:      4.38521       0.57104       1.38990
Nuclear contribution   :     -4.99564      -0.62712      -1.81155
                        -----------------------------------------
Total Dipole Moment    :     -0.61044      -0.05608      -0.42165
                        -----------------------------------------
Magnitude (a.u.)       :      0.74402
Magnitude (Debye)      :      1.89115

                             ****ORCA TERMINATED NORMALLY****
TOTAL RUN TIME: 0 days 0 hours 0 minutes 7 seconds 534 msec
