                         Program Version 3.0.3 - RELEASE   -
|  1> ! RI PBE def2-SVP def2-SVP/J NBO PAL2
|  2> % maxcore 2000
|  3> % output
|  4>     # printlevel mini
|  5>     print[ P_Basis ] 0
|  6>     print[ P_SCFInfo ] 1
|  7>     print[ P_SCFIterInfo ] 1
|  8>     print[ P_OrbEn ] 0
|  9>     print[ P_Cartesian ] 0
| 10> end
| 11> *xyz 0 1
| 12>  C        0.8163410000     0.0135850000     0.1338770000
| 13>  C        2.3209350000    -0.0581510000     0.0835790000
| 14>  C        3.1466870000     0.9294470000     0.9131350000
| 15>  O        3.9194270000    -0.1316430000     1.4949030000
| 16>  C        3.0315470000    -1.1226890000     0.9493550000
| 17>  C        3.7025680000    -2.2187150000     0.2805530000
| 18>  C        4.2362520000    -3.1316980000    -0.2878570000
| 19>  H        0.4497340000     0.9029080000    -0.3852010000
| 20>  H        0.4574900000     0.0565220000     1.1659290000
| 21>  H        0.3639900000    -0.8581800000    -0.3456830000
| 22>  H        2.6776430000    -0.1096720000    -0.9463530000
| 23>  H        2.5650990000     1.4657670000     1.6733710000
| 24>  H        3.7744880000     1.6394720000     0.3690080000
| 25>  H        2.3748680000    -1.5248020000     1.7339170000
| 26>  H        4.7186330000    -3.9386510000    -0.7870430000
| 27> *
| 28>
| 29>                          ****END OF INPUT****
 Total Charge           Charge          ....    0
 Multiplicity           Mult            ....    1
 Number of Electrons    NEL             ....   52
 Basis Dimension        Dim             ....  138

MULLIKEN ATOMIC CHARGES
-----------------------
   0 C :    0.057748
   1 C :   -0.218317
   2 C :    0.263005
   3 O :   -0.335357
   4 C :    0.145764
   5 C :    0.425628
   6 C :   -0.480209
   7 H :    0.029891
   8 H :    0.017076
   9 H :    0.034029
  10 H :    0.022488
  11 H :   -0.000469
  12 H :    0.016041
  13 H :    0.016645
  14 H :    0.006036
Sum of atomic charges:   -0.0000000

LOEWDIN ATOMIC CHARGES
----------------------
   0 C :   -0.060412
   1 C :   -0.042342
   2 C :    0.089141
   3 O :   -0.167135
   4 C :    0.060330
   5 C :   -0.029256
   6 C :   -0.062035
   7 H :    0.032982
   8 H :    0.025404
   9 H :    0.034071
  10 H :    0.033304
  11 H :    0.007587
  12 H :    0.013409
  13 H :    0.028197
  14 H :    0.036754

  Mayer bond orders larger than 0.1
B(  0-C ,  1-C ) :   1.0759 B(  0-C ,  7-H ) :   0.9559 B(  0-C ,  8-H ) :   0.9531
B(  0-C ,  9-H ) :   0.9582 B(  1-C ,  2-C ) :   1.0749 B(  1-C ,  4-C ) :   1.0447
B(  1-C , 10-H ) :   0.9088 B(  2-C ,  3-O ) :   1.0202 B(  2-C , 11-H ) :   0.9294
B(  2-C , 12-H ) :   0.9378 B(  3-O ,  4-C ) :   1.0871 B(  4-C ,  5-C ) :   0.9592
B(  4-C , 13-H ) :   0.8794 B(  5-C ,  6-C ) :   2.3206 B(  5-C , 14-H ) :  -0.1034
B(  6-C , 14-H ) :   1.0929

FINAL SINGLE POINT ENERGY      -307.942168790591

DIPOLE MOMENT
-------------
                                X             Y             Z
Electronic contribution:      5.45321      -3.22694       1.22337
Nuclear contribution   :     -6.12354       3.37995      -1.66708
                        -----------------------------------------
Total Dipole Moment    :     -0.67034       0.15301      -0.44370
                        -----------------------------------------
Magnitude (a.u.)       :      0.81831
Magnitude (Debye)      :      2.07999

                             ****ORCA TERMINATED NORMALLY****
TOTAL RUN TIME: 0 days 0 hours 0 minutes 6 seconds 756 msec
