                         Program Version 3.0.3 - RELEASE   -
|  1> ! RI PBE def2-SVP def2-SVP/J NBO PAL2
|  2> % maxcore 2000
|  3> % output
|  4>     # printlevel mini
|  5>     print[ P_Basis ] 0
|  6>     print[ P_SCFInfo ] 1
|  7>     print[ P_SCFIterInfo ] 1
|  8>     print[ P_OrbEn ] 0
|  9>     print[ P_Cartesian ] 0
| 10> end
| 11> *xyz 0 1
| 12>  C        0.8326830000     0.0451820000     0.2328230000
| 13>  C        2.3323830000    -0.0815910000     0.1242000000
| 14>  C        3.2013280000     0.9275830000     0.8848810000
| 15>  O        3.9168730000    -0.1201450000     1.5578350000
| 16>  C        3.0450010000    -1.1168710000     1.0064900000
| 17>  C        3.8131350000    -2.2289710000     0.3321750000
| 18>  O        2.9494790000    -3.1789280000    -0.2546660000
| 19>  H        0.4706560000     0.9274670000    -0.3019530000
| 20>  H        0.5208120000     0.1371550000     1.2772000000
| 21>  H        0.3344760000    -0.8287760000    -0.1939800000
| 22>  H        2.6332810000    -0.1845690000    -0.9213180000
| 23>  H        2.6445390000     1.5525000000     1.5937100000
| 24>  H        3.8682340000     1.5615780000     0.2936030000
| 25>  H        2.3879560000    -1.5393810000     1.7844860000
| 26>  H        4.4999710000    -2.6881090000     1.0561570000
| 27>  H        4.4190100000    -1.8153630000    -0.4776770000
| 28>  H        2.4905130000    -3.6481610000     0.4467350000
| 29> *
| 30>
| 31>                          ****END OF INPUT****
 Total Charge           Charge          ....    0
 Multiplicity           Mult            ....    1
 Number of Electrons    NEL             ....   56
 Basis Dimension        Dim             ....  148

MULLIKEN ATOMIC CHARGES
-----------------------
   0 C :    0.060383
   1 C :   -0.219665
   2 C :    0.258916
   3 O :   -0.353348
   4 C :    0.069459
   5 C :    0.244504
   6 O :   -0.287678
   7 H :    0.023901
   8 H :    0.013048
   9 H :    0.027925
  10 H :    0.012779
  11 H :   -0.001916
  12 H :    0.012307
  13 H :   -0.022181
  14 H :    0.010046
  15 H :   -0.003048
  16 H :    0.154567
Sum of atomic charges:    0.0000000

LOEWDIN ATOMIC CHARGES
----------------------
   0 C :   -0.060430
   1 C :   -0.055843
   2 C :    0.090002
   3 O :   -0.177144
   4 C :    0.045592
   5 C :    0.046868
   6 O :   -0.117710
   7 H :    0.029956
   8 H :    0.023397
   9 H :    0.030816
  10 H :    0.028372
  11 H :    0.006617
  12 H :    0.010429
  13 H :    0.000303
  14 H :    0.009914
  15 H :    0.019547
  16 H :    0.069315

  Mayer bond orders larger than 0.1
B(  0-C ,  1-C ) :   1.0781 B(  0-C ,  7-H ) :   0.9556 B(  0-C ,  8-H ) :   0.9537
B(  0-C ,  9-H ) :   0.9580 B(  1-C ,  2-C ) :   1.0806 B(  1-C ,  4-C ) :   1.0387
B(  1-C , 10-H ) :   0.9061 B(  2-C ,  3-O ) :   1.0263 B(  2-C , 11-H ) :   0.9301
B(  2-C , 12-H ) :   0.9363 B(  3-O ,  4-C ) :   1.0416 B(  4-C ,  5-C ) :   1.0221
B(  4-C , 13-H ) :   0.8998 B(  5-C ,  6-O ) :   1.0533 B(  5-C , 14-H ) :   0.9330
B(  5-C , 15-H ) :   0.9156 B(  6-O , 16-H ) :   0.9849

FINAL SINGLE POINT ENERGY      -346.266819040500

DIPOLE MOMENT
-------------
                                X             Y             Z
Electronic contribution:      3.60950      -1.99537       0.98991
Nuclear contribution   :     -4.14334       2.01566      -0.90614
                        -----------------------------------------
Total Dipole Moment    :     -0.53385       0.02029       0.08377
                        -----------------------------------------
Magnitude (a.u.)       :      0.54076
Magnitude (Debye)      :      1.37450

                             ****ORCA TERMINATED NORMALLY****
TOTAL RUN TIME: 0 days 0 hours 0 minutes 7 seconds 569 msec
