                         Program Version 3.0.3 - RELEASE   -
|  1> ! RI PBE def2-SVP def2-SVP/J NBO PAL2
|  2> % maxcore 2000
|  3> % output
|  4>     # printlevel mini
|  5>     print[ P_Basis ] 0
|  6>     print[ P_SCFInfo ] 1
|  7>     print[ P_SCFIterInfo ] 1
|  8>     print[ P_OrbEn ] 0
|  9>     print[ P_Cartesian ] 0
| 10> end
| 11> *xyz 0 1
| 12>  C        1.3960630000     1.1683810000     0.7326260000
| 13>  C        2.6043450000     0.2849570000     0.6157990000
| 14>  C        2.3922780000    -1.1373620000     1.0538560000
| 15>  O        3.8384510000     0.8581240000     1.0637610000
| 16>  C        3.6982800000     0.5682310000    -0.3180850000
| 17>  C        3.7527040000     1.7353620000    -1.2559990000
| 18>  O        3.2834630000     1.2907680000    -2.5127820000
| 19>  H        0.5912400000     0.7980840000     0.0928430000
| 20>  H        1.6135880000     2.1989850000     0.4569080000
| 21>  H        1.0342630000     1.1657960000     1.7644560000
| 22>  H        1.6236680000    -1.6176820000     0.4430390000
| 23>  H        2.0642330000    -1.1692590000     2.0964860000
| 24>  H        3.3159710000    -1.7108450000     0.9670020000
| 25>  H        4.2825050000    -0.2861620000    -0.6631620000
| 26>  H        4.7947340000     2.0791300000    -1.3178250000
| 27>  H        3.1535900000     2.5658980000    -0.8666810000
| 28>  H        3.4637260000     1.9705030000    -3.1652430000
| 29> *
| 30>
| 31>                          ****END OF INPUT****
 Total Charge           Charge          ....    0
 Multiplicity           Mult            ....    1
 Number of Electrons    NEL             ....   56
 Basis Dimension        Dim             ....  148

MULLIKEN ATOMIC CHARGES
-----------------------
   0 C :    0.108867
   1 C :   -0.174790
   2 C :    0.085457
   3 O :   -0.285643
   4 C :    0.027495
   5 C :    0.260266
   6 O :   -0.284551
   7 H :    0.028087
   8 H :    0.005898
   9 H :    0.020909
  10 H :    0.029452
  11 H :    0.019742
  12 H :    0.017357
  13 H :    0.004826
  14 H :    0.000772
  15 H :   -0.022209
  16 H :    0.158064
Sum of atomic charges:   -0.0000000

LOEWDIN ATOMIC CHARGES
----------------------
   0 C :   -0.058080
   1 C :    0.013226
   2 C :   -0.057991
   3 O :   -0.154345
   4 C :    0.034593
   5 C :    0.051142
   6 O :   -0.126817
   7 H :    0.036800
   8 H :    0.027826
   9 H :    0.033178
  10 H :    0.035094
  11 H :    0.031636
  12 H :    0.032905
  13 H :    0.013287
  14 H :    0.011584
  15 H :    0.004150
  16 H :    0.071813

  Mayer bond orders larger than 0.1
B(  0-C ,  1-C ) :   1.0949 B(  0-C ,  7-H ) :   0.9483 B(  0-C ,  8-H ) :   0.9311
B(  0-C ,  9-H ) :   0.9444 B(  1-C ,  2-C ) :   1.0776 B(  1-C ,  3-O ) :   0.9510
B(  1-C ,  4-C ) :   1.0352 B(  2-C , 10-H ) :   0.9539 B(  2-C , 11-H ) :   0.9462
B(  2-C , 12-H ) :   0.9389 B(  3-O ,  4-C ) :   0.9900 B(  4-C ,  5-C ) :   1.0497
B(  4-C , 13-H ) :   0.9176 B(  5-C ,  6-O ) :   1.0943 B(  5-C , 14-H ) :   0.9091
B(  5-C , 15-H ) :   0.9059 B(  6-O , 16-H ) :   0.9788

FINAL SINGLE POINT ENERGY      -346.270775389103

DIPOLE MOMENT
-------------
                                X             Y             Z
Electronic contribution:      3.55410       1.24396      -1.51789
Nuclear contribution   :     -3.79158      -0.96853       1.03574
                        -----------------------------------------
Total Dipole Moment    :     -0.23748       0.27543      -0.48215
                        -----------------------------------------
Magnitude (a.u.)       :      0.60392
Magnitude (Debye)      :      1.53505

                             ****ORCA TERMINATED NORMALLY****
TOTAL RUN TIME: 0 days 0 hours 0 minutes 7 seconds 510 msec
