                         Program Version 3.0.3 - RELEASE   -
|  1> ! RI PBE def2-SVP def2-SVP/J NBO PAL2
|  2> % maxcore 2000
|  3> % output
|  4>     # printlevel mini
|  5>     print[ P_Basis ] 0
|  6>     print[ P_SCFInfo ] 1
|  7>     print[ P_SCFIterInfo ] 1
|  8>     print[ P_OrbEn ] 0
|  9>     print[ P_Cartesian ] 0
| 10> end
| 11> *xyz 0 1
| 12>  C        0.9219150000     0.2045020000     0.0928820000
| 13>  C        2.4227940000     0.0955860000     0.0112810000
| 14>  C        3.2781630000     1.0313790000     0.8952220000
| 15>  O        4.0009840000    -0.0642680000     1.4607850000
| 16>  C        3.1270940000    -1.0062550000     0.8349480000
| 17>  C        2.9342130000     0.0996560000    -1.4019210000
| 18>  O        2.2487380000     0.1797700000    -2.3827220000
| 19>  H        0.5908050000     0.1981390000     1.1332480000
| 20>  H        0.4431380000    -0.6252930000    -0.4308770000
| 21>  H        0.5730270000     1.1253170000    -0.3788060000
| 22>  H        2.6865290000     1.5696450000     1.6443530000
| 23>  H        3.9381810000     1.7367110000     0.3795840000
| 24>  H        2.4593440000    -1.4945640000     1.5537250000
| 25>  H        3.6782120000    -1.7696490000     0.2759230000
| 26>  H        4.0419620000     0.0199150000    -1.4850140000
| 27> *
| 28>
| 29>                          ****END OF INPUT****
 Total Charge           Charge          ....    0
 Multiplicity           Mult            ....    1
 Number of Electrons    NEL             ....   54
 Basis Dimension        Dim             ....  138

MULLIKEN ATOMIC CHARGES
-----------------------
   0 C :    0.098042
   1 C :   -0.504488
   2 C :    0.299023
   3 O :   -0.354497
   4 C :    0.300451
   5 C :    0.165840
   6 O :   -0.138674
   7 H :    0.015945
   8 H :    0.036204
   9 H :    0.034061
  10 H :    0.010313
  11 H :    0.017514
  12 H :    0.010006
  13 H :    0.015655
  14 H :   -0.005396
Sum of atomic charges:    0.0000000

LOEWDIN ATOMIC CHARGES
----------------------
   0 C :   -0.050157
   1 C :   -0.123734
   2 C :    0.104782
   3 O :   -0.176093
   4 C :    0.104871
   5 C :    0.094630
   6 O :   -0.097481
   7 H :    0.027182
   8 H :    0.036651
   9 H :    0.036336
  10 H :    0.013622
  11 H :    0.011779
  12 H :    0.013582
  13 H :    0.011454
  14 H :   -0.007424

  Mayer bond orders larger than 0.1
B(  0-C ,  1-C ) :   1.0604 B(  0-C ,  7-H ) :   0.9464 B(  0-C ,  8-H ) :   0.9529
B(  0-C ,  9-H ) :   0.9525 B(  1-C ,  2-C ) :   1.0147 B(  1-C ,  4-C ) :   1.0147
B(  1-C ,  5-C ) :   0.8827 B(  2-C ,  3-O ) :   1.0408 B(  2-C , 10-H ) :   0.9228
B(  2-C , 11-H ) :   0.9327 B(  3-O ,  4-C ) :   1.0402 B(  4-C , 12-H ) :   0.9227
B(  4-C , 13-H ) :   0.9319 B(  5-C ,  6-O ) :   2.2155 B(  5-C , 14-H ) :   0.9304

FINAL SINGLE POINT ENERGY      -345.067464210938

DIPOLE MOMENT
-------------
                                X             Y             Z
Electronic contribution:      2.80549      -0.13154      -2.56713
Nuclear contribution   :     -3.02286       0.13411       3.02706
                        -----------------------------------------
Total Dipole Moment    :     -0.21737       0.00257       0.45993
                        -----------------------------------------
Magnitude (a.u.)       :      0.50872
Magnitude (Debye)      :      1.29306

                             ****ORCA TERMINATED NORMALLY****
TOTAL RUN TIME: 0 days 0 hours 0 minutes 7 seconds 7 msec
