                         Program Version 3.0.3 - RELEASE   -
|  1> ! RI PBE def2-SVP def2-SVP/J NBO PAL2
|  2> % maxcore 2000
|  3> % output
|  4>     # printlevel mini
|  5>     print[ P_Basis ] 0
|  6>     print[ P_SCFInfo ] 1
|  7>     print[ P_SCFIterInfo ] 1
|  8>     print[ P_OrbEn ] 0
|  9>     print[ P_Cartesian ] 0
| 10> end
| 11> *xyz 0 1
| 12>  C        0.9207550000     0.3226550000    -0.0912970000
| 13>  C        2.4187200000     0.2171620000    -0.0961060000
| 14>  C        3.1177730000    -0.7170250000    -1.0247740000
| 15>  O        2.3242920000    -1.4888960000    -1.8682840000
| 16>  C        3.2246330000     0.7666780000    -1.2445910000
| 17>  C        4.5170140000     1.4844140000    -0.9961620000
| 18>  O        4.3549540000     2.7729890000    -0.4343250000
| 19>  H        0.4769240000    -0.4233210000     0.5729060000
| 20>  H        0.5129820000     0.1570210000    -1.0890810000
| 21>  H        0.6048800000     1.3106580000     0.2530760000
| 22>  H        2.8879520000     0.3278040000     0.8772240000
| 23>  H        4.0026190000    -1.2260660000    -0.6449100000
| 24>  H        2.7887710000    -1.6015300000    -2.7015730000
| 25>  H        2.6311140000     1.1325950000    -2.0804330000
| 26>  H        5.1025670000     1.5396010000    -1.9255250000
| 27>  H        5.1157900000     0.9257530000    -0.2716570000
| 28>  H        3.7816690000     3.2830570000    -1.0119770000
| 29> *
| 30>
| 31>                          ****END OF INPUT****
 Total Charge           Charge          ....    0
 Multiplicity           Mult            ....    1
 Number of Electrons    NEL             ....   56
 Basis Dimension        Dim             ....  148

MULLIKEN ATOMIC CHARGES
-----------------------
   0 C :    0.090387
   1 C :   -0.124885
   2 C :    0.074237
   3 O :   -0.227618
   4 C :   -0.186568
   5 C :    0.274231
   6 O :   -0.286488
   7 H :    0.024665
   8 H :    0.010532
   9 H :    0.016494
  10 H :    0.022824
  11 H :    0.003076
  12 H :    0.160527
  13 H :    0.010472
  14 H :   -0.006084
  15 H :   -0.006223
  16 H :    0.150421
Sum of atomic charges:    0.0000000

LOEWDIN ATOMIC CHARGES
----------------------
   0 C :   -0.051530
   1 C :   -0.045295
   2 C :    0.036282
   3 O :   -0.092834
   4 C :   -0.088976
   5 C :    0.057710
   6 O :   -0.125432
   7 H :    0.031632
   8 H :    0.026360
   9 H :    0.028173
  10 H :    0.028924
  11 H :    0.006278
  12 H :    0.075461
  13 H :    0.022199
  14 H :    0.004974
  15 H :    0.020421
  16 H :    0.065652

  Mayer bond orders larger than 0.1
B(  0-C ,  1-C ) :   1.1030 B(  0-C ,  7-H ) :   0.9588 B(  0-C ,  8-H ) :   0.9459
B(  0-C ,  9-H ) :   0.9598 B(  1-C ,  2-C ) :   0.9501 B(  1-C ,  4-C ) :   0.9223
B(  1-C , 10-H ) :   0.9337 B(  2-C ,  3-O ) :   1.1385 B(  2-C ,  4-C ) :   0.9122
B(  2-C , 11-H ) :   0.9422 B(  3-O , 12-H ) :   0.9809 B(  4-C ,  5-C ) :   1.0566
B(  4-C , 13-H ) :   0.9301 B(  5-C ,  6-O ) :   1.0611 B(  5-C , 14-H ) :   0.9278
B(  5-C , 15-H ) :   0.9198 B(  6-O , 16-H ) :   0.9866

FINAL SINGLE POINT ENERGY      -346.268180022375

DIPOLE MOMENT
-------------
                                X             Y             Z
Electronic contribution:      1.96939      -0.44175      -1.11901
Nuclear contribution   :     -1.87535       0.41672       0.40140
                        -----------------------------------------
Total Dipole Moment    :      0.09404      -0.02503      -0.71760
                        -----------------------------------------
Magnitude (a.u.)       :      0.72417
Magnitude (Debye)      :      1.84070

                             ****ORCA TERMINATED NORMALLY****
TOTAL RUN TIME: 0 days 0 hours 0 minutes 6 seconds 982 msec
