                         Program Version 3.0.3 - RELEASE   -
|  1> ! RI PBE def2-SVP def2-SVP/J NBO PAL2
|  2> % maxcore 2000
|  3> % output
|  4>     # printlevel mini
|  5>     print[ P_Basis ] 0
|  6>     print[ P_SCFInfo ] 1
|  7>     print[ P_SCFIterInfo ] 1
|  8>     print[ P_OrbEn ] 0
|  9>     print[ P_Cartesian ] 0
| 10> end
| 11> *xyz 0 1
| 12>  C        0.6297650000     0.1834120000    -0.6725740000
| 13>  C        2.0066500000     0.5676620000    -0.2097320000
| 14>  C        3.2142420000    -0.2510000000    -0.5731590000
| 15>  O        2.9996150000    -1.3683380000    -1.3736150000
| 16>  C        3.0595960000     1.1270680000    -1.1370920000
| 17>  C        2.7875150000     1.3311300000    -2.5974460000
| 18>  O        3.9541380000     2.0522680000    -0.5813140000
| 19>  H        0.1353650000    -0.4390030000     0.0773380000
| 20>  H        0.6614880000    -0.3919480000    -1.5975620000
| 21>  H        0.0051050000     1.0656690000    -0.8367610000
| 22>  H        2.0552020000     0.9825660000     0.7928410000
| 23>  H        3.9772060000    -0.3630910000     0.1942170000
| 24>  H        3.7772510000    -1.4995710000    -1.9228130000
| 25>  H        2.2019760000     0.5128390000    -3.0157310000
| 26>  H        3.7324820000     1.3966840000    -3.1432000000
| 27>  H        2.2373720000     2.2622490000    -2.7659460000
| 28>  H        3.4899300000     2.8874240000    -0.4697610000
| 29> *
| 30>
| 31>                          ****END OF INPUT****
 Total Charge           Charge          ....    0
 Multiplicity           Mult            ....    1
 Number of Electrons    NEL             ....   56
 Basis Dimension        Dim             ....  148

MULLIKEN ATOMIC CHARGES
-----------------------
   0 C :    0.087092
   1 C :   -0.157977
   2 C :    0.087110
   3 O :   -0.226880
   4 C :   -0.096466
   5 C :    0.105402
   6 O :   -0.237623
   7 H :    0.026020
   8 H :    0.018829
   9 H :    0.017123
  10 H :    0.011706
  11 H :    0.014275
  12 H :    0.163648
  13 H :    0.006206
  14 H :    0.019822
  15 H :    0.008553
  16 H :    0.153161
Sum of atomic charges:    0.0000000

LOEWDIN ATOMIC CHARGES
----------------------
   0 C :   -0.058108
   1 C :   -0.064823
   2 C :    0.027603
   3 O :   -0.090181
   4 C :   -0.014345
   5 C :   -0.066137
   6 O :   -0.095110
   7 H :    0.033009
   8 H :    0.028783
   9 H :    0.027476
  10 H :    0.028110
  11 H :    0.011485
  12 H :    0.077907
  13 H :    0.028856
  14 H :    0.029637
  15 H :    0.026080
  16 H :    0.069758

  Mayer bond orders larger than 0.1
B(  0-C ,  1-C ) :   1.1108 B(  0-C ,  7-H ) :   0.9509 B(  0-C ,  8-H ) :   0.9386
B(  0-C ,  9-H ) :   0.9566 B(  1-C ,  2-C ) :   0.9404 B(  1-C ,  4-C ) :   0.9078
B(  1-C , 10-H ) :   0.9211 B(  2-C ,  3-O ) :   1.1556 B(  2-C ,  4-C ) :   0.8744
B(  2-C , 11-H ) :   0.9357 B(  3-O , 12-H ) :   0.9779 B(  4-C ,  5-C ) :   1.0972
B(  4-C ,  6-O ) :   1.0845 B(  5-C , 13-H ) :   0.9262 B(  5-C , 14-H ) :   0.9478
B(  5-C , 15-H ) :   0.9465 B(  6-O , 16-H ) :   0.9796

FINAL SINGLE POINT ENERGY      -346.275194766074

DIPOLE MOMENT
-------------
                                X             Y             Z
Electronic contribution:      4.20236      -0.78235       1.89301
Nuclear contribution   :     -4.26836       1.14918      -2.12710
                        -----------------------------------------
Total Dipole Moment    :     -0.06600       0.36682      -0.23410
                        -----------------------------------------
Magnitude (a.u.)       :      0.44013
Magnitude (Debye)      :      1.11873

                             ****ORCA TERMINATED NORMALLY****
TOTAL RUN TIME: 0 days 0 hours 0 minutes 7 seconds 639 msec
