                         Program Version 3.0.3 - RELEASE   -
|  1> ! RI PBE def2-SVP def2-SVP/J NBO PAL2
|  2> % maxcore 2000
|  3> % output
|  4>     # printlevel mini
|  5>     print[ P_Basis ] 0
|  6>     print[ P_SCFInfo ] 1
|  7>     print[ P_SCFIterInfo ] 1
|  8>     print[ P_OrbEn ] 0
|  9>     print[ P_Cartesian ] 0
| 10> end
| 11> *xyz 0 1
| 12>  C        1.0145980000     0.1830550000     0.1337990000
| 13>  C        2.5104170000     0.0864290000     0.0531950000
| 14>  C        3.1807840000    -0.6800820000    -1.0122010000
| 15>  O        2.3825160000    -1.3258260000    -1.9405580000
| 16>  C        3.2456410000     0.8422040000    -1.0468960000
| 17>  C        4.5158790000     1.5049890000    -0.7454340000
| 18>  O        4.9105130000     2.5162510000    -1.2657350000
| 19>  H        0.6100150000    -0.6384000000     0.7300160000
| 20>  H        0.5650490000     0.1263520000    -0.8574030000
| 21>  H        0.7122060000     1.1226540000     0.6010000000
| 22>  H        3.0257770000     0.0765530000     1.0096570000
| 23>  H        4.1024860000    -1.1976020000    -0.7523680000
| 24>  H        2.8385560000    -1.3336680000    -2.7866280000
| 25>  H        2.6274430000     1.3230310000    -1.7967600000
| 26>  H        5.1319210000     0.9925500000     0.0306340000
| 27> *
| 28>
| 29>                          ****END OF INPUT****
 Total Charge           Charge          ....    0
 Multiplicity           Mult            ....    1
 Number of Electrons    NEL             ....   54
 Basis Dimension        Dim             ....  138

MULLIKEN ATOMIC CHARGES
-----------------------
   0 C :    0.085705
   1 C :   -0.136111
   2 C :    0.097914
   3 O :   -0.217625
   4 C :   -0.118770
   5 C :    0.160781
   6 O :   -0.171150
   7 H :    0.034353
   8 H :    0.022181
   9 H :    0.028851
  10 H :    0.030947
  11 H :    0.019237
  12 H :    0.169392
  13 H :    0.029239
  14 H :   -0.034942
Sum of atomic charges:    0.0000000

LOEWDIN ATOMIC CHARGES
----------------------
   0 C :   -0.047643
   1 C :   -0.030250
   2 C :    0.052740
   3 O :   -0.078398
   4 C :   -0.090359
   5 C :    0.072318
   6 O :   -0.124881
   7 H :    0.036287
   8 H :    0.031562
   9 H :    0.033871
  10 H :    0.030563
  11 H :    0.011816
  12 H :    0.083023
  13 H :    0.037472
  14 H :   -0.018122

  Mayer bond orders larger than 0.1
B(  0-C ,  1-C ) :   1.1064 B(  0-C ,  7-H ) :   0.9591 B(  0-C ,  8-H ) :   0.9468
B(  0-C ,  9-H ) :   0.9585 B(  1-C ,  2-C ) :   0.9524 B(  1-C ,  4-C ) :   0.8586
B(  1-C , 10-H ) :   0.9331 B(  2-C ,  3-O ) :   1.1557 B(  2-C ,  4-C ) :   0.8526
B(  2-C , 11-H ) :   0.9469 B(  3-O , 12-H ) :   0.9753 B(  4-C ,  5-C ) :   1.0229
B(  4-C , 13-H ) :   0.9437 B(  5-C ,  6-O ) :   2.1485 B(  5-C , 14-H ) :   0.9199

FINAL SINGLE POINT ENERGY      -345.079313931714

DIPOLE MOMENT
-------------
                                X             Y             Z
Electronic contribution:      4.50953       1.88270      -2.81146
Nuclear contribution   :     -4.83888      -2.75987       2.88387
                        -----------------------------------------
Total Dipole Moment    :     -0.32935      -0.87717       0.07241
                        -----------------------------------------
Magnitude (a.u.)       :      0.93975
Magnitude (Debye)      :      2.38866

                             ****ORCA TERMINATED NORMALLY****
TOTAL RUN TIME: 0 days 0 hours 0 minutes 6 seconds 321 msec
