                         Program Version 3.0.3 - RELEASE   -
|  1> ! RI PBE def2-SVP def2-SVP/J NBO PAL2
|  2> % maxcore 2000
|  3> % output
|  4>     # printlevel mini
|  5>     print[ P_Basis ] 0
|  6>     print[ P_SCFInfo ] 1
|  7>     print[ P_SCFIterInfo ] 1
|  8>     print[ P_OrbEn ] 0
|  9>     print[ P_Cartesian ] 0
| 10> end
| 11> *xyz 0 1
| 12>  C        0.9443510000    -0.0161400000     0.0987880000
| 13>  C        2.4457860000    -0.0350270000    -0.0308340000
| 14>  C        3.2784840000     1.0264950000     0.6981220000
| 15>  O        4.1017740000     0.0235420000     1.3141430000
| 16>  C        3.2421110000    -1.0198970000     0.8569140000
| 17>  C        3.9652800000    -2.1080540000     0.1168850000
| 18>  O        3.4661290000    -3.1644850000    -0.1560510000
| 19>  H        0.5151780000     0.8221940000    -0.4562690000
| 20>  H        0.6417130000     0.0805870000     1.1447880000
| 21>  H        0.5061090000    -0.9355180000    -0.2963420000
| 22>  H        2.7398960000    -0.1230840000    -1.0801380000
| 23>  H        2.7144390000     1.5961150000     1.4460970000
| 24>  H        3.8638870000     1.7144700000     0.0825790000
| 25>  H        2.6443300000    -1.4610640000     1.6646140000
| 26>  H        4.9985430000    -1.8423240000    -0.1975050000
| 27> *
| 28>
| 29>                          ****END OF INPUT****
 Total Charge           Charge          ....    0
 Multiplicity           Mult            ....    1
 Number of Electrons    NEL             ....   54
 Basis Dimension        Dim             ....  138

MULLIKEN ATOMIC CHARGES
-----------------------
   0 C :    0.064927
   1 C :   -0.239203
   2 C :    0.267594
   3 O :   -0.345947
   4 C :    0.128241
   5 C :    0.138446
   6 O :   -0.155973
   7 H :    0.031898
   8 H :    0.019515
   9 H :    0.038749
  10 H :    0.025006
  11 H :    0.005067
  12 H :    0.019438
  13 H :    0.014757
  14 H :   -0.012516
Sum of atomic charges:    0.0000000

LOEWDIN ATOMIC CHARGES
----------------------
   0 C :   -0.057886
   1 C :   -0.040671
   2 C :    0.093516
   3 O :   -0.169860
   4 C :    0.030685
   5 C :    0.080607
   6 O :   -0.101294
   7 H :    0.033786
   8 H :    0.027072
   9 H :    0.037001
  10 H :    0.030835
  11 H :    0.010009
  12 H :    0.013608
  13 H :    0.023503
  14 H :   -0.010911

  Mayer bond orders larger than 0.1
B(  0-C ,  1-C ) :   1.0824 B(  0-C ,  7-H ) :   0.9553 B(  0-C ,  8-H ) :   0.9545
B(  0-C ,  9-H ) :   0.9560 B(  1-C ,  2-C ) :   1.0677 B(  1-C ,  4-C ) :   1.0362
B(  1-C , 10-H ) :   0.9058 B(  2-C ,  3-O ) :   1.0212 B(  2-C , 11-H ) :   0.9305
B(  2-C , 12-H ) :   0.9379 B(  3-O ,  4-C ) :   1.0356 B(  4-C ,  5-C ) :   0.9298
B(  4-C , 13-H ) :   0.8927 B(  5-C ,  6-O ) :   2.1745 B(  5-C , 14-H ) :   0.9097

FINAL SINGLE POINT ENERGY      -345.068022234916

DIPOLE MOMENT
-------------
                                X             Y             Z
Electronic contribution:      4.97958      -4.62766       0.76858
Nuclear contribution   :     -5.48440       5.55335      -0.96008
                        -----------------------------------------
Total Dipole Moment    :     -0.50483       0.92569      -0.19150
                        -----------------------------------------
Magnitude (a.u.)       :      1.07165
Magnitude (Debye)      :      2.72391

                             ****ORCA TERMINATED NORMALLY****
TOTAL RUN TIME: 0 days 0 hours 0 minutes 6 seconds 788 msec
