                         Program Version 3.0.3 - RELEASE   -
|  1> ! RI PBE def2-SVP def2-SVP/J NBO PAL2
|  2> % maxcore 2000
|  3> % output
|  4>     # printlevel mini
|  5>     print[ P_Basis ] 0
|  6>     print[ P_SCFInfo ] 1
|  7>     print[ P_SCFIterInfo ] 1
|  8>     print[ P_OrbEn ] 0
|  9>     print[ P_Cartesian ] 0
| 10> end
| 11> *xyz 0 1
| 12>  C        1.0517460000     0.0638060000     0.2776550000
| 13>  C        2.5335420000    -0.1171710000    -0.0138850000
| 14>  C        2.9205750000    -1.5616650000    -0.3730160000
| 15>  O        3.0511370000    -1.6220810000    -1.7873480000
| 16>  C        3.4364010000    -0.3572970000    -2.2432310000
| 17>  C        2.3158210000     0.5852310000    -2.5255080000
| 18>  C        3.0630310000     0.6573340000    -1.2165120000
| 19>  H        0.7661410000    -0.4792670000     1.1822580000
| 20>  H        0.4344910000    -0.3125460000    -0.5412630000
| 21>  H        0.8043760000     1.1175100000     0.4268740000
| 22>  H        3.0990380000     0.1983250000     0.8680470000
| 23>  H        2.1655530000    -2.2938700000    -0.0764470000
| 24>  H        3.8744960000    -1.8365710000     0.0974880000
| 25>  H        4.3621030000    -0.3332210000    -2.8082560000
| 26>  H        1.3185830000     0.1637720000    -2.5406240000
| 27>  H        2.4853250000     1.3887640000    -3.2328500000
| 28>  H        3.6858500000     1.5249450000    -1.0385920000
| 29> *
| 30>
| 31>                          ****END OF INPUT****
 Total Charge           Charge          ....    0
 Multiplicity           Mult            ....    1
 Number of Electrons    NEL             ....   54
 Basis Dimension        Dim             ....  148

MULLIKEN ATOMIC CHARGES
-----------------------
   0 C :    0.048515
   1 C :   -0.142775
   2 C :    0.288631
   3 O :   -0.329251
   4 C :    0.083332
   5 C :    0.017513
   6 C :   -0.113566
   7 H :    0.018298
   8 H :    0.020897
   9 H :    0.019682
  10 H :    0.005008
  11 H :    0.000785
  12 H :   -0.006872
  13 H :    0.013607
  14 H :    0.031153
  15 H :    0.028172
  16 H :    0.016871
Sum of atomic charges:    0.0000000

LOEWDIN ATOMIC CHARGES
----------------------
   0 C :   -0.058163
   1 C :   -0.049878
   2 C :    0.080514
   3 O :   -0.143601
   4 C :    0.045788
   5 C :   -0.051009
   6 C :   -0.048510
   7 H :    0.025458
   8 H :    0.025079
   9 H :    0.028245
  10 H :    0.030115
  11 H :    0.015978
  12 H :    0.006144
  13 H :    0.012155
  14 H :    0.026952
  15 H :    0.029595
  16 H :    0.025139

  Mayer bond orders larger than 0.1
B(  0-C ,  1-C ) :   1.0771 B(  0-C ,  7-H ) :   0.9568 B(  0-C ,  8-H ) :   0.9512
B(  0-C ,  9-H ) :   0.9629 B(  1-C ,  2-C ) :   1.0580 B(  1-C ,  6-C ) :   1.0621
B(  1-C , 10-H ) :   0.9092 B(  2-C ,  3-O ) :   0.9962 B(  2-C , 11-H ) :   0.9394
B(  2-C , 12-H ) :   0.9217 B(  3-O ,  4-C ) :   1.0553 B(  4-C ,  5-C ) :   0.9914
B(  4-C ,  6-C ) :   0.9556 B(  4-C , 13-H ) :   0.9479 B(  5-C ,  6-C ) :   0.9787
B(  5-C , 14-H ) :   0.9239 B(  5-C , 15-H ) :   0.9314 B(  6-C , 16-H ) :   0.9471

FINAL SINGLE POINT ENERGY      -309.206100252382

DIPOLE MOMENT
-------------
                                X             Y             Z
Electronic contribution:      2.94649      -2.10273      -2.86365
Nuclear contribution   :     -2.89207       2.57420       3.26973
                        -----------------------------------------
Total Dipole Moment    :      0.05442       0.47147       0.40608
                        -----------------------------------------
Magnitude (a.u.)       :      0.62462
Magnitude (Debye)      :      1.58765

                             ****ORCA TERMINATED NORMALLY****
TOTAL RUN TIME: 0 days 0 hours 0 minutes 7 seconds 777 msec
