                         Program Version 3.0.3 - RELEASE   -
|  1> ! RI PBE def2-SVP def2-SVP/J NBO PAL2
|  2> % maxcore 2000
|  3> % output
|  4>     # printlevel mini
|  5>     print[ P_Basis ] 0
|  6>     print[ P_SCFInfo ] 1
|  7>     print[ P_SCFIterInfo ] 1
|  8>     print[ P_OrbEn ] 0
|  9>     print[ P_Cartesian ] 0
| 10> end
| 11> *xyz 0 1
| 12>  C        1.0955930000     0.0766530000     0.5241020000
| 13>  C        2.3139590000    -0.0517170000     0.0148840000
| 14>  C        3.0110120000    -1.3508710000    -0.3072290000
| 15>  O        4.4052200000    -1.0794910000    -0.2959250000
| 16>  C        4.5881790000     0.2945230000    -0.4629110000
| 17>  C        3.9619640000     0.9505210000    -1.6402400000
| 18>  C        3.2845640000     1.0173320000    -0.2791300000
| 19>  H        0.4930450000    -0.7894420000     0.7738290000
| 20>  H        0.6595730000     1.0515680000     0.7074970000
| 21>  H        2.7067690000    -1.7162270000    -1.2975380000
| 22>  H        2.8047210000    -2.1382510000     0.4204900000
| 23>  H        5.5279280000     0.6440190000    -0.0557130000
| 24>  H        3.5166060000     0.3333400000    -2.4111930000
| 25>  H        4.4086920000     1.8711250000    -1.9948310000
| 26>  H        3.2028660000     1.9705070000     0.2259990000
| 27> *
| 28>
| 29>                          ****END OF INPUT****
 Total Charge           Charge          ....    0
 Multiplicity           Mult            ....    1
 Number of Electrons    NEL             ....   52
 Basis Dimension        Dim             ....  138

MULLIKEN ATOMIC CHARGES
-----------------------
   0 C :   -0.059738
   1 C :   -0.072742
   2 C :    0.243595
   3 O :   -0.317097
   4 C :    0.138964
   5 C :    0.009369
   6 C :   -0.120451
   7 H :    0.008346
   8 H :    0.011894
   9 H :    0.025316
  10 H :    0.028305
  11 H :    0.019223
  12 H :    0.038485
  13 H :    0.034618
  14 H :    0.011913
Sum of atomic charges:   -0.0000000

LOEWDIN ATOMIC CHARGES
----------------------
   0 C :   -0.081496
   1 C :   -0.034498
   2 C :    0.075757
   3 O :   -0.134866
   4 C :    0.057060
   5 C :   -0.049684
   6 C :   -0.048940
   7 H :    0.023221
   8 H :    0.024501
   9 H :    0.020604
  10 H :    0.030762
  11 H :    0.021271
  12 H :    0.031148
  13 H :    0.034149
  14 H :    0.031011

  Mayer bond orders larger than 0.1
B(  0-C ,  1-C ) :   1.9967 B(  0-C ,  7-H ) :   0.9266 B(  0-C ,  8-H ) :   0.9349
B(  1-C ,  2-C ) :   1.0087 B(  1-C ,  6-C ) :   1.0679 B(  2-C ,  3-O ) :   0.9987
B(  2-C ,  9-H ) :   0.9138 B(  2-C , 10-H ) :   0.9306 B(  3-O ,  4-C ) :   1.0683
B(  4-C ,  5-C ) :   0.9815 B(  4-C ,  6-C ) :   0.8815 B(  4-C , 11-H ) :   0.9507
B(  5-C ,  6-C ) :   0.9316 B(  5-C , 12-H ) :   0.9253 B(  5-C , 13-H ) :   0.9343
B(  6-C , 14-H ) :   0.9574

FINAL SINGLE POINT ENERGY      -307.989841321312

DIPOLE MOMENT
-------------
                                X             Y             Z
Electronic contribution:      2.37428      -1.15810       0.63759
Nuclear contribution   :     -2.56203       1.50931      -0.73390
                        -----------------------------------------
Total Dipole Moment    :     -0.18775       0.35121      -0.09631
                        -----------------------------------------
Magnitude (a.u.)       :      0.40972
Magnitude (Debye)      :      1.04142

                             ****ORCA TERMINATED NORMALLY****
TOTAL RUN TIME: 0 days 0 hours 0 minutes 6 seconds 798 msec
