                         Program Version 3.0.3 - RELEASE   -
|  1> ! RI PBE def2-SVP def2-SVP/J NBO PAL2
|  2> % maxcore 2000
|  3> % output
|  4>     # printlevel mini
|  5>     print[ P_Basis ] 0
|  6>     print[ P_SCFInfo ] 1
|  7>     print[ P_SCFIterInfo ] 1
|  8>     print[ P_OrbEn ] 0
|  9>     print[ P_Cartesian ] 0
| 10> end
| 11> *xyz 0 1
| 12>  C        1.1052840000    -0.1222070000    -0.1365100000
| 13>  C        2.5710450000     0.0817200000    -0.0188430000
| 14>  C        3.2724720000     1.1837390000    -0.2898140000
| 15>  O        4.6111920000     1.0941200000    -0.0389380000
| 16>  C        4.8519430000    -0.2303280000     0.3672130000
| 17>  C        4.5818240000    -1.3286670000    -0.6019630000
| 18>  C        3.5332600000    -0.9591120000     0.4251080000
| 19>  H        0.6018810000     0.7923630000    -0.4549970000
| 20>  H        0.6710520000    -0.4269440000     0.8217150000
| 21>  H        0.8656390000    -0.9106990000    -0.8577860000
| 22>  H        2.9435590000     2.1374380000    -0.6781490000
| 23>  H        5.6446220000    -0.3091790000     1.0990380000
| 24>  H        5.1386660000    -2.2434110000    -0.4402690000
| 25>  H        4.3836800000    -1.0745790000    -1.6362750000
| 26>  H        3.2671840000    -1.6618640000     1.2069690000
| 27> *
| 28>
| 29>                          ****END OF INPUT****
 Total Charge           Charge          ....    0
 Multiplicity           Mult            ....    1
 Number of Electrons    NEL             ....   52
 Basis Dimension        Dim             ....  138

MULLIKEN ATOMIC CHARGES
-----------------------
   0 C :    0.089096
   1 C :   -0.105251
   2 C :    0.077862
   3 O :   -0.239936
   4 C :    0.106276
   5 C :    0.001107
   6 C :   -0.102500
   7 H :    0.013096
   8 H :    0.024931
   9 H :    0.028195
  10 H :   -0.009461
  11 H :    0.025140
  12 H :    0.036583
  13 H :    0.042640
  14 H :    0.012222
Sum of atomic charges:    0.0000000

LOEWDIN ATOMIC CHARGES
----------------------
   0 C :   -0.053668
   1 C :   -0.097837
   2 C :    0.023312
   3 O :   -0.066415
   4 C :    0.058534
   5 C :   -0.054330
   6 C :   -0.040078
   7 H :    0.033726
   8 H :    0.034296
   9 H :    0.033748
  10 H :    0.018810
  11 H :    0.020523
  12 H :    0.032680
  13 H :    0.032538
  14 H :    0.024161

  Mayer bond orders larger than 0.1
B(  0-C ,  1-C ) :   1.1309 B(  0-C ,  7-H ) :   0.9469 B(  0-C ,  8-H ) :   0.9408
B(  0-C ,  9-H ) :   0.9400 B(  1-C ,  2-C ) :   1.6940 B(  1-C ,  3-O ) :   0.1056
B(  1-C ,  6-C ) :   1.0545 B(  2-C ,  3-O ) :   1.0930 B(  2-C , 10-H ) :   0.9921
B(  3-O ,  4-C ) :   1.0214 B(  4-C ,  5-C ) :   0.9988 B(  4-C ,  6-C ) :   0.9062
B(  4-C , 11-H ) :   0.9568 B(  5-C ,  6-C ) :   0.9514 B(  5-C , 12-H ) :   0.9398
B(  5-C , 13-H ) :   0.9253 B(  6-C , 14-H ) :   0.9558

FINAL SINGLE POINT ENERGY      -308.003192127138

DIPOLE MOMENT
-------------
                                X             Y             Z
Electronic contribution:      3.95741       2.85992       0.60107
Nuclear contribution   :     -4.20858      -3.23818      -0.51997
                        -----------------------------------------
Total Dipole Moment    :     -0.25117      -0.37826       0.08111
                        -----------------------------------------
Magnitude (a.u.)       :      0.46124
Magnitude (Debye)      :      1.17238

                             ****ORCA TERMINATED NORMALLY****
TOTAL RUN TIME: 0 days 0 hours 0 minutes 6 seconds 937 msec
