                         Program Version 3.0.3 - RELEASE   -
|  1> ! RI PBE def2-SVP def2-SVP/J NBO PAL2
|  2> % maxcore 2000
|  3> % output
|  4>     # printlevel mini
|  5>     print[ P_Basis ] 0
|  6>     print[ P_SCFInfo ] 1
|  7>     print[ P_SCFIterInfo ] 1
|  8>     print[ P_OrbEn ] 0
|  9>     print[ P_Cartesian ] 0
| 10> end
| 11> *xyz 0 1
| 12>  C        1.0183310000     0.1032340000     0.0446720000
| 13>  C        2.5057030000     0.0694440000     0.0494360000
| 14>  C        3.3576290000     1.1224320000     0.0555820000
| 15>  O        4.6447880000     0.7084940000     0.0584790000
| 16>  C        4.6135140000    -0.6432220000     0.0540700000
| 17>  C        3.3393020000    -1.1025170000     0.0484320000
| 18>  C        2.8832340000    -2.5186400000     0.0424230000
| 19>  H        0.6474910000     1.1294180000     0.0467080000
| 20>  H        0.6041800000    -0.4033700000     0.9214530000
| 21>  H        0.6099420000    -0.3977990000    -0.8379930000
| 22>  H        3.2012790000     2.1892610000     0.0584690000
| 23>  H        5.5699980000    -1.1409300000     0.0556170000
| 24>  H        3.7309510000    -3.2056300000     0.0430300000
| 25>  H        2.2752670000    -2.7390480000    -0.8400220000
| 26>  H        2.2694710000    -2.7446460000     0.9194240000
| 27> *
| 28>
| 29>                          ****END OF INPUT****
 Total Charge           Charge          ....    0
 Multiplicity           Mult            ....    1
 Number of Electrons    NEL             ....   52
 Basis Dimension        Dim             ....  138

MULLIKEN ATOMIC CHARGES
-----------------------
   0 C :    0.085205
   1 C :   -0.101668
   2 C :    0.037906
   3 O :   -0.165832
   4 C :    0.046064
   5 C :   -0.114677
   6 C :    0.092278
   7 H :    0.012930
   8 H :    0.028781
   9 H :    0.028642
  10 H :   -0.007656
  11 H :   -0.010930
  12 H :    0.014175
  13 H :    0.027341
  14 H :    0.027442
Sum of atomic charges:   -0.0000000

LOEWDIN ATOMIC CHARGES
----------------------
   0 C :   -0.054544
   1 C :   -0.083463
   2 C :   -0.001131
   3 O :    0.030352
   4 C :    0.000806
   5 C :   -0.084578
   6 C :   -0.055395
   7 H :    0.034618
   8 H :    0.036143
   9 H :    0.036117
  10 H :    0.017082
  11 H :    0.016771
  12 H :    0.035124
  13 H :    0.036043
  14 H :    0.036055

  Mayer bond orders larger than 0.1
B(  0-C ,  1-C ) :   1.1259 B(  0-C ,  7-H ) :   0.9455 B(  0-C ,  8-H ) :   0.9405
B(  0-C ,  9-H ) :   0.9404 B(  1-C ,  2-C ) :   1.5192 B(  1-C ,  5-C ) :   1.2774
B(  2-C ,  3-O ) :   1.1521 B(  2-C , 10-H ) :   1.0055 B(  3-O ,  4-C ) :   1.1502
B(  4-C ,  5-C ) :   1.5240 B(  4-C , 11-H ) :   1.0024 B(  5-C ,  6-C ) :   1.1329
B(  6-C , 12-H ) :   0.9428 B(  6-C , 13-H ) :   0.9383 B(  6-C , 14-H ) :   0.9383

FINAL SINGLE POINT ENERGY      -308.046369311896

DIPOLE MOMENT
-------------
                                X             Y             Z
Electronic contribution:      5.79142       4.12080       0.03228
Nuclear contribution   :     -6.14422      -4.37027      -0.03405
                        -----------------------------------------
Total Dipole Moment    :     -0.35280      -0.24947      -0.00177
                        -----------------------------------------
Magnitude (a.u.)       :      0.43209
Magnitude (Debye)      :      1.09829

                             ****ORCA TERMINATED NORMALLY****
TOTAL RUN TIME: 0 days 0 hours 0 minutes 7 seconds 52 msec
