                         Program Version 3.0.3 - RELEASE   -
|  1> ! RI PBE def2-SVP def2-SVP/J NBO PAL2
|  2> % maxcore 2000
|  3> % output
|  4>     # printlevel mini
|  5>     print[ P_Basis ] 0
|  6>     print[ P_SCFInfo ] 1
|  7>     print[ P_SCFIterInfo ] 1
|  8>     print[ P_OrbEn ] 0
|  9>     print[ P_Cartesian ] 0
| 10> end
| 11> *xyz 0 1
| 12>  C        1.1527140000    -0.0167930000    -0.2415100000
| 13>  C        2.6408820000    -0.0061310000     0.0393280000
| 14>  C        3.0768370000     1.0406370000     1.0542140000
| 15>  O        4.2967590000     0.5858580000     1.6155900000
| 16>  C        4.5085080000    -0.7690110000     1.2554950000
| 17>  C        3.1984960000    -1.2810330000     0.6745700000
| 18>  C        3.3537930000    -2.4603480000    -0.2628330000
| 19>  H        0.8162210000     0.9396050000    -0.6502750000
| 20>  H        0.5862620000    -0.2054290000     0.6755040000
| 21>  H        0.8881370000    -0.7916020000    -0.9651120000
| 22>  H        3.1864810000     0.1672810000    -0.8980590000
| 23>  H        2.3203150000     1.1428990000     1.8464270000
| 24>  H        3.2360830000     2.0280030000     0.6102570000
| 25>  H        4.8316880000    -1.3256730000     2.1403860000
| 26>  H        5.3097470000    -0.8313490000     0.5041520000
| 27>  H        2.5341110000    -1.5604960000     1.5033880000
| 28>  H        3.9987140000    -2.2016560000    -1.1081250000
| 29>  H        2.3893420000    -2.7828090000    -0.6625600000
| 30>  H        3.7995100000    -3.3192330000     0.2457620000
| 31> *
| 32>
| 33>                          ****END OF INPUT****
 Total Charge           Charge          ....    0
 Multiplicity           Mult            ....    1
 Number of Electrons    NEL             ....   56
 Basis Dimension        Dim             ....  158

MULLIKEN ATOMIC CHARGES
-----------------------
   0 C :    0.049589
   1 C :   -0.199075
   2 C :    0.276437
   3 O :   -0.366998
   4 C :    0.274477
   5 C :   -0.210624
   6 C :    0.063443
   7 H :    0.023031
   8 H :    0.014521
   9 H :    0.021052
  10 H :    0.007452
  11 H :   -0.008794
  12 H :    0.001410
  13 H :    0.002968
  14 H :   -0.008840
  15 H :    0.010321
  16 H :    0.013771
  17 H :    0.014570
  18 H :    0.021289
Sum of atomic charges:    0.0000000

LOEWDIN ATOMIC CHARGES
----------------------
   0 C :   -0.057206
   1 C :   -0.057362
   2 C :    0.070475
   3 O :   -0.164911
   4 C :    0.070190
   5 C :   -0.058183
   6 C :   -0.055364
   7 H :    0.029364
   8 H :    0.025843
   9 H :    0.027140
  10 H :    0.025405
  11 H :    0.004642
  12 H :    0.014325
  13 H :    0.014501
  14 H :    0.004546
  15 H :    0.025798
  16 H :    0.025587
  17 H :    0.026217
  18 H :    0.028994

  Mayer bond orders larger than 0.1
B(  0-C ,  1-C ) :   1.0917 B(  0-C ,  7-H ) :   0.9591 B(  0-C ,  8-H ) :   0.9502
B(  0-C ,  9-H ) :   0.9552 B(  1-C ,  2-C ) :   1.0525 B(  1-C ,  5-C ) :   1.0323
B(  1-C , 10-H ) :   0.9011 B(  2-C ,  3-O ) :   1.0175 B(  2-C , 11-H ) :   0.9307
B(  2-C , 12-H ) :   0.9330 B(  3-O ,  4-C ) :   1.0167 B(  4-C ,  5-C ) :   1.0525
B(  4-C , 13-H ) :   0.9323 B(  4-C , 14-H ) :   0.9308 B(  5-C ,  6-C ) :   1.0919
B(  5-C , 15-H ) :   0.9031 B(  6-C , 16-H ) :   0.9514 B(  6-C , 17-H ) :   0.9521
B(  6-C , 18-H ) :   0.9590

FINAL SINGLE POINT ENERGY      -310.438015605472

DIPOLE MOMENT
-------------
                                X             Y             Z
Electronic contribution:      3.53270       3.15487       3.22847
Nuclear contribution   :     -3.95760      -3.53332      -3.61724
                        -----------------------------------------
Total Dipole Moment    :     -0.42489      -0.37845      -0.38877
                        -----------------------------------------
Magnitude (a.u.)       :      0.68913
Magnitude (Debye)      :      1.75163

                             ****ORCA TERMINATED NORMALLY****
TOTAL RUN TIME: 0 days 0 hours 0 minutes 8 seconds 279 msec
