                         Program Version 3.0.3 - RELEASE   -
|  1> ! RI PBE def2-SVP def2-SVP/J NBO PAL2
|  2> % maxcore 2000
|  3> % output
|  4>     # printlevel mini
|  5>     print[ P_Basis ] 0
|  6>     print[ P_SCFInfo ] 1
|  7>     print[ P_SCFIterInfo ] 1
|  8>     print[ P_OrbEn ] 0
|  9>     print[ P_Cartesian ] 0
| 10> end
| 11> *xyz 0 1
| 12>  C        1.1333480000     0.0102570000     0.2461440000
| 13>  C        2.4339780000    -0.0029680000    -0.0288460000
| 14>  C        3.2982180000     1.2149470000    -0.2117920000
| 15>  O        4.6094810000     0.7653700000    -0.4894690000
| 16>  C        4.6821430000    -0.6464100000    -0.5047220000
| 17>  C        3.3027920000    -1.1714090000    -0.2123800000
| 18>  C        2.9671160000    -2.4557850000    -0.1407300000
| 19>  H        0.5893350000     0.9408630000     0.3610220000
| 20>  H        0.5671440000    -0.9059040000     0.3659870000
| 21>  H        3.3099470000     1.8364790000     0.6917830000
| 22>  H        2.9427290000     1.8365850000    -1.0424960000
| 23>  H        5.4057530000    -0.9820520000     0.2480120000
| 24>  H        5.0382390000    -0.9822280000    -1.4862040000
| 25>  H        3.6986900000    -3.2406860000    -0.2953420000
| 26>  H        1.9519860000    -2.7680700000     0.0744220000
| 27> *
| 28>
| 29>                          ****END OF INPUT****
 Total Charge           Charge          ....    0
 Multiplicity           Mult            ....    1
 Number of Electrons    NEL             ....   52
 Basis Dimension        Dim             ....  138

MULLIKEN ATOMIC CHARGES
-----------------------
   0 C :   -0.058135
   1 C :   -0.122589
   2 C :    0.280578
   3 O :   -0.372032
   4 C :    0.289364
   5 C :   -0.123584
   6 C :   -0.053162
   7 H :    0.018194
   8 H :    0.018516
   9 H :    0.023879
  10 H :    0.024772
  11 H :    0.024970
  12 H :    0.019745
  13 H :    0.015874
  14 H :    0.013609
Sum of atomic charges:   -0.0000000

LOEWDIN ATOMIC CHARGES
----------------------
   0 C :   -0.046248
   1 C :   -0.044420
   2 C :    0.073412
   3 O :   -0.162206
   4 C :    0.074536
   5 C :   -0.044070
   6 C :   -0.046322
   7 H :    0.027265
   8 H :    0.025484
   9 H :    0.022817
  10 H :    0.022959
  11 H :    0.023164
  12 H :    0.022035
  13 H :    0.026928
  14 H :    0.024667

  Mayer bond orders larger than 0.1
B(  0-C ,  1-C ) :   1.9591 B(  0-C ,  6-C ) :   0.1225 B(  0-C ,  7-H ) :   0.9323
B(  0-C ,  8-H ) :   0.9224 B(  1-C ,  2-C ) :   1.0054 B(  1-C ,  5-C ) :   1.0930
B(  2-C ,  3-O ) :   1.0127 B(  2-C ,  9-H ) :   0.9191 B(  2-C , 10-H ) :   0.9191
B(  3-O ,  4-C ) :   1.0117 B(  4-C ,  5-C ) :   1.0050 B(  4-C , 11-H ) :   0.9182
B(  4-C , 12-H ) :   0.9187 B(  5-C ,  6-C ) :   1.9537 B(  6-C , 13-H ) :   0.9330
B(  6-C , 14-H ) :   0.9236

FINAL SINGLE POINT ENERGY      -307.995048407044

DIPOLE MOMENT
-------------
                                X             Y             Z
Electronic contribution:      1.88257       1.46200      -0.39566
Nuclear contribution   :     -2.24562      -1.74450       0.47576
                        -----------------------------------------
Total Dipole Moment    :     -0.36304      -0.28249       0.08011
                        -----------------------------------------
Magnitude (a.u.)       :      0.46692
Magnitude (Debye)      :      1.18683

                             ****ORCA TERMINATED NORMALLY****
TOTAL RUN TIME: 0 days 0 hours 0 minutes 6 seconds 844 msec
