                         Program Version 3.0.3 - RELEASE   -
|  1> ! RI PBE def2-SVP def2-SVP/J NBO PAL2
|  2> % maxcore 2000
|  3> % output
|  4>     # printlevel mini
|  5>     print[ P_Basis ] 0
|  6>     print[ P_SCFInfo ] 1
|  7>     print[ P_SCFIterInfo ] 1
|  8>     print[ P_OrbEn ] 0
|  9>     print[ P_Cartesian ] 0
| 10> end
| 11> *xyz 0 1
| 12>  C        1.0607750000     0.0717760000     0.1977300000
| 13>  C        2.5316450000     0.0995200000     0.0058400000
| 14>  C        3.3499420000    -0.9309170000    -0.2478930000
| 15>  O        4.6580600000    -0.6235980000    -0.3788000000
| 16>  C        4.7656490000     0.7954450000    -0.1937700000
| 17>  C        3.3646210000     1.2901230000     0.0623170000
| 18>  C        2.9912160000     2.5512120000     0.2893250000
| 19>  H        0.6676380000    -0.9420590000     0.1076510000
| 20>  H        0.5538400000     0.6987440000    -0.5427210000
| 21>  H        0.7837720000     0.4561080000     1.1845920000
| 22>  H        3.1166010000    -1.9811900000    -0.3644240000
| 23>  H        5.2072860000     1.2232800000    -1.0974830000
| 24>  H        5.4396910000     0.9781970000     0.6470890000
| 25>  H        3.7062710000     3.3650970000     0.3085710000
| 26>  H        1.9520940000     2.8031420000     0.4630640000
| 27> *
| 28>
| 29>                          ****END OF INPUT****
 Total Charge           Charge          ....    0
 Multiplicity           Mult            ....    1
 Number of Electrons    NEL             ....   52
 Basis Dimension        Dim             ....  138

MULLIKEN ATOMIC CHARGES
-----------------------
   0 C :    0.081827
   1 C :   -0.076531
   2 C :    0.067357
   3 O :   -0.273829
   4 C :    0.271646
   5 C :   -0.144175
   6 C :   -0.100423
   7 H :    0.010947
   8 H :    0.034353
   9 H :    0.029720
  10 H :    0.001086
  11 H :    0.043607
  12 H :    0.046618
  13 H :    0.002699
  14 H :    0.005098
Sum of atomic charges:   -0.0000000

LOEWDIN ATOMIC CHARGES
----------------------
   0 C :   -0.052299
   1 C :   -0.101244
   2 C :    0.046994
   3 O :   -0.075604
   4 C :    0.092296
   5 C :   -0.044451
   6 C :   -0.107009
   7 H :    0.033908
   8 H :    0.037171
   9 H :    0.036342
  10 H :    0.021677
  11 H :    0.035152
  12 H :    0.035757
  13 H :    0.020218
  14 H :    0.021093

  Mayer bond orders larger than 0.1
B(  0-C ,  1-C ) :   1.1314 B(  0-C ,  7-H ) :   0.9456 B(  0-C ,  8-H ) :   0.9368
B(  0-C ,  9-H ) :   0.9354 B(  1-C ,  2-C ) :   1.5765 B(  1-C ,  5-C ) :   1.1448
B(  2-C ,  3-O ) :   1.1400 B(  2-C ,  6-C ) :   0.1169 B(  2-C , 10-H ) :   0.9877
B(  3-O ,  4-C ) :   0.9577 B(  4-C ,  5-C ) :   1.0178 B(  4-C , 11-H ) :   0.9249
B(  4-C , 12-H ) :   0.9245 B(  5-C ,  6-C ) :   1.9024 B(  6-C , 13-H ) :   0.9365
B(  6-C , 14-H ) :   0.9224

FINAL SINGLE POINT ENERGY      -308.019373675452

DIPOLE MOMENT
-------------
                                X             Y             Z
Electronic contribution:      4.20720      -2.82049      -0.95799
Nuclear contribution   :     -4.32158       2.80085       0.96878
                        -----------------------------------------
Total Dipole Moment    :     -0.11438      -0.01964       0.01080
                        -----------------------------------------
Magnitude (a.u.)       :      0.11655
Magnitude (Debye)      :      0.29626

                             ****ORCA TERMINATED NORMALLY****
TOTAL RUN TIME: 0 days 0 hours 0 minutes 7 seconds 148 msec
