                         Program Version 3.0.3 - RELEASE   -
|  1> ! RI PBE def2-SVP def2-SVP/J NBO PAL2
|  2> % maxcore 2000
|  3> % output
|  4>     # printlevel mini
|  5>     print[ P_Basis ] 0
|  6>     print[ P_SCFInfo ] 1
|  7>     print[ P_SCFIterInfo ] 1
|  8>     print[ P_OrbEn ] 0
|  9>     print[ P_Cartesian ] 0
| 10> end
| 11> *xyz 0 1
| 12>  C        1.1814990000     0.0829450000    -0.3160060000
| 13>  C        2.6666750000     0.0253030000     0.0044860000
| 14>  C        3.0597020000    -1.2218810000     0.8074650000
| 15>  O        4.0277620000    -0.8108360000     1.7817160000
| 16>  C        3.9344670000     0.5451130000     1.8476940000
| 17>  C        3.1794800000     1.1176780000     0.9162980000
| 18>  C        2.9317910000     2.5655020000     0.7049420000
| 19>  H        0.8763840000    -0.7751140000    -0.9212790000
| 20>  H        0.9306170000     0.9852970000    -0.8783630000
| 21>  H        0.5869180000     0.0785420000     0.6018270000
| 22>  H        3.2231200000     0.0651330000    -0.9442270000
| 23>  H        3.4979200000    -2.0207960000     0.2083540000
| 24>  H        2.1884800000    -1.6179800000     1.3445730000
| 25>  H        4.5081470000     1.0026400000     2.6431850000
| 26>  H        3.4459960000     3.1686940000     1.4555330000
| 27>  H        1.8653160000     2.8087040000     0.7562520000
| 28>  H        3.2815470000     2.8888450000    -0.2826500000
| 29> *
| 30>
| 31>                          ****END OF INPUT****
 Total Charge           Charge          ....    0
 Multiplicity           Mult            ....    1
 Number of Electrons    NEL             ....   54
 Basis Dimension        Dim             ....  148

MULLIKEN ATOMIC CHARGES
-----------------------
   0 C :    0.014922
   1 C :   -0.153376
   2 C :    0.264102
   3 O :   -0.290099
   4 C :    0.092537
   5 C :   -0.169196
   6 C :    0.092253
   7 H :    0.024699
   8 H :    0.025302
   9 H :    0.019838
  10 H :    0.013450
  11 H :    0.017007
  12 H :    0.003986
  13 H :   -0.010077
  14 H :    0.011482
  15 H :    0.022852
  16 H :    0.020319
Sum of atomic charges:   -0.0000000

LOEWDIN ATOMIC CHARGES
----------------------
   0 C :   -0.059613
   1 C :   -0.046499
   2 C :    0.087857
   3 O :   -0.097817
   4 C :    0.025413
   5 C :   -0.111254
   6 C :   -0.055365
   7 H :    0.027481
   8 H :    0.027696
   9 H :    0.025425
  10 H :    0.026775
  11 H :    0.020603
  12 H :    0.014467
  13 H :    0.018257
  14 H :    0.034463
  15 H :    0.030251
  16 H :    0.031860

  Mayer bond orders larger than 0.1
B(  0-C ,  1-C ) :   1.0845 B(  0-C ,  7-H ) :   0.9621 B(  0-C ,  8-H ) :   0.9560
B(  0-C ,  9-H ) :   0.9547 B(  1-C ,  2-C ) :   1.0641 B(  1-C ,  5-C ) :   1.0289
B(  1-C , 10-H ) :   0.8804 B(  2-C ,  3-O ) :   0.9717 B(  2-C , 11-H ) :   0.9395
B(  2-C , 12-H ) :   0.9310 B(  3-O ,  4-C ) :   1.1055 B(  3-O ,  5-C ) :   0.1146
B(  4-C ,  5-C ) :   1.7359 B(  4-C , 13-H ) :   0.9888 B(  5-C ,  6-C ) :   1.1277
B(  6-C , 14-H ) :   0.9437 B(  6-C , 15-H ) :   0.9404 B(  6-C , 16-H ) :   0.9400

FINAL SINGLE POINT ENERGY      -309.228061115977

DIPOLE MOMENT
-------------
                                X             Y             Z
Electronic contribution:      4.75608      -2.99800       3.56949
Nuclear contribution   :     -5.06541       3.18983      -3.90971
                        -----------------------------------------
Total Dipole Moment    :     -0.30933       0.19184      -0.34021
                        -----------------------------------------
Magnitude (a.u.)       :      0.49823
Magnitude (Debye)      :      1.26639

                             ****ORCA TERMINATED NORMALLY****
TOTAL RUN TIME: 0 days 0 hours 0 minutes 7 seconds 795 msec
