                         Program Version 3.0.3 - RELEASE   -
|  1> ! RI PBE def2-SVP def2-SVP/J NBO PAL2
|  2> % maxcore 2000
|  3> % output
|  4>     # printlevel mini
|  5>     print[ P_Basis ] 0
|  6>     print[ P_SCFInfo ] 1
|  7>     print[ P_SCFIterInfo ] 1
|  8>     print[ P_OrbEn ] 0
|  9>     print[ P_Cartesian ] 0
| 10> end
| 11> *xyz 0 1
| 12>  C        1.0320340000    -0.0325300000    -0.0015020000
| 13>  C        2.5443090000    -0.0767980000     0.0661040000
| 14>  C        3.1879450000     1.0096900000     0.9230230000
| 15>  O        4.4824920000     0.5301050000     1.2164890000
| 16>  C        4.3676520000    -0.8613290000     1.4454870000
| 17>  C        3.1421490000    -1.3137040000     0.6892770000
| 18>  C        2.6720840000    -2.5506150000     0.6355180000
| 19>  H        0.6866900000     0.9162690000    -0.4200750000
| 20>  H        0.5949560000    -0.1475840000     0.9936040000
| 21>  H        0.6381900000    -0.8307810000    -0.6340180000
| 22>  H        2.9582850000     0.0202790000    -0.9465610000
| 23>  H        2.6047940000     1.1581400000     1.8465680000
| 24>  H        3.2890220000     1.9713210000     0.4172140000
| 25>  H        4.2534420000    -1.0679750000     2.5197870000
| 26>  H        5.2872160000    -1.3425370000     1.1025780000
| 27>  H        3.1774870000    -3.3717340000     1.1328090000
| 28>  H        1.7660630000    -2.7927070000     0.0918860000
| 29> *
| 30>
| 31>                          ****END OF INPUT****
 Total Charge           Charge          ....    0
 Multiplicity           Mult            ....    1
 Number of Electrons    NEL             ....   54
 Basis Dimension        Dim             ....  148

MULLIKEN ATOMIC CHARGES
-----------------------
   0 C :    0.032919
   1 C :   -0.105758
   2 C :    0.227340
   3 O :   -0.354701
   4 C :    0.301073
   5 C :   -0.217019
   6 C :   -0.040096
   7 H :    0.020287
   8 H :    0.019544
   9 H :    0.028978
  10 H :    0.033171
  11 H :   -0.004527
  12 H :    0.009672
  13 H :    0.010738
  14 H :    0.023024
  15 H :    0.006996
  16 H :    0.008359
Sum of atomic charges:    0.0000000

LOEWDIN ATOMIC CHARGES
----------------------
   0 C :   -0.051915
   1 C :   -0.055621
   2 C :    0.068456
   3 O :   -0.153864
   4 C :    0.068502
   5 C :   -0.040788
   6 C :   -0.076630
   7 H :    0.028950
   8 H :    0.027741
   9 H :    0.028882
  10 H :    0.041557
  11 H :    0.002837
  12 H :    0.019557
  13 H :    0.018806
  14 H :    0.027797
  15 H :    0.023783
  16 H :    0.021948

  Mayer bond orders larger than 0.1
B(  0-C ,  1-C ) :   1.0976 B(  0-C ,  7-H ) :   0.9586 B(  0-C ,  8-H ) :   0.9574
B(  0-C ,  9-H ) :   0.9519 B(  1-C ,  2-C ) :   1.0428 B(  1-C ,  5-C ) :   1.0186
B(  1-C , 10-H ) :   0.8745 B(  2-C ,  3-O ) :   1.0144 B(  2-C , 11-H ) :   0.9262
B(  2-C , 12-H ) :   0.9357 B(  3-O ,  4-C ) :   1.0255 B(  4-C ,  5-C ) :   1.0151
B(  4-C , 13-H ) :   0.9115 B(  4-C , 14-H ) :   0.9284 B(  5-C ,  6-C ) :   2.0260
B(  6-C , 15-H ) :   0.9315 B(  6-C , 16-H ) :   0.9287

FINAL SINGLE POINT ENERGY      -309.216007746909

DIPOLE MOMENT
-------------
                                X             Y             Z
Electronic contribution:      4.59114       0.86571       0.89670
Nuclear contribution   :     -5.02982      -1.02376      -1.02943
                        -----------------------------------------
Total Dipole Moment    :     -0.43867      -0.15806      -0.13273
                        -----------------------------------------
Magnitude (a.u.)       :      0.48480
Magnitude (Debye)      :      1.23227

                             ****ORCA TERMINATED NORMALLY****
TOTAL RUN TIME: 0 days 0 hours 0 minutes 6 seconds 869 msec
