                         Program Version 3.0.3 - RELEASE   -
|  1> ! RI PBE def2-SVP def2-SVP/J NBO PAL2
|  2> % maxcore 2000
|  3> % output
|  4>     # printlevel mini
|  5>     print[ P_Basis ] 0
|  6>     print[ P_SCFInfo ] 1
|  7>     print[ P_SCFIterInfo ] 1
|  8>     print[ P_OrbEn ] 0
|  9>     print[ P_Cartesian ] 0
| 10> end
| 11> *xyz 0 1
| 12>  C        0.8405170000     0.0383820000     0.0048960000
| 13>  C        2.3265800000     0.0240460000     0.0086500000
| 14>  C        3.1875070000     1.0712050000     0.0122560000
| 15>  O        4.4717600000     0.6611770000     0.0149630000
| 16>  C        4.4533600000    -0.6976500000     0.0130740000
| 17>  C        3.1677160000    -1.1320480000     0.0092200000
| 18>  O        2.6665370000    -2.3898510000     0.0062430000
| 19>  H        0.4608760000     1.0611010000     0.0052710000
| 20>  H        0.4376340000    -0.4747950000     0.8820070000
| 21>  H        0.4420980000    -0.4724930000    -0.8755920000
| 22>  H        3.0289620000     2.1376860000     0.0132980000
| 23>  H        5.4078220000    -1.1970340000     0.0148220000
| 24>  H        3.3882300000    -3.0237160000     0.0071930000
| 25> *
| 26>
| 27>                          ****END OF INPUT****
 Total Charge           Charge          ....    0
 Multiplicity           Mult            ....    1
 Number of Electrons    NEL             ....   52
 Basis Dimension        Dim             ....  128

MULLIKEN ATOMIC CHARGES
-----------------------
   0 C :    0.086243
   1 C :   -0.104963
   2 C :    0.034793
   3 O :   -0.170396
   4 C :   -0.003695
   5 C :    0.095902
   6 O :   -0.167150
   7 H :    0.010405
   8 H :    0.035452
   9 H :    0.035374
  10 H :   -0.004669
  11 H :   -0.018794
  12 H :    0.171500
Sum of atomic charges:   -0.0000000

LOEWDIN ATOMIC CHARGES
----------------------
   0 C :   -0.051052
   1 C :   -0.099691
   2 C :    0.003966
   3 O :    0.026998
   4 C :   -0.060305
   5 C :   -0.020935
   6 O :   -0.033739
   7 H :    0.034078
   8 H :    0.039144
   9 H :    0.039130
  10 H :    0.018061
  11 H :    0.013801
  12 H :    0.090543

  Mayer bond orders larger than 0.1
B(  0-C ,  1-C ) :   1.1045 B(  0-C ,  7-H ) :   0.9453 B(  0-C ,  8-H ) :   0.9458
B(  0-C ,  9-H ) :   0.9458 B(  1-C ,  2-C ) :   1.5132 B(  1-C ,  5-C ) :   1.2733
B(  2-C ,  3-O ) :   1.1646 B(  2-C , 10-H ) :   1.0091 B(  3-O ,  4-C ) :   1.1104
B(  4-C ,  5-C ) :   1.4363 B(  4-C , 11-H ) :   1.0142 B(  5-C ,  6-O ) :   1.2246
B(  6-O , 12-H ) :   0.9688

FINAL SINGLE POINT ENERGY      -343.901643143964

DIPOLE MOMENT
-------------
                                X             Y             Z
Electronic contribution:      4.67487      -0.72333       0.01101
Nuclear contribution   :     -4.57839       0.31898      -0.01122
                        -----------------------------------------
Total Dipole Moment    :      0.09648      -0.40435      -0.00020
                        -----------------------------------------
Magnitude (a.u.)       :      0.41570
Magnitude (Debye)      :      1.05662

                             ****ORCA TERMINATED NORMALLY****
TOTAL RUN TIME: 0 days 0 hours 0 minutes 5 seconds 966 msec
