                         Program Version 3.0.3 - RELEASE   -
|  1> ! RI PBE def2-SVP def2-SVP/J NBO PAL2
|  2> % maxcore 2000
|  3> % output
|  4>     # printlevel mini
|  5>     print[ P_Basis ] 0
|  6>     print[ P_SCFInfo ] 1
|  7>     print[ P_SCFIterInfo ] 1
|  8>     print[ P_OrbEn ] 0
|  9>     print[ P_Cartesian ] 0
| 10> end
| 11> *xyz 0 1
| 12>  C        1.1137810000     0.0651520000    -0.1619500000
| 13>  C        2.6045800000     0.0727950000     0.0953380000
| 14>  C        3.0954120000     1.1430750000     1.0531610000
| 15>  O        4.3411240000     0.6886550000     1.5685390000
| 16>  C        4.4838250000    -0.6959760000     1.3191620000
| 17>  C        3.1449140000    -1.1843270000     0.7736470000
| 18>  O        3.2225760000    -2.3295980000    -0.0350370000
| 19>  H        0.7861740000     0.9777670000    -0.6659380000
| 20>  H        0.5592640000    -0.0165500000     0.7775340000
| 21>  H        0.8360930000    -0.7839150000    -0.7902140000
| 22>  H        3.1430810000     0.1831270000    -0.8568680000
| 23>  H        2.3796670000     1.2785150000     1.8774270000
| 24>  H        3.2486580000     2.1145870000     0.5762710000
| 25>  H        4.7830820000    -1.2056360000     2.2390700000
| 26>  H        5.2704820000    -0.8654960000     0.5674260000
| 27>  H        2.4793600000    -1.4606460000     1.5983970000
| 28>  H        3.8225480000    -2.1435180000    -0.7640440000
| 29> *
| 30>
| 31>                          ****END OF INPUT****
 Total Charge           Charge          ....    0
 Multiplicity           Mult            ....    1
 Number of Electrons    NEL             ....   56
 Basis Dimension        Dim             ....  148

MULLIKEN ATOMIC CHARGES
-----------------------
   0 C :    0.054323
   1 C :   -0.203601
   2 C :    0.254287
   3 O :   -0.365892
   4 C :    0.277614
   5 C :    0.014792
   6 O :   -0.254060
   7 H :    0.024793
   8 H :    0.015084
   9 H :    0.026494
  10 H :   -0.002261
  11 H :   -0.001806
  12 H :    0.007273
  13 H :    0.010376
  14 H :   -0.020759
  15 H :    0.010572
  16 H :    0.152771
Sum of atomic charges:   -0.0000000

LOEWDIN ATOMIC CHARGES
----------------------
   0 C :   -0.056317
   1 C :   -0.078217
   2 C :    0.072871
   3 O :   -0.163271
   4 C :    0.051829
   5 C :    0.028649
   6 O :   -0.097520
   7 H :    0.028582
   8 H :    0.026538
   9 H :    0.030587
  10 H :    0.023025
  11 H :    0.006493
  12 H :    0.016985
  13 H :    0.017231
  14 H :    0.002309
  15 H :    0.024528
  16 H :    0.065697

  Mayer bond orders larger than 0.1
B(  0-C ,  1-C ) :   1.0914 B(  0-C ,  7-H ) :   0.9632 B(  0-C ,  8-H ) :   0.9514
B(  0-C ,  9-H ) :   0.9512 B(  1-C ,  2-C ) :   1.0449 B(  1-C ,  5-C ) :   1.0003
B(  1-C , 10-H ) :   0.8934 B(  2-C ,  3-O ) :   1.0066 B(  2-C , 11-H ) :   0.9346
B(  2-C , 12-H ) :   0.9328 B(  3-O ,  4-C ) :   1.0209 B(  4-C ,  5-C ) :   1.0366
B(  4-C , 13-H ) :   0.9315 B(  4-C , 14-H ) :   0.9161 B(  5-C ,  6-O ) :   1.0785
B(  5-C , 15-H ) :   0.9046 B(  6-O , 16-H ) :   0.9774

FINAL SINGLE POINT ENERGY      -346.293200119712

DIPOLE MOMENT
-------------
                                X             Y             Z
Electronic contribution:      3.77985      -1.32136       1.32475
Nuclear contribution   :     -3.94035       1.43376      -1.79259
                        -----------------------------------------
Total Dipole Moment    :     -0.16051       0.11240      -0.46784
                        -----------------------------------------
Magnitude (a.u.)       :      0.50722
Magnitude (Debye)      :      1.28924

                             ****ORCA TERMINATED NORMALLY****
TOTAL RUN TIME: 0 days 0 hours 0 minutes 7 seconds 683 msec
