                         Program Version 3.0.3 - RELEASE   -
|  1> ! RI PBE def2-SVP def2-SVP/J NBO PAL2
|  2> % maxcore 2000
|  3> % output
|  4>     # printlevel mini
|  5>     print[ P_Basis ] 0
|  6>     print[ P_SCFInfo ] 1
|  7>     print[ P_SCFIterInfo ] 1
|  8>     print[ P_OrbEn ] 0
|  9>     print[ P_Cartesian ] 0
| 10> end
| 11> *xyz 0 1
| 12>  C        0.9974330000     0.0334110000     0.2459490000
| 13>  C        2.3003170000     0.1040330000     0.0075810000
| 14>  C        3.2122250000     1.2858890000    -0.0282500000
| 15>  O        4.5178150000     0.8006600000    -0.3319250000
| 16>  C        4.5353700000    -0.5966600000    -0.4965080000
| 17>  C        3.1253660000    -1.0980390000    -0.2875610000
| 18>  O        2.7554090000    -2.2405120000    -0.3496590000
| 19>  H        0.3914650000     0.9064970000     0.4616030000
| 20>  H        0.5085330000    -0.9351250000     0.2264360000
| 21>  H        3.2429760000     1.8091820000     0.9342840000
| 22>  H        2.9151810000     2.0096990000    -0.7957750000
| 23>  H        5.2081280000    -1.0677960000     0.2304510000
| 24>  H        4.8803810000    -0.8678180000    -1.5017260000
| 25> *
| 26>
| 27>                          ****END OF INPUT****
 Total Charge           Charge          ....    0
 Multiplicity           Mult            ....    1
 Number of Electrons    NEL             ....   52
 Basis Dimension        Dim             ....  128

MULLIKEN ATOMIC CHARGES
-----------------------
   0 C :   -0.004208
   1 C :   -0.218876
   2 C :    0.302562
   3 O :   -0.373336
   4 C :    0.246069
   5 C :   -0.039335
   6 O :   -0.131589
   7 H :    0.031107
   8 H :    0.043843
   9 H :    0.030884
  10 H :    0.033992
  11 H :    0.042310
  12 H :    0.036577
Sum of atomic charges:   -0.0000000

LOEWDIN ATOMIC CHARGES
----------------------
   0 C :    0.013873
   1 C :   -0.091601
   2 C :    0.075093
   3 O :   -0.163304
   4 C :    0.040113
   5 C :    0.039322
   6 O :   -0.106549
   7 H :    0.031879
   8 H :    0.036460
   9 H :    0.027643
  10 H :    0.028153
  11 H :    0.035031
  12 H :    0.033884

  Mayer bond orders larger than 0.1
B(  0-C ,  1-C ) :   1.9652 B(  0-C ,  7-H ) :   0.9385 B(  0-C ,  8-H ) :   0.9165
B(  1-C ,  2-C ) :   1.0243 B(  1-C ,  5-C ) :   0.9752 B(  2-C ,  3-O ) :   0.9903
B(  2-C ,  9-H ) :   0.9171 B(  2-C , 10-H ) :   0.9174 B(  3-O ,  4-C ) :   1.0230
B(  4-C ,  5-C ) :   0.9755 B(  4-C , 11-H ) :   0.9070 B(  4-C , 12-H ) :   0.9073
B(  5-C ,  6-O ) :   2.1957

FINAL SINGLE POINT ENERGY      -343.882517934525

DIPOLE MOMENT
-------------
                                X             Y             Z
Electronic contribution:      1.00538      -2.44554      -0.47185
Nuclear contribution   :     -1.33258       3.12762       0.61468
                        -----------------------------------------
Total Dipole Moment    :     -0.32720       0.68209       0.14283
                        -----------------------------------------
Magnitude (a.u.)       :      0.76987
Magnitude (Debye)      :      1.95686

                             ****ORCA TERMINATED NORMALLY****
TOTAL RUN TIME: 0 days 0 hours 0 minutes 6 seconds 326 msec
