                         Program Version 3.0.3 - RELEASE   -
|  1> ! RI PBE def2-SVP def2-SVP/J NBO PAL2
|  2> % maxcore 2000
|  3> % output
|  4>     # printlevel mini
|  5>     print[ P_Basis ] 0
|  6>     print[ P_SCFInfo ] 1
|  7>     print[ P_SCFIterInfo ] 1
|  8>     print[ P_OrbEn ] 0
|  9>     print[ P_Cartesian ] 0
| 10> end
| 11> *xyz 0 1
| 12>  C        0.9889590000    -0.0476800000     0.3118480000
| 13>  C        2.4474190000    -0.0103640000     0.0330620000
| 14>  C        3.2588960000    -1.0169220000    -0.2905900000
| 15>  O        4.5579330000    -0.6914870000    -0.5015280000
| 16>  C        4.6796390000     0.6868290000    -0.1224400000
| 17>  C        3.2598220000     1.2550040000    -0.0481980000
| 18>  O        2.8933660000     2.0638300000    -1.1565120000
| 19>  H        0.5862800000    -1.0553540000     0.1929380000
| 20>  H        0.4409320000     0.6187420000    -0.3607840000
| 21>  H        0.7695410000     0.2824400000     1.3327010000
| 22>  H        3.0289050000    -2.0670390000    -0.4200220000
| 23>  H        5.2955770000     1.2048690000    -0.8581460000
| 24>  H        5.1686620000     0.7205140000     0.8557240000
| 25>  H        3.1423220000     1.9088970000     0.8193850000
| 26>  H        2.7916270000     1.4822220000    -1.9168060000
| 27> *
| 28>
| 29>                          ****END OF INPUT****
 Total Charge           Charge          ....    0
 Multiplicity           Mult            ....    1
 Number of Electrons    NEL             ....   54
 Basis Dimension        Dim             ....  138

MULLIKEN ATOMIC CHARGES
-----------------------
   0 C :    0.106812
   1 C :   -0.232314
   2 C :    0.100254
   3 O :   -0.283669
   4 C :    0.247396
   5 C :    0.065186
   6 O :   -0.261772
   7 H :    0.011650
   8 H :    0.023917
   9 H :    0.022794
  10 H :   -0.001920
  11 H :    0.020875
  12 H :    0.023255
  13 H :    0.004019
  14 H :    0.153518
Sum of atomic charges:    0.0000000

LOEWDIN ATOMIC CHARGES
----------------------
   0 C :   -0.054318
   1 C :   -0.138233
   2 C :    0.030384
   3 O :   -0.091514
   4 C :    0.067910
   5 C :    0.038996
   6 O :   -0.113825
   7 H :    0.032509
   8 H :    0.033022
   9 H :    0.034214
  10 H :    0.020259
  11 H :    0.025124
  12 H :    0.024462
  13 H :    0.024264
  14 H :    0.066748

  Mayer bond orders larger than 0.1
B(  0-C ,  1-C ) :   1.1179 B(  0-C ,  7-H ) :   0.9513 B(  0-C ,  8-H ) :   0.9398
B(  0-C ,  9-H ) :   0.9402 B(  1-C ,  2-C ) :   1.6809 B(  1-C ,  3-O ) :   0.1136
B(  1-C ,  5-C ) :   1.0402 B(  2-C ,  3-O ) :   1.1293 B(  2-C , 10-H ) :   0.9903
B(  3-O ,  4-C ) :   0.9607 B(  4-C ,  5-C ) :   1.0288 B(  4-C , 11-H ) :   0.9273
B(  4-C , 12-H ) :   0.9270 B(  5-C ,  6-O ) :   1.0683 B(  5-C , 13-H ) :   0.9017
B(  6-O , 14-H ) :   0.9778

FINAL SINGLE POINT ENERGY      -345.088452006866

DIPOLE MOMENT
-------------
                                X             Y             Z
Electronic contribution:      3.61912      -0.51101      -1.68991
Nuclear contribution   :     -3.78979       0.25332       1.77097
                        -----------------------------------------
Total Dipole Moment    :     -0.17067      -0.25769       0.08106
                        -----------------------------------------
Magnitude (a.u.)       :      0.31953
Magnitude (Debye)      :      0.81218

                             ****ORCA TERMINATED NORMALLY****
TOTAL RUN TIME: 0 days 0 hours 0 minutes 6 seconds 871 msec
