                         Program Version 3.0.3 - RELEASE   -
|  1> ! RI PBE def2-SVP def2-SVP/J NBO PAL2
|  2> % maxcore 2000
|  3> % output
|  4>     # printlevel mini
|  5>     print[ P_Basis ] 0
|  6>     print[ P_SCFInfo ] 1
|  7>     print[ P_SCFIterInfo ] 1
|  8>     print[ P_OrbEn ] 0
|  9>     print[ P_Cartesian ] 0
| 10> end
| 11> *xyz 0 1
| 12>  C        1.0340820000    -0.0811390000     0.1124550000
| 13>  C        2.5182590000    -0.0801630000    -0.1577540000
| 14>  C        2.8353880000     0.0110330000    -1.6337650000
| 15>  O        3.1823630000     0.9819470000     0.5801180000
| 16>  C        4.1694740000     0.0776220000     1.0854670000
| 17>  C        3.3564630000    -1.1255130000     0.6062120000
| 18>  O        3.9790550000    -2.0902200000    -0.1940500000
| 19>  H        0.5721660000     0.8200270000    -0.2982760000
| 20>  H        0.8365650000    -0.1078110000     1.1858600000
| 21>  H        0.5630400000    -0.9500530000    -0.3546610000
| 22>  H        2.4018870000     0.9283440000    -2.0388080000
| 23>  H        2.4199100000    -0.8424540000    -2.1734110000
| 24>  H        3.9117980000     0.0269520000    -1.8063350000
| 25>  H        4.3259060000     0.1961400000     2.1616920000
| 26>  H        5.1279130000     0.1709510000     0.5600760000
| 27>  H        2.7761100000    -1.5901420000     1.4109550000
| 28>  H        4.3329230000    -2.7824210000     0.3683130000
| 29> *
| 30>
| 31>                          ****END OF INPUT****
 Total Charge           Charge          ....    0
 Multiplicity           Mult            ....    1
 Number of Electrons    NEL             ....   56
 Basis Dimension        Dim             ....  148

MULLIKEN ATOMIC CHARGES
-----------------------
   0 C :    0.093028
   1 C :   -0.191279
   2 C :    0.126412
   3 O :   -0.341216
   4 C :    0.244643
   5 C :    0.050868
   6 O :   -0.227169
   7 H :    0.023029
   8 H :    0.008068
   9 H :    0.019694
  10 H :    0.016322
  11 H :    0.017508
  12 H :    0.009125
  13 H :    0.006623
  14 H :   -0.003720
  15 H :   -0.012956
  16 H :    0.161019
Sum of atomic charges:    0.0000000

LOEWDIN ATOMIC CHARGES
----------------------
   0 C :   -0.060715
   1 C :    0.022811
   2 C :   -0.057118
   3 O :   -0.176341
   4 C :    0.062352
   5 C :    0.031917
   6 O :   -0.099229
   7 H :    0.032167
   8 H :    0.024151
   9 H :    0.032470
  10 H :    0.029816
  11 H :    0.031839
  12 H :    0.029206
  13 H :    0.008266
  14 H :    0.006124
  15 H :    0.007304
  16 H :    0.074980

  Mayer bond orders larger than 0.1
B(  0-C ,  1-C ) :   1.0725 B(  0-C ,  7-H ) :   0.9519 B(  0-C ,  8-H ) :   0.9412
B(  0-C ,  9-H ) :   0.9510 B(  1-C ,  2-C ) :   1.0559 B(  1-C ,  3-O ) :   1.0237
B(  1-C ,  5-C ) :   1.0136 B(  2-C , 10-H ) :   0.9484 B(  2-C , 11-H ) :   0.9447
B(  2-C , 12-H ) :   0.9389 B(  3-O ,  4-C ) :   1.0372 B(  4-C ,  5-C ) :   1.0573
B(  4-C , 13-H ) :   0.9327 B(  4-C , 14-H ) :   0.9094 B(  5-C ,  6-O ) :   1.1655
B(  5-C , 15-H ) :   0.9146 B(  6-O , 16-H ) :   0.9757

FINAL SINGLE POINT ENERGY      -346.276026249947

DIPOLE MOMENT
-------------
                                X             Y             Z
Electronic contribution:      2.86109      -0.28395       1.80126
Nuclear contribution   :     -2.80188      -0.54783      -1.40969
                        -----------------------------------------
Total Dipole Moment    :      0.05921      -0.83178       0.39157
                        -----------------------------------------
Magnitude (a.u.)       :      0.92124
Magnitude (Debye)      :      2.34162

                             ****ORCA TERMINATED NORMALLY****
TOTAL RUN TIME: 0 days 0 hours 0 minutes 7 seconds 666 msec
