                         Program Version 3.0.3 - RELEASE   -
|  1> ! RI PBE def2-SVP def2-SVP/J NBO PAL2
|  2> % maxcore 2000
|  3> % output
|  4>     # printlevel mini
|  5>     print[ P_Basis ] 0
|  6>     print[ P_SCFInfo ] 1
|  7>     print[ P_SCFIterInfo ] 1
|  8>     print[ P_OrbEn ] 0
|  9>     print[ P_Cartesian ] 0
| 10> end
| 11> *xyz 0 1
| 12>  C        1.1158360000     0.0523540000     0.2608500000
| 13>  C        2.5889030000    -0.0475020000    -0.0643130000
| 14>  C        2.8715640000    -0.0944200000    -1.5487520000
| 15>  O        3.3591430000     0.9943990000     0.5984840000
| 16>  C        4.1104300000     0.0783410000     1.4014960000
| 17>  C        3.3589620000    -1.0774150000     0.7661620000
| 18>  O        3.3581330000    -2.2629580000     0.8616010000
| 19>  H        0.7014980000     0.9601550000    -0.1840990000
| 20>  H        0.9522470000     0.0913420000     1.3391240000
| 21>  H        0.5807070000    -0.8099420000    -0.1422250000
| 22>  H        2.4877600000     0.8108120000    -2.0252000000
| 23>  H        2.3824700000    -0.9605850000    -1.9992370000
| 24>  H        3.9433800000    -0.1586740000    -1.7437890000
| 25>  H        3.9431180000     0.2076050000     2.4766450000
| 26>  H        5.1862500000     0.1036880000     1.1950520000
| 27> *
| 28>
| 29>                          ****END OF INPUT****
 Total Charge           Charge          ....    0
 Multiplicity           Mult            ....    1
 Number of Electrons    NEL             ....   54
 Basis Dimension        Dim             ....  138

MULLIKEN ATOMIC CHARGES
-----------------------
   0 C :    0.106086
   1 C :   -0.209554
   2 C :    0.107416
   3 O :   -0.331000
   4 C :    0.174243
   5 C :   -0.004760
   6 O :   -0.099470
   7 H :    0.031959
   8 H :    0.015613
   9 H :    0.033431
  10 H :    0.033470
  11 H :    0.031803
  12 H :    0.014632
  13 H :    0.047817
  14 H :    0.048313
Sum of atomic charges:   -0.0000000

LOEWDIN ATOMIC CHARGES
----------------------
   0 C :   -0.050503
   1 C :   -0.006430
   2 C :   -0.050090
   3 O :   -0.172587
   4 C :    0.043886
   5 C :    0.047563
   6 O :   -0.082195
   7 H :    0.035928
   8 H :    0.031008
   9 H :    0.038061
  10 H :    0.036048
  11 H :    0.037836
  12 H :    0.030812
  13 H :    0.030280
  14 H :    0.030381

  Mayer bond orders larger than 0.1
B(  0-C ,  1-C ) :   1.0480 B(  0-C ,  7-H ) :   0.9518 B(  0-C ,  8-H ) :   0.9457
B(  0-C ,  9-H ) :   0.9494 B(  1-C ,  2-C ) :   1.0472 B(  1-C ,  3-O ) :   1.0238
B(  1-C ,  5-C ) :   0.9151 B(  2-C , 10-H ) :   0.9527 B(  2-C , 11-H ) :   0.9489
B(  2-C , 12-H ) :   0.9459 B(  3-O ,  4-C ) :   1.0319 B(  4-C ,  5-C ) :   0.9877
B(  4-C , 13-H ) :   0.9182 B(  4-C , 14-H ) :   0.9182 B(  5-C ,  6-O ) :   2.2788

FINAL SINGLE POINT ENERGY      -345.086325712206

DIPOLE MOMENT
-------------
                                X             Y             Z
Electronic contribution:      3.14615      -2.40447       3.24741
Nuclear contribution   :     -3.28666       2.70358      -3.40816
                        -----------------------------------------
Total Dipole Moment    :     -0.14051       0.29911      -0.16076
                        -----------------------------------------
Magnitude (a.u.)       :      0.36749
Magnitude (Debye)      :      0.93409

                             ****ORCA TERMINATED NORMALLY****
TOTAL RUN TIME: 0 days 0 hours 0 minutes 6 seconds 886 msec
