                         Program Version 3.0.3 - RELEASE   -
|  1> ! RI PBE def2-SVP def2-SVP/J NBO PAL2
|  2> % maxcore 2000
|  3> % output
|  4>     # printlevel mini
|  5>     print[ P_Basis ] 0
|  6>     print[ P_SCFInfo ] 1
|  7>     print[ P_SCFIterInfo ] 1
|  8>     print[ P_OrbEn ] 0
|  9>     print[ P_Cartesian ] 0
| 10> end
| 11> *xyz 0 1
| 12>  C        1.0445460000     0.0177870000    -0.1591760000
| 13>  C        2.1549130000     0.0935250000     0.8598520000
| 14>  C        3.3571020000     1.0282210000     0.5962350000
| 15>  O        3.4554900000     1.3559240000    -0.7677100000
| 16>  C        4.3017580000    -0.1023230000     1.0612780000
| 17>  C        3.1242040000    -1.1009850000     1.0082580000
| 18>  O        3.0970140000    -1.9213600000    -0.1335210000
| 19>  H        1.4366710000    -0.2163340000    -1.1473890000
| 20>  H        0.5135380000     0.9708920000    -0.2189700000
| 21>  H        0.3245460000    -0.7569210000     0.1153800000
| 22>  H        1.7453310000     0.3293110000     1.8467980000
| 23>  H        3.3769450000     1.9372440000     1.2108540000
| 24>  H        4.2924600000     1.8050690000    -0.9099040000
| 25>  H        4.6975200000     0.0492380000     2.0682020000
| 26>  H        5.1242240000    -0.3245810000     0.3776180000
| 27>  H        2.9788900000    -1.7018740000     1.9150610000
| 28>  H        3.8155370000    -2.5551230000    -0.0661650000
| 29> *
| 30>
| 31>                          ****END OF INPUT****
 Total Charge           Charge          ....    0
 Multiplicity           Mult            ....    1
 Number of Electrons    NEL             ....   56
 Basis Dimension        Dim             ....  148

MULLIKEN ATOMIC CHARGES
-----------------------
   0 C :    0.078912
   1 C :   -0.120164
   2 C :    0.021053
   3 O :   -0.238404
   4 C :    0.164532
   5 C :    0.025055
   6 O :   -0.239740
   7 H :    0.030640
   8 H :    0.015894
   9 H :    0.014490
  10 H :   -0.002472
  11 H :   -0.014166
  12 H :    0.154164
  13 H :   -0.004090
  14 H :   -0.026070
  15 H :   -0.013083
  16 H :    0.153450
Sum of atomic charges:    0.0000000

LOEWDIN ATOMIC CHARGES
----------------------
   0 C :   -0.058034
   1 C :   -0.051444
   2 C :    0.051051
   3 O :   -0.105069
   4 C :   -0.069282
   5 C :    0.051459
   6 O :   -0.105004
   7 H :    0.030710
   8 H :    0.028673
   9 H :    0.028616
  10 H :    0.028121
  11 H :   -0.004700
  12 H :    0.069361
  13 H :    0.023060
  14 H :    0.018206
  15 H :   -0.004745
  16 H :    0.069022

  Mayer bond orders larger than 0.1
B(  0-C ,  1-C ) :   1.1084 B(  0-C ,  7-H ) :   0.9453 B(  0-C ,  8-H ) :   0.9563
B(  0-C ,  9-H ) :   0.9549 B(  1-C ,  2-C ) :   1.0407 B(  1-C ,  5-C ) :   1.0408
B(  1-C , 10-H ) :   0.8929 B(  2-C ,  3-O ) :   1.1253 B(  2-C ,  4-C ) :   1.0963
B(  2-C , 11-H ) :   0.9163 B(  3-O , 12-H ) :   0.9797 B(  4-C ,  5-C ) :   1.0942
B(  4-C , 13-H ) :   0.9013 B(  4-C , 14-H ) :   0.8610 B(  5-C ,  6-O ) :   1.1222
B(  5-C , 15-H ) :   0.9178 B(  6-O , 16-H ) :   0.9803

FINAL SINGLE POINT ENERGY      -346.273941417638

DIPOLE MOMENT
-------------
                                X             Y             Z
Electronic contribution:      1.92110      -0.48350      -1.40937
Nuclear contribution   :     -1.11245       0.50439       1.97771
                        -----------------------------------------
Total Dipole Moment    :      0.80866       0.02090       0.56833
                        -----------------------------------------
Magnitude (a.u.)       :      0.98862
Magnitude (Debye)      :      2.51287

                             ****ORCA TERMINATED NORMALLY****
TOTAL RUN TIME: 0 days 0 hours 0 minutes 7 seconds 126 msec
