                         Program Version 3.0.3 - RELEASE   -
|  1> ! RI PBE def2-SVP def2-SVP/J NBO PAL2
|  2> % maxcore 2000
|  3> % output
|  4>     # printlevel mini
|  5>     print[ P_Basis ] 0
|  6>     print[ P_SCFInfo ] 1
|  7>     print[ P_SCFIterInfo ] 1
|  8>     print[ P_OrbEn ] 0
|  9>     print[ P_Cartesian ] 0
| 10> end
| 11> *xyz 0 1
| 12>  C        0.9841490000    -0.0563370000    -0.0159900000
| 13>  C        2.4877650000     0.0231350000     0.0766170000
| 14>  C        3.1852140000     1.0601540000     0.9954130000
| 15>  O        2.3044510000     1.4320350000     2.0258230000
| 16>  C        4.2110300000    -0.0149810000     1.4321000000
| 17>  C        3.2675820000    -1.0518810000     0.8293490000
| 18>  O        3.1321740000    -2.2287170000     0.9657610000
| 19>  H        0.5765320000     0.7876340000    -0.5763230000
| 20>  H        0.5352430000    -0.0542320000     0.9771680000
| 21>  H        0.6922780000    -0.9777430000    -0.5237120000
| 22>  H        2.9392510000     0.0947030000    -0.9213040000
| 23>  H        3.5967380000     1.9381660000     0.4876210000
| 24>  H        2.7960120000     1.9294040000     2.6842080000
| 25>  H        4.4155820000    -0.1031970000     2.5004900000
| 26>  H        5.1557810000     0.0339570000     0.8835580000
| 27> *
| 28>
| 29>                          ****END OF INPUT****
 Total Charge           Charge          ....    0
 Multiplicity           Mult            ....    1
 Number of Electrons    NEL             ....   54
 Basis Dimension        Dim             ....  138

MULLIKEN ATOMIC CHARGES
-----------------------
   0 C :    0.072522
   1 C :   -0.153277
   2 C :    0.053602
   3 O :   -0.238938
   4 C :    0.052311
   5 C :   -0.012644
   6 O :   -0.111053
   7 H :    0.025421
   8 H :    0.031307
   9 H :    0.032972
  10 H :    0.037723
  11 H :   -0.013617
  12 H :    0.161078
  13 H :    0.025237
  14 H :    0.037355
Sum of atomic charges:   -0.0000000

LOEWDIN ATOMIC CHARGES
----------------------
   0 C :   -0.053363
   1 C :   -0.080157
   2 C :    0.054247
   3 O :   -0.102620
   4 C :   -0.083476
   5 C :    0.059138
   6 O :   -0.095931
   7 H :    0.031922
   8 H :    0.032924
   9 H :    0.036021
  10 H :    0.048297
  11 H :   -0.000390
  12 H :    0.074013
  13 H :    0.034620
  14 H :    0.044757

  Mayer bond orders larger than 0.1
B(  0-C ,  1-C ) :   1.0957 B(  0-C ,  7-H ) :   0.9587 B(  0-C ,  8-H ) :   0.9557
B(  0-C ,  9-H ) :   0.9542 B(  1-C ,  2-C ) :   1.0111 B(  1-C ,  4-C ) :  -0.1001
B(  1-C ,  5-C ) :   0.9192 B(  1-C , 10-H ) :   0.8781 B(  2-C ,  3-O ) :   1.1148
B(  2-C ,  4-C ) :   1.0733 B(  2-C , 11-H ) :   0.8985 B(  3-O , 12-H ) :   0.9784
B(  4-C ,  5-C ) :   0.9741 B(  4-C , 13-H ) :   0.9011 B(  4-C , 14-H ) :   0.8982
B(  5-C ,  6-O ) :   2.2740

FINAL SINGLE POINT ENERGY      -345.089647215996

DIPOLE MOMENT
-------------
                                X             Y             Z
Electronic contribution:      1.92050      -2.98938       1.75821
Nuclear contribution   :     -1.38793       4.12990      -1.80406
                        -----------------------------------------
Total Dipole Moment    :      0.53256       1.14053      -0.04585
                        -----------------------------------------
Magnitude (a.u.)       :      1.25958
Magnitude (Debye)      :      3.20159

                             ****ORCA TERMINATED NORMALLY****
TOTAL RUN TIME: 0 days 0 hours 0 minutes 7 seconds 305 msec
