                         Program Version 3.0.3 - RELEASE   -
|  1> ! RI PBE def2-SVP def2-SVP/J NBO PAL2
|  2> % maxcore 2000
|  3> % output
|  4>     # printlevel mini
|  5>     print[ P_Basis ] 0
|  6>     print[ P_SCFInfo ] 1
|  7>     print[ P_SCFIterInfo ] 1
|  8>     print[ P_OrbEn ] 0
|  9>     print[ P_Cartesian ] 0
| 10> end
| 11> *xyz 0 1
| 12>  C        0.9760470000    -0.0282220000     0.0976540000
| 13>  C        2.4882300000     0.0000980000     0.1388860000
| 14>  C        3.1484510000     1.0720760000     0.9945580000
| 15>  O        4.4405700000     0.5696520000     1.3042210000
| 16>  C        4.3110210000    -0.8121080000     1.5310880000
| 17>  C        3.1080530000    -1.2591540000     0.7218310000
| 18>  O        2.7129530000    -2.3844050000     0.5966970000
| 19>  H        0.5756540000     0.8505930000    -0.4116710000
| 20>  H        0.5587630000    -0.0550850000     1.1074490000
| 21>  H        0.6305580000    -0.9194520000    -0.4285250000
| 22>  H        2.8933970000     0.0759340000    -0.8798020000
| 23>  H        2.5673470000     1.2364670000     1.9154180000
| 24>  H        3.2776020000     2.0301940000     0.4910880000
| 25>  H        4.1224930000    -1.0409400000     2.5917450000
| 26>  H        5.2229620000    -1.3290490000     1.2254530000
| 27> *
| 28>
| 29>                          ****END OF INPUT****
 Total Charge           Charge          ....    0
 Multiplicity           Mult            ....    1
 Number of Electrons    NEL             ....   54
 Basis Dimension        Dim             ....  138

MULLIKEN ATOMIC CHARGES
-----------------------
   0 C :    0.044083
   1 C :   -0.178060
   2 C :    0.231913
   3 O :   -0.353293
   4 C :    0.261106
   5 C :   -0.094388
   6 O :   -0.137804
   7 H :    0.027480
   8 H :    0.020309
   9 H :    0.038702
  10 H :    0.050662
  11 H :    0.002415
  12 H :    0.019295
  13 H :    0.024915
  14 H :    0.042665
Sum of atomic charges:   -0.0000000

LOEWDIN ATOMIC CHARGES
----------------------
   0 C :   -0.048989
   1 C :   -0.093958
   2 C :    0.072297
   3 O :   -0.151736
   4 C :    0.033672
   5 C :    0.047751
   6 O :   -0.104972
   7 H :    0.030637
   8 H :    0.028942
   9 H :    0.035526
  10 H :    0.052880
  11 H :    0.006457
  12 H :    0.023568
  13 H :    0.029454
  14 H :    0.038473

  Mayer bond orders larger than 0.1
B(  0-C ,  1-C ) :   1.0879 B(  0-C ,  7-H ) :   0.9640 B(  0-C ,  8-H ) :   0.9607
B(  0-C ,  9-H ) :   0.9498 B(  1-C ,  2-C ) :   1.0475 B(  1-C ,  5-C ) :   0.9294
B(  1-C , 10-H ) :   0.8675 B(  2-C ,  3-O ) :   0.9967 B(  2-C , 11-H ) :   0.9255
B(  2-C , 12-H ) :   0.9360 B(  3-O ,  4-C ) :   1.0344 B(  4-C ,  5-C ) :   0.9744
B(  4-C , 13-H ) :   0.8940 B(  4-C , 14-H ) :   0.9233 B(  5-C ,  6-O ) :   2.2212

FINAL SINGLE POINT ENERGY      -345.105447783383

DIPOLE MOMENT
-------------
                                X             Y             Z
Electronic contribution:      3.86928      -3.20519       0.52303
Nuclear contribution   :     -4.07634       3.81880      -0.57169
                        -----------------------------------------
Total Dipole Moment    :     -0.20707       0.61361      -0.04865
                        -----------------------------------------
Magnitude (a.u.)       :      0.64944
Magnitude (Debye)      :      1.65073

                             ****ORCA TERMINATED NORMALLY****
TOTAL RUN TIME: 0 days 0 hours 0 minutes 6 seconds 374 msec
