                         Program Version 3.0.3 - RELEASE   -
|  1> ! RI PBE def2-SVP def2-SVP/J NBO PAL2
|  2> % maxcore 2000
|  3> % output
|  4>     # printlevel mini
|  5>     print[ P_Basis ] 0
|  6>     print[ P_SCFInfo ] 1
|  7>     print[ P_SCFIterInfo ] 1
|  8>     print[ P_OrbEn ] 0
|  9>     print[ P_Cartesian ] 0
| 10> end
| 11> *xyz 0 1
| 12>  C        1.0447700000     0.0025460000    -0.0401220000
| 13>  C        2.5155720000     0.1481220000    -0.0331680000
| 14>  C        3.3483260000     1.2188250000    -0.0297930000
| 15>  C        4.6879050000     0.7146490000    -0.0231050000
| 16>  C        5.9486570000     1.5139300000    -0.0175350000
| 17>  C        4.5546960000    -0.6337800000    -0.0229650000
| 18>  O        3.2457740000    -0.9912950000    -0.0290220000
| 19>  H        0.5760080000     0.9863890000    -0.0429300000
| 20>  H        0.6945640000    -0.5428600000     0.8409030000
| 21>  H        0.7030080000    -0.5438730000    -0.9238320000
| 22>  H        3.0496300000     2.2563280000    -0.0318140000
| 23>  H        5.7268310000     2.5820410000    -0.0192500000
| 24>  H        6.5644680000     1.3051320000    -0.8957540000
| 25>  H        6.5560010000     1.3062040000     0.8668130000
| 26>  H        5.2644910000    -1.4450450000    -0.0191050000
| 27> *
| 28>
| 29>                          ****END OF INPUT****
 Total Charge           Charge          ....    0
 Multiplicity           Mult            ....    1
 Number of Electrons    NEL             ....   52
 Basis Dimension        Dim             ....  138

MULLIKEN ATOMIC CHARGES
-----------------------
   0 C :    0.098130
   1 C :   -0.013416
   2 C :   -0.080981
   3 C :   -0.083799
   4 C :    0.071368
   5 C :    0.048237
   6 O :   -0.176456
   7 H :    0.019245
   8 H :    0.038062
   9 H :    0.038001
  10 H :   -0.034315
  11 H :    0.016501
  12 H :    0.035735
  13 H :    0.035590
  14 H :   -0.011902
Sum of atomic charges:   -0.0000000

LOEWDIN ATOMIC CHARGES
----------------------
   0 C :   -0.064710
   1 C :    0.001252
   2 C :   -0.093485
   3 C :   -0.082450
   4 C :   -0.059279
   5 C :   -0.002949
   6 O :    0.025541
   7 H :    0.041885
   8 H :    0.041170
   9 H :    0.041163
  10 H :    0.024654
  11 H :    0.034405
  12 H :    0.038394
  13 H :    0.038374
  14 H :    0.016036

  Mayer bond orders larger than 0.1
B(  0-C ,  1-C ) :   1.1154 B(  0-C ,  7-H ) :   0.9455 B(  0-C ,  8-H ) :   0.9350
B(  0-C ,  9-H ) :   0.9349 B(  1-C ,  2-C ) :   1.5277 B(  1-C ,  6-O ) :   1.1540
B(  2-C ,  3-C ) :   1.2185 B(  2-C , 10-H ) :   1.0106 B(  3-C ,  4-C ) :   1.0959
B(  3-C ,  5-C ) :   1.5423 B(  4-C , 11-H ) :   0.9490 B(  4-C , 12-H ) :   0.9477
B(  4-C , 13-H ) :   0.9476 B(  5-C ,  6-O ) :   1.1327 B(  5-C , 14-H ) :   1.0095

FINAL SINGLE POINT ENERGY      -308.048550213802

DIPOLE MOMENT
-------------
                                X             Y             Z
Electronic contribution:     -0.28625      -3.30358       0.00054
Nuclear contribution   :      0.25624       3.51443      -0.00080
                        -----------------------------------------
Total Dipole Moment    :     -0.03001       0.21085      -0.00026
                        -----------------------------------------
Magnitude (a.u.)       :      0.21297
Magnitude (Debye)      :      0.54133

                             ****ORCA TERMINATED NORMALLY****
TOTAL RUN TIME: 0 days 0 hours 0 minutes 7 seconds 140 msec
