                         Program Version 3.0.3 - RELEASE   -
|  1> ! RI PBE def2-SVP def2-SVP/J NBO PAL2
|  2> % maxcore 2000
|  3> % output
|  4>     # printlevel mini
|  5>     print[ P_Basis ] 0
|  6>     print[ P_SCFInfo ] 1
|  7>     print[ P_SCFIterInfo ] 1
|  8>     print[ P_OrbEn ] 0
|  9>     print[ P_Cartesian ] 0
| 10> end
| 11> *xyz 0 1
| 12>  C        0.9892690000     0.0577650000    -0.0622810000
| 13>  C        2.3143220000    -0.0155700000    -0.0564400000
| 14>  C        3.1119710000     1.2687340000    -0.0517120000
| 15>  O        4.5285580000     1.1848170000    -0.0444170000
| 16>  C        5.1203740000    -0.0244920000    -0.0424460000
| 17>  C        4.5124390000    -1.2036850000    -0.0467570000
| 18>  C        3.0309920000    -1.3405320000    -0.0545760000
| 19>  H        0.4675930000     1.0095660000    -0.0636470000
| 20>  H        0.3758210000    -0.8365460000    -0.0659380000
| 21>  H        2.8356330000     1.8574520000     0.8284850000
| 22>  H        2.8447360000     1.8583280000    -0.9341410000
| 23>  H        6.1990140000     0.0803110000    -0.0367260000
| 24>  H        5.1266670000    -2.0949360000    -0.0444300000
| 25>  H        2.7007240000    -1.9217270000     0.8151300000
| 26>  H        2.7096990000    -1.9193840000    -0.9292040000
| 27> *
| 28>
| 29>                          ****END OF INPUT****
 Total Charge           Charge          ....    0
 Multiplicity           Mult            ....    1
 Number of Electrons    NEL             ....   52
 Basis Dimension        Dim             ....  138

MULLIKEN ATOMIC CHARGES
-----------------------
   0 C :   -0.029782
   1 C :   -0.264764
   2 C :    0.253684
   3 O :   -0.268671
   4 C :    0.099398
   5 C :   -0.149675
   6 C :    0.170779
   7 H :    0.010350
   8 H :    0.011247
   9 H :    0.041984
  10 H :    0.041940
  11 H :    0.010302
  12 H :   -0.008798
  13 H :    0.041012
  14 H :    0.040995
Sum of atomic charges:   -0.0000000

LOEWDIN ATOMIC CHARGES
----------------------
   0 C :   -0.071003
   1 C :   -0.041235
   2 C :    0.075502
   3 O :   -0.076354
   4 C :    0.019154
   5 C :   -0.132181
   6 C :   -0.035501
   7 H :    0.021745
   8 H :    0.023800
   9 H :    0.035716
  10 H :    0.035701
  11 H :    0.024135
  12 H :    0.029232
  13 H :    0.045647
  14 H :    0.045641

  Mayer bond orders larger than 0.1
B(  0-C ,  1-C ) :   2.0069 B(  0-C ,  7-H ) :   0.9393 B(  0-C ,  8-H ) :   0.9348
B(  1-C ,  2-C ) :   1.0118 B(  1-C ,  6-C ) :   1.0360 B(  2-C ,  3-O ) :   0.9742
B(  2-C ,  9-H ) :   0.9345 B(  2-C , 10-H ) :   0.9344 B(  3-O ,  4-C ) :   1.1381
B(  3-O ,  5-C ) :   0.1223 B(  4-C ,  5-C ) :   1.7940 B(  4-C , 11-H ) :   0.9691
B(  5-C ,  6-C ) :   1.0320 B(  5-C , 12-H ) :   0.9495 B(  6-C , 13-H ) :   0.9064
B(  6-C , 14-H ) :   0.9064

FINAL SINGLE POINT ENERGY      -308.001308911867

DIPOLE MOMENT
-------------
                                X             Y             Z
Electronic contribution:      3.21663       1.85081       0.01792
Nuclear contribution   :     -3.54074      -1.97379      -0.01974
                        -----------------------------------------
Total Dipole Moment    :     -0.32411      -0.12298      -0.00182
                        -----------------------------------------
Magnitude (a.u.)       :      0.34666
Magnitude (Debye)      :      0.88115

                             ****ORCA TERMINATED NORMALLY****
TOTAL RUN TIME: 0 days 0 hours 0 minutes 6 seconds 861 msec
