                         Program Version 3.0.3 - RELEASE   -
|  1> ! RI PBE def2-SVP def2-SVP/J NBO PAL2
|  2> % maxcore 2000
|  3> % output
|  4>     # printlevel mini
|  5>     print[ P_Basis ] 0
|  6>     print[ P_SCFInfo ] 1
|  7>     print[ P_SCFIterInfo ] 1
|  8>     print[ P_OrbEn ] 0
|  9>     print[ P_Cartesian ] 0
| 10> end
| 11> *xyz 0 1
| 12>  C        1.0235720000    -0.0209780000     0.3871160000
| 13>  C        2.3183840000    -0.0362780000     0.1123660000
| 14>  C        3.2134890000     1.1702600000     0.0445850000
| 15>  O        4.5124990000     0.7001730000    -0.2770810000
| 16>  C        4.5430780000    -0.6520170000    -0.4194190000
| 17>  C        5.6624680000    -1.2981030000    -0.7210160000
| 18>  C        3.1747490000    -1.2324330000    -0.1883920000
| 19>  H        0.4984150000     0.9058260000     0.5909480000
| 20>  H        0.4389460000    -0.9331310000     0.4189320000
| 21>  H        3.2586080000     1.7039580000     0.9996810000
| 22>  H        2.8937080000     1.8776250000    -0.7277150000
| 23>  H        6.5939660000    -0.7678200000    -0.8646910000
| 24>  H        5.6524200000    -2.3736160000    -0.8269350000
| 25>  H        3.1836710000    -1.9432360000     0.6419920000
| 26>  H        2.8216270000    -1.7717500000    -1.0711610000
| 27> *
| 28>
| 29>                          ****END OF INPUT****
 Total Charge           Charge          ....    0
 Multiplicity           Mult            ....    1
 Number of Electrons    NEL             ....   52
 Basis Dimension        Dim             ....  138

MULLIKEN ATOMIC CHARGES
-----------------------
   0 C :   -0.039457
   1 C :   -0.264314
   2 C :    0.273112
   3 O :   -0.270940
   4 C :    0.004173
   5 C :   -0.092229
   6 C :    0.156447
   7 H :    0.015130
   8 H :    0.017190
   9 H :    0.036585
  10 H :    0.039881
  11 H :    0.012857
  12 H :    0.001834
  13 H :    0.056577
  14 H :    0.053154
Sum of atomic charges:   -0.0000000

LOEWDIN ATOMIC CHARGES
----------------------
   0 C :   -0.070061
   1 C :   -0.044076
   2 C :    0.079402
   3 O :   -0.076888
   4 C :    0.027146
   5 C :   -0.150289
   6 C :   -0.039166
   7 H :    0.025952
   8 H :    0.027128
   9 H :    0.029681
  10 H :    0.030188
  11 H :    0.027370
  12 H :    0.025950
  13 H :    0.054119
  14 H :    0.053547

  Mayer bond orders larger than 0.1
B(  0-C ,  1-C ) :   2.0156 B(  0-C ,  7-H ) :   0.9331 B(  0-C ,  8-H ) :   0.9336
B(  1-C ,  2-C ) :   1.0275 B(  1-C ,  6-C ) :   1.0466 B(  2-C ,  3-O ) :   0.9838
B(  2-C ,  9-H ) :   0.9279 B(  2-C , 10-H ) :   0.9284 B(  3-O ,  4-C ) :   1.1252
B(  4-C ,  5-C ) :   1.9309 B(  4-C ,  6-C ) :   0.9831 B(  5-C , 11-H ) :   0.9229
B(  5-C , 12-H ) :   0.9301 B(  6-C , 13-H ) :   0.8975 B(  6-C , 14-H ) :   0.8972

FINAL SINGLE POINT ENERGY      -308.005860985306

DIPOLE MOMENT
-------------
                                X             Y             Z
Electronic contribution:      1.79003       1.70547      -0.21077
Nuclear contribution   :     -2.53689      -1.75899       0.35915
                        -----------------------------------------
Total Dipole Moment    :     -0.74687      -0.05351       0.14839
                        -----------------------------------------
Magnitude (a.u.)       :      0.76334
Magnitude (Debye)      :      1.94026

                             ****ORCA TERMINATED NORMALLY****
TOTAL RUN TIME: 0 days 0 hours 0 minutes 7 seconds 277 msec
