                         Program Version 3.0.3 - RELEASE   -
|  1> ! RI PBE def2-SVP def2-SVP/J NBO PAL2
|  2> % maxcore 2000
|  3> % output
|  4>     # printlevel mini
|  5>     print[ P_Basis ] 0
|  6>     print[ P_SCFInfo ] 1
|  7>     print[ P_SCFIterInfo ] 1
|  8>     print[ P_OrbEn ] 0
|  9>     print[ P_Cartesian ] 0
| 10> end
| 11> *xyz 0 1
| 12>  C        0.9291710000     0.0217520000     0.2134770000
| 13>  C        2.2569580000     0.0203140000     0.0951610000
| 14>  C        3.0619240000     1.2833980000    -0.0313800000
| 15>  O        4.2951850000     1.1902850000     0.6460520000
| 16>  C        5.1080310000     0.1607570000     0.1456990000
| 17>  C        4.3831070000    -1.1349070000    -0.0099250000
| 18>  C        3.0507110000    -1.1945020000     0.0121620000
| 19>  H        0.3650220000     0.9458630000     0.2739700000
| 20>  H        0.3666230000    -0.9049340000     0.2474240000
| 21>  H        2.5318820000     2.1343100000     0.3983320000
| 22>  H        3.2365450000     1.4940500000    -1.0997010000
| 23>  H        5.9315060000     0.0485000000     0.8570560000
| 24>  H        5.5588110000     0.4567720000    -0.8190720000
| 25>  H        4.9835330000    -2.0317160000    -0.1253050000
| 26>  H        2.5324010000    -2.1466510000    -0.0465400000
| 27> *
| 28>
| 29>                          ****END OF INPUT****
 Total Charge           Charge          ....    0
 Multiplicity           Mult            ....    1
 Number of Electrons    NEL             ....   52
 Basis Dimension        Dim             ....  138

MULLIKEN ATOMIC CHARGES
-----------------------
   0 C :   -0.033983
   1 C :   -0.146930
   2 C :    0.278922
   3 O :   -0.339260
   4 C :    0.256532
   5 C :   -0.134233
   6 C :    0.059704
   7 H :    0.011386
   8 H :    0.010614
   9 H :    0.009644
  10 H :    0.005702
  11 H :    0.031297
  12 H :    0.007004
  13 H :    0.003169
  14 H :   -0.019568
Sum of atomic charges:   -0.0000000

LOEWDIN ATOMIC CHARGES
----------------------
   0 C :   -0.056542
   1 C :   -0.051124
   2 C :    0.072397
   3 O :   -0.140120
   4 C :    0.056752
   5 C :   -0.045892
   6 C :   -0.034799
   7 H :    0.022615
   8 H :    0.022863
   9 H :    0.027699
  10 H :    0.015652
  11 H :    0.033955
  12 H :    0.017704
  13 H :    0.029178
  14 H :    0.029662

  Mayer bond orders larger than 0.1
B(  0-C ,  1-C ) :   1.9082 B(  0-C ,  5-C ) :   0.1309 B(  0-C ,  7-H ) :   0.9327
B(  0-C ,  8-H ) :   0.9313 B(  1-C ,  2-C ) :   1.0266 B(  1-C ,  6-C ) :   1.1048
B(  2-C ,  3-O ) :   1.0004 B(  2-C ,  9-H ) :   0.9278 B(  2-C , 10-H ) :   0.9015
B(  3-O ,  4-C ) :   1.0402 B(  4-C ,  5-C ) :   1.0239 B(  4-C , 11-H ) :   0.9268
B(  4-C , 12-H ) :   0.9024 B(  5-C ,  6-C ) :   1.7927 B(  5-C , 13-H ) :   0.9496
B(  6-C , 14-H ) :   0.9740

FINAL SINGLE POINT ENERGY      -308.006731097656

DIPOLE MOMENT
-------------
                                X             Y             Z
Electronic contribution:      1.10890       0.41481       1.12134
Nuclear contribution   :     -1.04970      -0.68316      -1.46826
                        -----------------------------------------
Total Dipole Moment    :      0.05919      -0.26834      -0.34692
                        -----------------------------------------
Magnitude (a.u.)       :      0.44256
Magnitude (Debye)      :      1.12491

                             ****ORCA TERMINATED NORMALLY****
TOTAL RUN TIME: 0 days 0 hours 0 minutes 7 seconds 78 msec
