                         Program Version 3.0.3 - RELEASE   -
|  1> ! RI PBE def2-SVP def2-SVP/J NBO PAL2
|  2> % maxcore 2000
|  3> % output
|  4>     # printlevel mini
|  5>     print[ P_Basis ] 0
|  6>     print[ P_SCFInfo ] 1
|  7>     print[ P_SCFIterInfo ] 1
|  8>     print[ P_OrbEn ] 0
|  9>     print[ P_Cartesian ] 0
| 10> end
| 11> *xyz 0 1
| 12>  C        1.0274420000    -0.0359130000    -0.1108840000
| 13>  C        2.5180580000    -0.0866550000    -0.0526790000
| 14>  C        3.2368010000     1.0111560000     0.1831140000
| 15>  O        4.5902860000     1.0902740000     0.2211700000
| 16>  C        5.2594720000    -0.0442230000    -0.3042160000
| 17>  C        4.6523230000    -1.3364300000     0.1975930000
| 18>  C        3.1937950000    -1.4144980000    -0.2311400000
| 19>  H        0.6532300000     0.9784100000     0.0421500000
| 20>  H        0.5765520000    -0.6816640000     0.6512190000
| 21>  H        0.6546400000    -0.3865880000    -1.0802100000
| 22>  H        2.7813170000     1.9765440000     0.3774920000
| 23>  H        6.3033240000     0.0604260000    -0.0049680000
| 24>  H        5.2062850000    -0.0044840000    -1.4010080000
| 25>  H        4.7234600000    -1.3561260000     1.2894050000
| 26>  H        5.2274000000    -2.1850250000    -0.1822080000
| 27>  H        2.6650870000    -2.1731930000     0.3576510000
| 28>  H        3.1145370000    -1.7431090000    -1.2759810000
| 29> *
| 30>
| 31>                          ****END OF INPUT****
 Total Charge           Charge          ....    0
 Multiplicity           Mult            ....    1
 Number of Electrons    NEL             ....   54
 Basis Dimension        Dim             ....  148

MULLIKEN ATOMIC CHARGES
-----------------------
   0 C :    0.066997
   1 C :   -0.249413
   2 C :    0.109232
   3 O :   -0.270725
   4 C :    0.167552
   5 C :   -0.057207
   6 C :    0.093742
   7 H :    0.008520
   8 H :    0.021419
   9 H :    0.018604
  10 H :   -0.015279
  11 H :    0.019552
  12 H :    0.017646
  13 H :    0.032223
  14 H :    0.012812
  15 H :    0.010216
  16 H :    0.014110
Sum of atomic charges:    0.0000000

LOEWDIN ATOMIC CHARGES
----------------------
   0 C :   -0.050995
   1 C :   -0.118592
   2 C :    0.009509
   3 O :   -0.083774
   4 C :    0.068780
   5 C :   -0.056614
   6 C :   -0.033959
   7 H :    0.029335
   8 H :    0.028849
   9 H :    0.028939
  10 H :    0.017384
  11 H :    0.023664
  12 H :    0.015467
  13 H :    0.031841
  14 H :    0.030861
  15 H :    0.031139
  16 H :    0.028164

  Mayer bond orders larger than 0.1
B(  0-C ,  1-C ) :   1.1018 B(  0-C ,  7-H ) :   0.9521 B(  0-C ,  8-H ) :   0.9453
B(  0-C ,  9-H ) :   0.9493 B(  1-C ,  2-C ) :   1.7594 B(  1-C ,  3-O ) :   0.1022
B(  1-C ,  6-C ) :   1.0500 B(  2-C ,  3-O ) :   1.1272 B(  2-C , 10-H ) :   0.9668
B(  3-O ,  4-C ) :   0.9850 B(  4-C ,  5-C ) :   1.0864 B(  4-C , 11-H ) :   0.9427
B(  4-C , 12-H ) :   0.9410 B(  5-C ,  6-C ) :   1.1003 B(  5-C , 13-H ) :   0.9288
B(  5-C , 14-H ) :   0.9219 B(  6-C , 15-H ) :   0.9140 B(  6-C , 16-H ) :   0.9136

FINAL SINGLE POINT ENERGY      -309.234884785844

DIPOLE MOMENT
-------------
                                X             Y             Z
Electronic contribution:      2.99489       3.63234       0.84432
Nuclear contribution   :     -2.97934      -4.10311      -1.00185
                        -----------------------------------------
Total Dipole Moment    :      0.01556      -0.47077      -0.15754
                        -----------------------------------------
Magnitude (a.u.)       :      0.49667
Magnitude (Debye)      :      1.26244

                             ****ORCA TERMINATED NORMALLY****
TOTAL RUN TIME: 0 days 0 hours 0 minutes 7 seconds 648 msec
