                         Program Version 3.0.3 - RELEASE   -
|  1> ! RI PBE def2-SVP def2-SVP/J NBO PAL2
|  2> % maxcore 2000
|  3> % output
|  4>     # printlevel mini
|  5>     print[ P_Basis ] 0
|  6>     print[ P_SCFInfo ] 1
|  7>     print[ P_SCFIterInfo ] 1
|  8>     print[ P_OrbEn ] 0
|  9>     print[ P_Cartesian ] 0
| 10> end
| 11> *xyz 0 1
| 12>  C        1.0418700000     0.0812200000     0.0402480000
| 13>  C        2.5236090000     0.0747840000    -0.1170000000
| 14>  C        3.2049320000     1.2053950000    -0.2675910000
| 15>  O        4.5582910000     1.3063970000    -0.4186110000
| 16>  C        5.2450460000     0.1336900000    -0.4108370000
| 17>  C        4.6955020000    -1.0645770000    -0.2696050000
| 18>  C        3.2218900000    -1.2538850000    -0.0995500000
| 19>  H        0.6327570000     1.0926230000     0.0139550000
| 20>  H        0.7477160000    -0.3814040000     0.9891890000
| 21>  H        0.5621830000    -0.5017730000    -0.7541430000
| 22>  H        2.7402470000     2.1834010000    -0.2856780000
| 23>  H        6.3068100000     0.3021680000    -0.5355710000
| 24>  H        5.3504540000    -1.9274090000    -0.2798430000
| 25>  H        2.9990850000    -1.7833660000     0.8392660000
| 26>  H        2.8149010000    -1.9028720000    -0.8898270000
| 27> *
| 28>
| 29>                          ****END OF INPUT****
 Total Charge           Charge          ....    0
 Multiplicity           Mult            ....    1
 Number of Electrons    NEL             ....   52
 Basis Dimension        Dim             ....  138

MULLIKEN ATOMIC CHARGES
-----------------------
   0 C :    0.065328
   1 C :   -0.248360
   2 C :    0.106732
   3 O :   -0.206946
   4 C :    0.115114
   5 C :   -0.131813
   6 C :    0.191678
   7 H :    0.012771
   8 H :    0.024395
   9 H :    0.027957
  10 H :   -0.006655
  11 H :    0.009983
  12 H :   -0.000507
  13 H :    0.018972
  14 H :    0.021351
Sum of atomic charges:   -0.0000000

LOEWDIN ATOMIC CHARGES
----------------------
   0 C :   -0.048659
   1 C :   -0.082405
   2 C :    0.019079
   3 O :   -0.029346
   4 C :    0.030718
   5 C :   -0.091040
   6 C :   -0.031188
   7 H :    0.030891
   8 H :    0.032945
   9 H :    0.033641
  10 H :    0.020972
  11 H :    0.024619
  12 H :    0.031283
  13 H :    0.028928
  14 H :    0.029562

  Mayer bond orders larger than 0.1
B(  0-C ,  1-C ) :   1.1035 B(  0-C ,  7-H ) :   0.9524 B(  0-C ,  8-H ) :   0.9445
B(  0-C ,  9-H ) :   0.9445 B(  1-C ,  2-C ) :   1.7958 B(  1-C ,  6-C ) :   1.0363
B(  2-C ,  3-O ) :   1.0781 B(  2-C , 10-H ) :   0.9715 B(  3-O ,  4-C ) :   1.0945
B(  4-C ,  5-C ) :   1.8330 B(  4-C , 11-H ) :   0.9711 B(  5-C ,  6-C ) :   1.0334
B(  5-C , 12-H ) :   0.9503 B(  6-C , 13-H ) :   0.9064 B(  6-C , 14-H ) :   0.9058

FINAL SINGLE POINT ENERGY      -308.021860270214

DIPOLE MOMENT
-------------
                                X             Y             Z
Electronic contribution:      5.08919       3.07790      -0.75854
Nuclear contribution   :     -5.32965      -3.35015       0.79853
                        -----------------------------------------
Total Dipole Moment    :     -0.24045      -0.27226       0.03999
                        -----------------------------------------
Magnitude (a.u.)       :      0.36543
Magnitude (Debye)      :      0.92885

                             ****ORCA TERMINATED NORMALLY****
TOTAL RUN TIME: 0 days 0 hours 0 minutes 7 seconds 94 msec
