                         Program Version 3.0.3 - RELEASE   -
|  1> ! RI PBE def2-SVP def2-SVP/J NBO PAL2
|  2> % maxcore 2000
|  3> % output
|  4>     # printlevel mini
|  5>     print[ P_Basis ] 0
|  6>     print[ P_SCFInfo ] 1
|  7>     print[ P_SCFIterInfo ] 1
|  8>     print[ P_OrbEn ] 0
|  9>     print[ P_Cartesian ] 0
| 10> end
| 11> *xyz 0 1
| 12>  C        1.0304270000     0.0474400000     0.0812360000
| 13>  C        2.4932740000     0.0833590000    -0.1579210000
| 14>  C        3.3247690000    -0.9348650000    -0.3349550000
| 15>  O        4.6345400000    -0.5777800000    -0.5362250000
| 16>  C        4.6989740000     0.7974110000    -0.4924240000
| 17>  C        5.8479650000     1.4370260000    -0.6561140000
| 18>  C        3.3139430000     1.3400520000    -0.2431510000
| 19>  H        0.6566220000    -0.9776740000     0.1021460000
| 20>  H        0.4855540000     0.5891950000    -0.6993230000
| 21>  H        0.7706640000     0.5205930000     1.0342880000
| 22>  H        3.1412630000    -1.9994840000    -0.3469000000
| 23>  H        6.7683960000     0.8959450000    -0.8289110000
| 24>  H        5.8773140000     2.5168200000    -0.6182280000
| 25>  H        2.9843040000     1.9988580000    -1.0546990000
| 26>  H        3.2695010000     1.9302030000     0.6793710000
| 27> *
| 28>
| 29>                          ****END OF INPUT****
 Total Charge           Charge          ....    0
 Multiplicity           Mult            ....    1
 Number of Electrons    NEL             ....   52
 Basis Dimension        Dim             ....  138

MULLIKEN ATOMIC CHARGES
-----------------------
   0 C :    0.088804
   1 C :   -0.242164
   2 C :    0.110079
   3 O :   -0.213859
   4 C :    0.009370
   5 C :   -0.086885
   6 C :    0.157312
   7 H :    0.015592
   8 H :    0.029715
   9 H :    0.025793
  10 H :   -0.007450
  11 H :    0.018501
  12 H :    0.008779
  13 H :    0.044204
  14 H :    0.042210
Sum of atomic charges:   -0.0000000

LOEWDIN ATOMIC CHARGES
----------------------
   0 C :   -0.053791
   1 C :   -0.097316
   2 C :    0.028959
   3 O :   -0.037013
   4 C :    0.042448
   5 C :   -0.128583
   6 C :   -0.032580
   7 H :    0.035225
   8 H :    0.035464
   9 H :    0.034814
  10 H :    0.021750
  11 H :    0.030060
  12 H :    0.028982
  13 H :    0.046023
  14 H :    0.045559

  Mayer bond orders larger than 0.1
B(  0-C ,  1-C ) :   1.1176 B(  0-C ,  7-H ) :   0.9483 B(  0-C ,  8-H ) :   0.9414
B(  0-C ,  9-H ) :   0.9403 B(  1-C ,  2-C ) :   1.7523 B(  1-C ,  6-C ) :   1.0556
B(  2-C ,  3-O ) :   1.0573 B(  2-C , 10-H ) :   1.0000 B(  3-O ,  4-C ) :   1.0865
B(  4-C ,  5-C ) :   1.9488 B(  4-C ,  6-C ) :   1.0053 B(  5-C , 11-H ) :   0.9223
B(  5-C , 12-H ) :   0.9316 B(  6-C , 13-H ) :   0.8908 B(  6-C , 14-H ) :   0.8912

FINAL SINGLE POINT ENERGY      -308.018778943165

DIPOLE MOMENT
-------------
                                X             Y             Z
Electronic contribution:      3.91453      -2.62699      -0.75083
Nuclear contribution   :     -4.60726       2.81576       0.86910
                        -----------------------------------------
Total Dipole Moment    :     -0.69273       0.18877       0.11827
                        -----------------------------------------
Magnitude (a.u.)       :      0.72767
Magnitude (Debye)      :      1.84958

                             ****ORCA TERMINATED NORMALLY****
TOTAL RUN TIME: 0 days 0 hours 0 minutes 6 seconds 990 msec
