                         Program Version 3.0.3 - RELEASE   -
|  1> ! RI PBE def2-SVP def2-SVP/J NBO PAL2
|  2> % maxcore 2000
|  3> % output
|  4>     # printlevel mini
|  5>     print[ P_Basis ] 0
|  6>     print[ P_SCFInfo ] 1
|  7>     print[ P_SCFIterInfo ] 1
|  8>     print[ P_OrbEn ] 0
|  9>     print[ P_Cartesian ] 0
| 10> end
| 11> *xyz 0 1
| 12>  C        1.0345020000    -0.0013860000     0.0080280000
| 13>  C        2.5268590000     0.0060410000    -0.0014580000
| 14>  C        3.2367620000     1.1370710000    -0.0080520000
| 15>  O        4.5821900000     1.2254280000    -0.0167340000
| 16>  C        5.3843870000     0.0402300000    -0.0199630000
| 17>  C        4.6081110000    -1.2349260000    -0.0124040000
| 18>  C        3.2781680000    -1.2429860000    -0.0038380000
| 19>  H        0.6335930000     1.0139860000     0.0086920000
| 20>  H        0.6421140000    -0.5160620000     0.8916390000
| 21>  H        0.6309350000    -0.5193240000    -0.8686140000
| 22>  H        2.7871910000     2.1239710000    -0.0069860000
| 23>  H        6.0459070000     0.0963170000     0.8556580000
| 24>  H        6.0341180000     0.0930690000    -0.9045800000
| 25>  H        5.1854180000    -2.1532600000    -0.0142980000
| 26>  H        2.7338260000    -2.1820680000     0.0015290000
| 27> *
| 28>
| 29>                          ****END OF INPUT****
 Total Charge           Charge          ....    0
 Multiplicity           Mult            ....    1
 Number of Electrons    NEL             ....   52
 Basis Dimension        Dim             ....  138

MULLIKEN ATOMIC CHARGES
-----------------------
   0 C :    0.066593
   1 C :   -0.153584
   2 C :    0.097478
   3 O :   -0.277027
   4 C :    0.253694
   5 C :   -0.142496
   6 C :    0.066976
   7 H :    0.010089
   8 H :    0.026197
   9 H :    0.026350
  10 H :   -0.002183
  11 H :    0.025650
  12 H :    0.025318
  13 H :    0.001066
  14 H :   -0.024120
Sum of atomic charges:   -0.0000000

LOEWDIN ATOMIC CHARGES
----------------------
   0 C :   -0.050591
   1 C :   -0.125399
   2 C :    0.046102
   3 O :   -0.074860
   4 C :    0.080472
   5 C :   -0.061551
   6 C :   -0.028228
   7 H :    0.030713
   8 H :    0.031394
   9 H :    0.031421
  10 H :    0.020954
  11 H :    0.021272
  12 H :    0.021207
  13 H :    0.029080
  14 H :    0.028015

  Mayer bond orders larger than 0.1
B(  0-C ,  1-C ) :   1.0878 B(  0-C ,  7-H ) :   0.9529 B(  0-C ,  8-H ) :   0.9479
B(  0-C ,  9-H ) :   0.9479 B(  1-C ,  2-C ) :   1.6830 B(  1-C ,  3-O ) :   0.1062
B(  1-C ,  6-C ) :   1.0873 B(  2-C ,  3-O ) :   1.1495 B(  2-C , 10-H ) :   0.9691
B(  3-O ,  4-C ) :   0.9574 B(  4-C ,  5-C ) :   1.0494 B(  4-C , 11-H ) :   0.9310
B(  4-C , 12-H ) :   0.9309 B(  5-C ,  6-C ) :   1.8335 B(  5-C , 13-H ) :   0.9477
B(  6-C , 14-H ) :   0.9729

FINAL SINGLE POINT ENERGY      -308.013858400813

DIPOLE MOMENT
-------------
                                X             Y             Z
Electronic contribution:      3.31243       1.75566      -0.02385
Nuclear contribution   :     -3.30517      -2.05383       0.02435
                        -----------------------------------------
Total Dipole Moment    :      0.00726      -0.29817       0.00050
                        -----------------------------------------
Magnitude (a.u.)       :      0.29826
Magnitude (Debye)      :      0.75811

                             ****ORCA TERMINATED NORMALLY****
TOTAL RUN TIME: 0 days 0 hours 0 minutes 7 seconds 245 msec
