                         Program Version 3.0.3 - RELEASE   -
|  1> ! RI PBE def2-SVP def2-SVP/J NBO PAL2
|  2> % maxcore 2000
|  3> % output
|  4>     # printlevel mini
|  5>     print[ P_Basis ] 0
|  6>     print[ P_SCFInfo ] 1
|  7>     print[ P_SCFIterInfo ] 1
|  8>     print[ P_OrbEn ] 0
|  9>     print[ P_Cartesian ] 0
| 10> end
| 11> *xyz 0 1
| 12>  C        0.8579470000     0.0020450000    -0.0543010000
| 13>  C        2.3746020000    -0.0454500000     0.0843600000
| 14>  C        3.0451390000    -0.0244990000    -1.2837010000
| 15>  O        2.7387210000    -1.2586860000     0.7581330000
| 16>  C        3.4203320000    -0.9868620000     1.9671530000
| 17>  C        3.4862670000     0.5011120000     2.0517040000
| 18>  C        2.8981600000     1.0314830000     0.9927790000
| 19>  H        0.5110170000    -0.8546200000    -0.6364700000
| 20>  H        0.5412090000     0.9154800000    -0.5641380000
| 21>  H        0.3852210000    -0.0305380000     0.9287220000
| 22>  H        2.7125810000    -0.8815280000    -1.8736700000
| 23>  H        4.1298820000    -0.0756740000    -1.1761090000
| 24>  H        2.7907980000     0.8880080000    -1.8289130000
| 25>  H        4.4184020000    -1.4476240000     1.9483180000
| 26>  H        2.8755170000    -1.4283270000     2.8139890000
| 27>  H        3.9526700000     1.0337080000     2.8706000000
| 28>  H        2.7881330000     2.0860830000     0.7737330000
| 29> *
| 30>
| 31>                          ****END OF INPUT****
 Total Charge           Charge          ....    0
 Multiplicity           Mult            ....    1
 Number of Electrons    NEL             ....   54
 Basis Dimension        Dim             ....  148

MULLIKEN ATOMIC CHARGES
-----------------------
   0 C :    0.090901
   1 C :   -0.099623
   2 C :    0.078978
   3 O :   -0.351751
   4 C :    0.284464
   5 C :   -0.120177
   6 C :   -0.006140
   7 H :    0.022944
   8 H :    0.007751
   9 H :    0.013394
  10 H :    0.025029
  11 H :    0.017621
  12 H :    0.011099
  13 H :    0.014132
  14 H :    0.014275
  15 H :    0.001434
  16 H :   -0.004331
Sum of atomic charges:   -0.0000000

LOEWDIN ATOMIC CHARGES
----------------------
   0 C :   -0.058014
   1 C :    0.025510
   2 C :   -0.060767
   3 O :   -0.153083
   4 C :    0.071462
   5 C :   -0.047304
   6 C :   -0.033574
   7 H :    0.030199
   8 H :    0.025934
   9 H :    0.026809
  10 H :    0.030598
  11 H :    0.027620
  12 H :    0.026534
  13 H :    0.016628
  14 H :    0.016587
  15 H :    0.027200
  16 H :    0.027661

  Mayer bond orders larger than 0.1
B(  0-C ,  1-C ) :   1.0373 B(  0-C ,  7-H ) :   0.9521 B(  0-C ,  8-H ) :   0.9528
B(  0-C ,  9-H ) :   0.9518 B(  1-C ,  2-C ) :   1.0406 B(  1-C ,  3-O ) :   0.9909
B(  1-C ,  6-C ) :   0.9948 B(  2-C , 10-H ) :   0.9503 B(  2-C , 11-H ) :   0.9517
B(  2-C , 12-H ) :   0.9515 B(  3-O ,  4-C ) :   1.0181 B(  4-C ,  5-C ) :   1.0236
B(  4-C , 13-H ) :   0.9197 B(  4-C , 14-H ) :   0.9198 B(  5-C ,  6-C ) :   1.8573
B(  5-C , 15-H ) :   0.9786 B(  6-C , 16-H ) :   0.9944

FINAL SINGLE POINT ENERGY      -309.223074072088

DIPOLE MOMENT
-------------
                                X             Y             Z
Electronic contribution:      1.61207      -1.04730       2.89520
Nuclear contribution   :     -1.51816       1.53244      -2.73106
                        -----------------------------------------
Total Dipole Moment    :      0.09391       0.48514       0.16414
                        -----------------------------------------
Magnitude (a.u.)       :      0.52069
Magnitude (Debye)      :      1.32350

                             ****ORCA TERMINATED NORMALLY****
TOTAL RUN TIME: 0 days 0 hours 0 minutes 7 seconds 676 msec
