                         Program Version 3.0.3 - RELEASE   -
|  1> ! RI PBE def2-SVP def2-SVP/J NBO PAL2
|  2> % maxcore 2000
|  3> % output
|  4>     # printlevel mini
|  5>     print[ P_Basis ] 0
|  6>     print[ P_SCFInfo ] 1
|  7>     print[ P_SCFIterInfo ] 1
|  8>     print[ P_OrbEn ] 0
|  9>     print[ P_Cartesian ] 0
| 10> end
| 11> *xyz 0 1
| 12>  C        0.8551310000    -0.0187770000     0.0751490000
| 13>  C        2.3653350000    -0.0182620000    -0.0437210000
| 14>  C        2.7455840000    -0.0322740000    -1.5167790000
| 15>  O        4.1334330000    -0.0683880000    -1.7738310000
| 16>  C        3.1061400000     1.0740510000     0.7734770000
| 17>  C        4.0408530000    -0.0028180000     1.3570790000
| 18>  C        3.1157190000    -1.0935710000     0.7853170000
| 19>  H        0.4165730000     0.8602780000    -0.4082160000
| 20>  H        0.5461510000    -0.0108890000     1.1232050000
| 21>  H        0.4216850000    -0.9085640000    -0.3926260000
| 22>  H        2.2807950000     0.8315970000    -2.0159680000
| 23>  H        2.3374520000    -0.9351100000    -1.9818130000
| 24>  H        4.5144420000     0.7679470000    -1.4953170000
| 25>  H        2.4574420000     1.5266640000     1.5264810000
| 26>  H        3.5707330000     1.8894790000     0.2092080000
| 27>  H        4.1738140000     0.0092030000     2.4397350000
| 28>  H        5.0255890000    -0.0110980000     0.8889310000
| 29>  H        2.4729690000    -1.5491360000     1.5418990000
| 30>  H        3.6007630000    -1.8841020000     0.2105920000
| 31> *
| 32>
| 33>                          ****END OF INPUT****
 Total Charge           Charge          ....    0
 Multiplicity           Mult            ....    1
 Number of Electrons    NEL             ....   56
 Basis Dimension        Dim             ....  158

MULLIKEN ATOMIC CHARGES
-----------------------
   0 C :    0.078262
   1 C :   -0.475687
   2 C :    0.252714
   3 O :   -0.278012
   4 C :    0.095256
   5 C :   -0.028990
   6 C :    0.155148
   7 H :    0.014964
   8 H :    0.009688
   9 H :    0.017882
  10 H :   -0.004610
  11 H :    0.005164
  12 H :    0.153652
  13 H :   -0.002553
  14 H :   -0.008387
  15 H :    0.009802
  16 H :    0.005409
  17 H :   -0.007406
  18 H :    0.007704
Sum of atomic charges:    0.0000000

LOEWDIN ATOMIC CHARGES
----------------------
   0 C :   -0.052680
   1 C :   -0.080268
   2 C :    0.063058
   3 O :   -0.113958
   4 C :   -0.031987
   5 C :   -0.036293
   6 C :   -0.022692
   7 H :    0.025274
   8 H :    0.022982
   9 H :    0.027076
  10 H :    0.003897
  11 H :    0.020180
  12 H :    0.064802
  13 H :    0.024013
  14 H :    0.007317
  15 H :    0.019008
  16 H :    0.019372
  17 H :    0.020223
  18 H :    0.020675

  Mayer bond orders larger than 0.1
B(  0-C ,  1-C ) :   1.0539 B(  0-C ,  7-H ) :   0.9551 B(  0-C ,  8-H ) :   0.9472
B(  0-C ,  9-H ) :   0.9566 B(  1-C ,  2-C ) :   0.9744 B(  1-C ,  4-C ) :   1.0565
B(  1-C ,  6-C ) :   1.0562 B(  2-C ,  3-O ) :   1.0829 B(  2-C , 10-H ) :   0.9392
B(  2-C , 11-H ) :   0.9310 B(  3-O , 12-H ) :   0.9812 B(  4-C ,  5-C ) :   1.1654
B(  4-C , 13-H ) :   0.9009 B(  4-C , 14-H ) :   0.9244 B(  5-C ,  6-C ) :   1.1702
B(  5-C , 15-H ) :   0.9172 B(  5-C , 16-H ) :   0.9137 B(  6-C , 17-H ) :   0.9071
B(  6-C , 18-H ) :   0.9147

FINAL SINGLE POINT ENERGY      -310.415241062508

DIPOLE MOMENT
-------------
                                X             Y             Z
Electronic contribution:      2.82658      -0.30005      -2.34597
Nuclear contribution   :     -3.07845       0.72954       2.59162
                        -----------------------------------------
Total Dipole Moment    :     -0.25187       0.42949       0.24565
                        -----------------------------------------
Magnitude (a.u.)       :      0.55520
Magnitude (Debye)      :      1.41120

                             ****ORCA TERMINATED NORMALLY****
TOTAL RUN TIME: 0 days 0 hours 0 minutes 8 seconds 626 msec
