                         Program Version 3.0.3 - RELEASE   -
|  1> ! RI PBE def2-SVP def2-SVP/J NBO PAL2
|  2> % maxcore 2000
|  3> % output
|  4>     # printlevel mini
|  5>     print[ P_Basis ] 0
|  6>     print[ P_SCFInfo ] 1
|  7>     print[ P_SCFIterInfo ] 1
|  8>     print[ P_OrbEn ] 0
|  9>     print[ P_Cartesian ] 0
| 10> end
| 11> *xyz 0 1
| 12>  C        0.9561010000     0.0852740000     0.5036190000
| 13>  C        2.3463350000    -0.0114680000    -0.0979960000
| 14>  C        2.6376280000     1.1878120000    -0.9827530000
| 15>  O        3.9631840000     1.1900670000    -1.4907750000
| 16>  C        4.3829670000    -0.0058730000    -1.9613510000
| 17>  C        3.7664060000    -1.1690730000    -1.7691550000
| 18>  C        2.5433220000    -1.2843070000    -0.9157190000
| 19>  H        0.8505300000     0.9708850000     1.1356730000
| 20>  H        0.7347110000    -0.7911320000     1.1175600000
| 21>  H        0.1943530000     0.1397090000    -0.2803920000
| 22>  H        3.0888910000    -0.0049720000     0.7091230000
| 23>  H        2.5282700000     2.1250290000    -0.4338340000
| 24>  H        1.9373140000     1.1990350000    -1.8302980000
| 25>  H        5.3049070000     0.0915750000    -2.5230570000
| 26>  H        4.1971710000    -2.0547790000    -2.2198480000
| 27>  H        2.6308960000    -2.1456610000    -0.2444020000
| 28>  H        1.6523040000    -1.4740420000    -1.5301050000
| 29> *
| 30>
| 31>                          ****END OF INPUT****
 Total Charge           Charge          ....    0
 Multiplicity           Mult            ....    1
 Number of Electrons    NEL             ....   54
 Basis Dimension        Dim             ....  148

MULLIKEN ATOMIC CHARGES
-----------------------
   0 C :    0.015373
   1 C :   -0.212355
   2 C :    0.219701
   3 O :   -0.266468
   4 C :    0.120569
   5 C :   -0.149246
   6 C :    0.134768
   7 H :    0.022020
   8 H :    0.025848
   9 H :    0.019111
  10 H :    0.027377
  11 H :    0.012635
  12 H :    0.008010
  13 H :    0.000800
  14 H :   -0.007038
  15 H :    0.016528
  16 H :    0.012367
Sum of atomic charges:   -0.0000000

LOEWDIN ATOMIC CHARGES
----------------------
   0 C :   -0.058202
   1 C :   -0.061095
   2 C :    0.074238
   3 O :   -0.079189
   4 C :    0.021814
   5 C :   -0.124131
   6 C :   -0.034818
   7 H :    0.027550
   8 H :    0.030455
   9 H :    0.026224
  10 H :    0.031982
  11 H :    0.022225
  12 H :    0.014746
  13 H :    0.021159
  14 H :    0.026989
  15 H :    0.032543
  16 H :    0.027510

  Mayer bond orders larger than 0.1
B(  0-C ,  1-C ) :   1.0831 B(  0-C ,  7-H ) :   0.9596 B(  0-C ,  8-H ) :   0.9587
B(  0-C ,  9-H ) :   0.9561 B(  1-C ,  2-C ) :   1.0465 B(  1-C ,  6-C ) :   1.0557
B(  1-C , 10-H ) :   0.9039 B(  2-C ,  3-O ) :   0.9851 B(  2-C , 11-H ) :   0.9449
B(  2-C , 12-H ) :   0.9329 B(  3-O ,  4-C ) :   1.1367 B(  3-O ,  5-C ) :   0.1047
B(  4-C ,  5-C ) :   1.7953 B(  4-C , 13-H ) :   0.9694 B(  5-C ,  6-C ) :   1.0400
B(  5-C , 14-H ) :   0.9534 B(  6-C , 15-H ) :   0.9181 B(  6-C , 16-H ) :   0.9138

FINAL SINGLE POINT ENERGY      -309.232081002541

DIPOLE MOMENT
-------------
                                X             Y             Z
Electronic contribution:      5.27693       1.90405      -2.92410
Nuclear contribution   :     -5.68010      -2.06459       3.13425
                        -----------------------------------------
Total Dipole Moment    :     -0.40317      -0.16054       0.21016
                        -----------------------------------------
Magnitude (a.u.)       :      0.48216
Magnitude (Debye)      :      1.22556

                             ****ORCA TERMINATED NORMALLY****
TOTAL RUN TIME: 0 days 0 hours 0 minutes 7 seconds 972 msec
