                         Program Version 3.0.3 - RELEASE   -
|  1> ! RI PBE def2-SVP def2-SVP/J NBO PAL2
|  2> % maxcore 2000
|  3> % output
|  4>     # printlevel mini
|  5>     print[ P_Basis ] 0
|  6>     print[ P_SCFInfo ] 1
|  7>     print[ P_SCFIterInfo ] 1
|  8>     print[ P_OrbEn ] 0
|  9>     print[ P_Cartesian ] 0
| 10> end
| 11> *xyz 0 1
| 12>  C        1.0337980000    -0.0536080000    -0.0956530000
| 13>  C        2.5248350000    -0.1254580000     0.1576740000
| 14>  C        3.0622070000     0.9775840000     1.0585680000
| 15>  O        4.2805000000     0.4780910000     1.5967770000
| 16>  C        4.2850980000    -0.8842080000     1.5441620000
| 17>  C        5.3083120000    -1.6027980000     1.9901320000
| 18>  C        3.0041670000    -1.3581650000     0.9213860000
| 19>  H        0.7580730000     0.8788790000    -0.5950060000
| 20>  H        0.4759480000    -0.1087790000     0.8438370000
| 21>  H        0.7007560000    -0.8778070000    -0.7304450000
| 22>  H        3.0627140000    -0.0773930000    -0.7960020000
| 23>  H        2.3604080000     1.1896020000     1.8769590000
| 24>  H        3.2805280000     1.9107900000     0.5363390000
| 25>  H        6.1746140000    -1.1297080000     2.4329070000
| 26>  H        5.2829690000    -2.6807120000     1.9168430000
| 27>  H        2.2810860000    -1.6112900000     1.7067720000
| 28>  H        3.1439870000    -2.2419200000     0.2990430000
| 29> *
| 30>
| 31>                          ****END OF INPUT****
 Total Charge           Charge          ....    0
 Multiplicity           Mult            ....    1
 Number of Electrons    NEL             ....   54
 Basis Dimension        Dim             ....  148

MULLIKEN ATOMIC CHARGES
-----------------------
   0 C :    0.039946
   1 C :   -0.242203
   2 C :    0.249985
   3 O :   -0.270038
   4 C :    0.024307
   5 C :   -0.098809
   6 C :    0.105443
   7 H :    0.025010
   8 H :    0.017285
   9 H :    0.029152
  10 H :    0.024762
  11 H :    0.006560
  12 H :    0.019033
  13 H :    0.011085
  14 H :    0.003836
  15 H :    0.026783
  16 H :    0.027861
Sum of atomic charges:    0.0000000

LOEWDIN ATOMIC CHARGES
----------------------
   0 C :   -0.058002
   1 C :   -0.057032
   2 C :    0.077680
   3 O :   -0.080146
   4 C :    0.027338
   5 C :   -0.150760
   6 C :   -0.039126
   7 H :    0.029803
   8 H :    0.025934
   9 H :    0.031562
  10 H :    0.032035
  11 H :    0.011456
  12 H :    0.021585
  13 H :    0.026553
  14 H :    0.025962
  15 H :    0.037702
  16 H :    0.037457

  Mayer bond orders larger than 0.1
B(  0-C ,  1-C ) :   1.0867 B(  0-C ,  7-H ) :   0.9597 B(  0-C ,  8-H ) :   0.9522
B(  0-C ,  9-H ) :   0.9588 B(  1-C ,  2-C ) :   1.0472 B(  1-C ,  6-C ) :   1.0444
B(  1-C , 10-H ) :   0.9096 B(  2-C ,  3-O ) :   0.9802 B(  2-C , 11-H ) :   0.9368
B(  2-C , 12-H ) :   0.9422 B(  3-O ,  4-C ) :   1.1229 B(  4-C ,  5-C ) :   1.9397
B(  4-C ,  6-C ) :   1.0167 B(  5-C , 13-H ) :   0.9212 B(  5-C , 14-H ) :   0.9285
B(  6-C , 15-H ) :   0.9041 B(  6-C , 16-H ) :   0.9232

FINAL SINGLE POINT ENERGY      -309.230867324582

DIPOLE MOMENT
-------------
                                X             Y             Z
Electronic contribution:      4.60000       1.23738       2.07662
Nuclear contribution   :     -5.43004      -1.21828      -2.52957
                        -----------------------------------------
Total Dipole Moment    :     -0.83004       0.01910      -0.45295
                        -----------------------------------------
Magnitude (a.u.)       :      0.94578
Magnitude (Debye)      :      2.40398

                             ****ORCA TERMINATED NORMALLY****
TOTAL RUN TIME: 0 days 0 hours 0 minutes 7 seconds 693 msec
