                         Program Version 3.0.3 - RELEASE   -
|  1> ! RI PBE def2-SVP def2-SVP/J NBO PAL2
|  2> % maxcore 2000
|  3> % output
|  4>     # printlevel mini
|  5>     print[ P_Basis ] 0
|  6>     print[ P_SCFInfo ] 1
|  7>     print[ P_SCFIterInfo ] 1
|  8>     print[ P_OrbEn ] 0
|  9>     print[ P_Cartesian ] 0
| 10> end
| 11> *xyz 0 1
| 12>  C        0.8359810000    -0.0161720000     0.1286250000
| 13>  C        2.3430970000    -0.0689920000    -0.0301810000
| 14>  C        3.0916690000     0.9960500000     0.7703080000
| 15>  O        4.3812470000     0.4743520000     0.9767750000
| 16>  C        4.1986430000    -0.8924560000     1.3159990000
| 17>  C        5.4893700000    -1.6366960000     1.0890720000
| 18>  C        3.0036930000    -1.3666740000     0.4708580000
| 19>  H        0.4334260000     0.9480970000    -0.1942110000
| 20>  H        0.5490660000    -0.1648570000     1.1741100000
| 21>  H        0.3458300000    -0.7921780000    -0.4641990000
| 22>  H        2.5947380000     0.0685750000    -1.0861840000
| 23>  H        2.5851970000     1.1700900000     1.7348860000
| 24>  H        3.1860370000     1.9530300000     0.2537200000
| 25>  H        3.9277990000    -0.9489440000     2.3828530000
| 26>  H        5.7721300000    -1.5906610000     0.0345480000
| 27>  H        5.3795150000    -2.6857360000     1.3738790000
| 28>  H        6.2959600000    -1.2025150000     1.6829110000
| 29>  H        2.3111260000    -1.9634370000     1.0699610000
| 30>  H        3.3370640000    -1.9912750000    -0.3613100000
| 31> *
| 32>
| 33>                          ****END OF INPUT****
 Total Charge           Charge          ....    0
 Multiplicity           Mult            ....    1
 Number of Electrons    NEL             ....   56
 Basis Dimension        Dim             ....  158

MULLIKEN ATOMIC CHARGES
-----------------------
   0 C :    0.024965
   1 C :   -0.231969
   2 C :    0.260448
   3 O :   -0.341965
   4 C :    0.038952
   5 C :    0.043176
   6 C :    0.096247
   7 H :    0.019861
   8 H :    0.015498
   9 H :    0.025154
  10 H :    0.014030
  11 H :   -0.021323
  12 H :    0.009964
  13 H :   -0.015665
  14 H :    0.019085
  15 H :    0.017970
  16 H :    0.027732
  17 H :   -0.003853
  18 H :    0.001693
Sum of atomic charges:   -0.0000000

LOEWDIN ATOMIC CHARGES
----------------------
   0 C :   -0.058798
   1 C :   -0.058983
   2 C :    0.062084
   3 O :   -0.149345
   4 C :    0.047847
   5 C :   -0.067058
   6 C :   -0.045148
   7 H :    0.026706
   8 H :    0.022862
   9 H :    0.028227
  10 H :    0.027119
  11 H :    0.000395
  12 H :    0.018822
  13 H :    0.004998
  14 H :    0.026731
  15 H :    0.030967
  16 H :    0.031765
  17 H :    0.024677
  18 H :    0.026132

  Mayer bond orders larger than 0.1
B(  0-C ,  1-C ) :   1.0737 B(  0-C ,  7-H ) :   0.9622 B(  0-C ,  8-H ) :   0.9565
B(  0-C ,  9-H ) :   0.9603 B(  1-C ,  2-C ) :   1.0837 B(  1-C ,  6-C ) :   1.0933
B(  1-C , 10-H ) :   0.8988 B(  2-C ,  3-O ) :   1.0239 B(  2-C , 11-H ) :   0.9077
B(  2-C , 12-H ) :   0.9415 B(  3-O ,  4-C ) :   1.0327 B(  4-C ,  5-C ) :   1.0905
B(  4-C ,  6-C ) :   1.0878 B(  4-C , 13-H ) :   0.8961 B(  5-C , 14-H ) :   0.9511
B(  5-C , 15-H ) :   0.9528 B(  5-C , 16-H ) :   0.9516 B(  6-C , 17-H ) :   0.9110
B(  6-C , 18-H ) :   0.9136

FINAL SINGLE POINT ENERGY      -310.441550810313

DIPOLE MOMENT
-------------
                                X             Y             Z
Electronic contribution:      2.73810       2.46254       0.46428
Nuclear contribution   :     -3.17571      -2.74994      -0.53776
                        -----------------------------------------
Total Dipole Moment    :     -0.43761      -0.28740      -0.07349
                        -----------------------------------------
Magnitude (a.u.)       :      0.52868
Magnitude (Debye)      :      1.34380

                             ****ORCA TERMINATED NORMALLY****
TOTAL RUN TIME: 0 days 0 hours 0 minutes 8 seconds 157 msec
