                         Program Version 3.0.3 - RELEASE   -
|  1> ! RI PBE def2-SVP def2-SVP/J NBO PAL2
|  2> % maxcore 2000
|  3> % output
|  4>     # printlevel mini
|  5>     print[ P_Basis ] 0
|  6>     print[ P_SCFInfo ] 1
|  7>     print[ P_SCFIterInfo ] 1
|  8>     print[ P_OrbEn ] 0
|  9>     print[ P_Cartesian ] 0
| 10> end
| 11> *xyz 0 1
| 12>  C        0.9420950000    -0.0028970000    -0.0472550000
| 13>  C        2.4604810000     0.1472550000    -0.0540520000
| 14>  C        3.2012640000    -1.0336200000     0.5945040000
| 15>  O        3.6201130000    -0.6015370000     1.8968200000
| 16>  C        3.5316990000     0.7591600000     1.9064920000
| 17>  C        4.0870530000     1.4075830000     3.1145080000
| 18>  C        2.9385930000     1.2680580000     0.8285590000
| 19>  H        0.6242320000    -0.8462260000    -0.6674610000
| 20>  H        0.4583910000     0.8978680000    -0.4332310000
| 21>  H        0.5781830000    -0.1674440000     0.9702820000
| 22>  H        2.7962190000     0.2696860000    -1.0891630000
| 23>  H        4.0985380000    -1.3036390000     0.0281960000
| 24>  H        2.5785220000    -1.9220880000     0.7170000000
| 25>  H        3.5815390000     1.0367480000     4.0105070000
| 26>  H        3.9635760000     2.4884840000     3.0614540000
| 27>  H        5.1498770000     1.1746690000     3.2219290000
| 28>  H        2.7486260000     2.3171610000     0.6570100000
| 29> *
| 30>
| 31>                          ****END OF INPUT****
 Total Charge           Charge          ....    0
 Multiplicity           Mult            ....    1
 Number of Electrons    NEL             ....   54
 Basis Dimension        Dim             ....  148

MULLIKEN ATOMIC CHARGES
-----------------------
   0 C :    0.053371
   1 C :   -0.146380
   2 C :    0.256349
   3 O :   -0.297883
   4 C :    0.008780
   5 C :    0.095349
   6 C :   -0.123670
   7 H :    0.018292
   8 H :    0.014900
   9 H :    0.017274
  10 H :    0.010165
  11 H :    0.014257
  12 H :    0.009483
  13 H :    0.032228
  14 H :    0.024490
  15 H :    0.036471
  16 H :   -0.023476
Sum of atomic charges:    0.0000000

LOEWDIN ATOMIC CHARGES
----------------------
   0 C :   -0.058656
   1 C :   -0.052339
   2 C :    0.089325
   3 O :   -0.098923
   4 C :    0.025506
   5 C :   -0.063965
   6 C :   -0.124792
   7 H :    0.022592
   8 H :    0.026554
   9 H :    0.026153
  10 H :    0.027703
  11 H :    0.016942
  12 H :    0.018193
  13 H :    0.042588
  14 H :    0.039955
  15 H :    0.041948
  16 H :    0.021217

  Mayer bond orders larger than 0.1
B(  0-C ,  1-C ) :   1.0560 B(  0-C ,  7-H ) :   0.9581 B(  0-C ,  8-H ) :   0.9601
B(  0-C ,  9-H ) :   0.9605 B(  1-C ,  2-C ) :   1.0617 B(  1-C ,  6-C ) :   1.0070
B(  1-C , 10-H ) :   0.9016 B(  2-C ,  3-O ) :   0.9627 B(  2-C , 11-H ) :   0.9340
B(  2-C , 12-H ) :   0.9457 B(  3-O ,  4-C ) :   1.1100 B(  4-C ,  5-C ) :   1.1173
B(  4-C ,  6-C ) :   1.7429 B(  5-C , 13-H ) :   0.9278 B(  5-C , 14-H ) :   0.9494
B(  5-C , 15-H ) :   0.9327 B(  6-C , 16-H ) :   0.9863

FINAL SINGLE POINT ENERGY      -309.232693807535

DIPOLE MOMENT
-------------
                                X             Y             Z
Electronic contribution:      2.78376      -1.18491       1.16483
Nuclear contribution   :     -2.85654       1.30584      -1.35354
                        -----------------------------------------
Total Dipole Moment    :     -0.07278       0.12093      -0.18870
                        -----------------------------------------
Magnitude (a.u.)       :      0.23565
Magnitude (Debye)      :      0.59897

                             ****ORCA TERMINATED NORMALLY****
TOTAL RUN TIME: 0 days 0 hours 0 minutes 7 seconds 826 msec
