                         Program Version 3.0.3 - RELEASE   -
|  1> ! RI PBE def2-SVP def2-SVP/J NBO PAL2
|  2> % maxcore 2000
|  3> % output
|  4>     # printlevel mini
|  5>     print[ P_Basis ] 0
|  6>     print[ P_SCFInfo ] 1
|  7>     print[ P_SCFIterInfo ] 1
|  8>     print[ P_OrbEn ] 0
|  9>     print[ P_Cartesian ] 0
| 10> end
| 11> *xyz 0 1
| 12>  C        0.8954730000    -0.0985800000     0.3958710000
| 13>  C        2.3852830000    -0.0988440000     0.0826260000
| 14>  C        2.7776010000     1.1348820000    -0.7166210000
| 15>  O        4.1068580000     1.0629420000    -1.1758660000
| 16>  C        4.2942330000     0.0302550000    -2.1104620000
| 17>  C        3.6401320000    -1.2511790000    -1.7094970000
| 18>  C        2.7931100000    -1.3178570000    -0.6900570000
| 19>  H        0.6093420000     0.7961940000     0.9552030000
| 20>  H        0.6212510000    -0.9688350000     0.9968910000
| 21>  H        0.3032720000    -0.1275160000    -0.5231210000
| 22>  H        2.9374650000    -0.0819420000     1.0323020000
| 23>  H        2.7100220000     2.0381890000    -0.1060470000
| 24>  H        2.0864910000     1.2481300000    -1.5679070000
| 25>  H        5.3759180000    -0.1094210000    -2.2012080000
| 26>  H        3.9290570000     0.3411860000    -3.1052190000
| 27>  H        3.8914320000    -2.1349730000    -2.2885650000
| 28>  H        2.3529790000    -2.2700310000    -0.4045020000
| 29> *
| 30>
| 31>                          ****END OF INPUT****
 Total Charge           Charge          ....    0
 Multiplicity           Mult            ....    1
 Number of Electrons    NEL             ....   54
 Basis Dimension        Dim             ....  148

MULLIKEN ATOMIC CHARGES
-----------------------
   0 C :   -0.007269
   1 C :   -0.069400
   2 C :    0.201998
   3 O :   -0.335567
   4 C :    0.257383
   5 C :   -0.132589
   6 C :   -0.019037
   7 H :    0.021589
   8 H :    0.025123
   9 H :    0.022112
  10 H :    0.023538
  11 H :    0.008903
  12 H :   -0.012444
  13 H :    0.026360
  14 H :    0.004944
  15 H :   -0.001139
  16 H :   -0.014504
Sum of atomic charges:   -0.0000000

LOEWDIN ATOMIC CHARGES
----------------------
   0 C :   -0.056085
   1 C :   -0.064027
   2 C :    0.066070
   3 O :   -0.143180
   4 C :    0.057065
   5 C :   -0.063785
   6 C :   -0.036291
   7 H :    0.027313
   8 H :    0.028018
   9 H :    0.026381
  10 H :    0.035865
  11 H :    0.021099
  12 H :    0.004446
  13 H :    0.031683
  14 H :    0.014859
  15 H :    0.027395
  16 H :    0.023174

  Mayer bond orders larger than 0.1
B(  0-C ,  1-C ) :   1.0672 B(  0-C ,  7-H ) :   0.9618 B(  0-C ,  8-H ) :   0.9590
B(  0-C ,  9-H ) :   0.9603 B(  1-C ,  2-C ) :   1.0592 B(  1-C ,  6-C ) :   1.0092
B(  1-C , 10-H ) :   0.8734 B(  2-C ,  3-O ) :   1.0248 B(  2-C , 11-H ) :   0.9376
B(  2-C , 12-H ) :   0.9204 B(  3-O ,  4-C ) :   1.0392 B(  4-C ,  5-C ) :   1.0119
B(  4-C , 13-H ) :   0.9262 B(  4-C , 14-H ) :   0.9118 B(  5-C ,  6-C ) :   1.9237
B(  5-C , 15-H ) :   0.9500 B(  6-C , 16-H ) :   0.9684

FINAL SINGLE POINT ENERGY      -309.221321125309

DIPOLE MOMENT
-------------
                                X             Y             Z
Electronic contribution:      4.32094       0.56162      -1.23103
Nuclear contribution   :     -4.64502      -0.83911       1.17363
                        -----------------------------------------
Total Dipole Moment    :     -0.32408      -0.27750      -0.05740
                        -----------------------------------------
Magnitude (a.u.)       :      0.43050
Magnitude (Debye)      :      1.09424

                             ****ORCA TERMINATED NORMALLY****
TOTAL RUN TIME: 0 days 0 hours 0 minutes 7 seconds 372 msec
