                         Program Version 3.0.3 - RELEASE   -
|  1> ! RI PBE def2-SVP def2-SVP/J NBO PAL2
|  2> % maxcore 2000
|  3> % output
|  4>     # printlevel mini
|  5>     print[ P_Basis ] 0
|  6>     print[ P_SCFInfo ] 1
|  7>     print[ P_SCFIterInfo ] 1
|  8>     print[ P_OrbEn ] 0
|  9>     print[ P_Cartesian ] 0
| 10> end
| 11> *xyz 0 1
| 12>  C        0.8894080000     0.0824640000     0.0767100000
| 13>  C        2.3986750000     0.0630550000    -0.0944700000
| 14>  C        2.9327180000    -1.3053520000    -0.4886080000
| 15>  O        2.5640420000    -1.6409480000    -1.8081540000
| 16>  C        3.0709620000    -0.6809250000    -2.7103990000
| 17>  C        2.5457340000     0.6943800000    -2.3687730000
| 18>  O        2.8493510000     1.0340990000    -1.0327530000
| 19>  H        0.6042800000    -0.5276880000     0.9371320000
| 20>  H        0.3763620000    -0.3200690000    -0.7982290000
| 21>  H        0.5436820000     1.1030150000     0.2506740000
| 22>  H        2.8689800000     0.3557500000     0.8496520000
| 23>  H        2.5290730000    -2.0834370000     0.1631310000
| 24>  H        4.0294050000    -1.3051990000    -0.3990810000
| 25>  H        2.7551110000    -0.9804880000    -3.7122340000
| 26>  H        4.1712910000    -0.6793310000    -2.6726340000
| 27>  H        1.4620810000     0.7314680000    -2.5447720000
| 28>  H        3.0173460000     1.4544870000    -2.9963030000
| 29> *
| 30>
| 31>                          ****END OF INPUT****
 Total Charge           Charge          ....    0
 Multiplicity           Mult            ....    1
 Number of Electrons    NEL             ....   56
 Basis Dimension        Dim             ....  148

MULLIKEN ATOMIC CHARGES
-----------------------
   0 C :    0.019967
   1 C :    0.012511
   2 C :    0.217758
   3 O :   -0.344305
   4 C :    0.155497
   5 C :    0.171073
   6 O :   -0.343132
   7 H :    0.015167
   8 H :    0.025294
   9 H :    0.028151
  10 H :    0.002589
  11 H :    0.012407
  12 H :   -0.003220
  13 H :    0.013807
  14 H :   -0.001028
  15 H :    0.001124
  16 H :    0.016340
Sum of atomic charges:   -0.0000000

LOEWDIN ATOMIC CHARGES
----------------------
   0 C :   -0.074089
   1 C :    0.026460
   2 C :    0.048983
   3 O :   -0.145467
   4 C :    0.041607
   5 C :    0.041112
   6 O :   -0.148117
   7 H :    0.030930
   8 H :    0.024974
   9 H :    0.030704
  10 H :    0.024901
  11 H :    0.023788
  12 H :    0.008141
  13 H :    0.024500
  14 H :    0.007958
  15 H :    0.007697
  16 H :    0.025916

  Mayer bond orders larger than 0.1
B(  0-C ,  1-C ) :   1.0656 B(  0-C ,  7-H ) :   0.9518 B(  0-C ,  8-H ) :   0.9515
B(  0-C ,  9-H ) :   0.9565 B(  1-C ,  2-C ) :   1.0523 B(  1-C ,  6-O ) :   1.0098
B(  1-C , 10-H ) :   0.9097 B(  2-C ,  3-O ) :   1.0217 B(  2-C , 11-H ) :   0.9362
B(  2-C , 12-H ) :   0.9051 B(  3-O ,  4-C ) :   1.0130 B(  4-C ,  5-C ) :   1.0988
B(  4-C , 13-H ) :   0.9351 B(  4-C , 14-H ) :   0.9067 B(  5-C ,  6-O ) :   1.0206
B(  5-C , 15-H ) :   0.9133 B(  5-C , 16-H ) :   0.9323

FINAL SINGLE POINT ENERGY      -346.288317256404

DIPOLE MOMENT
-------------
                                X             Y             Z
Electronic contribution:      2.07407      -0.25592      -1.07895
Nuclear contribution   :     -2.10368       0.25132       1.09544
                        -----------------------------------------
Total Dipole Moment    :     -0.02961      -0.00460       0.01649
                        -----------------------------------------
Magnitude (a.u.)       :      0.03421
Magnitude (Debye)      :      0.08695

                             ****ORCA TERMINATED NORMALLY****
TOTAL RUN TIME: 0 days 0 hours 0 minutes 7 seconds 196 msec
