                         Program Version 3.0.3 - RELEASE   -
|  1> ! RI PBE def2-SVP def2-SVP/J NBO PAL2
|  2> % maxcore 2000
|  3> % output
|  4>     # printlevel mini
|  5>     print[ P_Basis ] 0
|  6>     print[ P_SCFInfo ] 1
|  7>     print[ P_SCFIterInfo ] 1
|  8>     print[ P_OrbEn ] 0
|  9>     print[ P_Cartesian ] 0
| 10> end
| 11> *xyz 0 1
| 12>  C        1.0659260000     0.1259570000     0.0514500000
| 13>  C        2.3736800000     0.1024680000    -0.1694270000
| 14>  C        3.2115770000    -1.1414000000    -0.1513820000
| 15>  O        4.1625300000    -1.1671450000    -1.1952470000
| 16>  C        4.9565930000    -0.0056540000    -1.1456510000
| 17>  C        4.0924100000     1.2185540000    -1.3085190000
| 18>  O        3.0675950000     1.2670950000    -0.3228290000
| 19>  H        0.5262010000    -0.7938350000     0.2315850000
| 20>  H        0.5249990000     1.0629620000     0.0859910000
| 21>  H        2.5825890000    -2.0240610000    -0.2602840000
| 22>  H        3.7353190000    -1.2001800000     0.8172570000
| 23>  H        5.6821680000    -0.0711990000    -1.9591890000
| 24>  H        5.5024410000     0.0400710000    -0.1903900000
| 25>  H        3.6324830000     1.2179710000    -2.3047410000
| 26>  H        4.6759070000     2.1329750000    -1.1881140000
| 27> *
| 28>
| 29>                          ****END OF INPUT****
 Total Charge           Charge          ....    0
 Multiplicity           Mult            ....    1
 Number of Electrons    NEL             ....   54
 Basis Dimension        Dim             ....  138

MULLIKEN ATOMIC CHARGES
-----------------------
   0 C :   -0.051509
   1 C :   -0.052410
   2 C :    0.286314
   3 O :   -0.344166
   4 C :    0.137350
   5 C :    0.193166
   6 O :   -0.284963
   7 H :    0.009845
   8 H :    0.021899
   9 H :    0.015540
  10 H :    0.007902
  11 H :    0.028938
  12 H :   -0.000927
  13 H :    0.010690
  14 H :    0.022332
Sum of atomic charges:   -0.0000000

LOEWDIN ATOMIC CHARGES
----------------------
   0 C :   -0.107854
   1 C :    0.003224
   2 C :    0.054955
   3 O :   -0.143031
   4 C :    0.040311
   5 C :    0.056244
   6 O :   -0.092082
   7 H :    0.027782
   8 H :    0.028917
   9 H :    0.031824
  10 H :    0.017750
  11 H :    0.030164
  12 H :    0.008306
  13 H :    0.015919
  14 H :    0.027571

  Mayer bond orders larger than 0.1
B(  0-C ,  1-C ) :   1.9516 B(  0-C ,  7-H ) :   0.9263 B(  0-C ,  8-H ) :   0.9296
B(  1-C ,  2-C ) :   1.0020 B(  1-C ,  6-O ) :   1.1146 B(  2-C ,  3-O ) :   0.9983
B(  2-C ,  9-H ) :   0.9304 B(  2-C , 10-H ) :   0.8944 B(  3-O ,  4-C ) :   1.0213
B(  4-C ,  5-C ) :   1.1017 B(  4-C , 11-H ) :   0.9365 B(  4-C , 12-H ) :   0.9072
B(  5-C ,  6-O ) :   0.9681 B(  5-C , 13-H ) :   0.9156 B(  5-C , 14-H ) :   0.9388

FINAL SINGLE POINT ENERGY      -345.070842381049

DIPOLE MOMENT
-------------
                                X             Y             Z
Electronic contribution:      0.00562       0.13510      -0.18603
Nuclear contribution   :      0.37207      -0.07551       0.15607
                        -----------------------------------------
Total Dipole Moment    :      0.37768       0.05960      -0.02997
                        -----------------------------------------
Magnitude (a.u.)       :      0.38353
Magnitude (Debye)      :      0.97485

                             ****ORCA TERMINATED NORMALLY****
TOTAL RUN TIME: 0 days 0 hours 0 minutes 6 seconds 487 msec
