                         Program Version 3.0.3 - RELEASE   -
|  1> ! RI PBE def2-SVP def2-SVP/J NBO PAL2
|  2> % maxcore 2000
|  3> % output
|  4>     # printlevel mini
|  5>     print[ P_Basis ] 0
|  6>     print[ P_SCFInfo ] 1
|  7>     print[ P_SCFIterInfo ] 1
|  8>     print[ P_OrbEn ] 0
|  9>     print[ P_Cartesian ] 0
| 10> end
| 11> *xyz 0 1
| 12>  C        0.8510260000    -0.0714950000    -0.0059740000
| 13>  C        2.1774290000    -0.0553730000    -0.0057480000
| 14>  C        2.9448260000     1.2515020000    -0.0236660000
| 15>  O        4.3581210000     1.1778380000    -0.0214730000
| 16>  C        4.9105760000    -0.0551670000    -0.0040880000
| 17>  C        4.2196460000    -1.1846040000     0.0109670000
| 18>  O        2.8528030000    -1.2311760000     0.0107140000
| 19>  H        0.2947400000     0.8558990000    -0.0189850000
| 20>  H        0.3068520000    -1.0060500000     0.0067430000
| 21>  H        2.6485350000     1.8374090000     0.8511560000
| 22>  H        2.6499490000     1.8124020000    -0.9152050000
| 23>  H        5.9906010000    -0.0373700000    -0.0035720000
| 24>  H        4.6738170000    -2.1624150000     0.0247430000
| 25> *
| 26>
| 27>                          ****END OF INPUT****
 Total Charge           Charge          ....    0
 Multiplicity           Mult            ....    1
 Number of Electrons    NEL             ....   52
 Basis Dimension        Dim             ....  128

MULLIKEN ATOMIC CHARGES
-----------------------
   0 C :   -0.075087
   1 C :   -0.019688
   2 C :    0.225806
   3 O :   -0.271274
   4 C :    0.075984
   5 C :    0.081005
   6 O :   -0.197459
   7 H :    0.016721
   8 H :    0.031217
   9 H :    0.049645
  10 H :    0.049199
  11 H :    0.022179
  12 H :    0.011753
Sum of atomic charges:   -0.0000000

LOEWDIN ATOMIC CHARGES
----------------------
   0 C :   -0.117111
   1 C :    0.012454
   2 C :    0.066219
   3 O :   -0.075079
   4 C :   -0.024213
   5 C :   -0.041227
   6 O :   -0.016744
   7 H :    0.029976
   8 H :    0.032853
   9 H :    0.036363
  10 H :    0.036265
  11 H :    0.031547
  12 H :    0.028697

  Mayer bond orders larger than 0.1
B(  0-C ,  1-C ) :   1.9277 B(  0-C ,  7-H ) :   0.9375 B(  0-C ,  8-H ) :   0.9305
B(  1-C ,  2-C ) :   0.9766 B(  1-C ,  6-O ) :   1.1267 B(  2-C ,  3-O ) :   0.9800
B(  2-C ,  9-H ) :   0.9356 B(  2-C , 10-H ) :   0.9356 B(  3-O ,  4-C ) :   1.1083
B(  4-C ,  5-C ) :   1.7308 B(  4-C , 11-H ) :   0.9677 B(  5-C ,  6-O ) :   1.0365
B(  5-C , 12-H ) :   0.9714

FINAL SINGLE POINT ENERGY      -343.856286020794

DIPOLE MOMENT
-------------
                                X             Y             Z
Electronic contribution:      2.45825      -1.06593       0.01630
Nuclear contribution   :     -2.43459       1.27214      -0.01899
                        -----------------------------------------
Total Dipole Moment    :      0.02366       0.20621      -0.00269
                        -----------------------------------------
Magnitude (a.u.)       :      0.20758
Magnitude (Debye)      :      0.52762

                             ****ORCA TERMINATED NORMALLY****
TOTAL RUN TIME: 0 days 0 hours 0 minutes 6 seconds 383 msec
