                         Program Version 3.0.3 - RELEASE   -
|  1> ! RI PBE def2-SVP def2-SVP/J NBO PAL2
|  2> % maxcore 2000
|  3> % output
|  4>     # printlevel mini
|  5>     print[ P_Basis ] 0
|  6>     print[ P_SCFInfo ] 1
|  7>     print[ P_SCFIterInfo ] 1
|  8>     print[ P_OrbEn ] 0
|  9>     print[ P_Cartesian ] 0
| 10> end
| 11> *xyz 0 1
| 12>  C        1.1451190000     0.0154050000    -0.1059540000
| 13>  C        2.6206860000     0.0613740000     0.0345400000
| 14>  C        3.3190140000     1.1505250000     0.3635300000
| 15>  O        4.6824690000     1.2028300000     0.4348360000
| 16>  C        5.2844160000     0.0864190000    -0.1842750000
| 17>  C        4.5675120000    -1.1831750000     0.2154840000
| 18>  O        3.2201840000    -1.1442420000    -0.2112280000
| 19>  H        0.7092280000     0.9961760000     0.0849280000
| 20>  H        0.7101530000    -0.7057170000     0.5922660000
| 21>  H        0.8643560000    -0.2974810000    -1.1162030000
| 22>  H        2.8412810000     2.0910980000     0.5974270000
| 23>  H        6.3279460000     0.0650060000     0.1342920000
| 24>  H        5.2442190000     0.2032740000    -1.2748160000
| 25>  H        4.6040230000    -1.2979190000     1.3058770000
| 26>  H        5.0252850000    -2.0573740000    -0.2504160000
| 27> *
| 28>
| 29>                          ****END OF INPUT****
 Total Charge           Charge          ....    0
 Multiplicity           Mult            ....    1
 Number of Electrons    NEL             ....   54
 Basis Dimension        Dim             ....  138

MULLIKEN ATOMIC CHARGES
-----------------------
   0 C :    0.082923
   1 C :   -0.052350
   2 C :    0.061239
   3 O :   -0.276271
   4 C :    0.138721
   5 C :    0.149143
   6 O :   -0.283137
   7 H :    0.013945
   8 H :    0.032622
   9 H :    0.029900
  10 H :   -0.004355
  11 H :    0.024661
  12 H :    0.032576
  13 H :    0.029011
  14 H :    0.021372
Sum of atomic charges:    0.0000000

LOEWDIN ATOMIC CHARGES
----------------------
   0 C :   -0.057475
   1 C :   -0.043367
   2 C :   -0.049162
   3 O :   -0.090117
   4 C :    0.049394
   5 C :    0.051963
   6 O :   -0.089194
   7 H :    0.037049
   8 H :    0.035433
   9 H :    0.036355
  10 H :    0.021723
  11 H :    0.028578
  12 H :    0.020459
  13 H :    0.020427
  14 H :    0.027934

  Mayer bond orders larger than 0.1
B(  0-C ,  1-C ) :   1.1100 B(  0-C ,  7-H ) :   0.9498 B(  0-C ,  8-H ) :   0.9396
B(  0-C ,  9-H ) :   0.9392 B(  1-C ,  2-C ) :   1.6872 B(  1-C ,  6-O ) :   1.0952
B(  2-C ,  3-O ) :   1.0888 B(  2-C , 10-H ) :   0.9602 B(  3-O ,  4-C ) :   1.0000
B(  4-C ,  5-C ) :   1.0734 B(  4-C , 11-H ) :   0.9379 B(  4-C , 12-H ) :   0.9343
B(  5-C ,  6-O ) :   0.9919 B(  5-C , 13-H ) :   0.9354 B(  5-C , 14-H ) :   0.9376

FINAL SINGLE POINT ENERGY      -345.085600591748

DIPOLE MOMENT
-------------
                                X             Y             Z
Electronic contribution:      2.19737       0.80756       0.43846
Nuclear contribution   :     -2.00747      -1.05254      -0.49496
                        -----------------------------------------
Total Dipole Moment    :      0.18990      -0.24497      -0.05651
                        -----------------------------------------
Magnitude (a.u.)       :      0.31507
Magnitude (Debye)      :      0.80084

                             ****ORCA TERMINATED NORMALLY****
TOTAL RUN TIME: 0 days 0 hours 0 minutes 6 seconds 591 msec
