                         Program Version 3.0.3 - RELEASE   -
|  1> ! RI PBE def2-SVP def2-SVP/J NBO PAL2
|  2> % maxcore 2000
|  3> % output
|  4>     # printlevel mini
|  5>     print[ P_Basis ] 0
|  6>     print[ P_SCFInfo ] 1
|  7>     print[ P_SCFIterInfo ] 1
|  8>     print[ P_OrbEn ] 0
|  9>     print[ P_Cartesian ] 0
| 10> end
| 11> *xyz 0 1
| 12>  C        0.9877330000    -0.0790560000     0.0954020000
| 13>  C        2.4563800000     0.0352030000    -0.0380600000
| 14>  C        3.1307530000     1.1763530000    -0.0938900000
| 15>  O        4.5014100000     1.2722110000    -0.2184880000
| 16>  C        5.1034090000     0.0426690000    -0.2797250000
| 17>  C        4.4450950000    -1.1032350000    -0.2253870000
| 18>  O        3.0784220000    -1.1977770000    -0.1009960000
| 19>  H        0.5258220000     0.9067620000     0.1424490000
| 20>  H        0.7283880000    -0.6341230000     1.0017630000
| 21>  H        0.5681170000    -0.6254060000    -0.7544640000
| 22>  H        2.6464100000     2.1395640000    -0.0448800000
| 23>  H        6.1772960000     0.0946120000    -0.3775850000
| 24>  H        4.9361660000    -2.0631770000    -0.2751290000
| 25> *
| 26>
| 27>                          ****END OF INPUT****
 Total Charge           Charge          ....    0
 Multiplicity           Mult            ....    1
 Number of Electrons    NEL             ....   52
 Basis Dimension        Dim             ....  128

MULLIKEN ATOMIC CHARGES
-----------------------
   0 C :    0.073296
   1 C :   -0.018252
   2 C :    0.088772
   3 O :   -0.234683
   4 C :    0.089971
   5 C :    0.111041
   6 O :   -0.245990
   7 H :    0.019394
   8 H :    0.040928
   9 H :    0.041972
  10 H :    0.001739
  11 H :    0.019434
  12 H :    0.012379
Sum of atomic charges:   -0.0000000

LOEWDIN ATOMIC CHARGES
----------------------
   0 C :   -0.054618
   1 C :   -0.006199
   2 C :   -0.013468
   3 O :   -0.061502
   4 C :   -0.004745
   5 C :   -0.004373
   6 O :   -0.065602
   7 H :    0.039764
   8 H :    0.040748
   9 H :    0.040918
  10 H :    0.027498
  11 H :    0.031414
  12 H :    0.030167

  Mayer bond orders larger than 0.1
B(  0-C ,  1-C ) :   1.1167 B(  0-C ,  7-H ) :   0.9487 B(  0-C ,  8-H ) :   0.9357
B(  0-C ,  9-H ) :   0.9362 B(  1-C ,  2-C ) :   1.7629 B(  1-C ,  6-O ) :   1.0350
B(  2-C ,  3-O ) :   1.0286 B(  2-C , 10-H ) :   0.9692 B(  3-O ,  4-C ) :   1.0526
B(  4-C ,  5-C ) :   1.7972 B(  4-C , 11-H ) :   0.9695 B(  5-C ,  6-O ) :   1.0312
B(  5-C , 12-H ) :   0.9707

FINAL SINGLE POINT ENERGY      -343.862214368817

DIPOLE MOMENT
-------------
                                X             Y             Z
Electronic contribution:      4.15808       0.22113      -0.38071
Nuclear contribution   :     -4.34062      -0.27739       0.39447
                        -----------------------------------------
Total Dipole Moment    :     -0.18254      -0.05626       0.01376
                        -----------------------------------------
Magnitude (a.u.)       :      0.19151
Magnitude (Debye)      :      0.48677

                             ****ORCA TERMINATED NORMALLY****
TOTAL RUN TIME: 0 days 0 hours 0 minutes 6 seconds 335 msec
