                         Program Version 3.0.3 - RELEASE   -
|  1> ! RI PBE def2-SVP def2-SVP/J NBO PAL2
|  2> % maxcore 2000
|  3> % output
|  4>     # printlevel mini
|  5>     print[ P_Basis ] 0
|  6>     print[ P_SCFInfo ] 1
|  7>     print[ P_SCFIterInfo ] 1
|  8>     print[ P_OrbEn ] 0
|  9>     print[ P_Cartesian ] 0
| 10> end
| 11> *xyz 0 1
| 12>  C        1.2946060000    -0.0931800000     0.2573400000
| 13>  C        2.7689860000    -0.0224850000    -0.0831670000
| 14>  C        3.0207260000     0.1347960000    -1.5686610000
| 15>  O        3.3381530000     1.0616540000     0.6417330000
| 16>  C        4.5101580000     0.5941210000     1.2723900000
| 17>  C        4.1822750000    -0.8622350000     1.5129210000
| 18>  O        3.4444440000    -1.1948550000     0.3575440000
| 19>  H        0.8023760000     0.8449080000    -0.0050130000
| 20>  H        1.1681430000    -0.2648930000     1.3272090000
| 21>  H        0.8195470000    -0.9077260000    -0.2917740000
| 22>  H        2.5056780000     1.0193850000    -1.9467170000
| 23>  H        2.6582780000    -0.7428210000    -2.1067580000
| 24>  H        4.0904310000     0.2398050000    -1.7552340000
| 25>  H        4.6705040000     1.1724980000     2.1836090000
| 26>  H        5.3854100000     0.7018760000     0.6177230000
| 27>  H        3.5787680000    -0.9891800000     2.4217250000
| 28>  H        5.0558380000    -1.5136570000     1.5686300000
| 29> *
| 30>
| 31>                          ****END OF INPUT****
 Total Charge           Charge          ....    0
 Multiplicity           Mult            ....    1
 Number of Electrons    NEL             ....   56
 Basis Dimension        Dim             ....  148

MULLIKEN ATOMIC CHARGES
-----------------------
   0 C :    0.099784
   1 C :   -0.002505
   2 C :    0.101455
   3 O :   -0.339680
   4 C :    0.167732
   5 C :    0.168938
   6 O :   -0.339711
   7 H :    0.023176
   8 H :    0.005909
   9 H :    0.019875
  10 H :    0.018524
  11 H :    0.022999
  12 H :    0.005355
  13 H :    0.019538
  14 H :    0.004605
  15 H :    0.003219
  16 H :    0.020787
Sum of atomic charges:    0.0000000

LOEWDIN ATOMIC CHARGES
----------------------
   0 C :   -0.068009
   1 C :    0.082664
   2 C :   -0.067595
   3 O :   -0.145797
   4 C :    0.050389
   5 C :    0.050364
   6 O :   -0.145838
   7 H :    0.032837
   8 H :    0.028030
   9 H :    0.031615
  10 H :    0.031331
  11 H :    0.032818
  12 H :    0.027855
  13 H :    0.022936
  14 H :    0.006687
  15 H :    0.006462
  16 H :    0.023251

  Mayer bond orders larger than 0.1
B(  0-C ,  1-C ) :   1.0691 B(  0-C ,  7-H ) :   0.9477 B(  0-C ,  8-H ) :   0.9371
B(  0-C ,  9-H ) :   0.9487 B(  1-C ,  2-C ) :   1.0680 B(  1-C ,  3-O ) :   1.0009
B(  1-C ,  6-O ) :   1.0005 B(  2-C , 10-H ) :   0.9491 B(  2-C , 11-H ) :   0.9473
B(  2-C , 12-H ) :   0.9380 B(  3-O ,  4-C ) :   1.0100 B(  4-C ,  5-C ) :   1.1114
B(  4-C , 13-H ) :   0.9398 B(  4-C , 14-H ) :   0.9228 B(  5-C ,  6-O ) :   1.0115
B(  5-C , 15-H ) :   0.9226 B(  5-C , 16-H ) :   0.9393

FINAL SINGLE POINT ENERGY      -346.301375008282

DIPOLE MOMENT
-------------
                                X             Y             Z
Electronic contribution:      1.60262      -0.11355       1.50353
Nuclear contribution   :     -1.38062       0.09821      -1.29587
                        -----------------------------------------
Total Dipole Moment    :      0.22200      -0.01534       0.20767
                        -----------------------------------------
Magnitude (a.u.)       :      0.30438
Magnitude (Debye)      :      0.77367

                             ****ORCA TERMINATED NORMALLY****
TOTAL RUN TIME: 0 days 0 hours 0 minutes 7 seconds 125 msec
