                         Program Version 3.0.3 - RELEASE   -
|  1> ! RI PBE def2-SVP def2-SVP/J NBO PAL2
|  2> % maxcore 2000
|  3> % output
|  4>     # printlevel mini
|  5>     print[ P_Basis ] 0
|  6>     print[ P_SCFInfo ] 1
|  7>     print[ P_SCFIterInfo ] 1
|  8>     print[ P_OrbEn ] 0
|  9>     print[ P_Cartesian ] 0
| 10> end
| 11> *xyz 0 1
| 12>  C        0.8381100000    -0.0829410000     0.0417920000
| 13>  C        2.3464200000    -0.0866010000    -0.0538240000
| 14>  C        3.0467410000    -0.0808950000     1.2854390000
| 15>  O        2.7692420000    -1.2393580000    -0.8028450000
| 16>  C        3.3980120000    -0.7599960000    -1.9217670000
| 17>  C        3.4007730000     0.5623530000    -1.9288480000
| 18>  O        2.7740350000     1.0562910000    -0.8151350000
| 19>  H        0.4945550000    -0.9678960000     0.5797520000
| 20>  H        0.4084530000    -0.0874140000    -0.9606870000
| 21>  H        0.4982660000     0.8091560000     0.5702310000
| 22>  H        2.7661300000    -0.9657930000     1.8588410000
| 23>  H        2.7698360000     0.8112510000     1.8493320000
| 24>  H        4.1267150000    -0.0839630000     1.1330310000
| 25>  H        3.7907870000    -1.4800430000    -2.6189350000
| 26>  H        3.7965360000     1.2732490000    -2.6336760000
| 27> *
| 28>
| 29>                          ****END OF INPUT****
 Total Charge           Charge          ....    0
 Multiplicity           Mult            ....    1
 Number of Electrons    NEL             ....   54
 Basis Dimension        Dim             ....  138

MULLIKEN ATOMIC CHARGES
-----------------------
   0 C :    0.099226
   1 C :   -0.009851
   2 C :    0.087911
   3 O :   -0.275604
   4 C :    0.092190
   5 C :    0.091942
   6 O :   -0.275626
   7 H :    0.025899
   8 H :    0.021083
   9 H :    0.025745
  10 H :    0.029031
  11 H :    0.028924
  12 H :    0.025542
  13 H :    0.016794
  14 H :    0.016794
Sum of atomic charges:    0.0000000

LOEWDIN ATOMIC CHARGES
----------------------
   0 C :   -0.065500
   1 C :    0.106496
   2 C :   -0.068504
   3 O :   -0.096119
   4 C :   -0.020545
   5 C :   -0.020589
   6 O :   -0.096119
   7 H :    0.034694
   8 H :    0.034428
   9 H :    0.034669
  10 H :    0.035316
  11 H :    0.035292
  12 H :    0.035398
  13 H :    0.025543
  14 H :    0.025540

  Mayer bond orders larger than 0.1
B(  0-C ,  1-C ) :   1.0669 B(  0-C ,  7-H ) :   0.9492 B(  0-C ,  8-H ) :   0.9405
B(  0-C ,  9-H ) :   0.9492 B(  1-C ,  2-C ) :   1.0714 B(  1-C ,  3-O ) :   0.9904
B(  1-C ,  6-O ) :   0.9903 B(  2-C , 10-H ) :   0.9477 B(  2-C , 11-H ) :   0.9476
B(  2-C , 12-H ) :   0.9395 B(  3-O ,  4-C ) :   1.0460 B(  4-C ,  5-C ) :   1.7256
B(  4-C , 13-H ) :   0.9821 B(  5-C ,  6-O ) :   1.0460 B(  5-C , 14-H ) :   0.9822

FINAL SINGLE POINT ENERGY      -345.086642106721

DIPOLE MOMENT
-------------
                                X             Y             Z
Electronic contribution:      2.26917      -0.02646      -4.03610
Nuclear contribution   :     -2.28831       0.02653       4.06249
                        -----------------------------------------
Total Dipole Moment    :     -0.01914       0.00007       0.02639
                        -----------------------------------------
Magnitude (a.u.)       :      0.03260
Magnitude (Debye)      :      0.08287

                             ****ORCA TERMINATED NORMALLY****
TOTAL RUN TIME: 0 days 0 hours 0 minutes 6 seconds 415 msec
