                         Program Version 3.0.3 - RELEASE   -
|  1> ! RI PBE def2-SVP def2-SVP/J NBO PAL2
|  2> % maxcore 2000
|  3> % output
|  4>     # printlevel mini
|  5>     print[ P_Basis ] 0
|  6>     print[ P_SCFInfo ] 1
|  7>     print[ P_SCFIterInfo ] 1
|  8>     print[ P_OrbEn ] 0
|  9>     print[ P_Cartesian ] 0
| 10> end
| 11> *xyz 0 1
| 12>  C        0.9909490000    -0.0526440000     0.0680380000
| 13>  C        2.4847290000     0.0606030000    -0.1275550000
| 14>  C        2.8284760000     0.0441320000    -1.6083170000
| 15>  O        4.1973950000     0.2119820000    -1.8926700000
| 16>  C        3.2069170000     1.1261450000     0.7190490000
| 17>  C        3.9788870000    -0.0570040000     1.2988790000
| 18>  O        3.1870350000    -0.9964540000     0.5638420000
| 19>  H        0.4743680000     0.8146320000    -0.3522390000
| 20>  H        0.7532970000    -0.1172510000     1.1310150000
| 21>  H        0.6072420000    -0.9526260000    -0.4200970000
| 22>  H        2.2161570000     0.7932960000    -2.1300350000
| 23>  H        2.5544180000    -0.9396200000    -1.9998710000
| 24>  H        4.4155910000     1.1436130000    -1.8231770000
| 25>  H        2.5550040000     1.6407500000     1.4247460000
| 26>  H        3.7971230000     1.8664100000     0.1779260000
| 27>  H        3.8920570000    -0.2071790000     2.3793540000
| 28>  H        5.0322530000    -0.1070750000     1.0073110000
| 29> *
| 30>
| 31>                          ****END OF INPUT****
 Total Charge           Charge          ....    0
 Multiplicity           Mult            ....    1
 Number of Electrons    NEL             ....   56
 Basis Dimension        Dim             ....  148

MULLIKEN ATOMIC CHARGES
-----------------------
   0 C :    0.090028
   1 C :   -0.174552
   2 C :    0.259799
   3 O :   -0.273388
   4 C :   -0.011745
   5 C :    0.203026
   6 O :   -0.338789
   7 H :    0.017457
   8 H :    0.012194
   9 H :    0.024025
  10 H :   -0.005303
  11 H :    0.009762
  12 H :    0.151267
  13 H :    0.013248
  14 H :   -0.005350
  15 H :    0.014960
  16 H :    0.013361
Sum of atomic charges:   -0.0000000

LOEWDIN ATOMIC CHARGES
----------------------
   0 C :   -0.061149
   1 C :    0.010673
   2 C :    0.048263
   3 O :   -0.108068
   4 C :   -0.048404
   5 C :    0.083513
   6 O :   -0.172041
   7 H :    0.029706
   8 H :    0.028543
   9 H :    0.032678
  10 H :    0.006972
  11 H :    0.027202
  12 H :    0.064570
  13 H :    0.026483
  14 H :    0.012587
  15 H :    0.009095
  16 H :    0.009379

  Mayer bond orders larger than 0.1
B(  0-C ,  1-C ) :   1.0483 B(  0-C ,  7-H ) :   0.9476 B(  0-C ,  8-H ) :   0.9409
B(  0-C ,  9-H ) :   0.9506 B(  1-C ,  2-C ) :   0.9589 B(  1-C ,  4-C ) :   1.0653
B(  1-C ,  6-O ) :   1.0304 B(  2-C ,  3-O ) :   1.0918 B(  2-C , 10-H ) :   0.9361
B(  2-C , 11-H ) :   0.9161 B(  3-O , 12-H ) :   0.9855 B(  4-C ,  5-C ) :   1.1088
B(  4-C , 13-H ) :   0.9264 B(  4-C , 14-H ) :   0.9304 B(  5-C ,  6-O ) :   1.0285
B(  5-C , 15-H ) :   0.9376 B(  5-C , 16-H ) :   0.9334

FINAL SINGLE POINT ENERGY      -346.269730085557

DIPOLE MOMENT
-------------
                                X             Y             Z
Electronic contribution:      3.15266      -2.15946      -0.93211
Nuclear contribution   :     -3.47894       3.23014       1.04047
                        -----------------------------------------
Total Dipole Moment    :     -0.32628       1.07068       0.10835
                        -----------------------------------------
Magnitude (a.u.)       :      1.12452
Magnitude (Debye)      :      2.85831

                             ****ORCA TERMINATED NORMALLY****
TOTAL RUN TIME: 0 days 0 hours 0 minutes 7 seconds 739 msec
