                         Program Version 3.0.3 - RELEASE   -
|  1> ! RI PBE def2-SVP def2-SVP/J NBO PAL2
|  2> % maxcore 2000
|  3> % output
|  4>     # printlevel mini
|  5>     print[ P_Basis ] 0
|  6>     print[ P_SCFInfo ] 1
|  7>     print[ P_SCFIterInfo ] 1
|  8>     print[ P_OrbEn ] 0
|  9>     print[ P_Cartesian ] 0
| 10> end
| 11> *xyz 0 1
| 12>  C        0.9335020000    -0.0898350000     0.3283500000
| 13>  C        2.3447290000    -0.1476710000    -0.1970930000
| 14>  C        2.7622170000     1.1315670000    -0.9020450000
| 15>  O        4.0969260000     1.0529400000    -1.3602220000
| 16>  C        4.3567490000    -0.1429540000    -1.9567880000
| 17>  C        3.5607870000    -1.2056240000    -1.8593120000
| 18>  O        2.4273440000    -1.2383110000    -1.1058480000
| 19>  H        0.8410030000     0.6776010000     1.0995680000
| 20>  H        0.6561280000    -1.0508410000     0.7638120000
| 21>  H        0.2312420000     0.1356430000    -0.4774670000
| 22>  H        3.0551010000    -0.3333470000     0.6205800000
| 23>  H        2.7090450000     1.9836840000    -0.2227540000
| 24>  H        2.0901740000     1.3079210000    -1.7523150000
| 25>  H        5.2726450000    -0.1552000000    -2.5299150000
| 26>  H        3.7680070000    -2.1316020000    -2.3765420000
| 27> *
| 28>
| 29>                          ****END OF INPUT****
 Total Charge           Charge          ....    0
 Multiplicity           Mult            ....    1
 Number of Electrons    NEL             ....   54
 Basis Dimension        Dim             ....  138

MULLIKEN ATOMIC CHARGES
-----------------------
   0 C :    0.013392
   1 C :    0.015136
   2 C :    0.190712
   3 O :   -0.270453
   4 C :    0.072916
   5 C :    0.071041
   6 O :   -0.269665
   7 H :    0.028498
   8 H :    0.037649
   9 H :    0.028326
  10 H :    0.023601
  11 H :    0.021685
  12 H :    0.020234
  13 H :    0.008473
  14 H :    0.008456
Sum of atomic charges:    0.0000000

LOEWDIN ATOMIC CHARGES
----------------------
   0 C :   -0.064566
   1 C :    0.037219
   2 C :    0.055911
   3 O :   -0.085282
   4 C :   -0.040635
   5 C :   -0.039908
   6 O :   -0.085664
   7 H :    0.034960
   8 H :    0.037284
   9 H :    0.032033
  10 H :    0.020930
  11 H :    0.028127
  12 H :    0.019382
  13 H :    0.025378
  14 H :    0.024828

  Mayer bond orders larger than 0.1
B(  0-C ,  1-C ) :   1.0918 B(  0-C ,  7-H ) :   0.9554 B(  0-C ,  8-H ) :   0.9510
B(  0-C ,  9-H ) :   0.9542 B(  1-C ,  2-C ) :   1.0306 B(  1-C ,  6-O ) :   0.9772
B(  1-C , 10-H ) :   0.9157 B(  2-C ,  3-O ) :   1.0041 B(  2-C , 11-H ) :   0.9396
B(  2-C , 12-H ) :   0.9254 B(  3-O ,  4-C ) :   1.0959 B(  4-C ,  5-C ) :   1.7255
B(  4-C , 13-H ) :   0.9645 B(  5-C ,  6-O ) :   1.0969 B(  5-C , 14-H ) :   0.9642

FINAL SINGLE POINT ENERGY      -345.083705354014

DIPOLE MOMENT
-------------
                                X             Y             Z
Electronic contribution:      4.01380      -0.84402      -2.59684
Nuclear contribution   :     -4.31793       1.00546       2.87557
                        -----------------------------------------
Total Dipole Moment    :     -0.30413       0.16144       0.27873
                        -----------------------------------------
Magnitude (a.u.)       :      0.44300
Magnitude (Debye)      :      1.12600

                             ****ORCA TERMINATED NORMALLY****
TOTAL RUN TIME: 0 days 0 hours 0 minutes 6 seconds 392 msec
