                         Program Version 3.0.3 - RELEASE   -
|  1> ! RI PBE def2-SVP def2-SVP/J NBO PAL2
|  2> % maxcore 2000
|  3> % output
|  4>     # printlevel mini
|  5>     print[ P_Basis ] 0
|  6>     print[ P_SCFInfo ] 1
|  7>     print[ P_SCFIterInfo ] 1
|  8>     print[ P_OrbEn ] 0
|  9>     print[ P_Cartesian ] 0
| 10> end
| 11> *xyz 0 1
| 12>  C        0.9943490000    -0.1702850000     0.0913610000
| 13>  C        2.4841240000    -0.0227380000    -0.1009290000
| 14>  C        3.1406010000     1.0448290000     0.7729020000
| 15>  O        4.4127220000     0.5066560000     1.0452980000
| 16>  C        4.1796940000    -0.8668450000     1.2087750000
| 17>  C        5.4342670000    -1.6527920000     0.9636810000
| 18>  O        3.1739830000    -1.2104790000     0.2762090000
| 19>  H        0.4775940000     0.7463030000    -0.2070950000
| 20>  H        0.7587600000    -0.3773050000     1.1378900000
| 21>  H        0.6082470000    -0.9899350000    -0.5166490000
| 22>  H        2.7055320000     0.1715520000    -1.1578360000
| 23>  H        2.5694560000     1.1891960000     1.7025380000
| 24>  H        3.2635970000     2.0066530000     0.2749660000
| 25>  H        3.7909000000    -1.0487280000     2.2269610000
| 26>  H        5.8043220000    -1.4502940000    -0.0422800000
| 27>  H        5.2263150000    -2.7191170000     1.0607330000
| 28>  H        6.1974370000    -1.3756610000     1.6926430000
| 29> *
| 30>
| 31>                          ****END OF INPUT****
 Total Charge           Charge          ....    0
 Multiplicity           Mult            ....    1
 Number of Electrons    NEL             ....   56
 Basis Dimension        Dim             ....  148

MULLIKEN ATOMIC CHARGES
-----------------------
   0 C :    0.030127
   1 C :    0.026168
   2 C :    0.197892
   3 O :   -0.330969
   4 C :    0.228112
   5 C :    0.037964
   6 O :   -0.348314
   7 H :    0.020548
   8 H :    0.014952
   9 H :    0.035546
  10 H :    0.008611
  11 H :   -0.003212
  12 H :    0.021223
  13 H :   -0.024090
  14 H :    0.019496
  15 H :    0.034416
  16 H :    0.031529
Sum of atomic charges:   -0.0000000

LOEWDIN ATOMIC CHARGES
----------------------
   0 C :   -0.069878
   1 C :    0.035301
   2 C :    0.053489
   3 O :   -0.135750
   4 C :    0.114137
   5 C :   -0.075338
   6 O :   -0.156503
   7 H :    0.031137
   8 H :    0.026004
   9 H :    0.034337
  10 H :    0.014462
  11 H :    0.007145
  12 H :    0.025277
  13 H :   -0.010160
  14 H :    0.031837
  15 H :    0.038083
  16 H :    0.036419

  Mayer bond orders larger than 0.1
B(  0-C ,  1-C ) :   1.0855 B(  0-C ,  7-H ) :   0.9527 B(  0-C ,  8-H ) :   0.9490
B(  0-C ,  9-H ) :   0.9549 B(  1-C ,  2-C ) :   1.0616 B(  1-C ,  6-O ) :   1.0051
B(  1-C , 10-H ) :   0.9131 B(  2-C ,  3-O ) :   1.0212 B(  2-C , 11-H ) :   0.9268
B(  2-C , 12-H ) :   0.9380 B(  3-O ,  4-C ) :   1.0505 B(  4-C ,  5-C ) :   1.0918
B(  4-C ,  6-O ) :   1.0231 B(  4-C , 13-H ) :   0.9112 B(  5-C , 14-H ) :   0.9435
B(  5-C , 15-H ) :   0.9504 B(  5-C , 16-H ) :   0.9505

FINAL SINGLE POINT ENERGY      -346.302539549276

DIPOLE MOMENT
-------------
                                X             Y             Z
Electronic contribution:      2.14383       0.62129       0.00607
Nuclear contribution   :     -2.49525      -0.37896       0.03901
                        -----------------------------------------
Total Dipole Moment    :     -0.35142       0.24233       0.04508
                        -----------------------------------------
Magnitude (a.u.)       :      0.42925
Magnitude (Debye)      :      1.09105

                             ****ORCA TERMINATED NORMALLY****
TOTAL RUN TIME: 0 days 0 hours 0 minutes 7 seconds 35 msec
