                         Program Version 3.0.3 - RELEASE   -
|  1> ! RI PBE def2-SVP def2-SVP/J NBO PAL2
|  2> % maxcore 2000
|  3> % output
|  4>     # printlevel mini
|  5>     print[ P_Basis ] 0
|  6>     print[ P_SCFInfo ] 1
|  7>     print[ P_SCFIterInfo ] 1
|  8>     print[ P_OrbEn ] 0
|  9>     print[ P_Cartesian ] 0
| 10> end
| 11> *xyz 0 1
| 12>  C        0.9990770000    -0.0379340000     0.0027760000
| 13>  C        2.4843690000    -0.1097260000     0.0084420000
| 14>  C        3.3508250000     0.9263810000     0.0114810000
| 15>  O        4.6457890000     0.4639940000     0.0164660000
| 16>  C        4.5676260000    -0.8744410000     0.0165320000
| 17>  O        5.7213040000    -1.5455780000     0.0210450000
| 18>  C        3.2851570000    -1.3033120000     0.0118340000
| 19>  H        0.6551600000     0.9975680000     0.0012040000
| 20>  H        0.5761470000    -0.5324200000     0.8816230000
| 21>  H        0.5828360000    -0.5328740000    -0.8790040000
| 22>  H        3.2344370000     1.9965080000     0.0107710000
| 23>  H        6.4457240000    -0.9111030000     0.0236750000
| 24>  H        2.9516590000    -2.3277650000     0.0108640000
| 25> *
| 26>
| 27>                          ****END OF INPUT****
 Total Charge           Charge          ....    0
 Multiplicity           Mult            ....    1
 Number of Electrons    NEL             ....   52
 Basis Dimension        Dim             ....  128

MULLIKEN ATOMIC CHARGES
-----------------------
   0 C :    0.081885
   1 C :   -0.069452
   2 C :    0.032826
   3 O :   -0.198860
   4 C :    0.217358
   5 O :   -0.140272
   6 C :   -0.134605
   7 H :    0.012373
   8 H :    0.031650
   9 H :    0.031574
  10 H :   -0.012169
  11 H :    0.177967
  12 H :   -0.030275
Sum of atomic charges:   -0.0000000

LOEWDIN ATOMIC CHARGES
----------------------
   0 C :   -0.053099
   1 C :   -0.068559
   2 C :   -0.020056
   3 O :   -0.003992
   4 C :    0.046269
   5 O :   -0.013439
   6 C :   -0.133984
   7 H :    0.033145
   8 H :    0.037476
   9 H :    0.037464
  10 H :    0.016033
  11 H :    0.094258
  12 H :    0.028484

  Mayer bond orders larger than 0.1
B(  0-C ,  1-C ) :   1.1122 B(  0-C ,  7-H ) :   0.9527 B(  0-C ,  8-H ) :   0.9449
B(  0-C ,  9-H ) :   0.9449 B(  1-C ,  2-C ) :   1.5649 B(  1-C ,  6-C ) :   1.1841
B(  2-C ,  3-O ) :   1.0607 B(  2-C , 10-H ) :   1.0121 B(  3-O ,  4-C ) :   1.1537
B(  4-C ,  5-O ) :   1.2320 B(  4-C ,  6-C ) :   1.4800 B(  5-O , 11-H ) :   0.9526
B(  6-C , 12-H ) :   1.0311

FINAL SINGLE POINT ENERGY      -343.908728047002

DIPOLE MOMENT
-------------
                                X             Y             Z
Electronic contribution:      7.02970      -0.50338       0.02676
Nuclear contribution   :     -6.87644       0.79850      -0.02620
                        -----------------------------------------
Total Dipole Moment    :      0.15326       0.29512       0.00056
                        -----------------------------------------
Magnitude (a.u.)       :      0.33254
Magnitude (Debye)      :      0.84526

                             ****ORCA TERMINATED NORMALLY****
TOTAL RUN TIME: 0 days 0 hours 0 minutes 6 seconds 284 msec
