                         Program Version 3.0.3 - RELEASE   -
|  1> ! RI PBE def2-SVP def2-SVP/J NBO PAL2
|  2> % maxcore 2000
|  3> % output
|  4>     # printlevel mini
|  5>     print[ P_Basis ] 0
|  6>     print[ P_SCFInfo ] 1
|  7>     print[ P_SCFIterInfo ] 1
|  8>     print[ P_OrbEn ] 0
|  9>     print[ P_Cartesian ] 0
| 10> end
| 11> *xyz 0 1
| 12>  C        0.9377580000    -0.0495250000     0.0216380000
| 13>  C        2.4525990000    -0.0841220000    -0.1098950000
| 14>  C        2.9618940000    -1.4607880000    -0.5224200000
| 15>  O        2.6118110000    -1.7493450000    -1.8624430000
| 16>  C        3.1149220000    -0.7750730000    -2.7242360000
| 17>  O        2.6115570000     0.4976760000    -2.4563780000
| 18>  C        2.9616270000     0.9090130000    -1.1488090000
| 19>  H        0.5935740000    -0.7647950000     0.7728990000
| 20>  H        0.4620200000    -0.3004650000    -0.9275330000
| 21>  H        0.5933810000     0.9434660000     0.3213700000
| 22>  H        2.9091800000     0.1707720000     0.8542460000
| 23>  H        2.5263230000    -2.2520060000     0.0909040000
| 24>  H        4.0574170000    -1.5034870000    -0.4136120000
| 25>  H        2.8034170000    -1.0418910000    -3.7335460000
| 26>  H        4.2192310000    -0.7561190000    -2.6529990000
| 27>  H        2.5258540000     1.8998570000    -1.0065220000
| 28>  H        4.0571350000     1.0001310000    -1.0753720000
| 29> *
| 30>
| 31>                          ****END OF INPUT****
 Total Charge           Charge          ....    0
 Multiplicity           Mult            ....    1
 Number of Electrons    NEL             ....   56
 Basis Dimension        Dim             ....  148

MULLIKEN ATOMIC CHARGES
-----------------------
   0 C :    0.048719
   1 C :   -0.193061
   2 C :    0.197711
   3 O :   -0.331309
   4 C :    0.330490
   5 O :   -0.336799
   6 C :    0.211096
   7 H :    0.014730
   8 H :    0.029005
   9 H :    0.013566
  10 H :    0.005872
  11 H :    0.016022
  12 H :   -0.005439
  13 H :    0.020247
  14 H :   -0.027410
  15 H :    0.012276
  16 H :   -0.005714
Sum of atomic charges:    0.0000000

LOEWDIN ATOMIC CHARGES
----------------------
   0 C :   -0.056295
   1 C :   -0.082256
   2 C :    0.064776
   3 O :   -0.139162
   4 C :    0.120007
   5 O :   -0.140570
   6 C :    0.066602
   7 H :    0.025352
   8 H :    0.028515
   9 H :    0.025363
  10 H :    0.029872
  11 H :    0.022186
  12 H :    0.005041
  13 H :    0.018529
  14 H :   -0.014872
  15 H :    0.021602
  16 H :    0.005310

  Mayer bond orders larger than 0.1
B(  0-C ,  1-C ) :   1.0581 B(  0-C ,  7-H ) :   0.9622 B(  0-C ,  8-H ) :   0.9601
B(  0-C ,  9-H ) :   0.9613 B(  1-C ,  2-C ) :   1.0471 B(  1-C ,  6-C ) :   1.0475
B(  1-C , 10-H ) :   0.8981 B(  2-C ,  3-O ) :   1.0101 B(  2-C , 11-H ) :   0.9451
B(  2-C , 12-H ) :   0.9206 B(  3-O ,  4-C ) :   1.0584 B(  4-C ,  5-O ) :   1.0605
B(  4-C , 13-H ) :   0.9530 B(  4-C , 14-H ) :   0.9117 B(  5-O ,  6-C ) :   1.0070
B(  6-C , 15-H ) :   0.9455 B(  6-C , 16-H ) :   0.9205

FINAL SINGLE POINT ENERGY      -346.296095817087

DIPOLE MOMENT
-------------
                                X             Y             Z
Electronic contribution:      0.83844      -1.09643      -4.14928
Nuclear contribution   :     -0.46061       1.24166       4.69773
                        -----------------------------------------
Total Dipole Moment    :      0.37783       0.14523       0.54845
                        -----------------------------------------
Magnitude (a.u.)       :      0.68165
Magnitude (Debye)      :      1.73263

                             ****ORCA TERMINATED NORMALLY****
TOTAL RUN TIME: 0 days 0 hours 0 minutes 7 seconds 236 msec
