                         Program Version 3.0.3 - RELEASE   -
|  1> ! RI PBE def2-SVP def2-SVP/J NBO PAL2
|  2> % maxcore 2000
|  3> % output
|  4>     # printlevel mini
|  5>     print[ P_Basis ] 0
|  6>     print[ P_SCFInfo ] 1
|  7>     print[ P_SCFIterInfo ] 1
|  8>     print[ P_OrbEn ] 0
|  9>     print[ P_Cartesian ] 0
| 10> end
| 11> *xyz 0 1
| 12>  C        1.0591330000     0.0383810000     0.2051620000
| 13>  C        2.3762210000     0.0187300000     0.0682290000
| 14>  C        3.1897710000    -1.2397880000     0.0108800000
| 15>  O        4.1221200000    -1.1873920000    -1.0548520000
| 16>  C        4.9019640000    -0.0349000000    -0.9784680000
| 17>  O        4.1518350000     1.1331180000    -1.1020450000
| 18>  C        3.2216880000     1.2526400000    -0.0398090000
| 19>  H        0.4839580000    -0.8780880000     0.2869150000
| 20>  H        0.5076480000     0.9718390000     0.2492930000
| 21>  H        2.5636520000    -2.1177080000    -0.1497800000
| 22>  H        3.7352060000    -1.3700440000     0.9611290000
| 23>  H        5.5992960000    -0.0608410000    -1.8149450000
| 24>  H        5.4520730000    -0.0224130000    -0.0181030000
| 25>  H        2.6181620000     2.1390420000    -0.2363490000
| 26>  H        3.7707740000     1.4074120000     0.9046440000
| 27> *
| 28>
| 29>                          ****END OF INPUT****
 Total Charge           Charge          ....    0
 Multiplicity           Mult            ....    1
 Number of Electrons    NEL             ....   54
 Basis Dimension        Dim             ....  138

MULLIKEN ATOMIC CHARGES
-----------------------
   0 C :   -0.015897
   1 C :   -0.270692
   2 C :    0.288462
   3 O :   -0.330895
   4 C :    0.313303
   5 O :   -0.330945
   6 C :    0.288364
   7 H :    0.013880
   8 H :    0.014075
   9 H :    0.013079
  10 H :    0.003626
  11 H :    0.029320
  12 H :   -0.032553
  13 H :    0.012864
  14 H :    0.004012
Sum of atomic charges:   -0.0000000

LOEWDIN ATOMIC CHARGES
----------------------
   0 C :   -0.052773
   1 C :   -0.067741
   2 C :    0.069880
   3 O :   -0.137811
   4 C :    0.118306
   5 O :   -0.137855
   6 C :    0.069890
   7 H :    0.024282
   8 H :    0.024294
   9 H :    0.028275
  10 H :    0.014593
  11 H :    0.021455
  12 H :   -0.017779
  13 H :    0.028257
  14 H :    0.014725

  Mayer bond orders larger than 0.1
B(  0-C ,  1-C ) :   2.0169 B(  0-C ,  7-H ) :   0.9317 B(  0-C ,  8-H ) :   0.9320
B(  1-C ,  2-C ) :   1.0267 B(  1-C ,  6-C ) :   1.0273 B(  2-C ,  3-O ) :   0.9905
B(  2-C ,  9-H ) :   0.9365 B(  2-C , 10-H ) :   0.9050 B(  3-O ,  4-C ) :   1.0708
B(  4-C ,  5-O ) :   1.0714 B(  4-C , 11-H ) :   0.9515 B(  4-C , 12-H ) :   0.9088
B(  5-O ,  6-C ) :   0.9903 B(  6-C , 13-H ) :   0.9366 B(  6-C , 14-H ) :   0.9049

FINAL SINGLE POINT ENERGY      -345.070723567563

DIPOLE MOMENT
-------------
                                X             Y             Z
Electronic contribution:      1.70557      -0.07719      -2.71992
Nuclear contribution   :     -1.84722       0.09252       3.38640
                        -----------------------------------------
Total Dipole Moment    :     -0.14165       0.01533       0.66649
                        -----------------------------------------
Magnitude (a.u.)       :      0.68155
Magnitude (Debye)      :      1.73236

                             ****ORCA TERMINATED NORMALLY****
TOTAL RUN TIME: 0 days 0 hours 0 minutes 6 seconds 883 msec
