                         Program Version 3.0.3 - RELEASE   -
|  1> ! RI PBE def2-SVP def2-SVP/J NBO PAL2
|  2> % maxcore 2000
|  3> % output
|  4>     # printlevel mini
|  5>     print[ P_Basis ] 0
|  6>     print[ P_SCFInfo ] 1
|  7>     print[ P_SCFIterInfo ] 1
|  8>     print[ P_OrbEn ] 0
|  9>     print[ P_Cartesian ] 0
| 10> end
| 11> *xyz 0 1
| 12>  C        1.1301810000    -0.0671260000     0.2510790000
| 13>  C        2.4318510000    -0.0917970000     0.0158850000
| 14>  C        3.3349290000     1.1157350000    -0.0229260000
| 15>  O        4.6458180000     0.6372000000    -0.3061500000
| 16>  C        4.6833330000    -0.7060890000    -0.4493260000
| 17>  O        5.6922770000    -1.2923030000    -0.6893930000
| 18>  C        3.2961010000    -1.2793100000    -0.2592140000
| 19>  H        0.6068010000     0.8641670000     0.4392090000
| 20>  H        0.5382840000    -0.9747670000     0.2647250000
| 21>  H        3.3616000000     1.6471280000     0.9323100000
| 22>  H        3.0505560000     1.8238890000    -0.8060030000
| 23>  H        3.3205630000    -2.0023120000     0.5599250000
| 24>  H        3.0126050000    -1.8278240000    -1.1609190000
| 25> *
| 26>
| 27>                          ****END OF INPUT****
 Total Charge           Charge          ....    0
 Multiplicity           Mult            ....    1
 Number of Electrons    NEL             ....   52
 Basis Dimension        Dim             ....  128

MULLIKEN ATOMIC CHARGES
-----------------------
   0 C :   -0.031219
   1 C :   -0.266668
   2 C :    0.258455
   3 O :   -0.245256
   4 C :    0.078219
   5 O :   -0.142559
   6 C :    0.063368
   7 H :    0.019692
   8 H :    0.023550
   9 H :    0.047609
  10 H :    0.050900
  11 H :    0.073789
  12 H :    0.070121
Sum of atomic charges:   -0.0000000

LOEWDIN ATOMIC CHARGES
----------------------
   0 C :   -0.061331
   1 C :   -0.053410
   2 C :    0.081203
   3 O :   -0.063352
   4 C :    0.039448
   5 O :   -0.125906
   6 C :   -0.067634
   7 H :    0.027575
   8 H :    0.029857
   9 H :    0.034103
  10 H :    0.034606
  11 H :    0.062714
  12 H :    0.062127

  Mayer bond orders larger than 0.1
B(  0-C ,  1-C ) :   2.0280 B(  0-C ,  7-H ) :   0.9358 B(  0-C ,  8-H ) :   0.9369
B(  1-C ,  2-C ) :   1.0157 B(  1-C ,  6-C ) :   1.0551 B(  2-C ,  3-O ) :   0.9747
B(  2-C ,  9-H ) :   0.9312 B(  2-C , 10-H ) :   0.9316 B(  3-O ,  4-C ) :   1.1391
B(  4-C ,  5-O ) :   2.1991 B(  4-C ,  6-C ) :   0.9513 B(  6-C , 11-H ) :   0.9001
B(  6-C , 12-H ) :   0.8997

FINAL SINGLE POINT ENERGY      -343.915787614960

DIPOLE MOMENT
-------------
                                X             Y             Z
Electronic contribution:      6.01182      -0.56940      -1.13218
Nuclear contribution   :     -7.47020       0.89413       1.42757
                        -----------------------------------------
Total Dipole Moment    :     -1.45838       0.32473       0.29539
                        -----------------------------------------
Magnitude (a.u.)       :      1.52301
Magnitude (Debye)      :      3.87120

                             ****ORCA TERMINATED NORMALLY****
TOTAL RUN TIME: 0 days 0 hours 0 minutes 6 seconds 177 msec
