                         Program Version 3.0.3 - RELEASE   -
|  1> ! RI PBE def2-SVP def2-SVP/J NBO PAL2
|  2> % maxcore 2000
|  3> % output
|  4>     # printlevel mini
|  5>     print[ P_Basis ] 0
|  6>     print[ P_SCFInfo ] 1
|  7>     print[ P_SCFIterInfo ] 1
|  8>     print[ P_OrbEn ] 0
|  9>     print[ P_Cartesian ] 0
| 10> end
| 11> *xyz 0 1
| 12>  C        1.1149490000     0.0118940000    -0.2122770000
| 13>  C        2.5923910000     0.0347900000    -0.0182890000
| 14>  C        3.2845960000     1.1621530000     0.1329990000
| 15>  O        4.6363970000     1.2081520000     0.2578010000
| 16>  C        5.2339920000    -0.0012570000    -0.1470010000
| 17>  O        4.6620900000    -1.1036330000     0.4674370000
| 18>  C        3.3170990000    -1.2728890000     0.0600870000
| 19>  H        0.7039400000     1.0227380000    -0.2348800000
| 20>  H        0.6144910000    -0.5392870000     0.5914540000
| 21>  H        0.8417010000    -0.4797320000    -1.1526100000
| 22>  H        2.8304940000     2.1460930000     0.1694560000
| 23>  H        6.2787680000     0.0456050000     0.1549240000
| 24>  H        5.1404320000    -0.0774320000    -1.2421220000
| 25>  H        2.8529750000    -1.9161340000     0.8145870000
| 26>  H        3.2707750000    -1.8134510000    -0.8995650000
| 27> *
| 28>
| 29>                          ****END OF INPUT****
 Total Charge           Charge          ....    0
 Multiplicity           Mult            ....    1
 Number of Electrons    NEL             ....   54
 Basis Dimension        Dim             ....  138

MULLIKEN ATOMIC CHARGES
-----------------------
   0 C :    0.062745
   1 C :   -0.310215
   2 C :    0.123012
   3 O :   -0.263803
   4 C :    0.306551
   5 O :   -0.326396
   6 C :    0.280272
   7 H :    0.015656
   8 H :    0.029029
   9 H :    0.026146
  10 H :   -0.007383
  11 H :    0.030513
  12 H :   -0.000328
  13 H :    0.026494
  14 H :    0.007706
Sum of atomic charges:    0.0000000

LOEWDIN ATOMIC CHARGES
----------------------
   0 C :   -0.050092
   1 C :   -0.132896
   2 C :    0.016176
   3 O :   -0.084536
   4 C :    0.133131
   5 O :   -0.130755
   6 C :    0.069344
   7 H :    0.033595
   8 H :    0.032551
   9 H :    0.032202
  10 H :    0.019598
  11 H :    0.020970
  12 H :   -0.003263
  13 H :    0.031109
  14 H :    0.012866

  Mayer bond orders larger than 0.1
B(  0-C ,  1-C ) :   1.0975 B(  0-C ,  7-H ) :   0.9509 B(  0-C ,  8-H ) :   0.9455
B(  0-C ,  9-H ) :   0.9494 B(  1-C ,  2-C ) :   1.7683 B(  1-C ,  3-O ) :   0.1003
B(  1-C ,  6-C ) :   1.0261 B(  2-C ,  3-O ) :   1.1196 B(  2-C , 10-H ) :   0.9758
B(  3-O ,  4-C ) :   1.0072 B(  4-C ,  5-O ) :   1.0798 B(  4-C , 11-H ) :   0.9553
B(  4-C , 12-H ) :   0.9236 B(  5-O ,  6-C ) :   1.0123 B(  6-C , 13-H ) :   0.9248
B(  6-C , 14-H ) :   0.9196

FINAL SINGLE POINT ENERGY      -345.085837283277

DIPOLE MOMENT
-------------
                                X             Y             Z
Electronic contribution:      5.27419       1.32654       1.83093
Nuclear contribution   :     -5.67837      -1.45497      -2.24687
                        -----------------------------------------
Total Dipole Moment    :     -0.40418      -0.12843      -0.41594
                        -----------------------------------------
Magnitude (a.u.)       :      0.59402
Magnitude (Debye)      :      1.50989

                             ****ORCA TERMINATED NORMALLY****
TOTAL RUN TIME: 0 days 0 hours 0 minutes 6 seconds 648 msec
