                         Program Version 3.0.3 - RELEASE   -
|  1> ! RI PBE def2-SVP def2-SVP/J NBO PAL2
|  2> % maxcore 2000
|  3> % output
|  4>     # printlevel mini
|  5>     print[ P_Basis ] 0
|  6>     print[ P_SCFInfo ] 1
|  7>     print[ P_SCFIterInfo ] 1
|  8>     print[ P_OrbEn ] 0
|  9>     print[ P_Cartesian ] 0
| 10> end
| 11> *xyz 0 1
| 12>  C        0.9029220000    -0.0442660000     0.0450740000
| 13>  C        2.3782330000    -0.0187930000    -0.1026900000
| 14>  C        3.2029380000    -1.0450810000    -0.2700980000
| 15>  O        4.5359540000    -0.6983360000    -0.3772700000
| 16>  C        4.6274420000     0.6659200000    -0.2752910000
| 17>  O        5.6680750000     1.2379860000    -0.3346080000
| 18>  C        3.2266080000     1.2120390000    -0.0885980000
| 19>  H        0.5194920000    -1.0649540000     0.0008900000
| 20>  H        0.4148040000     0.5352860000    -0.7449430000
| 21>  H        0.5919400000     0.3932490000     0.9990840000
| 22>  H        3.0065090000    -2.1049070000    -0.3365310000
| 23>  H        3.0004810000     1.9183340000    -0.8939150000
| 24>  H        3.1774020000     1.7764120000     0.8481970000
| 25> *
| 26>
| 27>                          ****END OF INPUT****
 Total Charge           Charge          ....    0
 Multiplicity           Mult            ....    1
 Number of Electrons    NEL             ....   52
 Basis Dimension        Dim             ....  128

MULLIKEN ATOMIC CHARGES
-----------------------
   0 C :    0.087750
   1 C :   -0.229822
   2 C :    0.101798
   3 O :   -0.200197
   4 C :    0.090330
   5 O :   -0.128351
   6 C :    0.052826
   7 H :    0.020127
   8 H :    0.036067
   9 H :    0.032551
  10 H :    0.003090
  11 H :    0.068017
  12 H :    0.065813
Sum of atomic charges:   -0.0000000

LOEWDIN ATOMIC CHARGES
----------------------
   0 C :   -0.052530
   1 C :   -0.089816
   2 C :    0.032689
   3 O :   -0.036338
   4 C :    0.057807
   5 O :   -0.111903
   6 C :   -0.059791
   7 H :    0.036990
   8 H :    0.039013
   9 H :    0.038380
  10 H :    0.024776
  11 H :    0.060550
  12 H :    0.060175

  Mayer bond orders larger than 0.1
B(  0-C ,  1-C ) :   1.1160 B(  0-C ,  7-H ) :   0.9497 B(  0-C ,  8-H ) :   0.9430
B(  0-C ,  9-H ) :   0.9425 B(  1-C ,  2-C ) :   1.7588 B(  1-C ,  6-C ) :   1.0586
B(  2-C ,  3-O ) :   1.0413 B(  2-C , 10-H ) :   1.0046 B(  3-O ,  4-C ) :   1.0857
B(  4-C ,  5-O ) :   2.2167 B(  4-C ,  6-C ) :   0.9753 B(  6-C , 11-H ) :   0.8923
B(  6-C , 12-H ) :   0.8922

FINAL SINGLE POINT ENERGY      -343.926165411486

DIPOLE MOMENT
-------------
                                X             Y             Z
Electronic contribution:      8.23024      -0.39752      -0.87124
Nuclear contribution   :     -9.77386       0.25568       1.01363
                        -----------------------------------------
Total Dipole Moment    :     -1.54362      -0.14184       0.14239
                        -----------------------------------------
Magnitude (a.u.)       :      1.55665
Magnitude (Debye)      :      3.95670

                             ****ORCA TERMINATED NORMALLY****
TOTAL RUN TIME: 0 days 0 hours 0 minutes 6 seconds 344 msec
