                         Program Version 3.0.3 - RELEASE   -
|  1> ! RI PBE def2-SVP def2-SVP/J NBO PAL2
|  2> % maxcore 2000
|  3> % output
|  4>     # printlevel mini
|  5>     print[ P_Basis ] 0
|  6>     print[ P_SCFInfo ] 1
|  7>     print[ P_SCFIterInfo ] 1
|  8>     print[ P_OrbEn ] 0
|  9>     print[ P_Cartesian ] 0
| 10> end
| 11> *xyz 0 1
| 12>  C        0.8638310000    -0.0996840000     0.0561830000
| 13>  C        2.3703250000    -0.0388670000    -0.0793540000
| 14>  C        2.7671610000    -0.0233500000    -1.5472500000
| 15>  O        4.1530370000    -0.0963370000    -1.7821850000
| 16>  C        3.0664820000     1.0238680000     0.7893690000
| 17>  O        3.8040040000     0.0357030000     1.5083720000
| 18>  C        3.1658940000    -1.0301030000     0.7881010000
| 19>  H        0.3874280000     0.7546120000    -0.4344410000
| 20>  H        0.5640660000    -0.0917670000     1.1064550000
| 21>  H        0.4644860000    -1.0103170000    -0.3998930000
| 22>  H        2.3306330000     0.8674570000    -2.0244360000
| 23>  H        2.3376200000    -0.8980550000    -2.0448490000
| 24>  H        4.5783490000     0.6669780000    -1.3821650000
| 25>  H        2.3976810000     1.5981800000     1.4410800000
| 26>  H        3.7267070000     1.7315620000     0.2679790000
| 27>  H        2.5573940000    -1.6578760000     1.4482600000
| 28>  H        3.8922920000    -1.6451920000     0.2501840000
| 29> *
| 30>
| 31>                          ****END OF INPUT****
 Total Charge           Charge          ....    0
 Multiplicity           Mult            ....    1
 Number of Electrons    NEL             ....   56
 Basis Dimension        Dim             ....  148

MULLIKEN ATOMIC CHARGES
-----------------------
   0 C :    0.078072
   1 C :   -0.531446
   2 C :    0.259926
   3 O :   -0.272403
   4 C :    0.284136
   5 O :   -0.358812
   6 C :    0.316161
   7 H :    0.021391
   8 H :    0.021677
   9 H :    0.022855
  10 H :   -0.000508
  11 H :    0.010741
  12 H :    0.156571
  13 H :   -0.000295
  14 H :   -0.014294
  15 H :   -0.003386
  16 H :    0.009614
Sum of atomic charges:    0.0000000

LOEWDIN ATOMIC CHARGES
----------------------
   0 C :   -0.049429
   1 C :   -0.104576
   2 C :    0.060873
   3 O :   -0.108848
   4 C :    0.086037
   5 O :   -0.180090
   6 C :    0.094084
   7 H :    0.028046
   8 H :    0.028252
   9 H :    0.029320
  10 H :    0.006125
  11 H :    0.023025
  12 H :    0.066826
  13 H :    0.008680
  14 H :   -0.004146
  15 H :    0.006342
  16 H :    0.009478

  Mayer bond orders larger than 0.1
B(  0-C ,  1-C ) :   1.0464 B(  0-C ,  7-H ) :   0.9539 B(  0-C ,  8-H ) :   0.9494
B(  0-C ,  9-H ) :   0.9546 B(  1-C ,  2-C ) :   0.9806 B(  1-C ,  4-C ) :   1.0390
B(  1-C ,  6-C ) :   1.0389 B(  2-C ,  3-O ) :   1.0770 B(  2-C , 10-H ) :   0.9332
B(  2-C , 11-H ) :   0.9302 B(  3-O , 12-H ) :   0.9808 B(  4-C ,  5-O ) :   1.0562
B(  4-C , 13-H ) :   0.9230 B(  4-C , 14-H ) :   0.9186 B(  5-O ,  6-C ) :   1.0347
B(  6-C , 15-H ) :   0.9263 B(  6-C , 16-H ) :   0.9242

FINAL SINGLE POINT ENERGY      -346.263855074901

DIPOLE MOMENT
-------------
                                X             Y             Z
Electronic contribution:      4.80614      -0.16885       0.89049
Nuclear contribution   :     -5.51155       0.54134      -1.10588
                        -----------------------------------------
Total Dipole Moment    :     -0.70541       0.37249      -0.21539
                        -----------------------------------------
Magnitude (a.u.)       :      0.82629
Magnitude (Debye)      :      2.10025

                             ****ORCA TERMINATED NORMALLY****
TOTAL RUN TIME: 0 days 0 hours 0 minutes 7 seconds 614 msec
