                         Program Version 3.0.3 - RELEASE   -
|  1> ! RI PBE def2-SVP def2-SVP/J NBO PAL2
|  2> % maxcore 2000
|  3> % output
|  4>     # printlevel mini
|  5>     print[ P_Basis ] 0
|  6>     print[ P_SCFInfo ] 1
|  7>     print[ P_SCFIterInfo ] 1
|  8>     print[ P_OrbEn ] 0
|  9>     print[ P_Cartesian ] 0
| 10> end
| 11> *xyz 0 1
| 12>  C        0.9286940000    -0.0704760000    -0.0721820000
| 13>  C        2.4363570000    -0.1258290000     0.0598850000
| 14>  C        3.0216820000     0.9775130000     0.9378940000
| 15>  O        4.2659180000     0.4765350000     1.4257590000
| 16>  C        4.2911050000    -0.8755800000     1.3639100000
| 17>  O        5.2159490000    -1.5150320000     1.7600630000
| 18>  C        2.9999800000    -1.3624770000     0.7437810000
| 19>  H        0.6029630000     0.8766110000    -0.5102790000
| 20>  H        0.4475040000    -0.1719050000     0.9048560000
| 21>  H        0.5588260000    -0.8742930000    -0.7122080000
| 22>  H        2.8907380000    -0.0438770000    -0.9337760000
| 23>  H        2.3695880000     1.1934200000     1.7925470000
| 24>  H        3.2195600000     1.9072370000     0.4036360000
| 25>  H        2.3484070000    -1.7013520000     1.5579480000
| 26>  H        3.1871490000    -2.2148850000     0.0925560000
| 27> *
| 28>
| 29>                          ****END OF INPUT****
 Total Charge           Charge          ....    0
 Multiplicity           Mult            ....    1
 Number of Electrons    NEL             ....   54
 Basis Dimension        Dim             ....  138

MULLIKEN ATOMIC CHARGES
-----------------------
   0 C :    0.040261
   1 C :   -0.244174
   2 C :    0.234997
   3 O :   -0.246116
   4 C :    0.085331
   5 O :   -0.142864
   6 C :    0.018798
   7 H :    0.026464
   8 H :    0.019457
   9 H :    0.033734
  10 H :    0.031009
  11 H :    0.019355
  12 H :    0.029694
  13 H :    0.046054
  14 H :    0.048000
Sum of atomic charges:   -0.0000000

LOEWDIN ATOMIC CHARGES
----------------------
   0 C :   -0.056527
   1 C :   -0.059829
   2 C :    0.079527
   3 O :   -0.066657
   4 C :    0.038299
   5 O :   -0.127106
   6 C :   -0.067996
   7 H :    0.030560
   8 H :    0.026492
   9 H :    0.033384
  10 H :    0.033918
  11 H :    0.017228
  12 H :    0.025268
  13 H :    0.048427
  14 H :    0.045013

  Mayer bond orders larger than 0.1
B(  0-C ,  1-C ) :   1.0892 B(  0-C ,  7-H ) :   0.9594 B(  0-C ,  8-H ) :   0.9535
B(  0-C ,  9-H ) :   0.9600 B(  1-C ,  2-C ) :   1.0440 B(  1-C ,  6-C ) :   1.0552
B(  1-C , 10-H ) :   0.9094 B(  2-C ,  3-O ) :   0.9641 B(  2-C , 11-H ) :   0.9393
B(  2-C , 12-H ) :   0.9449 B(  3-O ,  4-C ) :   1.1337 B(  4-C ,  5-O ) :   2.2053
B(  4-C ,  6-C ) :   0.9666 B(  6-C , 13-H ) :   0.9073 B(  6-C , 14-H ) :   0.9274

FINAL SINGLE POINT ENERGY      -345.139801832543

DIPOLE MOMENT
-------------
                                X             Y             Z
Electronic contribution:      8.66903      -1.23678       3.59949
Nuclear contribution   :    -10.16795       1.66470      -4.29304
                        -----------------------------------------
Total Dipole Moment    :     -1.49893       0.42792      -0.69355
                        -----------------------------------------
Magnitude (a.u.)       :      1.70614
Magnitude (Debye)      :      4.33666

                             ****ORCA TERMINATED NORMALLY****
TOTAL RUN TIME: 0 days 0 hours 0 minutes 6 seconds 540 msec
