                         Program Version 3.0.3 - RELEASE   -
|  1> ! RI PBE def2-SVP def2-SVP/J NBO PAL2
|  2> % maxcore 2000
|  3> % output
|  4>     # printlevel mini
|  5>     print[ P_Basis ] 0
|  6>     print[ P_SCFInfo ] 1
|  7>     print[ P_SCFIterInfo ] 1
|  8>     print[ P_OrbEn ] 0
|  9>     print[ P_Cartesian ] 0
| 10> end
| 11> *xyz 0 1
| 12>  C        0.8880980000     0.1009370000    -0.1442230000
| 13>  C        2.3481960000     0.3175980000     0.1046060000
| 14>  O        3.2294750000    -0.7159840000    -0.3102290000
| 15>  C        3.3005300000     0.5410490000    -0.9807650000
| 16>  C        4.5540020000     1.3292190000    -0.8676590000
| 17>  C        4.4828190000     2.8139170000    -0.6523830000
| 18>  C        5.0205630000     1.9219090000     0.4226200000
| 19>  H        0.4775830000    -0.6091500000     0.5780650000
| 20>  H        0.7215190000    -0.2964980000    -1.1469140000
| 21>  H        0.3370440000     1.0398730000    -0.0436190000
| 22>  H        2.5945600000     0.7253200000     1.0843720000
| 23>  H        2.8905820000     0.5037220000    -1.9914880000
| 24>  H        5.3376540000     0.9878220000    -1.5374800000
| 25>  H        3.5005170000     3.2449740000    -0.4991120000
| 26>  H        5.1717130000     3.4470790000    -1.1971360000
| 27>  H        4.4184550000     1.7727590000     1.3093240000
| 28>  H        6.0870000000     1.9297330000     0.6089210000
| 29> *
| 30>
| 31>                          ****END OF INPUT****
 Total Charge           Charge          ....    0
 Multiplicity           Mult            ....    1
 Number of Electrons    NEL             ....   54
 Basis Dimension        Dim             ....  148

MULLIKEN ATOMIC CHARGES
-----------------------
   0 C :    0.078760
   1 C :   -0.029187
   2 O :   -0.285082
   3 C :    0.113738
   4 C :   -0.069704
   5 C :   -0.037932
   6 C :   -0.033958
   7 H :    0.032430
   8 H :    0.013964
   9 H :    0.025398
  10 H :    0.009362
  11 H :    0.006647
  12 H :    0.030388
  13 H :    0.036375
  14 H :    0.037732
  15 H :    0.035428
  16 H :    0.035641
Sum of atomic charges:   -0.0000000

LOEWDIN ATOMIC CHARGES
----------------------
   0 C :   -0.068172
   1 C :    0.036019
   2 O :   -0.156428
   3 C :    0.043781
   4 C :   -0.051606
   5 C :   -0.039442
   6 C :   -0.037827
   7 H :    0.035210
   8 H :    0.032812
   9 H :    0.034508
  10 H :    0.011700
  11 H :    0.015375
  12 H :    0.033460
  13 H :    0.026588
  14 H :    0.028037
  15 H :    0.025511
  16 H :    0.030475

  Mayer bond orders larger than 0.1
B(  0-C ,  1-C ) :   1.0784 B(  0-C ,  7-H ) :   0.9491 B(  0-C ,  8-H ) :   0.9439
B(  0-C ,  9-H ) :   0.9511 B(  1-C ,  2-O ) :   1.0074 B(  1-C ,  3-C ) :   1.0525
B(  1-C , 10-H ) :   0.9188 B(  2-O ,  3-C ) :   0.9664 B(  3-C ,  4-C ) :   1.0553
B(  3-C , 11-H ) :   0.9271 B(  4-C ,  5-C ) :   0.9756 B(  4-C ,  6-C ) :   0.9987
B(  4-C , 12-H ) :   0.9312 B(  5-C ,  6-C ) :   1.0519 B(  5-C , 13-H ) :   0.9529
B(  5-C , 14-H ) :   0.9442 B(  6-C , 15-H ) :   0.9447 B(  6-C , 16-H ) :   0.9387

FINAL SINGLE POINT ENERGY      -309.187440428582

DIPOLE MOMENT
-------------
                                X             Y             Z
Electronic contribution:      1.83450      -3.07503      -0.57542
Nuclear contribution   :     -2.03799       3.73575       0.51980
                        -----------------------------------------
Total Dipole Moment    :     -0.20349       0.66073      -0.05563
                        -----------------------------------------
Magnitude (a.u.)       :      0.69359
Magnitude (Debye)      :      1.76296

                             ****ORCA TERMINATED NORMALLY****
TOTAL RUN TIME: 0 days 0 hours 0 minutes 7 seconds 482 msec
