                         Program Version 3.0.3 - RELEASE   -
|  1> ! RI PBE def2-SVP def2-SVP/J NBO PAL2
|  2> % maxcore 2000
|  3> % output
|  4>     # printlevel mini
|  5>     print[ P_Basis ] 0
|  6>     print[ P_SCFInfo ] 1
|  7>     print[ P_SCFIterInfo ] 1
|  8>     print[ P_OrbEn ] 0
|  9>     print[ P_Cartesian ] 0
| 10> end
| 11> *xyz 0 1
| 12>  C        0.9839090000    -0.0898510000     0.0612880000
| 13>  C        2.4737480000     0.0292380000     0.0268610000
| 14>  O        3.1110750000    -0.2257170000    -1.2204120000
| 15>  C        3.1575070000     1.0951050000    -0.7011300000
| 16>  C        4.5013080000     1.5803230000    -0.2972280000
| 17>  C        5.1757770000     2.6406820000    -1.0387660000
| 18>  O        4.5500460000     2.9053560000     0.2061090000
| 19>  H        0.6822150000    -1.1399650000     0.0764400000
| 20>  H        0.5389790000     0.3826250000    -0.8160930000
| 21>  H        0.5846950000     0.3903070000     0.9582340000
| 22>  H        3.0033080000    -0.4029590000     0.8765140000
| 23>  H        2.5493220000     1.8251310000    -1.2356850000
| 24>  H        5.1100140000     0.8566100000     0.2432660000
| 25>  H        4.6863840000     3.0766050000    -1.9067090000
| 26>  H        6.2615230000     2.6900210000    -1.0343890000
| 27> *
| 28>
| 29>                          ****END OF INPUT****
 Total Charge           Charge          ....    0
 Multiplicity           Mult            ....    1
 Number of Electrons    NEL             ....   54
 Basis Dimension        Dim             ....  138

MULLIKEN ATOMIC CHARGES
-----------------------
   0 C :    0.073608
   1 C :    0.009210
   2 O :   -0.277725
   3 C :    0.102688
   4 C :    0.057344
   5 C :    0.157492
   6 O :   -0.284257
   7 H :    0.032396
   8 H :    0.019449
   9 H :    0.032775
  10 H :    0.012619
  11 H :   -0.004108
  12 H :    0.006614
  13 H :    0.024532
  14 H :    0.037364
Sum of atomic charges:    0.0000000

LOEWDIN ATOMIC CHARGES
----------------------
   0 C :   -0.065893
   1 C :    0.043851
   2 O :   -0.149981
   3 C :    0.031661
   4 C :    0.031960
   5 C :    0.060337
   6 O :   -0.149015
   7 H :    0.036073
   8 H :    0.034752
   9 H :    0.038288
  10 H :    0.015240
  11 H :    0.017680
  12 H :    0.020083
  13 H :    0.015525
  14 H :    0.019438

  Mayer bond orders larger than 0.1
B(  0-C ,  1-C ) :   1.0886 B(  0-C ,  7-H ) :   0.9501 B(  0-C ,  8-H ) :   0.9452
B(  0-C ,  9-H ) :   0.9517 B(  1-C ,  2-O ) :   0.9838 B(  1-C ,  3-C ) :   1.0275
B(  1-C , 10-H ) :   0.9243 B(  2-O ,  3-C ) :   0.9761 B(  3-C ,  4-C ) :   1.0280
B(  3-C , 11-H ) :   0.9141 B(  4-C ,  5-C ) :   1.0756 B(  4-C ,  6-O ) :   0.9685
B(  4-C , 12-H ) :   0.9222 B(  5-C ,  6-O ) :   1.0008 B(  5-C , 13-H ) :   0.9304
B(  5-C , 14-H ) :   0.9346

FINAL SINGLE POINT ENERGY      -345.039804018945

DIPOLE MOMENT
-------------
                                X             Y             Z
Electronic contribution:      3.51498       1.26442      -0.48671
Nuclear contribution   :     -3.64698      -1.31661       0.52054
                        -----------------------------------------
Total Dipole Moment    :     -0.13200      -0.05219       0.03383
                        -----------------------------------------
Magnitude (a.u.)       :      0.14592
Magnitude (Debye)      :      0.37090

                             ****ORCA TERMINATED NORMALLY****
TOTAL RUN TIME: 0 days 0 hours 0 minutes 6 seconds 403 msec
