                         Program Version 3.0.3 - RELEASE   -
|  1> ! RI PBE def2-SVP def2-SVP/J NBO PAL2
|  2> % maxcore 2000
|  3> % output
|  4>     # printlevel mini
|  5>     print[ P_Basis ] 0
|  6>     print[ P_SCFInfo ] 1
|  7>     print[ P_SCFIterInfo ] 1
|  8>     print[ P_OrbEn ] 0
|  9>     print[ P_Cartesian ] 0
| 10> end
| 11> *xyz 0 1
| 12>  C        0.9347100000    -0.0744010000    -0.1199350000
| 13>  C        2.4087460000     0.1486640000     0.0034080000
| 14>  O        3.2322630000    -0.4746430000    -0.9775250000
| 15>  C        3.1657560000     0.9511890000    -0.9512130000
| 16>  C        4.4256720000     1.6674590000    -0.6141230000
| 17>  C        5.5164840000     1.5387940000    -1.6278290000
| 18>  C        4.5383900000     2.3831460000     0.4990240000
| 19>  H        0.6697830000    -1.0797890000     0.2165470000
| 20>  H        0.6117170000     0.0361140000    -1.1565680000
| 21>  H        0.3856130000     0.6424740000     0.4962520000
| 22>  H        2.8156120000     0.0764610000     1.0112500000
| 23>  H        2.6176160000     1.3652060000    -1.8007740000
| 24>  H        5.1929730000     1.9273070000    -2.5994480000
| 25>  H        5.7703660000     0.4856540000    -1.7782450000
| 26>  H        6.4140680000     2.0776490000    -1.3226160000
| 27>  H        3.7235710000     2.4567110000     1.2103510000
| 28>  H        5.4495690000     2.9235160000     0.7326430000
| 29> *
| 30>
| 31>                          ****END OF INPUT****
 Total Charge           Charge          ....    0
 Multiplicity           Mult            ....    1
 Number of Electrons    NEL             ....   54
 Basis Dimension        Dim             ....  148

MULLIKEN ATOMIC CHARGES
-----------------------
   0 C :    0.078753
   1 C :   -0.026683
   2 O :   -0.288077
   3 C :    0.101240
   4 C :   -0.128725
   5 C :    0.076731
   6 C :   -0.028511
   7 H :    0.029929
   8 H :    0.012782
   9 H :    0.029158
  10 H :    0.014110
  11 H :    0.018910
  12 H :    0.024533
  13 H :    0.044140
  14 H :    0.015679
  15 H :    0.015157
  16 H :    0.010874
Sum of atomic charges:   -0.0000000

LOEWDIN ATOMIC CHARGES
----------------------
   0 C :   -0.066888
   1 C :    0.042464
   2 O :   -0.157261
   3 C :    0.046284
   4 C :   -0.040126
   5 C :   -0.051882
   6 C :   -0.062688
   7 H :    0.035376
   8 H :    0.032317
   9 H :    0.036220
  10 H :    0.016132
  11 H :    0.017460
  12 H :    0.036881
  13 H :    0.042321
  14 H :    0.030737
  15 H :    0.021065
  16 H :    0.021588

  Mayer bond orders larger than 0.1
B(  0-C ,  1-C ) :   1.0782 B(  0-C ,  7-H ) :   0.9497 B(  0-C ,  8-H ) :   0.9452
B(  0-C ,  9-H ) :   0.9514 B(  1-C ,  2-O ) :   0.9909 B(  1-C ,  3-C ) :   1.0575
B(  1-C , 10-H ) :   0.9314 B(  2-O ,  3-C ) :   0.9666 B(  3-C ,  4-C ) :   0.9870
B(  3-C , 11-H ) :   0.9090 B(  4-C ,  5-C ) :   1.0803 B(  4-C ,  6-C ) :   1.9900
B(  5-C , 12-H ) :   0.9423 B(  5-C , 13-H ) :   0.9410 B(  5-C , 14-H ) :   0.9515
B(  6-C , 15-H ) :   0.9380 B(  6-C , 16-H ) :   0.9292

FINAL SINGLE POINT ENERGY      -309.194614908348

DIPOLE MOMENT
-------------
                                X             Y             Z
Electronic contribution:      0.46382      -1.83921      -0.36805
Nuclear contribution   :     -0.71758       2.29697       0.51458
                        -----------------------------------------
Total Dipole Moment    :     -0.25376       0.45776       0.14653
                        -----------------------------------------
Magnitude (a.u.)       :      0.54351
Magnitude (Debye)      :      1.38150

                             ****ORCA TERMINATED NORMALLY****
TOTAL RUN TIME: 0 days 0 hours 0 minutes 7 seconds 420 msec
