                         Program Version 3.0.3 - RELEASE   -
|  1> ! RI PBE def2-SVP def2-SVP/J NBO PAL2
|  2> % maxcore 2000
|  3> % output
|  4>     # printlevel mini
|  5>     print[ P_Basis ] 0
|  6>     print[ P_SCFInfo ] 1
|  7>     print[ P_SCFIterInfo ] 1
|  8>     print[ P_OrbEn ] 0
|  9>     print[ P_Cartesian ] 0
| 10> end
| 11> *xyz 0 1
| 12>  C        0.9330360000     0.2435650000    -0.2798790000
| 13>  C        2.3959250000     0.3801620000    -0.0006110000
| 14>  O        3.2286430000    -0.7006390000    -0.4056200000
| 15>  C        3.3922570000     0.5517190000    -1.0551780000
| 16>  C        4.6978800000     1.2664910000    -0.8302430000
| 17>  C        4.6045490000     2.7190270000    -1.1692870000
| 18>  C        5.2967000000     3.3213310000    -2.1257470000
| 19>  H        0.4694310000    -0.4498360000     0.4262780000
| 20>  H        0.7676840000    -0.1350460000    -1.2899510000
| 21>  H        0.4318180000     1.2101410000    -0.1818090000
| 22>  H        2.6524050000     0.7737460000     0.9841120000
| 23>  H        3.0296900000     0.5664590000    -2.0836480000
| 24>  H        5.4794040000     0.7909730000    -1.4312400000
| 25>  H        4.9751870000     1.1377620000     0.2220630000
| 26>  H        3.8985450000     3.3021860000    -0.5803150000
| 27>  H        6.0092060000     2.7758520000    -2.7372010000
| 28>  H        5.1824400000     4.3797270000    -2.3293240000
| 29> *
| 30>
| 31>                          ****END OF INPUT****
 Total Charge           Charge          ....    0
 Multiplicity           Mult            ....    1
 Number of Electrons    NEL             ....   54
 Basis Dimension        Dim             ....  148

MULLIKEN ATOMIC CHARGES
-----------------------
   0 C :    0.076279
   1 C :   -0.003826
   2 O :   -0.279724
   3 C :    0.000136
   4 C :    0.168208
   5 C :   -0.093896
   6 C :   -0.037056
   7 H :    0.034213
   8 H :    0.015409
   9 H :    0.026854
  10 H :    0.007420
  11 H :    0.009940
  12 H :    0.013053
  13 H :    0.009719
  14 H :    0.005174
  15 H :    0.020415
  16 H :    0.027682
Sum of atomic charges:    0.0000000

LOEWDIN ATOMIC CHARGES
----------------------
   0 C :   -0.068020
   1 C :    0.037569
   2 O :   -0.155284
   3 C :    0.041726
   4 C :   -0.044999
   5 C :   -0.029008
   6 C :   -0.062498
   7 H :    0.035994
   8 H :    0.033746
   9 H :    0.035341
  10 H :    0.012224
  11 H :    0.013998
  12 H :    0.035822
  13 H :    0.039649
  14 H :    0.025249
  15 H :    0.022622
  16 H :    0.025870

  Mayer bond orders larger than 0.1
B(  0-C ,  1-C ) :   1.0862 B(  0-C ,  7-H ) :   0.9494 B(  0-C ,  8-H ) :   0.9441
B(  0-C ,  9-H ) :   0.9518 B(  1-C ,  2-O ) :   0.9917 B(  1-C ,  3-C ) :   1.0443
B(  1-C , 10-H ) :   0.9230 B(  2-O ,  3-C ) :   0.9872 B(  3-C ,  4-C ) :   1.0284
B(  3-C , 11-H ) :   0.9268 B(  4-C ,  5-C ) :   1.0513 B(  4-C , 12-H ) :   0.9123
B(  4-C , 13-H ) :   0.8907 B(  5-C ,  6-C ) :   2.0065 B(  5-C , 14-H ) :   0.9543
B(  6-C , 15-H ) :   0.9506 B(  6-C , 16-H ) :   0.9442

FINAL SINGLE POINT ENERGY      -309.191763712025

DIPOLE MOMENT
-------------
                                X             Y             Z
Electronic contribution:      1.45979      -2.82064       0.68179
Nuclear contribution   :     -1.72777       3.38823      -0.68075
                        -----------------------------------------
Total Dipole Moment    :     -0.26798       0.56759       0.00103
                        -----------------------------------------
Magnitude (a.u.)       :      0.62767
Magnitude (Debye)      :      1.59542

                             ****ORCA TERMINATED NORMALLY****
TOTAL RUN TIME: 0 days 0 hours 0 minutes 7 seconds 312 msec
