                         Program Version 3.0.3 - RELEASE   -
|  1> ! RI PBE def2-SVP def2-SVP/J NBO PAL2
|  2> % maxcore 2000
|  3> % output
|  4>     # printlevel mini
|  5>     print[ P_Basis ] 0
|  6>     print[ P_SCFInfo ] 1
|  7>     print[ P_SCFIterInfo ] 1
|  8>     print[ P_OrbEn ] 0
|  9>     print[ P_Cartesian ] 0
| 10> end
| 11> *xyz 0 1
| 12>  C        0.8778790000    -0.0196870000    -0.0363310000
| 13>  C        2.3436650000     0.2204710000     0.1310620000
| 14>  O        3.2237350000    -0.6733360000    -0.5490860000
| 15>  C        3.1969670000     0.6824320000    -0.9571400000
| 16>  C        4.4626250000     1.4662410000    -0.7079980000
| 17>  C        4.2541870000     2.8989720000    -0.8350110000
| 18>  C        4.0594110000     4.0777010000    -0.9493480000
| 19>  H        0.5548330000    -0.8677190000     0.5723700000
| 20>  H        0.6390170000    -0.2349310000    -1.0791390000
| 21>  H        0.3101520000     0.8592980000     0.2792310000
| 22>  H        2.6716190000     0.4581820000     1.1434430000
| 23>  H        2.7340590000     0.8540180000    -1.9284510000
| 24>  H        5.2294050000     1.1432310000    -1.4210270000
| 25>  H        4.8399250000     1.2257920000     0.2906290000
| 26>  H        3.8944320000     5.1245260000    -1.0472140000
| 27> *
| 28>
| 29>                          ****END OF INPUT****
 Total Charge           Charge          ....    0
 Multiplicity           Mult            ....    1
 Number of Electrons    NEL             ....   52
 Basis Dimension        Dim             ....  138

MULLIKEN ATOMIC CHARGES
-----------------------
   0 C :    0.077081
   1 C :   -0.003084
   2 O :   -0.277527
   3 C :    0.006355
   4 C :    0.178837
   5 C :    0.309089
   6 C :   -0.482460
   7 H :    0.032771
   8 H :    0.016602
   9 H :    0.034663
  10 H :    0.014207
  11 H :    0.018338
  12 H :    0.047447
  13 H :    0.028079
  14 H :   -0.000397
Sum of atomic charges:   -0.0000000

LOEWDIN ATOMIC CHARGES
----------------------
   0 C :   -0.066414
   1 C :    0.041926
   2 O :   -0.153532
   3 C :    0.048403
   4 C :   -0.049106
   5 C :   -0.023190
   6 C :   -0.084727
   7 H :    0.036330
   8 H :    0.034215
   9 H :    0.038531
  10 H :    0.015449
  11 H :    0.017549
  12 H :    0.056650
  13 H :    0.053099
  14 H :    0.034818

  Mayer bond orders larger than 0.1
B(  0-C ,  1-C ) :   1.0869 B(  0-C ,  7-H ) :   0.9490 B(  0-C ,  8-H ) :   0.9452
B(  0-C ,  9-H ) :   0.9522 B(  1-C ,  2-O ) :   0.9918 B(  1-C ,  3-C ) :   1.0534
B(  1-C , 10-H ) :   0.9216 B(  2-O ,  3-C ) :   0.9892 B(  3-C ,  4-C ) :   1.0226
B(  3-C , 11-H ) :   0.9266 B(  4-C ,  5-C ) :   1.0345 B(  4-C , 12-H ) :   0.8842
B(  4-C , 13-H ) :   0.8832 B(  5-C ,  6-C ) :   2.3637 B(  5-C , 14-H ) :  -0.1110
B(  6-C , 14-H ) :   1.1023

FINAL SINGLE POINT ENERGY      -307.948454090868

DIPOLE MOMENT
-------------
                                X             Y             Z
Electronic contribution:      3.76653       0.91551      -0.96725
Nuclear contribution   :     -4.08603      -0.57242       1.08997
                        -----------------------------------------
Total Dipole Moment    :     -0.31950       0.34309       0.12272
                        -----------------------------------------
Magnitude (a.u.)       :      0.48461
Magnitude (Debye)      :      1.23179

                             ****ORCA TERMINATED NORMALLY****
TOTAL RUN TIME: 0 days 0 hours 0 minutes 6 seconds 828 msec
