                         Program Version 3.0.3 - RELEASE   -
|  1> ! RI PBE def2-SVP def2-SVP/J NBO PAL2
|  2> % maxcore 2000
|  3> % output
|  4>     # printlevel mini
|  5>     print[ P_Basis ] 0
|  6>     print[ P_SCFInfo ] 1
|  7>     print[ P_SCFIterInfo ] 1
|  8>     print[ P_OrbEn ] 0
|  9>     print[ P_Cartesian ] 0
| 10> end
| 11> *xyz 0 1
| 12>  C        0.5480470000    -0.1219150000    -0.5060530000
| 13>  C        1.9260500000    -0.0365100000     0.0668950000
| 14>  O        2.8594250000    -1.0154320000    -0.3835780000
| 15>  C        3.0894700000     0.3593870000    -0.7216340000
| 16>  C        4.3154950000     0.9913350000    -0.1302540000
| 17>  C        5.5923430000     0.3128360000    -0.6060310000
| 18>  O        5.7488940000    -0.9763140000    -0.0649010000
| 19>  H       -0.0093190000    -0.9416350000    -0.0463820000
| 20>  H        0.5874030000    -0.2951230000    -1.5827630000
| 21>  H       -0.0003660000     0.8050430000    -0.3193420000
| 22>  H        1.9813070000     0.1465710000     1.1400530000
| 23>  H        2.9230800000     0.5628090000    -1.7802680000
| 24>  H        4.2766120000     0.9405910000     0.9621410000
| 25>  H        4.3338110000     2.0494880000    -0.4135570000
| 26>  H        6.4624280000     0.8934030000    -0.2885070000
| 27>  H        5.6062440000     0.2843840000    -1.7071880000
| 28>  H        4.8921660000    -1.4165180000    -0.1067310000
| 29> *
| 30>
| 31>                          ****END OF INPUT****
 Total Charge           Charge          ....    0
 Multiplicity           Mult            ....    1
 Number of Electrons    NEL             ....   56
 Basis Dimension        Dim             ....  148

MULLIKEN ATOMIC CHARGES
-----------------------
   0 C :    0.058059
   1 C :   -0.000681
   2 O :   -0.305254
   3 C :    0.022054
   4 C :    0.026777
   5 C :    0.175944
   6 O :   -0.291634
   7 H :    0.037762
   8 H :    0.023159
   9 H :    0.034534
  10 H :    0.020158
  11 H :    0.011620
  12 H :    0.013464
  13 H :    0.017837
  14 H :    0.008915
  15 H :   -0.005216
  16 H :    0.152503
Sum of atomic charges:   -0.0000000

LOEWDIN ATOMIC CHARGES
----------------------
   0 C :   -0.069315
   1 C :    0.044479
   2 O :   -0.165111
   3 C :    0.043197
   4 C :   -0.072025
   5 C :    0.059277
   6 O :   -0.127224
   7 H :    0.037950
   8 H :    0.035642
   9 H :    0.038231
  10 H :    0.017673
  11 H :    0.015211
  12 H :    0.031921
  13 H :    0.037930
  14 H :    0.018266
  15 H :    0.002219
  16 H :    0.051679

  Mayer bond orders larger than 0.1
B(  0-C ,  1-C ) :   1.0940 B(  0-C ,  7-H ) :   0.9481 B(  0-C ,  8-H ) :   0.9435
B(  0-C ,  9-H ) :   0.9516 B(  1-C ,  2-O ) :   0.9789 B(  1-C ,  3-C ) :   1.0461
B(  1-C , 10-H ) :   0.9239 B(  2-O ,  3-C ) :   0.9277 B(  3-C ,  4-C ) :   1.0629
B(  3-C , 11-H ) :   0.9217 B(  4-C ,  5-C ) :   1.0682 B(  4-C , 12-H ) :   0.9110
B(  4-C , 13-H ) :   0.9057 B(  5-C ,  6-O ) :   1.0855 B(  5-C , 14-H ) :   0.9378
B(  5-C , 15-H ) :   0.9296 B(  6-O , 16-H ) :   0.9687

FINAL SINGLE POINT ENERGY      -346.273913348856

DIPOLE MOMENT
-------------
                                X             Y             Z
Electronic contribution:      2.50228      -2.94094       0.62274
Nuclear contribution   :     -3.43815       3.80146      -0.74744
                        -----------------------------------------
Total Dipole Moment    :     -0.93587       0.86052      -0.12470
                        -----------------------------------------
Magnitude (a.u.)       :      1.27745
Magnitude (Debye)      :      3.24703

                             ****ORCA TERMINATED NORMALLY****
TOTAL RUN TIME: 0 days 0 hours 0 minutes 7 seconds 404 msec
