                         Program Version 3.0.3 - RELEASE   -
|  1> ! RI PBE def2-SVP def2-SVP/J NBO PAL2
|  2> % maxcore 2000
|  3> % output
|  4>     # printlevel mini
|  5>     print[ P_Basis ] 0
|  6>     print[ P_SCFInfo ] 1
|  7>     print[ P_SCFIterInfo ] 1
|  8>     print[ P_OrbEn ] 0
|  9>     print[ P_Cartesian ] 0
| 10> end
| 11> *xyz 0 1
| 12>  C        0.7982650000    -0.2383250000    -0.0743900000
| 13>  C        2.2881390000    -0.2888600000     0.0413520000
| 14>  O        3.0093120000    -0.9276550000    -1.0210620000
| 15>  C        3.2265140000     0.4677520000    -0.7895080000
| 16>  C        2.7895990000     1.4053760000    -1.8742730000
| 17>  C        4.6128460000     0.7529230000    -0.2462200000
| 18>  O        5.0781310000    -0.2518500000     0.6111940000
| 19>  H        0.3717670000    -1.2152400000     0.1666030000
| 20>  H        0.4699780000     0.0333610000    -1.0769340000
| 21>  H        0.3907740000     0.4860270000     0.6360620000
| 22>  H        2.6579640000    -0.5725760000     1.0258920000
| 23>  H        1.8036820000     1.1524590000    -2.2597100000
| 24>  H        3.4966920000     1.3702770000    -2.7072320000
| 25>  H        2.7625060000     2.4329370000    -1.5008190000
| 26>  H        4.6029470000     1.6906160000     0.3171620000
| 27>  H        5.2932430000     0.8902250000    -1.1012820000
| 28>  H        4.8589420000    -1.0886580000     0.1822530000
| 29> *
| 30>
| 31>                          ****END OF INPUT****
 Total Charge           Charge          ....    0
 Multiplicity           Mult            ....    1
 Number of Electrons    NEL             ....   56
 Basis Dimension        Dim             ....  148

MULLIKEN ATOMIC CHARGES
-----------------------
   0 C :    0.089962
   1 C :    0.020582
   2 O :   -0.303816
   3 C :   -0.206904
   4 C :    0.098723
   5 C :    0.271732
   6 O :   -0.275087
   7 H :    0.030158
   8 H :    0.008307
   9 H :    0.030203
  10 H :    0.006348
  11 H :    0.007998
  12 H :    0.030390
  13 H :    0.028313
  14 H :    0.013870
  15 H :   -0.005859
  16 H :    0.155080
Sum of atomic charges:   -0.0000000

LOEWDIN ATOMIC CHARGES
----------------------
   0 C :   -0.066077
   1 C :    0.044070
   2 O :   -0.163696
   3 C :   -0.012254
   4 C :   -0.058503
   5 C :    0.052501
   6 O :   -0.110609
   7 H :    0.037090
   8 H :    0.028749
   9 H :    0.038133
  10 H :    0.011808
  11 H :    0.031022
  12 H :    0.035892
  13 H :    0.037287
  14 H :    0.025397
  15 H :    0.008155
  16 H :    0.061034

  Mayer bond orders larger than 0.1
B(  0-C ,  1-C ) :   1.1031 B(  0-C ,  7-H ) :   0.9456 B(  0-C ,  8-H ) :   0.9406
B(  0-C ,  9-H ) :   0.9500 B(  1-C ,  2-O ) :   0.9433 B(  1-C ,  3-C ) :   1.0181
B(  1-C , 10-H ) :   0.9136 B(  2-O ,  3-C ) :   0.9722 B(  3-C ,  4-C ) :   1.0917
B(  3-C ,  5-C ) :   0.9905 B(  4-C , 11-H ) :   0.9329 B(  4-C , 12-H ) :   0.9416
B(  4-C , 13-H ) :   0.9500 B(  5-C ,  6-O ) :   1.0962 B(  5-C , 14-H ) :   0.9309
B(  5-C , 15-H ) :   0.9182 B(  6-O , 16-H ) :   0.9563

FINAL SINGLE POINT ENERGY      -346.280023987238

DIPOLE MOMENT
-------------
                                X             Y             Z
Electronic contribution:      3.84809      -3.30296       1.29051
Nuclear contribution   :     -4.40705       3.77659      -1.48504
                        -----------------------------------------
Total Dipole Moment    :     -0.55896       0.47363      -0.19452
                        -----------------------------------------
Magnitude (a.u.)       :      0.75803
Magnitude (Debye)      :      1.92675

                             ****ORCA TERMINATED NORMALLY****
TOTAL RUN TIME: 0 days 0 hours 0 minutes 7 seconds 588 msec
