                         Program Version 3.0.3 - RELEASE   -
|  1> ! RI PBE def2-SVP def2-SVP/J NBO PAL2
|  2> % maxcore 2000
|  3> % output
|  4>     # printlevel mini
|  5>     print[ P_Basis ] 0
|  6>     print[ P_SCFInfo ] 1
|  7>     print[ P_SCFIterInfo ] 1
|  8>     print[ P_OrbEn ] 0
|  9>     print[ P_Cartesian ] 0
| 10> end
| 11> *xyz 0 1
| 12>  C        1.3011430000    -0.2319200000     0.0455440000
| 13>  C        2.7019960000     0.0675430000    -0.3816070000
| 14>  O        3.0385220000    -0.1750880000    -1.7329270000
| 15>  C        3.0089410000     1.1762700000    -1.2974390000
| 16>  C        4.3054380000     1.9177550000    -1.2050060000
| 17>  C        5.5718560000     1.1210130000    -1.3099910000
| 18>  O        4.2876510000     3.1161820000    -1.0621690000
| 19>  H        1.1723970000    -1.3058640000     0.2008830000
| 20>  H        0.5881350000     0.0956680000    -0.7122650000
| 21>  H        1.0741230000     0.2759600000     0.9859270000
| 22>  H        3.4825830000    -0.2245970000     0.3212040000
| 23>  H        2.1802680000     1.7776580000    -1.6651910000
| 24>  H        5.6684440000     0.7406150000    -2.3309540000
| 25>  H        5.5516860000     0.2442700000    -0.6591870000
| 26>  H        6.4219070000     1.7564470000    -1.0698210000
| 27> *
| 28>
| 29>                          ****END OF INPUT****
 Total Charge           Charge          ....    0
 Multiplicity           Mult            ....    1
 Number of Electrons    NEL             ....   54
 Basis Dimension        Dim             ....  138

MULLIKEN ATOMIC CHARGES
-----------------------
   0 C :    0.063983
   1 C :   -0.010951
   2 O :   -0.258996
   3 C :    0.069223
   4 C :   -0.012444
   5 C :    0.025242
   6 O :   -0.160231
   7 H :    0.041220
   8 H :    0.025968
   9 H :    0.037881
  10 H :    0.028565
  11 H :    0.019074
  12 H :    0.054076
  13 H :    0.041301
  14 H :    0.036091
Sum of atomic charges:    0.0000000

LOEWDIN ATOMIC CHARGES
----------------------
   0 C :   -0.065538
   1 C :    0.052885
   2 O :   -0.138103
   3 C :    0.018945
   4 C :    0.039738
   5 C :   -0.085590
   6 O :   -0.118980
   7 H :    0.039348
   8 H :    0.037577
   9 H :    0.040988
  10 H :    0.014836
  11 H :    0.025370
  12 H :    0.056144
  13 H :    0.043376
  14 H :    0.039004

  Mayer bond orders larger than 0.1
B(  0-C ,  1-C ) :   1.1006 B(  0-C ,  7-H ) :   0.9510 B(  0-C ,  8-H ) :   0.9441
B(  0-C ,  9-H ) :   0.9496 B(  1-C ,  2-O ) :   0.9799 B(  1-C ,  3-C ) :   0.9929
B(  1-C , 10-H ) :   0.9254 B(  2-O ,  3-C ) :   0.9986 B(  3-C ,  4-C ) :   0.9402
B(  3-C , 11-H ) :   0.9263 B(  4-C ,  5-C ) :   1.0339 B(  4-C ,  6-O ) :   2.1606
B(  5-C , 12-H ) :   0.9289 B(  5-C , 13-H ) :   0.9359 B(  5-C , 14-H ) :   0.9439

FINAL SINGLE POINT ENERGY      -345.084618823642

DIPOLE MOMENT
-------------
                                X             Y             Z
Electronic contribution:      1.20665       3.51266      -2.37772
Nuclear contribution   :     -1.44023      -4.26209       2.82371
                        -----------------------------------------
Total Dipole Moment    :     -0.23358      -0.74942       0.44599
                        -----------------------------------------
Magnitude (a.u.)       :      0.90283
Magnitude (Debye)      :      2.29481

                             ****ORCA TERMINATED NORMALLY****
TOTAL RUN TIME: 0 days 0 hours 0 minutes 6 seconds 800 msec
