                         Program Version 3.0.3 - RELEASE   -
|  1> ! RI PBE def2-SVP def2-SVP/J NBO PAL2
|  2> % maxcore 2000
|  3> % output
|  4>     # printlevel mini
|  5>     print[ P_Basis ] 0
|  6>     print[ P_SCFInfo ] 1
|  7>     print[ P_SCFIterInfo ] 1
|  8>     print[ P_OrbEn ] 0
|  9>     print[ P_Cartesian ] 0
| 10> end
| 11> *xyz 0 1
| 12>  C        0.7016860000     0.1230440000    -0.5494270000
| 13>  C        2.0708960000     0.3263290000     0.0136280000
| 14>  O        2.9543630000    -0.7916270000    -0.0144050000
| 15>  C        3.2677430000     0.3362170000    -0.8195190000
| 16>  C        4.5044630000     1.0891940000    -0.4371260000
| 17>  C        4.6126040000     2.4477710000    -1.0624020000
| 18>  O        3.7990130000     2.9271190000    -1.8035590000
| 19>  H        0.0744790000    -0.4321590000     0.1522970000
| 20>  H        0.7499130000    -0.4364970000    -1.4849610000
| 21>  H        0.2252630000     1.0872530000    -0.7431260000
| 22>  H        2.1178160000     0.8876390000     0.9476150000
| 23>  H        3.1316370000     0.1773760000    -1.8878150000
| 24>  H        5.4062340000     0.5259710000    -0.7145080000
| 25>  H        4.5662170000     1.2071270000     0.6517020000
| 26>  H        5.5315750000     3.0121630000    -0.7915030000
| 27> *
| 28>
| 29>                          ****END OF INPUT****
 Total Charge           Charge          ....    0
 Multiplicity           Mult            ....    1
 Number of Electrons    NEL             ....   54
 Basis Dimension        Dim             ....  138

MULLIKEN ATOMIC CHARGES
-----------------------
   0 C :    0.067183
   1 C :    0.004191
   2 O :   -0.282176
   3 C :    0.017148
   4 C :    0.077044
   5 C :    0.074719
   6 O :   -0.155874
   7 H :    0.036174
   8 H :    0.018225
   9 H :    0.036678
  10 H :    0.009267
  11 H :    0.019897
  12 H :    0.045614
  13 H :    0.037194
  14 H :   -0.005284
Sum of atomic charges:   -0.0000000

LOEWDIN ATOMIC CHARGES
----------------------
   0 C :   -0.068033
   1 C :    0.044246
   2 O :   -0.155901
   3 C :    0.043362
   4 C :   -0.090519
   5 C :    0.093950
   6 O :   -0.107039
   7 H :    0.036300
   8 H :    0.035234
   9 H :    0.039712
  10 H :    0.013387
  11 H :    0.018268
  12 H :    0.054165
  13 H :    0.053691
  14 H :   -0.010823

  Mayer bond orders larger than 0.1
B(  0-C ,  1-C ) :   1.0969 B(  0-C ,  7-H ) :   0.9492 B(  0-C ,  8-H ) :   0.9407
B(  0-C ,  9-H ) :   0.9502 B(  1-C ,  2-O ) :   0.9907 B(  1-C ,  3-C ) :   1.0553
B(  1-C , 10-H ) :   0.9214 B(  2-O ,  3-C ) :   0.9862 B(  3-C ,  4-C ) :   1.0248
B(  3-C , 11-H ) :   0.9297 B(  4-C ,  5-C ) :   0.9566 B(  4-C , 12-H ) :   0.8909
B(  4-C , 13-H ) :   0.8911 B(  5-C ,  6-O ) :   2.1954 B(  5-C , 14-H ) :   0.9254

FINAL SINGLE POINT ENERGY      -345.073859450522

DIPOLE MOMENT
-------------
                                X             Y             Z
Electronic contribution:      3.17856       1.34511      -1.05449
Nuclear contribution   :     -2.93267      -1.24848       1.40544
                        -----------------------------------------
Total Dipole Moment    :      0.24589       0.09662       0.35095
                        -----------------------------------------
Magnitude (a.u.)       :      0.43928
Magnitude (Debye)      :      1.11655

                             ****ORCA TERMINATED NORMALLY****
TOTAL RUN TIME: 0 days 0 hours 0 minutes 6 seconds 879 msec
