                         Program Version 3.0.3 - RELEASE   -
|  1> ! RI PBE def2-SVP def2-SVP/J NBO PAL2
|  2> % maxcore 2000
|  3> % output
|  4>     # printlevel mini
|  5>     print[ P_Basis ] 0
|  6>     print[ P_SCFInfo ] 1
|  7>     print[ P_SCFIterInfo ] 1
|  8>     print[ P_OrbEn ] 0
|  9>     print[ P_Cartesian ] 0
| 10> end
| 11> *xyz 0 1
| 12>  C        0.9366690000    -0.0089520000    -0.0700900000
| 13>  C        2.4406080000     0.0707490000     0.0124630000
| 14>  O        2.9775750000    -0.9783850000     0.8463250000
| 15>  C        3.7682650000    -0.2396690000     1.7786790000
| 16>  C        4.4984960000     0.7853790000     0.8973730000
| 17>  C        3.0438790000     1.2878650000     0.7147870000
| 18>  C        2.8403390000     0.9073330000     2.2034800000
| 19>  H        0.6347320000    -0.9927120000    -0.4355710000
| 20>  H        0.5551190000     0.7431200000    -0.7660160000
| 21>  H        0.4683440000     0.1470060000     0.9032480000
| 22>  H        2.8638910000    -0.0368690000    -0.9946290000
| 23>  H        4.2612320000    -0.9203480000     2.4694920000
| 24>  H        5.0275980000     0.4040850000     0.0217780000
| 25>  H        5.1183570000     1.4793810000     1.4647490000
| 26>  H        2.8012010000     2.2703960000     0.3127400000
| 27>  H        1.8430290000     0.6440500000     2.5569750000
| 28>  H        3.3187650000     1.6180810000     2.8770070000
| 29> *
| 30>
| 31>                          ****END OF INPUT****
 Total Charge           Charge          ....    0
 Multiplicity           Mult            ....    1
 Number of Electrons    NEL             ....   54
 Basis Dimension        Dim             ....  148

MULLIKEN ATOMIC CHARGES
-----------------------
   0 C :    0.089099
   1 C :    0.092554
   2 O :   -0.325522
   3 C :    0.052995
   4 C :    0.095048
   5 C :   -0.192949
   6 C :    0.074966
   7 H :    0.028755
   8 H :    0.011725
   9 H :    0.004364
  10 H :    0.002253
  11 H :   -0.000467
  12 H :    0.012737
  13 H :    0.020362
  14 H :   -0.005745
  15 H :    0.016335
  16 H :    0.023491
Sum of atomic charges:    0.0000000

LOEWDIN ATOMIC CHARGES
----------------------
   0 C :   -0.068000
   1 C :    0.057600
   2 O :   -0.163843
   3 C :    0.072304
   4 C :   -0.035429
   5 C :   -0.032267
   6 C :   -0.036652
   7 H :    0.034498
   8 H :    0.029552
   9 H :    0.024664
  10 H :    0.012812
  11 H :    0.008794
  12 H :    0.017712
  13 H :    0.024831
  14 H :    0.013210
  15 H :    0.014170
  16 H :    0.026045

  Mayer bond orders larger than 0.1
B(  0-C ,  1-C ) :   1.1024 B(  0-C ,  7-H ) :   0.9488 B(  0-C ,  8-H ) :   0.9471
B(  0-C ,  9-H ) :   0.9443 B(  1-C ,  2-O ) :   0.9574 B(  1-C ,  5-C ) :   1.0042
B(  1-C , 10-H ) :   0.9205 B(  2-O ,  3-C ) :   1.0229 B(  3-C ,  4-C ) :   0.9908
B(  3-C ,  6-C ) :   0.9849 B(  3-C , 11-H ) :   0.9542 B(  4-C ,  5-C ) :   0.9721
B(  4-C , 12-H ) :   0.9190 B(  4-C , 13-H ) :   0.9407 B(  5-C ,  6-C ) :   0.9641
B(  5-C , 14-H ) :   0.9473 B(  6-C , 15-H ) :   0.9230 B(  6-C , 16-H ) :   0.9401

FINAL SINGLE POINT ENERGY      -309.204663424718

DIPOLE MOMENT
-------------
                                X             Y             Z
Electronic contribution:      2.08967      -2.18164       0.60657
Nuclear contribution   :     -2.03918       2.76935      -0.57254
                        -----------------------------------------
Total Dipole Moment    :      0.05048       0.58771       0.03403
                        -----------------------------------------
Magnitude (a.u.)       :      0.59086
Magnitude (Debye)      :      1.50184

                             ****ORCA TERMINATED NORMALLY****
TOTAL RUN TIME: 0 days 0 hours 0 minutes 7 seconds 546 msec
