                         Program Version 3.0.3 - RELEASE   -
|  1> ! RI PBE def2-SVP def2-SVP/J NBO PAL2
|  2> % maxcore 2000
|  3> % output
|  4>     # printlevel mini
|  5>     print[ P_Basis ] 0
|  6>     print[ P_SCFInfo ] 1
|  7>     print[ P_SCFIterInfo ] 1
|  8>     print[ P_OrbEn ] 0
|  9>     print[ P_Cartesian ] 0
| 10> end
| 11> *xyz 0 1
| 12>  C        1.1944830000    -0.0788930000     0.0299800000
| 13>  C        2.5147640000     0.0222850000     0.0064420000
| 14>  O        3.3834680000    -1.0418100000     0.0540220000
| 15>  C        4.6624850000    -0.3706360000    -0.0007640000
| 16>  C        4.4500540000     0.6582140000    -1.1176070000
| 17>  C        3.4308830000     1.2026510000    -0.0718210000
| 18>  C        4.4787760000     0.7763440000     1.0000780000
| 19>  H        0.7072030000    -1.0430390000     0.0903640000
| 20>  H        0.5854660000     0.8130180000    -0.0115150000
| 21>  H        5.4613730000    -1.1066510000     0.0294580000
| 22>  H        4.0655370000     0.2933760000    -2.0706200000
| 23>  H        5.3009940000     1.3250950000    -1.2546910000
| 24>  H        2.9864020000     2.1928780000    -0.1210300000
| 25>  H        4.1207180000     0.5203220000     1.9977960000
| 26>  H        5.3321040000     1.4530480000     1.0390990000
| 27> *
| 28>
| 29>                          ****END OF INPUT****
 Total Charge           Charge          ....    0
 Multiplicity           Mult            ....    1
 Number of Electrons    NEL             ....   52
 Basis Dimension        Dim             ....  138

MULLIKEN ATOMIC CHARGES
-----------------------
   0 C :   -0.118485
   1 C :    0.160109
   2 O :   -0.251190
   3 C :    0.040967
   4 C :    0.097985
   5 C :   -0.158756
   6 C :    0.090695
   7 H :    0.015182
   8 H :    0.004247
   9 H :    0.007803
  10 H :    0.030665
  11 H :    0.026014
  12 H :   -0.005820
  13 H :    0.033289
  14 H :    0.027294
Sum of atomic charges:   -0.0000000

LOEWDIN ATOMIC CHARGES
----------------------
   0 C :   -0.144250
   1 C :    0.035214
   2 O :   -0.092160
   3 C :    0.077445
   4 C :   -0.023797
   5 C :   -0.023624
   6 C :   -0.025040
   7 H :    0.029592
   8 H :    0.028448
   9 H :    0.012960
  10 H :    0.024113
  11 H :    0.027990
  12 H :    0.020287
  13 H :    0.024557
  14 H :    0.028267

  Mayer bond orders larger than 0.1
B(  0-C ,  1-C ) :   1.9786 B(  0-C ,  7-H ) :   0.9161 B(  0-C ,  8-H ) :   0.9203
B(  1-C ,  2-O ) :   1.0803 B(  1-C ,  5-C ) :   0.9413 B(  2-O ,  3-C ) :   0.9695
B(  3-C ,  4-C ) :   0.9875 B(  3-C ,  6-C ) :   0.9880 B(  3-C ,  9-H ) :   0.9600
B(  4-C ,  5-C ) :   0.9533 B(  4-C , 10-H ) :   0.9268 B(  4-C , 11-H ) :   0.9371
B(  5-C ,  6-C ) :   0.9530 B(  5-C , 12-H ) :   0.9524 B(  6-C , 13-H ) :   0.9273
B(  6-C , 14-H ) :   0.9373

FINAL SINGLE POINT ENERGY      -307.991102650510

DIPOLE MOMENT
-------------
                                X             Y             Z
Electronic contribution:     -0.24229      -2.44268       0.13927
Nuclear contribution   :      0.87751       3.03429      -0.18118
                        -----------------------------------------
Total Dipole Moment    :      0.63523       0.59161      -0.04191
                        -----------------------------------------
Magnitude (a.u.)       :      0.86906
Magnitude (Debye)      :      2.20898

                             ****ORCA TERMINATED NORMALLY****
TOTAL RUN TIME: 0 days 0 hours 0 minutes 6 seconds 771 msec
