                         Program Version 3.0.3 - RELEASE   -
|  1> ! RI PBE def2-SVP def2-SVP/J NBO PAL2
|  2> % maxcore 2000
|  3> % output
|  4>     # printlevel mini
|  5>     print[ P_Basis ] 0
|  6>     print[ P_SCFInfo ] 1
|  7>     print[ P_SCFIterInfo ] 1
|  8>     print[ P_OrbEn ] 0
|  9>     print[ P_Cartesian ] 0
| 10> end
| 11> *xyz 0 1
| 12>  C        1.0571930000     0.1424900000     0.3545410000
| 13>  C        2.4895560000     0.0135560000    -0.1064540000
| 14>  O        2.7725740000    -1.2906520000    -0.5859110000
| 15>  C        2.5607970000    -1.2542100000    -1.9694170000
| 16>  C        3.6946140000    -0.7099090000    -2.7898810000
| 17>  C        2.5658040000     0.1792010000    -2.3537550000
| 18>  O        2.7814080000     0.9006590000    -1.1731480000
| 19>  H        0.8618650000    -0.5587190000     1.1678200000
| 20>  H        0.3749800000    -0.0758570000    -0.4700790000
| 21>  H        0.8683350000     1.1577080000     0.7080100000
| 22>  H        3.1930700000     0.2274200000     0.7024090000
| 23>  H        1.8718890000    -1.9943360000    -2.3577650000
| 24>  H        3.7367090000    -0.9907380000    -3.8359920000
| 25>  H        4.6459460000    -0.5786670000    -2.2899810000
| 26>  H        1.8804600000     0.6308640000    -3.0604960000
| 27> *
| 28>
| 29>                          ****END OF INPUT****
 Total Charge           Charge          ....    0
 Multiplicity           Mult            ....    1
 Number of Electrons    NEL             ....   54
 Basis Dimension        Dim             ....  138

MULLIKEN ATOMIC CHARGES
-----------------------
   0 C :    0.055387
   1 C :    0.205255
   2 O :   -0.307140
   3 C :    0.054387
   4 C :    0.037602
   5 C :    0.049605
   6 O :   -0.304617
   7 H :    0.031029
   8 H :    0.010799
   9 H :    0.029372
  10 H :    0.017614
  11 H :    0.028503
  12 H :    0.031879
  13 H :    0.031116
  14 H :    0.029209
Sum of atomic charges:   -0.0000000

LOEWDIN ATOMIC CHARGES
----------------------
   0 C :   -0.085425
   1 C :    0.126717
   2 O :   -0.131273
   3 C :    0.032299
   4 C :   -0.061977
   5 C :    0.031468
   6 O :   -0.130766
   7 H :    0.034695
   8 H :    0.031118
   9 H :    0.034500
  10 H :    0.015717
  11 H :    0.016984
  12 H :    0.032763
  13 H :    0.036113
  14 H :    0.017066

  Mayer bond orders larger than 0.1
B(  0-C ,  1-C ) :   1.0940 B(  0-C ,  7-H ) :   0.9507 B(  0-C ,  8-H ) :   0.9338
B(  0-C ,  9-H ) :   0.9498 B(  1-C ,  2-O ) :   1.0062 B(  1-C ,  6-O ) :   1.0077
B(  1-C , 10-H ) :   0.9307 B(  2-O ,  3-C ) :   1.0400 B(  3-C ,  4-C ) :   0.9737
B(  3-C ,  5-C ) :   0.9526 B(  3-C , 11-H ) :   0.9562 B(  4-C ,  5-C ) :   0.9754
B(  4-C , 12-H ) :   0.9312 B(  4-C , 13-H ) :   0.9027 B(  5-C ,  6-O ) :   1.0413
B(  5-C , 14-H ) :   0.9558

FINAL SINGLE POINT ENERGY      -345.064749385301

DIPOLE MOMENT
-------------
                                X             Y             Z
Electronic contribution:      2.35868      -0.12435      -0.42326
Nuclear contribution   :     -2.75285       0.05443       0.16097
                        -----------------------------------------
Total Dipole Moment    :     -0.39417      -0.06992      -0.26229
                        -----------------------------------------
Magnitude (a.u.)       :      0.47859
Magnitude (Debye)      :      1.21649

                             ****ORCA TERMINATED NORMALLY****
TOTAL RUN TIME: 0 days 0 hours 0 minutes 6 seconds 634 msec
