                         Program Version 3.0.3 - RELEASE   -
|  1> ! RI PBE def2-SVP def2-SVP/J NBO PAL2
|  2> % maxcore 2000
|  3> % output
|  4>     # printlevel mini
|  5>     print[ P_Basis ] 0
|  6>     print[ P_SCFInfo ] 1
|  7>     print[ P_SCFIterInfo ] 1
|  8>     print[ P_OrbEn ] 0
|  9>     print[ P_Cartesian ] 0
| 10> end
| 11> *xyz 0 1
| 12>  C        1.0687730000     0.1052390000     0.0284560000
| 13>  C        2.5599400000    -0.0752630000     0.0010370000
| 14>  O        3.2684320000     0.9626800000     0.7009240000
| 15>  C        4.1756160000     0.0034420000     1.2555440000
| 16>  C        3.2713210000    -1.1686100000     0.8396750000
| 17>  C        2.4539050000    -1.7054770000     1.9995870000
| 18>  C        3.9185160000    -2.2886910000     0.0542340000
| 19>  H        0.8019070000     1.0383330000    -0.4737800000
| 20>  H        0.6860270000     0.1472540000     1.0490030000
| 21>  H        0.5739110000    -0.7137630000    -0.5008140000
| 22>  H        2.9049020000    -0.1162850000    -1.0435590000
| 23>  H        4.3291960000     0.1557710000     2.3285570000
| 24>  H        5.1462350000     0.0216280000     0.7429050000
| 25>  H        2.0205990000    -0.8990340000     2.5949010000
| 26>  H        3.0884130000    -2.3026850000     2.6610030000
| 27>  H        1.6399340000    -2.3480190000     1.6522500000
| 28>  H        4.5152560000    -1.9008410000    -0.7751200000
| 29>  H        3.1634170000    -2.9632130000    -0.3608590000
| 30>  H        4.5762000000    -2.8868660000     0.6918350000
| 31> *
| 32>
| 33>                          ****END OF INPUT****
 Total Charge           Charge          ....    0
 Multiplicity           Mult            ....    1
 Number of Electrons    NEL             ....   56
 Basis Dimension        Dim             ....  158

MULLIKEN ATOMIC CHARGES
-----------------------
   0 C :    0.075432
   1 C :    0.126463
   2 O :   -0.348740
   3 C :    0.309059
   4 C :   -0.455328
   5 C :    0.079502
   6 C :    0.076447
   7 H :    0.029684
   8 H :    0.006688
   9 H :    0.018539
  10 H :   -0.018933
  11 H :    0.000349
  12 H :   -0.013609
  13 H :    0.022250
  14 H :    0.019820
  15 H :    0.018867
  16 H :    0.014573
  17 H :    0.018925
  18 H :    0.020012
Sum of atomic charges:   -0.0000000

LOEWDIN ATOMIC CHARGES
----------------------
   0 C :   -0.071617
   1 C :    0.069991
   2 O :   -0.178703
   3 C :    0.093165
   4 C :   -0.079717
   5 C :   -0.050335
   6 C :   -0.055895
   7 H :    0.036462
   8 H :    0.025886
   9 H :    0.033235
  10 H :    0.005631
  11 H :    0.007798
  12 H :    0.003544
  13 H :    0.026891
  14 H :    0.028300
  15 H :    0.026443
  16 H :    0.023039
  17 H :    0.027910
  18 H :    0.027974

  Mayer bond orders larger than 0.1
B(  0-C ,  1-C ) :   1.1265 B(  0-C ,  7-H ) :   0.9449 B(  0-C ,  8-H ) :   0.9327
B(  0-C ,  9-H ) :   0.9465 B(  1-C ,  2-O ) :   1.0371 B(  1-C ,  4-C ) :   0.9917
B(  1-C , 10-H ) :   0.9072 B(  2-O ,  3-C ) :   1.0330 B(  3-C ,  4-C ) :   1.0508
B(  3-C , 11-H ) :   0.9299 B(  3-C , 12-H ) :   0.9237 B(  4-C ,  5-C ) :   1.0617
B(  4-C ,  6-C ) :   1.0557 B(  5-C , 13-H ) :   0.9456 B(  5-C , 14-H ) :   0.9518
B(  5-C , 15-H ) :   0.9476 B(  6-C , 16-H ) :   0.9455 B(  6-C , 17-H ) :   0.9570
B(  6-C , 18-H ) :   0.9547

FINAL SINGLE POINT ENERGY      -310.416199416348

DIPOLE MOMENT
-------------
                                X             Y             Z
Electronic contribution:      1.77581       4.63860      -0.17857
Nuclear contribution   :     -1.83964      -5.31518       0.16454
                        -----------------------------------------
Total Dipole Moment    :     -0.06383      -0.67658      -0.01403
                        -----------------------------------------
Magnitude (a.u.)       :      0.67973
Magnitude (Debye)      :      1.72773

                             ****ORCA TERMINATED NORMALLY****
TOTAL RUN TIME: 0 days 0 hours 0 minutes 8 seconds 583 msec
