                         Program Version 3.0.3 - RELEASE   -
|  1> ! RI PBE def2-SVP def2-SVP/J NBO PAL2
|  2> % maxcore 2000
|  3> % output
|  4>     # printlevel mini
|  5>     print[ P_Basis ] 0
|  6>     print[ P_SCFInfo ] 1
|  7>     print[ P_SCFIterInfo ] 1
|  8>     print[ P_OrbEn ] 0
|  9>     print[ P_Cartesian ] 0
| 10> end
| 11> *xyz 0 1
| 12>  C        0.9795850000    -0.0151900000     0.2958510000
| 13>  C        2.4713690000    -0.0042450000     0.1268090000
| 14>  O        3.1029490000     1.1426430000     0.7237650000
| 15>  C        4.1067530000     0.3141120000     1.3181130000
| 16>  C        3.3273730000    -0.9661280000     0.9793850000
| 17>  C        4.0357110000    -2.0769950000     0.3028950000
| 18>  C        3.9885160000    -3.3495150000     0.6750730000
| 19>  H        0.5296560000     0.8352170000    -0.2220460000
| 20>  H        0.7104170000     0.0432870000     1.3528170000
| 21>  H        0.5594770000    -0.9325510000    -0.1255320000
| 22>  H        2.7365140000    -0.0670960000    -0.9386150000
| 23>  H        4.2574790000     0.5382020000     2.3773840000
| 24>  H        5.0659270000     0.3953560000     0.7910990000
| 25>  H        2.7612620000    -1.3347940000     1.8384110000
| 26>  H        4.6326860000    -1.8008270000    -0.5657680000
| 27>  H        3.4074130000    -3.6656920000     1.5360300000
| 28>  H        4.5281130000    -4.1196840000     0.1364280000
| 29> *
| 30>
| 31>                          ****END OF INPUT****
 Total Charge           Charge          ....    0
 Multiplicity           Mult            ....    1
 Number of Electrons    NEL             ....   54
 Basis Dimension        Dim             ....  148

MULLIKEN ATOMIC CHARGES
-----------------------
   0 C :    0.060076
   1 C :    0.089519
   2 O :   -0.349459
   3 C :    0.269923
   4 C :   -0.160706
   5 C :    0.007253
   6 C :   -0.025976
   7 H :    0.034450
   8 H :    0.011235
   9 H :    0.023660
  10 H :   -0.005870
  11 H :    0.015484
  12 H :   -0.005970
  13 H :   -0.004664
  14 H :   -0.002968
  15 H :    0.019036
  16 H :    0.024977
Sum of atomic charges:   -0.0000000

LOEWDIN ATOMIC CHARGES
----------------------
   0 C :   -0.070191
   1 C :    0.071977
   2 O :   -0.180645
   3 C :    0.094583
   4 C :   -0.053872
   5 C :   -0.031063
   6 C :   -0.057739
   7 H :    0.036062
   8 H :    0.026379
   9 H :    0.035200
  10 H :    0.008225
  11 H :    0.012269
  12 H :    0.005835
  13 H :    0.029744
  14 H :    0.024664
  15 H :    0.022568
  16 H :    0.026005

  Mayer bond orders larger than 0.1
B(  0-C ,  1-C ) :   1.1030 B(  0-C ,  7-H ) :   0.9513 B(  0-C ,  8-H ) :   0.9454
B(  0-C ,  9-H ) :   0.9486 B(  1-C ,  2-O ) :   1.0370 B(  1-C ,  4-C ) :   1.0172
B(  1-C , 10-H ) :   0.9101 B(  2-O ,  3-C ) :   1.0317 B(  3-C ,  4-C ) :   1.0604
B(  3-C , 11-H ) :   0.9361 B(  3-C , 12-H ) :   0.9272 B(  4-C ,  5-C ) :   1.0373
B(  4-C , 13-H ) :   0.9040 B(  5-C ,  6-C ) :   1.9933 B(  5-C , 14-H ) :   0.9469
B(  6-C , 15-H ) :   0.9508 B(  6-C , 16-H ) :   0.9369

FINAL SINGLE POINT ENERGY      -309.191381202902

DIPOLE MOMENT
-------------
                                X             Y             Z
Electronic contribution:      1.86471       2.66540       0.16315
Nuclear contribution   :     -1.88447      -3.22909      -0.14891
                        -----------------------------------------
Total Dipole Moment    :     -0.01976      -0.56368       0.01423
                        -----------------------------------------
Magnitude (a.u.)       :      0.56421
Magnitude (Debye)      :      1.43411

                             ****ORCA TERMINATED NORMALLY****
TOTAL RUN TIME: 0 days 0 hours 0 minutes 7 seconds 242 msec
