                         Program Version 3.0.3 - RELEASE   -
|  1> ! RI PBE def2-SVP def2-SVP/J NBO PAL2
|  2> % maxcore 2000
|  3> % output
|  4>     # printlevel mini
|  5>     print[ P_Basis ] 0
|  6>     print[ P_SCFInfo ] 1
|  7>     print[ P_SCFIterInfo ] 1
|  8>     print[ P_OrbEn ] 0
|  9>     print[ P_Cartesian ] 0
| 10> end
| 11> *xyz 0 1
| 12>  C        1.0970440000     0.0715030000     0.1196390000
| 13>  C        2.5865110000    -0.0782210000     0.0252750000
| 14>  O        3.3085730000     0.9567320000     0.7151100000
| 15>  C        4.2041470000     0.0015760000     1.2893000000
| 16>  C        3.2855930000    -1.1628180000     0.8785930000
| 17>  C        3.8533080000    -2.3143990000     0.2224860000
| 18>  C        4.3310710000    -3.2628320000    -0.3388060000
| 19>  H        0.7769040000     0.9912660000    -0.3752610000
| 20>  H        0.7769250000     0.1118980000     1.1630990000
| 21>  H        0.6019870000    -0.7703820000    -0.3714340000
| 22>  H        2.9103070000    -0.1335010000    -1.0221510000
| 23>  H        4.3513680000     0.1605900000     2.3598670000
| 24>  H        5.1725150000    -0.0141190000     0.7776290000
| 25>  H        2.6432100000    -1.4733740000     1.7070250000
| 26>  H        4.7540460000    -4.1053280000    -0.8327810000
| 27> *
| 28>
| 29>                          ****END OF INPUT****
 Total Charge           Charge          ....    0
 Multiplicity           Mult            ....    1
 Number of Electrons    NEL             ....   52
 Basis Dimension        Dim             ....  138

MULLIKEN ATOMIC CHARGES
-----------------------
   0 C :    0.058602
   1 C :    0.102338
   2 O :   -0.348442
   3 C :    0.275327
   4 C :   -0.207254
   5 C :    0.464528
   6 C :   -0.496421
   7 H :    0.036621
   8 H :    0.012809
   9 H :    0.030975
  10 H :    0.004809
  11 H :    0.022002
  12 H :    0.007461
  13 H :    0.035518
  14 H :    0.001125
Sum of atomic charges:   -0.0000000

LOEWDIN ATOMIC CHARGES
----------------------
   0 C :   -0.069269
   1 C :    0.081277
   2 O :   -0.176014
   3 C :    0.102826
   4 C :   -0.062478
   5 C :   -0.024602
   6 C :   -0.079850
   7 H :    0.037962
   8 H :    0.027029
   9 H :    0.037917
  10 H :    0.014311
  11 H :    0.014835
  12 H :    0.012411
  13 H :    0.048030
  14 H :    0.035614

  Mayer bond orders larger than 0.1
B(  0-C ,  1-C ) :   1.1029 B(  0-C ,  7-H ) :   0.9499 B(  0-C ,  8-H ) :   0.9451
B(  0-C ,  9-H ) :   0.9490 B(  1-C ,  2-O ) :   1.0280 B(  1-C ,  4-C ) :   1.0278
B(  1-C , 10-H ) :   0.9142 B(  2-O ,  3-C ) :   1.0271 B(  3-C ,  4-C ) :   1.0715
B(  3-C , 11-H ) :   0.9367 B(  3-C , 12-H ) :   0.9300 B(  4-C ,  5-C ) :   0.9481
B(  4-C , 13-H ) :   0.8695 B(  5-C ,  6-C ) :   2.2772 B(  5-C , 14-H ) :  -0.1114
B(  6-C , 14-H ) :   1.1016

FINAL SINGLE POINT ENERGY      -307.947546774852

DIPOLE MOMENT
-------------
                                X             Y             Z
Electronic contribution:      3.22562      -1.05833       0.06345
Nuclear contribution   :     -3.38694       0.65786      -0.02149
                        -----------------------------------------
Total Dipole Moment    :     -0.16131      -0.40047       0.04196
                        -----------------------------------------
Magnitude (a.u.)       :      0.43377
Magnitude (Debye)      :      1.10256

                             ****ORCA TERMINATED NORMALLY****
TOTAL RUN TIME: 0 days 0 hours 0 minutes 6 seconds 753 msec
