                         Program Version 3.0.3 - RELEASE   -
|  1> ! RI PBE def2-SVP def2-SVP/J NBO PAL2
|  2> % maxcore 2000
|  3> % output
|  4>     # printlevel mini
|  5>     print[ P_Basis ] 0
|  6>     print[ P_SCFInfo ] 1
|  7>     print[ P_SCFIterInfo ] 1
|  8>     print[ P_OrbEn ] 0
|  9>     print[ P_Cartesian ] 0
| 10> end
| 11> *xyz 0 1
| 12>  C        1.0375930000     0.0365160000     0.2568830000
| 13>  C        2.5095470000    -0.1811880000     0.0497570000
| 14>  O        3.3098350000     0.9135790000     0.5444420000
| 15>  C        4.1437660000     0.0225380000     1.2911940000
| 16>  C        3.2516890000    -1.1763200000     0.9554900000
| 17>  C        3.9033310000    -2.3678170000     0.3000110000
| 18>  O        2.9650150000    -3.2833550000    -0.2264860000
| 19>  H        0.7010520000     0.9162660000    -0.2966680000
| 20>  H        0.8133770000     0.1907270000     1.3151110000
| 21>  H        0.4760020000    -0.8297630000    -0.1028170000
| 22>  H        2.7220260000    -0.3570570000    -1.0135040000
| 23>  H        4.2146820000     0.3097850000     2.3441580000
| 24>  H        5.1558240000    -0.0387760000     0.8702840000
| 25>  H        2.6381640000    -1.4969690000     1.8041670000
| 26>  H        4.5865210000    -2.8616830000     1.0063940000
| 27>  H        4.5048150000    -2.0369290000    -0.5515280000
| 28>  H        2.4513600000    -3.6436650000     0.5010220000
| 29> *
| 30>
| 31>                          ****END OF INPUT****
 Total Charge           Charge          ....    0
 Multiplicity           Mult            ....    1
 Number of Electrons    NEL             ....   56
 Basis Dimension        Dim             ....  148

MULLIKEN ATOMIC CHARGES
-----------------------
   0 C :    0.058462
   1 C :    0.097653
   2 O :   -0.353152
   3 C :    0.257160
   4 C :   -0.251740
   5 C :    0.246422
   6 O :   -0.284178
   7 H :    0.031400
   8 H :    0.007593
   9 H :    0.021933
  10 H :    0.000859
  11 H :    0.012244
  12 H :   -0.003491
  13 H :   -0.004844
  14 H :    0.005127
  15 H :    0.005318
  16 H :    0.153235
Sum of atomic charges:   -0.0000000

LOEWDIN ATOMIC CHARGES
----------------------
   0 C :   -0.071488
   1 C :    0.070580
   2 O :   -0.182374
   3 C :    0.089741
   4 C :   -0.077502
   5 C :    0.055753
   6 O :   -0.120239
   7 H :    0.035141
   8 H :    0.024368
   9 H :    0.033053
  10 H :    0.011433
  11 H :    0.010247
  12 H :    0.006418
  13 H :    0.019619
  14 H :    0.006447
  15 H :    0.020788
  16 H :    0.068015

  Mayer bond orders larger than 0.1
B(  0-C ,  1-C ) :   1.0968 B(  0-C ,  7-H ) :   0.9499 B(  0-C ,  8-H ) :   0.9457
B(  0-C ,  9-H ) :   0.9487 B(  1-C ,  2-O ) :   1.0354 B(  1-C ,  4-C ) :   1.0348
B(  1-C , 10-H ) :   0.9099 B(  2-O ,  3-C ) :   1.0372 B(  3-C ,  4-C ) :   1.0649
B(  3-C , 11-H ) :   0.9330 B(  3-C , 12-H ) :   0.9261 B(  4-C ,  5-C ) :   1.0290
B(  4-C , 13-H ) :   0.9004 B(  5-C ,  6-O ) :   1.0622 B(  5-C , 14-H ) :   0.9343
B(  5-C , 15-H ) :   0.9203 B(  6-O , 16-H ) :   0.9851

FINAL SINGLE POINT ENERGY      -346.267831335838

DIPOLE MOMENT
-------------
                                X             Y             Z
Electronic contribution:      1.60472       0.23718      -0.70554
Nuclear contribution   :     -1.69819      -0.80804       1.34536
                        -----------------------------------------
Total Dipole Moment    :     -0.09346      -0.57087       0.63983
                        -----------------------------------------
Magnitude (a.u.)       :      0.86256
Magnitude (Debye)      :      2.19245

                             ****ORCA TERMINATED NORMALLY****
TOTAL RUN TIME: 0 days 0 hours 0 minutes 7 seconds 599 msec
