                         Program Version 3.0.3 - RELEASE   -
|  1> ! RI PBE def2-SVP def2-SVP/J NBO PAL2
|  2> % maxcore 2000
|  3> % output
|  4>     # printlevel mini
|  5>     print[ P_Basis ] 0
|  6>     print[ P_SCFInfo ] 1
|  7>     print[ P_SCFIterInfo ] 1
|  8>     print[ P_OrbEn ] 0
|  9>     print[ P_Cartesian ] 0
| 10> end
| 11> *xyz 0 1
| 12>  C        0.8460510000     0.0262040000    -0.1392870000
| 13>  C        2.3388920000    -0.0131590000     0.0133510000
| 14>  O        2.7844350000     0.1629930000     1.3262550000
| 15>  C        3.1637700000    -0.8984110000    -0.8746690000
| 16>  C        3.2066740000     0.6021620000    -1.0347140000
| 17>  C        4.4583470000     1.3519130000    -0.6821540000
| 18>  O        4.2358940000     2.7280310000    -0.4498160000
| 19>  H        0.3747360000    -0.7923830000     0.4145450000
| 20>  H        0.5544530000    -0.0703810000    -1.1872000000
| 21>  H        0.4534090000     0.9698200000     0.2466710000
| 22>  H        2.5700640000    -0.6326780000     1.8215470000
| 23>  H        2.6731020000    -1.4941150000    -1.6352120000
| 24>  H        4.0352910000    -1.3582940000    -0.4219960000
| 25>  H        2.6777430000     0.9965150000    -1.8998390000
| 26>  H        5.2063430000     1.2065910000    -1.4750210000
| 27>  H        4.8735660000     0.9548990000     0.2449420000
| 28>  H        3.9114200000     3.1232940000    -1.2625950000
| 29> *
| 30>
| 31>                          ****END OF INPUT****
 Total Charge           Charge          ....    0
 Multiplicity           Mult            ....    1
 Number of Electrons    NEL             ....   56
 Basis Dimension        Dim             ....  148

MULLIKEN ATOMIC CHARGES
-----------------------
   0 C :    0.104925
   1 C :   -0.088026
   2 O :   -0.228501
   3 C :    0.013247
   4 C :   -0.181044
   5 C :    0.280285
   6 O :   -0.284260
   7 H :    0.007452
   8 H :   -0.000640
   9 H :    0.029742
  10 H :    0.157294
  11 H :    0.020477
  12 H :    0.021587
  13 H :    0.005493
  14 H :   -0.004607
  15 H :   -0.000751
  16 H :    0.147329
Sum of atomic charges:   -0.0000000

LOEWDIN ATOMIC CHARGES
----------------------
   0 C :   -0.059716
   1 C :    0.008586
   2 O :   -0.084239
   3 C :   -0.056889
   4 C :   -0.068401
   5 C :    0.060739
   6 O :   -0.120929
   7 H :    0.023911
   8 H :    0.028230
   9 H :    0.032788
  10 H :    0.072955
  11 H :    0.023861
  12 H :    0.027612
  13 H :    0.021083
  14 H :    0.005117
  15 H :    0.021884
  16 H :    0.063408

  Mayer bond orders larger than 0.1
B(  0-C ,  1-C ) :   1.0840 B(  0-C ,  7-H ) :   0.9478 B(  0-C ,  8-H ) :   0.9347
B(  0-C ,  9-H ) :   0.9550 B(  1-C ,  2-O ) :   1.0999 B(  1-C ,  3-C ) :   0.9744
B(  1-C ,  4-C ) :   0.9108 B(  2-O , 10-H ) :   0.9783 B(  3-C ,  4-C ) :   0.9492
B(  3-C , 11-H ) :   0.9297 B(  3-C , 12-H ) :   0.9311 B(  4-C ,  5-C ) :   1.0522
B(  4-C , 13-H ) :   0.9270 B(  5-C ,  6-O ) :   1.0644 B(  5-C , 14-H ) :   0.9313
B(  5-C , 15-H ) :   0.9137 B(  6-O , 16-H ) :   0.9868

FINAL SINGLE POINT ENERGY      -346.270568937666

DIPOLE MOMENT
-------------
                                X             Y             Z
Electronic contribution:      2.21074       2.25075       2.08561
Nuclear contribution   :     -2.65439      -2.94813      -2.62825
                        -----------------------------------------
Total Dipole Moment    :     -0.44365      -0.69738      -0.54264
                        -----------------------------------------
Magnitude (a.u.)       :      0.98874
Magnitude (Debye)      :      2.51319

                             ****ORCA TERMINATED NORMALLY****
TOTAL RUN TIME: 0 days 0 hours 0 minutes 7 seconds 34 msec
