                         Program Version 3.0.3 - RELEASE   -
|  1> ! RI PBE def2-SVP def2-SVP/J NBO PAL2
|  2> % maxcore 2000
|  3> % output
|  4>     # printlevel mini
|  5>     print[ P_Basis ] 0
|  6>     print[ P_SCFInfo ] 1
|  7>     print[ P_SCFIterInfo ] 1
|  8>     print[ P_OrbEn ] 0
|  9>     print[ P_Cartesian ] 0
| 10> end
| 11> *xyz 0 1
| 12>  C        0.9125330000    -0.2430840000    -0.7306950000
| 13>  C        2.1852850000     0.3494150000    -0.2055350000
| 14>  O        2.0161140000     1.0673990000     0.9918710000
| 15>  C        3.5138340000    -0.3422920000    -0.3894830000
| 16>  C        3.2339090000     0.9705600000    -1.0834450000
| 17>  C        3.1089430000     1.0345110000    -2.5742900000
| 18>  O        3.8557580000     2.1114650000    -0.5855720000
| 19>  H        0.5141320000    -0.9780750000    -0.0240560000
| 20>  H        1.0687390000    -0.7511540000    -1.6826940000
| 21>  H        0.1586870000     0.5349640000    -0.8725340000
| 22>  H        2.0389840000     0.4494690000     1.7276970000
| 23>  H        3.5394090000    -1.2534070000    -0.9768040000
| 24>  H        4.2104370000    -0.3031540000     0.4404030000
| 25>  H        2.7008560000     0.1129860000    -2.9898380000
| 26>  H        4.0979910000     1.1929760000    -3.0107600000
| 27>  H        2.4706620000     1.8700460000    -2.8712360000
| 28>  H        3.4662180000     2.2746740000     0.2836610000
| 29> *
| 30>
| 31>                          ****END OF INPUT****
 Total Charge           Charge          ....    0
 Multiplicity           Mult            ....    1
 Number of Electrons    NEL             ....   56
 Basis Dimension        Dim             ....  148

MULLIKEN ATOMIC CHARGES
-----------------------
   0 C :    0.123748
   1 C :   -0.130267
   2 O :   -0.253511
   3 C :    0.022211
   4 C :   -0.089844
   5 C :    0.127644
   6 O :   -0.222745
   7 H :    0.008864
   8 H :    0.001249
   9 H :    0.030016
  10 H :    0.166528
  11 H :    0.013537
  12 H :    0.012866
  13 H :   -0.004773
  14 H :    0.026775
  15 H :    0.020947
  16 H :    0.146756
Sum of atomic charges:   -0.0000000

LOEWDIN ATOMIC CHARGES
----------------------
   0 C :   -0.062363
   1 C :   -0.008710
   2 O :   -0.083266
   3 C :   -0.075292
   4 C :    0.009517
   5 C :   -0.052890
   6 O :   -0.090616
   7 H :    0.025995
   8 H :    0.030150
   9 H :    0.034053
  10 H :    0.075980
  11 H :    0.023609
  12 H :    0.026783
  13 H :    0.025007
  14 H :    0.035790
  15 H :    0.030991
  16 H :    0.055262

  Mayer bond orders larger than 0.1
B(  0-C ,  1-C ) :   1.1021 B(  0-C ,  7-H ) :   0.9397 B(  0-C ,  8-H ) :   0.9294
B(  0-C ,  9-H ) :   0.9473 B(  1-C ,  2-O ) :   1.0568 B(  1-C ,  3-C ) :   0.9632
B(  1-C ,  4-C ) :   0.8513 B(  2-O , 10-H ) :   0.9733 B(  3-C ,  4-C ) :   0.9203
B(  3-C , 11-H ) :   0.9252 B(  3-C , 12-H ) :   0.9144 B(  4-C ,  5-C ) :   1.1022
B(  4-C ,  6-O ) :   1.1660 B(  5-C , 13-H ) :   0.9362 B(  5-C , 14-H ) :   0.9452
B(  5-C , 15-H ) :   0.9500 B(  6-O , 16-H ) :   0.9468

FINAL SINGLE POINT ENERGY      -346.281443031686

DIPOLE MOMENT
-------------
                                X             Y             Z
Electronic contribution:      1.96639       3.18895       3.88334
Nuclear contribution   :     -2.39587      -3.93544      -3.51013
                        -----------------------------------------
Total Dipole Moment    :     -0.42948      -0.74649       0.37321
                        -----------------------------------------
Magnitude (a.u.)       :      0.93861
Magnitude (Debye)      :      2.38575

                             ****ORCA TERMINATED NORMALLY****
TOTAL RUN TIME: 0 days 0 hours 0 minutes 7 seconds 145 msec
