                         Program Version 3.0.3 - RELEASE   -
|  1> ! RI PBE def2-SVP def2-SVP/J NBO PAL2
|  2> % maxcore 2000
|  3> % output
|  4>     # printlevel mini
|  5>     print[ P_Basis ] 0
|  6>     print[ P_SCFInfo ] 1
|  7>     print[ P_SCFIterInfo ] 1
|  8>     print[ P_OrbEn ] 0
|  9>     print[ P_Cartesian ] 0
| 10> end
| 11> *xyz 0 1
| 12>  C        1.0363130000     0.0992070000     0.1063240000
| 13>  C        2.5310140000    -0.0335630000     0.1113920000
| 14>  O        3.2006720000     0.9863730000     0.8727530000
| 15>  C        4.1615490000     0.0413780000     1.3553510000
| 16>  C        3.2678480000    -1.1312290000     0.9176720000
| 17>  C        2.4834570000    -1.7532510000     2.0436800000
| 18>  O        3.8521200000    -2.1779870000     0.1927630000
| 19>  H        0.7440490000     1.0312780000    -0.3830080000
| 20>  H        0.6337070000     0.1051670000     1.1201880000
| 21>  H        0.5861630000    -0.7285200000    -0.4477190000
| 22>  H        2.9093140000    -0.0318700000    -0.9252220000
| 23>  H        4.3667610000     0.1627640000     2.4224700000
| 24>  H        5.1044330000     0.0928060000     0.7923910000
| 25>  H        2.0291830000    -0.9852000000     2.6710750000
| 26>  H        3.1516050000    -2.3570270000     2.6614230000
| 27>  H        1.6973390000    -2.4024640000     1.6530510000
| 28>  H        4.3541740000    -1.8040400000    -0.5372840000
| 29> *
| 30>
| 31>                          ****END OF INPUT****
 Total Charge           Charge          ....    0
 Multiplicity           Mult            ....    1
 Number of Electrons    NEL             ....   56
 Basis Dimension        Dim             ....  148

MULLIKEN ATOMIC CHARGES
-----------------------
   0 C :    0.070015
   1 C :    0.102745
   2 O :   -0.342996
   3 C :    0.287554
   4 C :   -0.233208
   5 C :    0.083016
   6 O :   -0.226632
   7 H :    0.031548
   8 H :    0.011633
   9 H :    0.026741
  10 H :   -0.028903
  11 H :    0.007316
  12 H :   -0.019996
  13 H :    0.022625
  14 H :    0.030386
  15 H :    0.027171
  16 H :    0.150985
Sum of atomic charges:   -0.0000000

LOEWDIN ATOMIC CHARGES
----------------------
   0 C :   -0.070355
   1 C :    0.048536
   2 O :   -0.174713
   3 C :    0.072047
   4 C :   -0.004652
   5 C :   -0.055901
   6 O :   -0.092006
   7 H :    0.036731
   8 H :    0.027975
   9 H :    0.037082
  10 H :    0.002407
  11 H :    0.011198
  12 H :    0.001911
  13 H :    0.031510
  14 H :    0.034298
  15 H :    0.031559
  16 H :    0.062373

  Mayer bond orders larger than 0.1
B(  0-C ,  1-C ) :   1.1268 B(  0-C ,  7-H ) :   0.9453 B(  0-C ,  8-H ) :   0.9363
B(  0-C ,  9-H ) :   0.9461 B(  1-C ,  2-O ) :   1.0354 B(  1-C ,  4-C ) :   0.9687
B(  1-C , 10-H ) :   0.8882 B(  2-O ,  3-C ) :   1.0322 B(  3-C ,  4-C ) :   1.0286
B(  3-C , 11-H ) :   0.9303 B(  3-C , 12-H ) :   0.9095 B(  4-C ,  5-C ) :   1.0617
B(  4-C ,  6-O ) :   1.1095 B(  5-C , 13-H ) :   0.9454 B(  5-C , 14-H ) :   0.9466
B(  5-C , 15-H ) :   0.9430 B(  6-O , 16-H ) :   0.9694

FINAL SINGLE POINT ENERGY      -346.277077071212

DIPOLE MOMENT
-------------
                                X             Y             Z
Electronic contribution:      3.60448       0.87633      -1.26143
Nuclear contribution   :     -3.59337      -1.03377       1.05701
                        -----------------------------------------
Total Dipole Moment    :      0.01111      -0.15744      -0.20443
                        -----------------------------------------
Magnitude (a.u.)       :      0.25826
Magnitude (Debye)      :      0.65646

                             ****ORCA TERMINATED NORMALLY****
TOTAL RUN TIME: 0 days 0 hours 0 minutes 7 seconds 702 msec
