                         Program Version 3.0.3 - RELEASE   -
|  1> ! RI PBE def2-SVP def2-SVP/J NBO PAL2
|  2> % maxcore 2000
|  3> % output
|  4>     # printlevel mini
|  5>     print[ P_Basis ] 0
|  6>     print[ P_SCFInfo ] 1
|  7>     print[ P_SCFIterInfo ] 1
|  8>     print[ P_OrbEn ] 0
|  9>     print[ P_Cartesian ] 0
| 10> end
| 11> *xyz 0 1
| 12>  C        0.9673770000     0.0967620000     0.2584680000
| 13>  C        2.4397870000    -0.1106100000     0.0469290000
| 14>  O        3.2441050000     0.9664530000     0.5562190000
| 15>  C        4.0586720000     0.0561420000     1.2971340000
| 16>  C        3.1590180000    -1.1398300000     0.9504300000
| 17>  C        3.8149470000    -2.2771260000     0.2428680000
| 18>  O        3.6577180000    -3.4367380000     0.5082480000
| 19>  H        0.6296110000     0.9765730000    -0.2939230000
| 20>  H        0.7447830000     0.2465430000     1.3168620000
| 21>  H        0.4070970000    -0.7703600000    -0.1010830000
| 22>  H        2.6541150000    -0.2688560000    -1.0192680000
| 23>  H        4.1141290000     0.3140510000     2.3575400000
| 24>  H        5.0744270000    -0.0088530000     0.8882470000
| 25>  H        2.5474870000    -1.5102000000     1.7726480000
| 26>  H        4.4877190000    -1.9724620000    -0.5919110000
| 27> *
| 28>
| 29>                          ****END OF INPUT****
 Total Charge           Charge          ....    0
 Multiplicity           Mult            ....    1
 Number of Electrons    NEL             ....   54
 Basis Dimension        Dim             ....  138

MULLIKEN ATOMIC CHARGES
-----------------------
   0 C :    0.060413
   1 C :    0.078390
   2 O :   -0.343223
   3 C :    0.256716
   4 C :   -0.190712
   5 C :    0.144493
   6 O :   -0.145581
   7 H :    0.039236
   8 H :    0.016807
   9 H :    0.031769
  10 H :    0.008198
  11 H :    0.029482
  12 H :    0.010200
  13 H :    0.018718
  14 H :   -0.014906
Sum of atomic charges:   -0.0000000

LOEWDIN ATOMIC CHARGES
----------------------
   0 C :   -0.066913
   1 C :    0.078940
   2 O :   -0.176346
   3 C :    0.099636
   4 C :   -0.087612
   5 C :    0.083672
   6 O :   -0.098034
   7 H :    0.038686
   8 H :    0.029241
   9 H :    0.037723
  10 H :    0.010921
  11 H :    0.018246
  12 H :    0.009960
  13 H :    0.034604
  14 H :   -0.012723

  Mayer bond orders larger than 0.1
B(  0-C ,  1-C ) :   1.0984 B(  0-C ,  7-H ) :   0.9505 B(  0-C ,  8-H ) :   0.9466
B(  0-C ,  9-H ) :   0.9478 B(  1-C ,  2-O ) :   1.0399 B(  1-C ,  4-C ) :   0.9948
B(  1-C , 10-H ) :   0.9130 B(  2-O ,  3-C ) :   1.0335 B(  3-C ,  4-C ) :   1.0418
B(  3-C , 11-H ) :   0.9342 B(  3-C , 12-H ) :   0.9295 B(  4-C ,  5-C ) :   0.9476
B(  4-C , 13-H ) :   0.9100 B(  5-C ,  6-O ) :   2.1878 B(  5-C , 14-H ) :   0.9186

FINAL SINGLE POINT ENERGY      -345.071020705858

DIPOLE MOMENT
-------------
                                X             Y             Z
Electronic contribution:      3.27590      -3.02283       0.08805
Nuclear contribution   :     -3.44683       3.40718      -0.06030
                        -----------------------------------------
Total Dipole Moment    :     -0.17092       0.38435       0.02775
                        -----------------------------------------
Magnitude (a.u.)       :      0.42155
Magnitude (Debye)      :      1.07150

                             ****ORCA TERMINATED NORMALLY****
TOTAL RUN TIME: 0 days 0 hours 0 minutes 6 seconds 356 msec
