                         Program Version 3.0.3 - RELEASE   -
|  1> ! RI PBE def2-SVP def2-SVP/J NBO PAL2
|  2> % maxcore 2000
|  3> % output
|  4>     # printlevel mini
|  5>     print[ P_Basis ] 0
|  6>     print[ P_SCFInfo ] 1
|  7>     print[ P_SCFIterInfo ] 1
|  8>     print[ P_OrbEn ] 0
|  9>     print[ P_Cartesian ] 0
| 10> end
| 11> *xyz 0 1
| 12>  C        1.0328610000     0.2759090000     0.4060270000
| 13>  C        2.2607950000    -0.3432940000    -0.2153370000
| 14>  O        1.8838830000    -1.5533480000    -0.8616050000
| 15>  C        2.8492920000    -1.8522030000    -1.8518710000
| 16>  C        3.3402960000    -0.5173050000    -2.3537960000
| 17>  C        2.2760770000     0.4984870000    -2.6277620000
| 18>  C        2.9514400000     0.4655290000    -1.2914490000
| 19>  H        0.5671460000    -0.4201340000     1.1062020000
| 20>  H        0.3028360000     0.5344940000    -0.3635290000
| 21>  H        1.3009330000     1.1837130000     0.9512670000
| 22>  H        2.9992430000    -0.5629000000     0.5738000000
| 23>  H        2.3587240000    -2.4671890000    -2.6113210000
| 24>  H        3.6871350000    -2.4254370000    -1.4271870000
| 25>  H        4.2922790000    -0.4615750000    -2.8664360000
| 26>  H        1.2500990000     0.1532710000    -2.6947690000
| 27>  H        2.5282200000     1.3174320000    -3.2895690000
| 28>  H        3.6067410000     1.2758410000    -0.9971770000
| 29> *
| 30>
| 31>                          ****END OF INPUT****
 Total Charge           Charge          ....    0
 Multiplicity           Mult            ....    1
 Number of Electrons    NEL             ....   54
 Basis Dimension        Dim             ....  148

MULLIKEN ATOMIC CHARGES
-----------------------
   0 C :    0.053984
   1 C :    0.132592
   2 O :   -0.354011
   3 C :    0.292911
   4 C :   -0.192671
   5 C :    0.026840
   6 C :   -0.128012
   7 H :    0.029905
   8 H :    0.015256
   9 H :    0.014948
  10 H :   -0.007994
  11 H :    0.017888
  12 H :   -0.001410
  13 H :    0.018176
  14 H :    0.037249
  15 H :    0.029795
  16 H :    0.014554
Sum of atomic charges:    0.0000000

LOEWDIN ATOMIC CHARGES
----------------------
   0 C :   -0.065639
   1 C :    0.057237
   2 O :   -0.152288
   3 C :    0.073515
   4 C :   -0.057751
   5 C :   -0.040273
   6 C :   -0.050152
   7 H :    0.032065
   8 H :    0.028360
   9 H :    0.030826
  10 H :    0.008950
  11 H :    0.019893
  12 H :    0.007710
  13 H :    0.025320
  14 H :    0.026076
  15 H :    0.030559
  16 H :    0.025590

  Mayer bond orders larger than 0.1
B(  0-C ,  1-C ) :   1.0965 B(  0-C ,  7-H ) :   0.9522 B(  0-C ,  8-H ) :   0.9523
B(  0-C ,  9-H ) :   0.9514 B(  1-C ,  2-O ) :   0.9946 B(  1-C ,  6-C ) :   1.0403
B(  1-C , 10-H ) :   0.8991 B(  2-O ,  3-C ) :   1.0123 B(  3-C ,  4-C ) :   1.0660
B(  3-C , 11-H ) :   0.9354 B(  3-C , 12-H ) :   0.9209 B(  4-C ,  5-C ) :   0.9823
B(  4-C ,  6-C ) :   0.9640 B(  4-C , 13-H ) :   0.9410 B(  5-C ,  6-C ) :   0.9735
B(  5-C , 14-H ) :   0.9333 B(  5-C , 15-H ) :   0.9394 B(  6-C , 16-H ) :   0.9487

FINAL SINGLE POINT ENERGY      -309.219147745459

DIPOLE MOMENT
-------------
                                X             Y             Z
Electronic contribution:      0.92648      -2.13247      -0.76975
Nuclear contribution   :     -0.50585       2.47412       0.65185
                        -----------------------------------------
Total Dipole Moment    :      0.42063       0.34165      -0.11789
                        -----------------------------------------
Magnitude (a.u.)       :      0.55458
Magnitude (Debye)      :      1.40962

                             ****ORCA TERMINATED NORMALLY****
TOTAL RUN TIME: 0 days 0 hours 0 minutes 7 seconds 477 msec
