                         Program Version 3.0.3 - RELEASE   -
|  1> ! RI PBE def2-SVP def2-SVP/J NBO PAL2
|  2> % maxcore 2000
|  3> % output
|  4>     # printlevel mini
|  5>     print[ P_Basis ] 0
|  6>     print[ P_SCFInfo ] 1
|  7>     print[ P_SCFIterInfo ] 1
|  8>     print[ P_OrbEn ] 0
|  9>     print[ P_Cartesian ] 0
| 10> end
| 11> *xyz 0 1
| 12>  C        1.0721360000     0.0817620000     0.1680180000
| 13>  C        2.2684390000    -0.0206430000    -0.3996520000
| 14>  O        2.6129130000    -1.0853800000    -1.1820280000
| 15>  C        4.0322590000    -1.1870410000    -1.2792040000
| 16>  C        4.5738410000     0.1706760000    -0.9198180000
| 17>  C        3.9859280000     1.3224730000    -1.6579520000
| 18>  C        3.4069740000     0.9157860000    -0.3275990000
| 19>  H        0.3388750000    -0.7071390000     0.0699120000
| 20>  H        0.8128800000     0.9717580000     0.7234150000
| 21>  H        4.2691410000    -1.5059930000    -2.2973860000
| 22>  H        4.3928220000    -1.9482650000    -0.5773580000
| 23>  H        5.5664270000     0.2435000000    -0.4952320000
| 24>  H        3.3979900000     1.1237250000    -2.5471490000
| 25>  H        4.5528990000     2.2445180000    -1.6763220000
| 26>  H        3.5008660000     1.5736730000     0.5248660000
| 27> *
| 28>
| 29>                          ****END OF INPUT****
 Total Charge           Charge          ....    0
 Multiplicity           Mult            ....    1
 Number of Electrons    NEL             ....   52
 Basis Dimension        Dim             ....  138

MULLIKEN ATOMIC CHARGES
-----------------------
   0 C :   -0.106847
   1 C :    0.140866
   2 O :   -0.286488
   3 C :    0.302908
   4 C :   -0.188913
   5 C :    0.046304
   6 C :   -0.087758
   7 H :    0.015736
   8 H :    0.004558
   9 H :    0.019714
  10 H :    0.019585
  11 H :    0.025163
  12 H :    0.039146
  13 H :    0.035090
  14 H :    0.020936
Sum of atomic charges:    0.0000000

LOEWDIN ATOMIC CHARGES
----------------------
   0 C :   -0.144390
   1 C :    0.035587
   2 O :   -0.087236
   3 C :    0.087230
   4 C :   -0.051061
   5 C :   -0.025053
   6 C :   -0.038813
   7 H :    0.028198
   8 H :    0.026987
   9 H :    0.021943
  10 H :    0.018652
  11 H :    0.030455
  12 H :    0.030560
  13 H :    0.033248
  14 H :    0.033694

  Mayer bond orders larger than 0.1
B(  0-C ,  1-C ) :   1.9319 B(  0-C ,  7-H ) :   0.9186 B(  0-C ,  8-H ) :   0.9293
B(  1-C ,  2-O ) :   1.1028 B(  1-C ,  6-C ) :   1.0073 B(  2-O ,  3-C ) :   0.9775
B(  3-C ,  4-C ) :   1.0757 B(  3-C ,  9-H ) :   0.9345 B(  3-C , 10-H ) :   0.9295
B(  4-C ,  5-C ) :   0.9911 B(  4-C ,  6-C ) :   0.9192 B(  4-C , 11-H ) :   0.9350
B(  5-C ,  6-C ) :   0.9466 B(  5-C , 12-H ) :   0.9368 B(  5-C , 13-H ) :   0.9394
B(  6-C , 14-H ) :   0.9576

FINAL SINGLE POINT ENERGY      -308.006119253449

DIPOLE MOMENT
-------------
                                X             Y             Z
Electronic contribution:     -0.80509      -1.56677      -0.20995
Nuclear contribution   :      1.65357       1.85188       0.21907
                        -----------------------------------------
Total Dipole Moment    :      0.84847       0.28510       0.00913
                        -----------------------------------------
Magnitude (a.u.)       :      0.89514
Magnitude (Debye)      :      2.27526

                             ****ORCA TERMINATED NORMALLY****
TOTAL RUN TIME: 0 days 0 hours 0 minutes 7 seconds 220 msec
