                         Program Version 3.0.3 - RELEASE   -
|  1> ! RI PBE def2-SVP def2-SVP/J NBO PAL2
|  2> % maxcore 2000
|  3> % output
|  4>     # printlevel mini
|  5>     print[ P_Basis ] 0
|  6>     print[ P_SCFInfo ] 1
|  7>     print[ P_SCFIterInfo ] 1
|  8>     print[ P_OrbEn ] 0
|  9>     print[ P_Cartesian ] 0
| 10> end
| 11> *xyz 0 1
| 12>  C        0.9285860000     0.2592790000     0.2659310000
| 13>  C        2.2129060000    -0.3004320000    -0.2953120000
| 14>  O        1.9652860000    -1.6117360000    -0.7885420000
| 15>  C        2.7984110000    -1.8824770000    -1.8969760000
| 16>  C        3.1504270000    -0.5410950000    -2.4735750000
| 17>  O        2.0184350000     0.2979900000    -2.6565940000
| 18>  C        2.7881490000     0.4476180000    -1.4718200000
| 19>  H        0.5339330000    -0.4032150000     1.0378570000
| 20>  H        0.1861650000     0.3531150000    -0.5279540000
| 21>  H        1.1011630000     1.2418720000     0.7113910000
| 22>  H        2.9880250000    -0.3320250000     0.4886840000
| 23>  H        2.2445010000    -2.5241450000    -2.5872510000
| 24>  H        3.7213480000    -2.4012420000    -1.5959850000
| 25>  H        3.9656390000    -0.4217720000    -3.1801480000
| 26>  H        3.3007360000     1.3954750000    -1.3397150000
| 27> *
| 28>
| 29>                          ****END OF INPUT****
 Total Charge           Charge          ....    0
 Multiplicity           Mult            ....    1
 Number of Electrons    NEL             ....   54
 Basis Dimension        Dim             ....  138

MULLIKEN ATOMIC CHARGES
-----------------------
   0 C :    0.035016
   1 C :    0.127223
   2 O :   -0.348354
   3 C :    0.292302
   4 C :   -0.037108
   5 O :   -0.265093
   6 C :    0.036821
   7 H :    0.035044
   8 H :    0.034597
   9 H :    0.013208
  10 H :    0.001532
  11 H :    0.027507
  12 H :    0.002802
  13 H :    0.026100
  14 H :    0.018405
Sum of atomic charges:   -0.0000000

LOEWDIN ATOMIC CHARGES
----------------------
   0 C :   -0.065070
   1 C :    0.042454
   2 O :   -0.148291
   3 C :    0.060658
   4 C :    0.026969
   5 O :   -0.140864
   6 C :    0.036708
   7 H :    0.033871
   8 H :    0.033784
   9 H :    0.030228
  10 H :    0.012543
  11 H :    0.026887
  12 H :    0.011970
  13 H :    0.019517
  14 H :    0.018635

  Mayer bond orders larger than 0.1
B(  0-C ,  1-C ) :   1.0887 B(  0-C ,  7-H ) :   0.9564 B(  0-C ,  8-H ) :   0.9516
B(  0-C ,  9-H ) :   0.9497 B(  1-C ,  2-O ) :   1.0081 B(  1-C ,  6-C ) :   0.9870
B(  1-C , 10-H ) :   0.8995 B(  2-O ,  3-C ) :   1.0210 B(  3-C ,  4-C ) :   1.0179
B(  3-C , 11-H ) :   0.9215 B(  3-C , 12-H ) :   0.9136 B(  4-C ,  5-O ) :   0.9849
B(  4-C ,  6-C ) :   1.0418 B(  4-C , 13-H ) :   0.9490 B(  5-O ,  6-C ) :   0.9690
B(  6-C , 14-H ) :   0.9506

FINAL SINGLE POINT ENERGY      -345.070816900561

DIPOLE MOMENT
-------------
                                X             Y             Z
Electronic contribution:      0.69387      -0.56533      -3.20437
Nuclear contribution   :      0.08169       0.71966       3.37502
                        -----------------------------------------
Total Dipole Moment    :      0.77556       0.15433       0.17065
                        -----------------------------------------
Magnitude (a.u.)       :      0.80897
Magnitude (Debye)      :      2.05625

                             ****ORCA TERMINATED NORMALLY****
TOTAL RUN TIME: 0 days 0 hours 0 minutes 6 seconds 698 msec
