                         Program Version 3.0.3 - RELEASE   -
|  1> ! RI PBE def2-SVP def2-SVP/J NBO PAL2
|  2> % maxcore 2000
|  3> % output
|  4>     # printlevel mini
|  5>     print[ P_Basis ] 0
|  6>     print[ P_SCFInfo ] 1
|  7>     print[ P_SCFIterInfo ] 1
|  8>     print[ P_OrbEn ] 0
|  9>     print[ P_Cartesian ] 0
| 10> end
| 11> *xyz 0 1
| 12>  C        1.1067510000     0.0508420000     0.1531810000
| 13>  C        2.2913540000    -0.0943550000    -0.4269890000
| 14>  O        2.6685200000    -1.2234130000    -1.0886490000
| 15>  C        4.0804680000    -1.2429140000    -1.2914430000
| 16>  C        4.5519720000     0.1533940000    -1.0089340000
| 17>  O        3.8781760000     1.1193680000    -1.7908010000
| 18>  C        3.4055360000     0.8736500000    -0.4623980000
| 19>  H        0.3814510000    -0.7514970000     0.1624720000
| 20>  H        0.8477390000     0.9948410000     0.6111840000
| 21>  H        4.2714330000    -1.5598180000    -2.3192150000
| 22>  H        4.5443720000    -1.9552690000    -0.5995820000
| 23>  H        5.5830310000     0.3615110000    -0.7430200000
| 24>  H        3.4674980000     1.6986710000     0.2364050000
| 25> *
| 26>
| 27>                          ****END OF INPUT****
 Total Charge           Charge          ....    0
 Multiplicity           Mult            ....    1
 Number of Electrons    NEL             ....   52
 Basis Dimension        Dim             ....  128

MULLIKEN ATOMIC CHARGES
-----------------------
   0 C :   -0.098677
   1 C :    0.148875
   2 O :   -0.280021
   3 C :    0.295572
   4 C :   -0.018249
   5 O :   -0.256920
   6 C :    0.066154
   7 H :    0.023855
   8 H :    0.011755
   9 H :    0.032832
  10 H :    0.025628
  11 H :    0.028844
  12 H :    0.020352
Sum of atomic charges:    0.0000000

LOEWDIN ATOMIC CHARGES
----------------------
   0 C :   -0.121924
   1 C :    0.016647
   2 O :   -0.078254
   3 C :    0.074953
   4 C :    0.031075
   5 O :   -0.134143
   6 C :    0.045993
   7 H :    0.031681
   8 H :    0.030702
   9 H :    0.030770
  10 H :    0.023520
  11 H :    0.022582
  12 H :    0.026398

  Mayer bond orders larger than 0.1
B(  0-C ,  1-C ) :   1.9159 B(  0-C ,  7-H ) :   0.9203 B(  0-C ,  8-H ) :   0.9294
B(  1-C ,  2-O ) :   1.1094 B(  1-C ,  6-C ) :   0.9512 B(  2-O ,  3-C ) :   0.9818
B(  3-C ,  4-C ) :   1.0354 B(  3-C ,  9-H ) :   0.9199 B(  3-C , 10-H ) :   0.9240
B(  4-C ,  5-O ) :   0.9846 B(  4-C ,  6-C ) :   1.0123 B(  4-C , 11-H ) :   0.9393
B(  5-O ,  6-C ) :   0.9518 B(  6-C , 12-H ) :   0.9659

FINAL SINGLE POINT ENERGY      -343.856152785035

DIPOLE MOMENT
-------------
                                X             Y             Z
Electronic contribution:      0.57659       0.67516      -1.85777
Nuclear contribution   :      0.16554      -0.79203       2.38487
                        -----------------------------------------
Total Dipole Moment    :      0.74213      -0.11687       0.52710
                        -----------------------------------------
Magnitude (a.u.)       :      0.91774
Magnitude (Debye)      :      2.33272

                             ****ORCA TERMINATED NORMALLY****
TOTAL RUN TIME: 0 days 0 hours 0 minutes 6 seconds 173 msec
