                         Program Version 3.0.3 - RELEASE   -
|  1> ! RI PBE def2-SVP def2-SVP/J NBO PAL2
|  2> % maxcore 2000
|  3> % output
|  4>     # printlevel mini
|  5>     print[ P_Basis ] 0
|  6>     print[ P_SCFInfo ] 1
|  7>     print[ P_SCFIterInfo ] 1
|  8>     print[ P_OrbEn ] 0
|  9>     print[ P_Cartesian ] 0
| 10> end
| 11> *xyz 0 1
| 12>  C        0.9436480000     0.2072460000     0.0863630000
| 13>  C        2.2622140000     0.0484790000     0.0825620000
| 14>  O        3.1013680000     1.1468560000     0.0767220000
| 15>  C        4.3777560000     0.6763280000     0.0739420000
| 16>  C        4.4618450000    -0.6558880000     0.0774680000
| 17>  C        3.1016370000    -1.1675100000     0.0833190000
| 18>  C        2.6877710000    -2.4396800000     0.0882850000
| 19>  H        0.5020430000     1.1942330000     0.0849750000
| 20>  H        0.2927830000    -0.6552330000     0.0909220000
| 21>  H        5.1425210000     1.4384350000     0.0693000000
| 22>  H        5.3671100000    -1.2415000000     0.0762150000
| 23>  H        3.3992180000    -3.2556790000     0.0883140000
| 24>  H        1.6358570000    -2.6959960000     0.0924130000
| 25> *
| 26>
| 27>                          ****END OF INPUT****
 Total Charge           Charge          ....    0
 Multiplicity           Mult            ....    1
 Number of Electrons    NEL             ....   50
 Basis Dimension        Dim             ....  128

MULLIKEN ATOMIC CHARGES
-----------------------
   0 C :   -0.087950
   1 C :    0.131903
   2 O :   -0.210410
   3 C :    0.151225
   4 C :   -0.019909
   5 C :    0.021063
   6 C :   -0.068389
   7 H :    0.030617
   8 H :    0.022168
   9 H :    0.012813
  10 H :   -0.014120
  11 H :    0.017052
  12 H :    0.013937
Sum of atomic charges:   -0.0000000

LOEWDIN ATOMIC CHARGES
----------------------
   0 C :   -0.080794
   1 C :    0.046420
   2 O :   -0.023723
   3 C :    0.060709
   4 C :   -0.086354
   5 C :   -0.042961
   6 C :   -0.054354
   7 H :    0.035408
   8 H :    0.034213
   9 H :    0.026134
  10 H :    0.033448
  11 H :    0.027480
  12 H :    0.024374

  Mayer bond orders larger than 0.1
B(  0-C ,  1-C ) :   1.9216 B(  0-C ,  6-C ) :   0.1504 B(  0-C ,  7-H ) :   0.9185
B(  0-C ,  8-H ) :   0.9219 B(  1-C ,  2-O ) :   1.0556 B(  1-C ,  5-C ) :   0.9849
B(  2-O ,  3-C ) :   1.1024 B(  3-C ,  4-C ) :   1.6071 B(  3-C ,  6-C ) :   0.1036
B(  3-C ,  9-H ) :   0.9939 B(  4-C ,  5-C ) :   1.0909 B(  4-C , 10-H ) :   0.9991
B(  5-C ,  6-C ) :   1.8482 B(  6-C , 11-H ) :   0.9311 B(  6-C , 12-H ) :   0.9299

FINAL SINGLE POINT ENERGY      -306.806752390670

DIPOLE MOMENT
-------------
                                X             Y             Z
Electronic contribution:      1.68356       3.11132      -0.01425
Nuclear contribution   :     -1.43426      -3.26209       0.01393
                        -----------------------------------------
Total Dipole Moment    :      0.24931      -0.15077      -0.00032
                        -----------------------------------------
Magnitude (a.u.)       :      0.29135
Magnitude (Debye)      :      0.74056

                             ****ORCA TERMINATED NORMALLY****
TOTAL RUN TIME: 0 days 0 hours 0 minutes 6 seconds 804 msec
