                         Program Version 3.0.3 - RELEASE   -
|  1> ! RI PBE def2-SVP def2-SVP/J NBO PAL2
|  2> % maxcore 2000
|  3> % output
|  4>     # printlevel mini
|  5>     print[ P_Basis ] 0
|  6>     print[ P_SCFInfo ] 1
|  7>     print[ P_SCFIterInfo ] 1
|  8>     print[ P_OrbEn ] 0
|  9>     print[ P_Cartesian ] 0
| 10> end
| 11> *xyz 0 1
| 12>  C        1.0797680000    -0.0448110000     0.0950570000
| 13>  C        2.5735780000    -0.1181160000    -0.1129670000
| 14>  O        2.8657220000    -1.2584290000    -0.9559830000
| 15>  C        3.3226260000    -0.7711620000    -2.1329430000
| 16>  C        3.4959130000     0.5436480000    -2.1759730000
| 17>  C        3.1682610000     1.1192700000    -0.8263510000
| 18>  C        4.3805500000     1.7093180000    -0.1147210000
| 19>  H        0.7009440000    -0.9752710000     0.5217240000
| 20>  H        0.5737540000     0.1324560000    -0.8572860000
| 21>  H        0.8330360000     0.7742970000     0.7757020000
| 22>  H        3.0811950000    -0.3026730000     0.8386430000
| 23>  H        3.4962680000    -1.5172330000    -2.8970070000
| 24>  H        3.8573090000     1.1054880000    -3.0240790000
| 25>  H        2.3977240000     1.8965950000    -0.9019520000
| 26>  H        5.1654580000     0.9568860000    -0.0041570000
| 27>  H        4.1133630000     2.0761920000     0.8808230000
| 28>  H        4.7971420000     2.5472250000    -0.6791200000
| 29> *
| 30>
| 31>                          ****END OF INPUT****
 Total Charge           Charge          ....    0
 Multiplicity           Mult            ....    1
 Number of Electrons    NEL             ....   54
 Basis Dimension        Dim             ....  148

MULLIKEN ATOMIC CHARGES
-----------------------
   0 C :    0.039317
   1 C :    0.099272
   2 O :   -0.277898
   3 C :    0.142039
   4 C :   -0.087311
   5 C :   -0.112418
   6 C :    0.054518
   7 H :    0.029983
   8 H :    0.024084
   9 H :    0.022438
  10 H :    0.004362
  11 H :    0.005156
  12 H :   -0.010027
  13 H :    0.012923
  14 H :    0.022861
  15 H :    0.014559
  16 H :    0.016143
Sum of atomic charges:   -0.0000000

LOEWDIN ATOMIC CHARGES
----------------------
   0 C :   -0.067527
   1 C :    0.075148
   2 O :   -0.089127
   3 C :    0.037170
   4 C :   -0.114458
   5 C :   -0.047511
   6 C :   -0.057303
   7 H :    0.031451
   8 H :    0.031643
   9 H :    0.030797
  10 H :    0.019673
  11 H :    0.021068
  12 H :    0.024020
  13 H :    0.027817
  14 H :    0.027237
  15 H :    0.022750
  16 H :    0.027150

  Mayer bond orders larger than 0.1
B(  0-C ,  1-C ) :   1.0880 B(  0-C ,  7-H ) :   0.9532 B(  0-C ,  8-H ) :   0.9495
B(  0-C ,  9-H ) :   0.9531 B(  1-C ,  2-O ) :   0.9488 B(  1-C ,  5-C ) :   1.0208
B(  1-C , 10-H ) :   0.9211 B(  2-O ,  3-C ) :   1.1168 B(  2-O ,  4-C ) :   0.1215
B(  3-C ,  4-C ) :   1.7263 B(  3-C , 11-H ) :   0.9876 B(  4-C ,  5-C ) :   1.0241
B(  4-C , 12-H ) :   0.9867 B(  5-C ,  6-C ) :   1.0692 B(  5-C , 13-H ) :   0.9017
B(  6-C , 14-H ) :   0.9586 B(  6-C , 15-H ) :   0.9556 B(  6-C , 16-H ) :   0.9565

FINAL SINGLE POINT ENERGY      -309.228922069403

DIPOLE MOMENT
-------------
                                X             Y             Z
Electronic contribution:      0.58490      -4.36947      -2.91415
Nuclear contribution   :     -0.64814       4.73936       3.00788
                        -----------------------------------------
Total Dipole Moment    :     -0.06324       0.36989       0.09373
                        -----------------------------------------
Magnitude (a.u.)       :      0.38678
Magnitude (Debye)      :      0.98312

                             ****ORCA TERMINATED NORMALLY****
TOTAL RUN TIME: 0 days 0 hours 0 minutes 7 seconds 675 msec
