                         Program Version 3.0.3 - RELEASE   -
|  1> ! RI PBE def2-SVP def2-SVP/J NBO PAL2
|  2> % maxcore 2000
|  3> % output
|  4>     # printlevel mini
|  5>     print[ P_Basis ] 0
|  6>     print[ P_SCFInfo ] 1
|  7>     print[ P_SCFIterInfo ] 1
|  8>     print[ P_OrbEn ] 0
|  9>     print[ P_Cartesian ] 0
| 10> end
| 11> *xyz 0 1
| 12>  C        1.0695620000     0.0212440000     0.0524270000
| 13>  C        2.5474050000    -0.0740930000    -0.2471130000
| 14>  O        2.7796320000    -1.1975760000    -1.1304720000
| 15>  C        3.3781880000    -0.7164340000    -2.2343760000
| 16>  C        3.6107350000     0.6014730000    -2.2290210000
| 17>  C        3.1200280000     1.1274220000    -0.9728300000
| 18>  C        3.1386430000     2.3813470000    -0.5164080000
| 19>  H        0.7093510000    -0.8982220000     0.5173700000
| 20>  H        0.5089780000     0.1983530000    -0.8671930000
| 21>  H        0.8845370000     0.8545350000     0.7333610000
| 22>  H        3.1108310000    -0.2837270000     0.6676860000
| 23>  H        3.5979880000    -1.4544850000    -2.9940560000
| 24>  H        4.0750520000     1.1675220000    -3.0212830000
| 25>  H        3.5610550000     3.1853790000    -1.1063250000
| 26>  H        2.7397960000     2.6392630000     0.4575320000
| 27> *
| 28>
| 29>                          ****END OF INPUT****
 Total Charge           Charge          ....    0
 Multiplicity           Mult            ....    1
 Number of Electrons    NEL             ....   52
 Basis Dimension        Dim             ....  138

MULLIKEN ATOMIC CHARGES
-----------------------
   0 C :    0.040523
   1 C :    0.112773
   2 O :   -0.260974
   3 C :    0.146212
   4 C :   -0.027832
   5 C :   -0.070340
   6 C :   -0.074016
   7 H :    0.033253
   8 H :    0.028669
   9 H :    0.028632
  10 H :    0.035896
  11 H :    0.012902
  12 H :   -0.017878
  13 H :    0.008073
  14 H :    0.004107
Sum of atomic charges:   -0.0000000

LOEWDIN ATOMIC CHARGES
----------------------
   0 C :   -0.057600
   1 C :    0.077087
   2 O :   -0.069297
   3 C :    0.057239
   4 C :   -0.101277
   5 C :   -0.038925
   6 C :   -0.101086
   7 H :    0.032485
   8 H :    0.034928
   9 H :    0.035026
  10 H :    0.034315
  11 H :    0.023974
  12 H :    0.031307
  13 H :    0.023261
  14 H :    0.018562

  Mayer bond orders larger than 0.1
B(  0-C ,  1-C ) :   1.0966 B(  0-C ,  7-H ) :   0.9543 B(  0-C ,  8-H ) :   0.9514
B(  0-C ,  9-H ) :   0.9520 B(  1-C ,  2-O ) :   0.9377 B(  1-C ,  5-C ) :   0.9902
B(  1-C , 10-H ) :   0.9008 B(  2-O ,  3-C ) :   1.1503 B(  2-O ,  4-C ) :   0.1006
B(  3-C ,  4-C ) :   1.5824 B(  3-C ,  6-C ) :   0.1092 B(  3-C , 11-H ) :   0.9824
B(  4-C ,  5-C ) :   1.1233 B(  4-C , 12-H ) :   0.9971 B(  5-C ,  6-C ) :   1.8979
B(  6-C , 13-H ) :   0.9304 B(  6-C , 14-H ) :   0.9342

FINAL SINGLE POINT ENERGY      -308.019741916328

DIPOLE MOMENT
-------------
                                X             Y             Z
Electronic contribution:      2.71859      -3.02141      -2.34945
Nuclear contribution   :     -2.79596       2.98967       2.35107
                        -----------------------------------------
Total Dipole Moment    :     -0.07738      -0.03174       0.00163
                        -----------------------------------------
Magnitude (a.u.)       :      0.08365
Magnitude (Debye)      :      0.21262

                             ****ORCA TERMINATED NORMALLY****
TOTAL RUN TIME: 0 days 0 hours 0 minutes 7 seconds 636 msec
