                         Program Version 3.0.3 - RELEASE   -
|  1> ! RI PBE def2-SVP def2-SVP/J NBO PAL2
|  2> % maxcore 2000
|  3> % output
|  4>     # printlevel mini
|  5>     print[ P_Basis ] 0
|  6>     print[ P_SCFInfo ] 1
|  7>     print[ P_SCFIterInfo ] 1
|  8>     print[ P_OrbEn ] 0
|  9>     print[ P_Cartesian ] 0
| 10> end
| 11> *xyz 0 1
| 12>  C        1.0157790000     0.1422310000     0.1101180000
| 13>  C        2.4836890000    -0.0586540000    -0.1472030000
| 14>  O        3.2952900000     1.0092760000     0.3744830000
| 15>  C        4.1867150000     0.0811980000     1.0223120000
| 16>  C        5.5701290000     0.1073720000     0.4229930000
| 17>  C        3.2511820000    -1.0983900000     0.6806800000
| 18>  C        3.7870300000    -2.3281120000    -0.0119150000
| 19>  H        0.6567110000     1.0410700000    -0.3969170000
| 20>  H        0.8226400000     0.2509680000     1.1799380000
| 21>  H        0.4427430000    -0.7105340000    -0.2654760000
| 22>  H        2.6629110000    -0.1756120000    -1.2264350000
| 23>  H        4.2476280000     0.3013860000     2.0946470000
| 24>  H        5.5471040000    -0.0834280000    -0.6516820000
| 25>  H        6.2132650000    -0.6402500000     0.8960410000
| 26>  H        6.0196060000     1.0902830000     0.5811980000
| 27>  H        2.6707690000    -1.3905320000     1.5602970000
| 28>  H        4.3572100000    -2.0747800000    -0.9083860000
| 29>  H        2.9675560000    -2.9845090000    -0.3177000000
| 30>  H        4.4391540000    -2.9069620000     0.6475170000
| 31> *
| 32>
| 33>                          ****END OF INPUT****
 Total Charge           Charge          ....    0
 Multiplicity           Mult            ....    1
 Number of Electrons    NEL             ....   56
 Basis Dimension        Dim             ....  158

MULLIKEN ATOMIC CHARGES
-----------------------
   0 C :    0.058355
   1 C :    0.081237
   2 O :   -0.341682
   3 C :    0.072120
   4 C :    0.060086
   5 C :   -0.162872
   6 C :    0.064568
   7 H :    0.029293
   8 H :    0.010828
   9 H :    0.018906
  10 H :   -0.008318
  11 H :    0.000578
  12 H :    0.009100
  13 H :    0.017154
  14 H :    0.031370
  15 H :   -0.001834
  16 H :    0.011322
  17 H :    0.025535
  18 H :    0.024255
Sum of atomic charges:    0.0000000

LOEWDIN ATOMIC CHARGES
----------------------
   0 C :   -0.072143
   1 C :    0.066636
   2 O :   -0.178351
   3 C :    0.067767
   4 C :   -0.075711
   5 C :   -0.052624
   6 C :   -0.064983
   7 H :    0.033615
   8 H :    0.025570
   9 H :    0.031785
  10 H :    0.005909
  11 H :    0.009324
  12 H :    0.026167
  13 H :    0.030689
  14 H :    0.034560
  15 H :    0.025526
  16 H :    0.024449
  17 H :    0.031479
  18 H :    0.030335

  Mayer bond orders larger than 0.1
B(  0-C ,  1-C ) :   1.0995 B(  0-C ,  7-H ) :   0.9506 B(  0-C ,  8-H ) :   0.9456
B(  0-C ,  9-H ) :   0.9485 B(  1-C ,  2-O ) :   1.0398 B(  1-C ,  5-C ) :   1.0459
B(  1-C , 10-H ) :   0.9107 B(  2-O ,  3-C ) :   1.0268 B(  3-C ,  4-C ) :   1.1159
B(  3-C ,  5-C ) :   1.0481 B(  3-C , 11-H ) :   0.9169 B(  4-C , 12-H ) :   0.9382
B(  4-C , 13-H ) :   0.9405 B(  4-C , 14-H ) :   0.9485 B(  5-C ,  6-C ) :   1.1141
B(  5-C , 15-H ) :   0.8999 B(  6-C , 16-H ) :   0.9408 B(  6-C , 17-H ) :   0.9522
B(  6-C , 18-H ) :   0.9506

FINAL SINGLE POINT ENERGY      -310.421486093124

DIPOLE MOMENT
-------------
                                X             Y             Z
Electronic contribution:     -0.52255       3.70603       0.88610
Nuclear contribution   :      0.53353      -4.36947      -0.84308
                        -----------------------------------------
Total Dipole Moment    :      0.01098      -0.66345       0.04302
                        -----------------------------------------
Magnitude (a.u.)       :      0.66493
Magnitude (Debye)      :      1.69012

                             ****ORCA TERMINATED NORMALLY****
TOTAL RUN TIME: 0 days 0 hours 0 minutes 8 seconds 410 msec
