                         Program Version 3.0.3 - RELEASE   -
|  1> ! RI PBE def2-SVP def2-SVP/J NBO PAL2
|  2> % maxcore 2000
|  3> % output
|  4>     # printlevel mini
|  5>     print[ P_Basis ] 0
|  6>     print[ P_SCFInfo ] 1
|  7>     print[ P_SCFIterInfo ] 1
|  8>     print[ P_OrbEn ] 0
|  9>     print[ P_Cartesian ] 0
| 10> end
| 11> *xyz 0 1
| 12>  C        1.0647370000     0.1009420000    -0.2422110000
| 13>  C        2.5312850000    -0.0475830000     0.1132230000
| 14>  O        2.7204280000    -1.2226130000     0.8904620000
| 15>  C        3.4793320000    -0.9318280000     2.0504710000
| 16>  C        3.6316290000     0.5506390000     2.0492440000
| 17>  C        3.1002180000     1.0668090000     0.9488990000
| 18>  C        3.0536880000     2.4869770000     0.5164670000
| 19>  H        0.7134820000    -0.7991440000    -0.7498150000
| 20>  H        0.9101180000     0.9507660000    -0.9119260000
| 21>  H        0.4654270000     0.2470470000     0.6594200000
| 22>  H        3.1101220000    -0.1392880000    -0.8228000000
| 23>  H        4.4519070000    -1.4461150000     2.0081600000
| 24>  H        2.9505730000    -1.3102520000     2.9354580000
| 25>  H        4.1289340000     1.1012060000     2.8383900000
| 26>  H        3.5617410000     3.1373030000     1.2294190000
| 27>  H        2.0219140000     2.8365420000     0.4117830000
| 28>  H        3.5294850000     2.6137020000    -0.4618440000
| 29> *
| 30>
| 31>                          ****END OF INPUT****
 Total Charge           Charge          ....    0
 Multiplicity           Mult            ....    1
 Number of Electrons    NEL             ....   54
 Basis Dimension        Dim             ....  148

MULLIKEN ATOMIC CHARGES
-----------------------
   0 C :    0.022332
   1 C :    0.132480
   2 O :   -0.357650
   3 C :    0.284814
   4 C :   -0.167366
   5 C :   -0.148431
   6 C :    0.088972
   7 H :    0.031685
   8 H :    0.017297
   9 H :    0.016477
  10 H :   -0.001789
  11 H :    0.011447
  12 H :    0.011520
  13 H :   -0.018628
  14 H :    0.017941
  15 H :    0.031477
  16 H :    0.027421
Sum of atomic charges:    0.0000000

LOEWDIN ATOMIC CHARGES
----------------------
   0 C :   -0.070994
   1 C :    0.059271
   2 O :   -0.156204
   3 C :    0.072780
   4 C :   -0.064642
   5 C :   -0.048679
   6 C :   -0.056276
   7 H :    0.033559
   8 H :    0.026742
   9 H :    0.027502
  10 H :    0.012168
  11 H :    0.013486
  12 H :    0.016021
  13 H :    0.023550
  14 H :    0.035681
  15 H :    0.037649
  16 H :    0.038384

  Mayer bond orders larger than 0.1
B(  0-C ,  1-C ) :   1.0798 B(  0-C ,  7-H ) :   0.9538 B(  0-C ,  8-H ) :   0.9485
B(  0-C ,  9-H ) :   0.9515 B(  1-C ,  2-O ) :   1.0167 B(  1-C ,  5-C ) :   1.0137
B(  1-C , 10-H ) :   0.8872 B(  2-O ,  3-C ) :   1.0168 B(  3-C ,  4-C ) :   1.0145
B(  3-C , 11-H ) :   0.9145 B(  3-C , 12-H ) :   0.9220 B(  4-C ,  5-C ) :   1.8601
B(  4-C , 13-H ) :   0.9784 B(  5-C ,  6-C ) :   1.1184 B(  6-C , 14-H ) :   0.9434
B(  6-C , 15-H ) :   0.9382 B(  6-C , 16-H ) :   0.9364

FINAL SINGLE POINT ENERGY      -309.226007352250

DIPOLE MOMENT
-------------
                                X             Y             Z
Electronic contribution:      1.90021      -3.55568       1.65936
Nuclear contribution   :     -1.76420       4.19807      -1.59570
                        -----------------------------------------
Total Dipole Moment    :      0.13601       0.64240       0.06366
                        -----------------------------------------
Magnitude (a.u.)       :      0.65972
Magnitude (Debye)      :      1.67687

                             ****ORCA TERMINATED NORMALLY****
TOTAL RUN TIME: 0 days 0 hours 0 minutes 7 seconds 673 msec
