                         Program Version 3.0.3 - RELEASE   -
|  1> ! RI PBE def2-SVP def2-SVP/J NBO PAL2
|  2> % maxcore 2000
|  3> % output
|  4>     # printlevel mini
|  5>     print[ P_Basis ] 0
|  6>     print[ P_SCFInfo ] 1
|  7>     print[ P_SCFIterInfo ] 1
|  8>     print[ P_OrbEn ] 0
|  9>     print[ P_Cartesian ] 0
| 10> end
| 11> *xyz 0 1
| 12>  C        0.9703550000     0.1031900000     0.0365380000
| 13>  C        2.4723120000    -0.0253410000    -0.0369940000
| 14>  O        3.0723020000     1.0481530000     0.6734710000
| 15>  C        4.3623200000     0.6207430000     1.0556170000
| 16>  C        4.1796380000    -0.8316720000     1.4793390000
| 17>  C        3.0591710000    -1.2790870000     0.5796750000
| 18>  C        2.6617590000    -2.5217720000     0.3514330000
| 19>  H        0.6520320000     1.0598290000    -0.3818400000
| 20>  H        0.6354590000     0.0433190000     1.0736010000
| 21>  H        0.4915570000    -0.6963640000    -0.5318740000
| 22>  H        2.7927810000     0.0259400000    -1.0918740000
| 23>  H        4.7149020000     1.2776270000     1.8514890000
| 24>  H        5.0594580000     0.6930750000     0.2070710000
| 25>  H        3.8600610000    -0.8791080000     2.5251670000
| 26>  H        5.0810140000    -1.4375270000     1.3731980000
| 27>  H        3.1490160000    -3.3694690000     0.8200860000
| 28>  H        1.8334650000    -2.7409360000    -0.3137020000
| 29> *
| 30>
| 31>                          ****END OF INPUT****
 Total Charge           Charge          ....    0
 Multiplicity           Mult            ....    1
 Number of Electrons    NEL             ....   54
 Basis Dimension        Dim             ....  148

MULLIKEN ATOMIC CHARGES
-----------------------
   0 C :    0.048665
   1 C :    0.150021
   2 O :   -0.348870
   3 C :    0.181607
   4 C :    0.062425
   5 C :   -0.218939
   6 C :   -0.041768
   7 H :    0.026577
   8 H :    0.018427
   9 H :    0.020775
  10 H :    0.006400
  11 H :    0.016059
  12 H :   -0.000443
  13 H :    0.038007
  14 H :    0.022618
  15 H :    0.007870
  16 H :    0.010570
Sum of atomic charges:    0.0000000

LOEWDIN ATOMIC CHARGES
----------------------
   0 C :   -0.058683
   1 C :    0.050411
   2 O :   -0.151381
   3 C :    0.063759
   4 C :   -0.049537
   5 C :   -0.036868
   6 C :   -0.075859
   7 H :    0.032500
   8 H :    0.029126
   9 H :    0.030683
  10 H :    0.017449
  11 H :    0.020626
  12 H :    0.004773
  13 H :    0.042032
  14 H :    0.035585
  15 H :    0.023594
  16 H :    0.021789

  Mayer bond orders larger than 0.1
B(  0-C ,  1-C ) :   1.0938 B(  0-C ,  7-H ) :   0.9513 B(  0-C ,  8-H ) :   0.9545
B(  0-C ,  9-H ) :   0.9504 B(  1-C ,  2-O ) :   1.0133 B(  1-C ,  5-C ) :   0.9821
B(  1-C , 10-H ) :   0.8874 B(  2-O ,  3-C ) :   1.0108 B(  3-C ,  4-C ) :   1.1052
B(  3-C , 11-H ) :   0.9424 B(  3-C , 12-H ) :   0.9216 B(  4-C ,  5-C ) :   1.0649
B(  4-C , 13-H ) :   0.8988 B(  4-C , 14-H ) :   0.9150 B(  5-C ,  6-C ) :   2.0259
B(  6-C , 15-H ) :   0.9312 B(  6-C , 16-H ) :   0.9341

FINAL SINGLE POINT ENERGY      -309.219979844244

DIPOLE MOMENT
-------------
                                X             Y             Z
Electronic contribution:      1.44919       1.78642       0.36790
Nuclear contribution   :     -1.22739      -2.13608      -0.35138
                        -----------------------------------------
Total Dipole Moment    :      0.22181      -0.34966       0.01652
                        -----------------------------------------
Magnitude (a.u.)       :      0.41441
Magnitude (Debye)      :      1.05333

                             ****ORCA TERMINATED NORMALLY****
TOTAL RUN TIME: 0 days 0 hours 0 minutes 8 seconds 119 msec
