                         Program Version 3.0.3 - RELEASE   -
|  1> ! RI PBE def2-SVP def2-SVP/J NBO PAL2
|  2> % maxcore 2000
|  3> % output
|  4>     # printlevel mini
|  5>     print[ P_Basis ] 0
|  6>     print[ P_SCFInfo ] 1
|  7>     print[ P_SCFIterInfo ] 1
|  8>     print[ P_OrbEn ] 0
|  9>     print[ P_Cartesian ] 0
| 10> end
| 11> *xyz 0 1
| 12>  C        0.9071460000    -0.1543780000    -0.0323760000
| 13>  C        2.3745510000     0.0123250000    -0.0362970000
| 14>  C        3.1973300000     1.0953590000    -0.0348660000
| 15>  O        2.8893280000     2.4150670000    -0.0290940000
| 16>  C        4.5375340000     0.6117130000    -0.0407520000
| 17>  C        4.4320410000    -0.7360490000    -0.0453840000
| 18>  O        3.1394770000    -1.1181280000    -0.0427930000
| 19>  H        0.4114510000     0.8192690000    -0.0275440000
| 20>  H        0.5630450000    -0.7012040000     0.8506670000
| 21>  H        0.5576670000    -0.6951520000    -0.9170300000
| 22>  H        1.9341720000     2.5187910000    -0.0256340000
| 23>  H        5.4397480000     1.2013950000    -0.0413630000
| 24>  H        5.1617090000    -1.5286980000    -0.0505440000
| 25> *
| 26>
| 27>                          ****END OF INPUT****
 Total Charge           Charge          ....    0
 Multiplicity           Mult            ....    1
 Number of Electrons    NEL             ....   52
 Basis Dimension        Dim             ....  128

MULLIKEN ATOMIC CHARGES
-----------------------
   0 C :    0.090940
   1 C :   -0.104098
   2 C :    0.068580
   3 O :   -0.162919
   4 C :   -0.046411
   5 C :    0.114651
   6 O :   -0.183856
   7 H :   -0.004542
   8 H :    0.041363
   9 H :    0.041327
  10 H :    0.162200
  11 H :   -0.020691
  12 H :    0.003456
Sum of atomic charges:   -0.0000000

LOEWDIN ATOMIC CHARGES
----------------------
   0 C :   -0.066022
   1 C :   -0.064128
   2 C :   -0.023948
   3 O :   -0.035931
   4 C :   -0.096234
   5 C :    0.015355
   6 O :    0.021350
   7 H :    0.031491
   8 H :    0.041040
   9 H :    0.041040
  10 H :    0.083495
  11 H :    0.032959
  12 H :    0.019533

  Mayer bond orders larger than 0.1
B(  0-C ,  1-C ) :   1.1401 B(  0-C ,  7-H ) :   0.9379 B(  0-C ,  8-H ) :   0.9335
B(  0-C ,  9-H ) :   0.9335 B(  1-C ,  2-C ) :   1.4715 B(  1-C ,  5-C ) :   0.1054
B(  1-C ,  6-O ) :   1.1014 B(  2-C ,  3-O ) :   1.2174 B(  2-C ,  4-C ) :   1.2150
B(  3-O , 10-H ) :   0.9685 B(  4-C ,  5-C ) :   1.5011 B(  4-C , 11-H ) :   1.0105
B(  5-C ,  6-O ) :   1.1576 B(  5-C , 12-H ) :   1.0021

FINAL SINGLE POINT ENERGY      -343.904021147118

DIPOLE MOMENT
-------------
                                X             Y             Z
Electronic contribution:      3.22906       0.38738      -0.00860
Nuclear contribution   :     -3.79743      -0.33130       0.01061
                        -----------------------------------------
Total Dipole Moment    :     -0.56837       0.05609       0.00201
                        -----------------------------------------
Magnitude (a.u.)       :      0.57113
Magnitude (Debye)      :      1.45170

                             ****ORCA TERMINATED NORMALLY****
TOTAL RUN TIME: 0 days 0 hours 0 minutes 5 seconds 945 msec
