                         Program Version 3.0.3 - RELEASE   -
|  1> ! RI PBE def2-SVP def2-SVP/J NBO PAL2
|  2> % maxcore 2000
|  3> % output
|  4>     # printlevel mini
|  5>     print[ P_Basis ] 0
|  6>     print[ P_SCFInfo ] 1
|  7>     print[ P_SCFIterInfo ] 1
|  8>     print[ P_OrbEn ] 0
|  9>     print[ P_Cartesian ] 0
| 10> end
| 11> *xyz 0 1
| 12>  C        1.1857580000     0.0791420000     0.3264120000
| 13>  C        2.6579660000    -0.0153760000    -0.0059370000
| 14>  O        3.3409590000     1.0749510000     0.6007330000
| 15>  C        4.5056540000     0.5948320000     1.2468240000
| 16>  C        4.1380400000    -0.8074910000     1.6934990000
| 17>  C        3.3407850000    -1.3016470000     0.4996260000
| 18>  O        4.2657070000    -1.8318980000    -0.4326050000
| 19>  H        0.8020540000     1.0633050000     0.0524150000
| 20>  H        1.0214950000    -0.0618900000     1.3977230000
| 21>  H        0.6135010000    -0.6772270000    -0.2170680000
| 22>  H        2.7959050000     0.0440240000    -1.0961750000
| 23>  H        4.7407880000     1.2758910000     2.0666710000
| 24>  H        5.3549170000     0.5708480000     0.5515800000
| 25>  H        3.5022860000    -0.7673330000     2.5812930000
| 26>  H        4.9926820000    -1.4534260000     1.8955900000
| 27>  H        2.5991290000    -2.0618030000     0.7738650000
| 28>  H        3.8039750000    -2.0101010000    -1.2558470000
| 29> *
| 30>
| 31>                          ****END OF INPUT****
 Total Charge           Charge          ....    0
 Multiplicity           Mult            ....    1
 Number of Electrons    NEL             ....   56
 Basis Dimension        Dim             ....  148

MULLIKEN ATOMIC CHARGES
-----------------------
   0 C :    0.056116
   1 C :    0.100999
   2 O :   -0.354227
   3 C :    0.191956
   4 C :    0.016442
   5 C :   -0.002895
   6 O :   -0.257639
   7 H :    0.029772
   8 H :    0.011991
   9 H :    0.009785
  10 H :   -0.015831
  11 H :    0.014749
  12 H :    0.006431
  13 H :    0.018744
  14 H :    0.024987
  15 H :   -0.004698
  16 H :    0.153317
Sum of atomic charges:    0.0000000

LOEWDIN ATOMIC CHARGES
----------------------
   0 C :   -0.069260
   1 C :    0.034593
   2 O :   -0.154854
   3 C :    0.066524
   4 C :   -0.056887
   5 C :    0.036870
   6 O :   -0.111965
   7 H :    0.033196
   8 H :    0.025820
   9 H :    0.026287
  10 H :    0.008522
  11 H :    0.018462
  12 H :    0.006950
  13 H :    0.029963
  14 H :    0.034293
  15 H :    0.006028
  16 H :    0.065457

  Mayer bond orders larger than 0.1
B(  0-C ,  1-C ) :   1.0764 B(  0-C ,  7-H ) :   0.9498 B(  0-C ,  8-H ) :   0.9503
B(  0-C ,  9-H ) :   0.9479 B(  1-C ,  2-O ) :   1.0197 B(  1-C ,  5-C ) :   0.9887
B(  1-C , 10-H ) :   0.9048 B(  2-O ,  3-C ) :   1.0051 B(  3-C ,  4-C ) :   1.0835
B(  3-C , 11-H ) :   0.9450 B(  3-C , 12-H ) :   0.9332 B(  4-C ,  5-C ) :   1.0580
B(  4-C , 13-H ) :   0.9238 B(  4-C , 14-H ) :   0.9196 B(  5-C ,  6-O ) :   1.0787
B(  5-C , 15-H ) :   0.9313 B(  6-O , 16-H ) :   0.9787

FINAL SINGLE POINT ENERGY      -346.297312700578

DIPOLE MOMENT
-------------
                                X             Y             Z
Electronic contribution:      2.69225       0.28646      -1.39140
Nuclear contribution   :     -3.06990      -0.73666       1.29838
                        -----------------------------------------
Total Dipole Moment    :     -0.37765      -0.45020      -0.09302
                        -----------------------------------------
Magnitude (a.u.)       :      0.59494
Magnitude (Debye)      :      1.51221

                             ****ORCA TERMINATED NORMALLY****
TOTAL RUN TIME: 0 days 0 hours 0 minutes 7 seconds 705 msec
