                         Program Version 3.0.3 - RELEASE   -
|  1> ! RI PBE def2-SVP def2-SVP/J NBO PAL2
|  2> % maxcore 2000
|  3> % output
|  4>     # printlevel mini
|  5>     print[ P_Basis ] 0
|  6>     print[ P_SCFInfo ] 1
|  7>     print[ P_SCFIterInfo ] 1
|  8>     print[ P_OrbEn ] 0
|  9>     print[ P_Cartesian ] 0
| 10> end
| 11> *xyz 0 1
| 12>  C        1.1676270000    -0.0162160000     0.0314500000
| 13>  C        2.4645640000     0.0579730000    -0.2143920000
| 14>  O        3.2429220000    -1.0435870000    -0.4966260000
| 15>  C        4.5033990000    -0.5862850000    -0.6900440000
| 16>  C        4.6555670000     0.7387600000    -0.5634910000
| 17>  C        3.3384470000     1.2773430000    -0.2428870000
| 18>  O        2.9801750000     2.4140190000    -0.0382790000
| 19>  H        0.6314920000    -0.9560780000     0.0262390000
| 20>  H        0.6390400000     0.9041070000     0.2432520000
| 21>  H        5.2246440000    -1.3574960000    -0.9219460000
| 22>  H        5.5677330000     1.3012600000    -0.6754850000
| 23> *
| 24>
| 25>                          ****END OF INPUT****
 Total Charge           Charge          ....    0
 Multiplicity           Mult            ....    1
 Number of Electrons    NEL             ....   50
 Basis Dimension        Dim             ....  118

MULLIKEN ATOMIC CHARGES
-----------------------
   0 C :   -0.035162
   1 C :    0.053478
   2 O :   -0.194622
   3 C :    0.168893
   4 C :   -0.081893
   5 C :    0.111439
   6 O :   -0.145256
   7 H :    0.043911
   8 H :    0.049923
   9 H :    0.025968
  10 H :    0.003321
Sum of atomic charges:   -0.0000000

LOEWDIN ATOMIC CHARGES
----------------------
   0 C :   -0.014348
   1 C :    0.003452
   2 O :   -0.012061
   3 C :    0.091139
   4 C :   -0.115005
   5 C :    0.015878
   6 O :   -0.128484
   7 H :    0.040930
   8 H :    0.048334
   9 H :    0.030430
  10 H :    0.039735

  Mayer bond orders larger than 0.1
B(  0-C ,  1-C ) :   1.9501 B(  0-C ,  7-H ) :   0.9245 B(  0-C ,  8-H ) :   0.9107
B(  1-C ,  2-O ) :   1.0481 B(  1-C ,  5-C ) :   0.8823 B(  2-O ,  3-C ) :   1.1217
B(  3-C ,  4-C ) :   1.5703 B(  3-C ,  9-H ) :   0.9912 B(  4-C ,  5-C ) :   1.0568
B(  4-C , 10-H ) :   1.0063 B(  5-C ,  6-O ) :   2.1305

FINAL SINGLE POINT ENERGY      -342.694083702919

DIPOLE MOMENT
-------------
                                X             Y             Z
Electronic contribution:      0.87767       0.63732      -0.09987
Nuclear contribution   :     -0.61476      -1.63579      -0.07018
                        -----------------------------------------
Total Dipole Moment    :      0.26292      -0.99847      -0.17005
                        -----------------------------------------
Magnitude (a.u.)       :      1.04642
Magnitude (Debye)      :      2.65978

                             ****ORCA TERMINATED NORMALLY****
TOTAL RUN TIME: 0 days 0 hours 0 minutes 5 seconds 784 msec
