                         Program Version 3.0.3 - RELEASE   -
|  1> ! RI PBE def2-SVP def2-SVP/J NBO PAL2
|  2> % maxcore 2000
|  3> % output
|  4>     # printlevel mini
|  5>     print[ P_Basis ] 0
|  6>     print[ P_SCFInfo ] 1
|  7>     print[ P_SCFIterInfo ] 1
|  8>     print[ P_OrbEn ] 0
|  9>     print[ P_Cartesian ] 0
| 10> end
| 11> *xyz 0 1
| 12>  C        1.0697070000    -0.0438720000     0.0634170000
| 13>  C        2.3541750000    -0.0346430000    -0.2782760000
| 14>  O        3.0473170000     1.0599700000    -0.6585200000
| 15>  C        4.4155930000     0.7402860000    -0.9651160000
| 16>  C        4.6012460000    -0.7519770000    -0.7429850000
| 17>  C        3.2351470000    -1.2332790000    -0.2957900000
| 18>  O        2.9256970000    -2.3578320000    -0.0116800000
| 19>  H        0.4647300000     0.8526470000     0.0622380000
| 20>  H        0.6301030000    -0.9895100000     0.3500100000
| 21>  H        5.0480580000     1.3464380000    -0.3134770000
| 22>  H        4.5988540000     1.0393830000    -1.9990930000
| 23>  H        5.3325810000    -0.9899970000     0.0317860000
| 24>  H        4.8915900000    -1.2946340000    -1.6446040000
| 25> *
| 26>
| 27>                          ****END OF INPUT****
 Total Charge           Charge          ....    0
 Multiplicity           Mult            ....    1
 Number of Electrons    NEL             ....   52
 Basis Dimension        Dim             ....  128

MULLIKEN ATOMIC CHARGES
-----------------------
   0 C :   -0.061770
   1 C :    0.067347
   2 O :   -0.274796
   3 C :    0.212126
   4 C :   -0.047151
   5 C :   -0.019851
   6 O :   -0.124887
   7 H :    0.029975
   8 H :    0.034280
   9 H :    0.033885
  10 H :    0.027802
  11 H :    0.062030
  12 H :    0.061011
Sum of atomic charges:   -0.0000000

LOEWDIN ATOMIC CHARGES
----------------------
   0 C :   -0.069216
   1 C :   -0.025575
   2 O :   -0.078019
   3 C :    0.084202
   4 C :   -0.082865
   5 C :    0.043102
   6 O :   -0.102622
   7 H :    0.033486
   8 H :    0.038787
   9 H :    0.024577
  10 H :    0.023276
  11 H :    0.055399
  12 H :    0.055468

  Mayer bond orders larger than 0.1
B(  0-C ,  1-C ) :   1.8855 B(  0-C ,  2-O ) :   0.1067 B(  0-C ,  7-H ) :   0.9267
B(  0-C ,  8-H ) :   0.9157 B(  1-C ,  2-O ) :   1.1238 B(  1-C ,  5-C ) :   0.9260
B(  2-O ,  3-C ) :   0.9584 B(  3-C ,  4-C ) :   1.1099 B(  3-C ,  9-H ) :   0.9417
B(  3-C , 10-H ) :   0.9418 B(  4-C ,  5-C ) :   0.9879 B(  4-C , 11-H ) :   0.9036
B(  4-C , 12-H ) :   0.9027 B(  5-C ,  6-O ) :   2.2108

FINAL SINGLE POINT ENERGY      -343.898064890454

DIPOLE MOMENT
-------------
                                X             Y             Z
Electronic contribution:     -1.37782      -1.52415       0.64167
Nuclear contribution   :      2.16636       2.06408      -0.94591
                        -----------------------------------------
Total Dipole Moment    :      0.78854       0.53992      -0.30424
                        -----------------------------------------
Magnitude (a.u.)       :      1.00293
Magnitude (Debye)      :      2.54926

                             ****ORCA TERMINATED NORMALLY****
TOTAL RUN TIME: 0 days 0 hours 0 minutes 6 seconds 366 msec
