                         Program Version 3.0.3 - RELEASE   -
|  1> ! RI PBE def2-SVP def2-SVP/J NBO PAL2
|  2> % maxcore 2000
|  3> % output
|  4>     # printlevel mini
|  5>     print[ P_Basis ] 0
|  6>     print[ P_SCFInfo ] 1
|  7>     print[ P_SCFIterInfo ] 1
|  8>     print[ P_OrbEn ] 0
|  9>     print[ P_Cartesian ] 0
| 10> end
| 11> *xyz 0 1
| 12>  C        0.8188700000    -0.0398920000     0.0302390000
| 13>  C        2.3223200000     0.0845640000     0.0023620000
| 14>  O        2.8015220000     0.2011280000    -1.3213890000
| 15>  C        3.0193460000     1.1123260000     0.9299830000
| 16>  C        4.1617280000     0.0967800000     1.1308610000
| 17>  C        3.1633760000    -0.9950450000     0.7137550000
| 18>  O        3.5620490000    -2.0767800000    -0.0714050000
| 19>  H        0.3474440000     0.8550780000    -0.3897700000
| 20>  H        0.4492870000    -0.1615520000     1.0509630000
| 21>  H        0.5041920000    -0.9013120000    -0.5631470000
| 22>  H        2.4108240000     0.9926300000    -1.7024640000
| 23>  H        2.4511750000     1.2909200000     1.8454810000
| 24>  H        3.2721260000     2.0694050000     0.4714120000
| 25>  H        4.6253830000     0.0231610000     2.1156970000
| 26>  H        4.9277460000     0.2135160000     0.3639370000
| 27>  H        2.5969400000    -1.3296240000     1.5948970000
| 28>  H        4.0363940000    -2.6991030000     0.4851090000
| 29> *
| 30>
| 31>                          ****END OF INPUT****
 Total Charge           Charge          ....    0
 Multiplicity           Mult            ....    1
 Number of Electrons    NEL             ....   56
 Basis Dimension        Dim             ....  148

MULLIKEN ATOMIC CHARGES
-----------------------
   0 C :    0.096809
   1 C :   -0.197855
   2 O :   -0.236529
   3 C :    0.074860
   4 C :    0.053577
   5 C :    0.091772
   6 O :   -0.218999
   7 H :    0.005007
   8 H :   -0.000719
   9 H :    0.034019
  10 H :    0.150108
  11 H :   -0.000016
  12 H :   -0.004217
  13 H :    0.001050
  14 H :    0.013922
  15 H :   -0.017625
  16 H :    0.154835
Sum of atomic charges:    0.0000000

LOEWDIN ATOMIC CHARGES
----------------------
   0 C :   -0.072784
   1 C :    0.009998
   2 O :   -0.092557
   3 C :   -0.038951
   4 C :   -0.051103
   5 C :    0.037986
   6 O :   -0.096524
   7 H :    0.022918
   8 H :    0.024574
   9 H :    0.034095
  10 H :    0.065660
  11 H :    0.021207
  12 H :    0.017090
  13 H :    0.011661
  14 H :    0.029075
  15 H :    0.005536
  16 H :    0.072118

  Mayer bond orders larger than 0.1
B(  0-C ,  1-C ) :   1.0768 B(  0-C ,  7-H ) :   0.9485 B(  0-C ,  8-H ) :   0.9344
B(  0-C ,  9-H ) :   0.9531 B(  1-C ,  2-O ) :   1.0719 B(  1-C ,  3-C ) :   1.0246
B(  1-C ,  5-C ) :   0.9649 B(  2-O , 10-H ) :   0.9809 B(  3-C ,  4-C ) :   1.1132
B(  3-C , 11-H ) :   0.9197 B(  3-C , 12-H ) :   0.9085 B(  4-C ,  5-C ) :   1.0675
B(  4-C , 13-H ) :   0.9342 B(  4-C , 14-H ) :   0.8957 B(  5-C ,  6-O ) :   1.1819
B(  5-C , 15-H ) :   0.9168 B(  6-O , 16-H ) :   0.9785

FINAL SINGLE POINT ENERGY      -346.276850944686

DIPOLE MOMENT
-------------
                                X             Y             Z
Electronic contribution:      2.35102      -2.47769      -2.75140
Nuclear contribution   :     -2.55565       2.74961       3.38226
                        -----------------------------------------
Total Dipole Moment    :     -0.20463       0.27192       0.63086
                        -----------------------------------------
Magnitude (a.u.)       :      0.71680
Magnitude (Debye)      :      1.82196

                             ****ORCA TERMINATED NORMALLY****
TOTAL RUN TIME: 0 days 0 hours 0 minutes 7 seconds 193 msec
