                         Program Version 3.0.3 - RELEASE   -
|  1> ! RI PBE def2-SVP def2-SVP/J NBO PAL2
|  2> % maxcore 2000
|  3> % output
|  4>     # printlevel mini
|  5>     print[ P_Basis ] 0
|  6>     print[ P_SCFInfo ] 1
|  7>     print[ P_SCFIterInfo ] 1
|  8>     print[ P_OrbEn ] 0
|  9>     print[ P_Cartesian ] 0
| 10> end
| 11> *xyz 0 1
| 12>  C        0.9385580000     0.0244050000     0.3393120000
| 13>  C        2.3846180000     0.1167370000    -0.1120780000
| 14>  O        2.4942200000     0.3161590000    -1.4959050000
| 15>  C        3.2495490000     1.0808780000     0.7345680000
| 16>  C        3.8279190000    -0.1127770000     1.5362190000
| 17>  C        3.2568070000    -1.0146160000     0.4544790000
| 18>  O        3.4962530000    -2.1149910000     0.0566190000
| 19>  H        0.4152860000     0.9413470000     0.0593690000
| 20>  H        0.8585810000    -0.1067230000     1.4214040000
| 21>  H        0.4435190000    -0.8224770000    -0.1424160000
| 22>  H        2.3557670000    -0.5332970000    -1.9284750000
| 23>  H        2.7062000000     1.8362290000     1.3010130000
| 24>  H        4.0028200000     1.5587980000     0.1091230000
| 25>  H        3.3357890000    -0.2718320000     2.4992460000
| 26>  H        4.9072040000    -0.1683500000     1.6805340000
| 27> *
| 28>
| 29>                          ****END OF INPUT****
 Total Charge           Charge          ....    0
 Multiplicity           Mult            ....    1
 Number of Electrons    NEL             ....   54
 Basis Dimension        Dim             ....  138

MULLIKEN ATOMIC CHARGES
-----------------------
   0 C :    0.100050
   1 C :   -0.201656
   2 O :   -0.236850
   3 C :    0.114392
   4 C :   -0.024794
   5 C :    0.021754
   6 O :   -0.119549
   7 H :    0.036169
   8 H :    0.008551
   9 H :    0.018954
  10 H :    0.162786
  11 H :    0.004562
  12 H :    0.023682
  13 H :    0.047800
  14 H :    0.044147
Sum of atomic charges:    0.0000000

LOEWDIN ATOMIC CHARGES
----------------------
   0 C :   -0.058899
   1 C :   -0.018382
   2 O :   -0.090792
   3 C :   -0.026184
   4 C :   -0.063042
   5 C :    0.042492
   6 O :   -0.097874
   7 H :    0.034423
   8 H :    0.029703
   9 H :    0.029335
  10 H :    0.075100
  11 H :    0.023787
  12 H :    0.035029
  13 H :    0.045928
  14 H :    0.039375

  Mayer bond orders larger than 0.1
B(  0-C ,  1-C ) :   1.0274 B(  0-C ,  7-H ) :   0.9501 B(  0-C ,  8-H ) :   0.9411
B(  0-C ,  9-H ) :   0.9472 B(  1-C ,  2-O ) :   1.0891 B(  1-C ,  3-C ) :   1.0384
B(  1-C ,  5-C ) :   0.8880 B(  2-O , 10-H ) :   0.9714 B(  3-C ,  4-C ) :   1.1305
B(  3-C , 11-H ) :   0.9013 B(  3-C , 12-H ) :   0.9010 B(  4-C ,  5-C ) :   1.0096
B(  4-C , 13-H ) :   0.9028 B(  4-C , 14-H ) :   0.9123 B(  5-C ,  6-O ) :   2.2594

FINAL SINGLE POINT ENERGY      -345.091505949260

DIPOLE MOMENT
-------------
                                X             Y             Z
Electronic contribution:      2.73242      -3.75405      -2.88709
Nuclear contribution   :     -3.06491       4.15246       3.35420
                        -----------------------------------------
Total Dipole Moment    :     -0.33249       0.39842       0.46710
                        -----------------------------------------
Magnitude (a.u.)       :      0.69819
Magnitude (Debye)      :      1.77466

                             ****ORCA TERMINATED NORMALLY****
TOTAL RUN TIME: 0 days 0 hours 0 minutes 7 seconds 400 msec
