                         Program Version 3.0.3 - RELEASE   -
|  1> ! RI PBE def2-SVP def2-SVP/J NBO PAL2
|  2> % maxcore 2000
|  3> % output
|  4>     # printlevel mini
|  5>     print[ P_Basis ] 0
|  6>     print[ P_SCFInfo ] 1
|  7>     print[ P_SCFIterInfo ] 1
|  8>     print[ P_OrbEn ] 0
|  9>     print[ P_Cartesian ] 0
| 10> end
| 11> *xyz 0 1
| 12>  C        0.9751310000     0.0721030000    -0.0430610000
| 13>  C        2.4774740000     0.0330450000    -0.1802960000
| 14>  O        2.8354150000    -1.1036920000    -1.0028820000
| 15>  C        3.2847780000    -0.6067430000    -2.1716750000
| 16>  C        3.3992620000     0.7188700000    -2.2296020000
| 17>  C        3.0707040000     1.2743740000    -0.8799640000
| 18>  O        4.1962090000     1.8240340000    -0.2144550000
| 19>  H        0.6000520000    -0.8648110000     0.3713980000
| 20>  H        0.5069920000     0.2323030000    -1.0175880000
| 21>  H        0.6808750000     0.8883290000     0.6210040000
| 22>  H        2.9598560000    -0.1076950000     0.7898170000
| 23>  H        3.5013780000    -1.3506060000    -2.9277430000
| 24>  H        3.7379580000     1.2956900000    -3.0762630000
| 25>  H        2.3370120000     2.0846940000    -0.9012020000
| 26>  H        4.9537040000     1.2703340000    -0.4281860000
| 27> *
| 28>
| 29>                          ****END OF INPUT****
 Total Charge           Charge          ....    0
 Multiplicity           Mult            ....    1
 Number of Electrons    NEL             ....   54
 Basis Dimension        Dim             ....  138

MULLIKEN ATOMIC CHARGES
-----------------------
   0 C :    0.043732
   1 C :    0.082324
   2 O :   -0.267426
   3 C :    0.146237
   4 C :   -0.130161
   5 C :    0.119574
   6 O :   -0.259820
   7 H :    0.032809
   8 H :    0.023558
   9 H :    0.029965
  10 H :    0.009207
  11 H :    0.012779
  12 H :    0.000776
  13 H :    0.007232
  14 H :    0.149214
Sum of atomic charges:    0.0000000

LOEWDIN ATOMIC CHARGES
----------------------
   0 C :   -0.063787
   1 C :    0.053659
   2 O :   -0.079479
   3 C :    0.046490
   4 C :   -0.143875
   5 C :    0.038946
   6 O :   -0.112539
   7 H :    0.032995
   8 H :    0.032183
   9 H :    0.034643
  10 H :    0.023544
  11 H :    0.023137
  12 H :    0.027141
  13 H :    0.023331
  14 H :    0.063610

  Mayer bond orders larger than 0.1
B(  0-C ,  1-C ) :   1.0795 B(  0-C ,  7-H ) :   0.9525 B(  0-C ,  8-H ) :   0.9505
B(  0-C ,  9-H ) :   0.9529 B(  1-C ,  2-O ) :   0.9312 B(  1-C ,  5-C ) :   0.9819
B(  1-C , 10-H ) :   0.9043 B(  2-O ,  3-C ) :   1.1462 B(  2-O ,  4-C ) :   0.1190
B(  3-C ,  4-C ) :   1.6679 B(  3-C , 11-H ) :   0.9853 B(  4-C ,  5-C ) :   1.0412
B(  4-C , 12-H ) :   0.9900 B(  5-C ,  6-O ) :   1.0713 B(  5-C , 13-H ) :   0.9092
B(  6-O , 14-H ) :   0.9797

FINAL SINGLE POINT ENERGY      -345.088951747674

DIPOLE MOMENT
-------------
                                X             Y             Z
Electronic contribution:      3.60636      -0.98402      -1.00332
Nuclear contribution   :     -3.67842       0.76833       0.75947
                        -----------------------------------------
Total Dipole Moment    :     -0.07206      -0.21569      -0.24384
                        -----------------------------------------
Magnitude (a.u.)       :      0.33343
Magnitude (Debye)      :      0.84751

                             ****ORCA TERMINATED NORMALLY****
TOTAL RUN TIME: 0 days 0 hours 0 minutes 6 seconds 911 msec
