                         Program Version 3.0.3 - RELEASE   -
|  1> ! RI PBE def2-SVP def2-SVP/J NBO PAL2
|  2> % maxcore 2000
|  3> % output
|  4>     # printlevel mini
|  5>     print[ P_Basis ] 0
|  6>     print[ P_SCFInfo ] 1
|  7>     print[ P_SCFIterInfo ] 1
|  8>     print[ P_OrbEn ] 0
|  9>     print[ P_Cartesian ] 0
| 10> end
| 11> *xyz 0 1
| 12>  C        0.9697890000     0.1321410000     0.0718960000
| 13>  C        2.4579990000     0.0405080000    -0.1147950000
| 14>  O        3.1803110000     1.0495990000     0.6153240000
| 15>  C        4.1365520000     0.0847320000     1.1015890000
| 16>  C        5.4902600000     0.2221960000     0.4549320000
| 17>  C        3.2489430000    -1.0628780000     0.6028270000
| 18>  O        3.9069350000    -2.0323930000    -0.1623030000
| 19>  H        0.5924230000     1.0828970000    -0.3115050000
| 20>  H        0.7064240000     0.0621140000     1.1300200000
| 21>  H        0.4665380000    -0.6733000000    -0.4711000000
| 22>  H        2.7222020000     0.0728910000    -1.1809060000
| 23>  H        4.2249090000     0.1547850000     2.1911010000
| 24>  H        5.4220540000     0.1426670000    -0.6307350000
| 25>  H        6.1643390000    -0.5600760000     0.8115860000
| 26>  H        5.9185850000     1.1938170000     0.7102140000
| 27>  H        2.6702370000    -1.5185790000     1.4147860000
| 28>  H        3.3144090000    -2.7736100000    -0.3042410000
| 29> *
| 30>
| 31>                          ****END OF INPUT****
 Total Charge           Charge          ....    0
 Multiplicity           Mult            ....    1
 Number of Electrons    NEL             ....   56
 Basis Dimension        Dim             ....  148

MULLIKEN ATOMIC CHARGES
-----------------------
   0 C :    0.061476
   1 C :    0.074862
   2 O :   -0.339938
   3 C :    0.024768
   4 C :    0.073826
   5 C :    0.061452
   6 O :   -0.226551
   7 H :    0.031665
   8 H :    0.009979
   9 H :    0.014981
  10 H :   -0.005213
  11 H :    0.007623
  12 H :    0.018203
  13 H :    0.022021
  14 H :    0.024263
  15 H :   -0.013812
  16 H :    0.160396
Sum of atomic charges:   -0.0000000

LOEWDIN ATOMIC CHARGES
----------------------
   0 C :   -0.072310
   1 C :    0.044587
   2 O :   -0.176262
   3 C :    0.055681
   4 C :   -0.071295
   5 C :    0.029931
   6 O :   -0.099174
   7 H :    0.035339
   8 H :    0.024879
   9 H :    0.030407
  10 H :    0.008151
  11 H :    0.011294
  12 H :    0.030561
  13 H :    0.034112
  14 H :    0.031912
  15 H :    0.007099
  16 H :    0.075090

  Mayer bond orders larger than 0.1
B(  0-C ,  1-C ) :   1.0944 B(  0-C ,  7-H ) :   0.9504 B(  0-C ,  8-H ) :   0.9462
B(  0-C ,  9-H ) :   0.9485 B(  1-C ,  2-O ) :   1.0362 B(  1-C ,  5-C ) :   1.0192
B(  1-C , 10-H ) :   0.8956 B(  2-O ,  3-C ) :   1.0320 B(  3-C ,  4-C ) :   1.0882
B(  3-C ,  5-C ) :   1.0449 B(  3-C , 11-H ) :   0.9192 B(  4-C , 12-H ) :   0.9445
B(  4-C , 13-H ) :   0.9441 B(  4-C , 14-H ) :   0.9502 B(  5-C ,  6-O ) :   1.1668
B(  5-C , 15-H ) :   0.9124 B(  6-O , 16-H ) :   0.9775

FINAL SINGLE POINT ENERGY      -346.277809759572

DIPOLE MOMENT
-------------
                                X             Y             Z
Electronic contribution:      0.71914      -0.52130       0.18550
Nuclear contribution   :     -1.16813      -0.30071      -0.16412
                        -----------------------------------------
Total Dipole Moment    :     -0.44899      -0.82201       0.02138
                        -----------------------------------------
Magnitude (a.u.)       :      0.93688
Magnitude (Debye)      :      2.38136

                             ****ORCA TERMINATED NORMALLY****
TOTAL RUN TIME: 0 days 0 hours 0 minutes 7 seconds 539 msec
