                         Program Version 3.0.3 - RELEASE   -
|  1> ! RI PBE def2-SVP def2-SVP/J NBO PAL2
|  2> % maxcore 2000
|  3> % output
|  4>     # printlevel mini
|  5>     print[ P_Basis ] 0
|  6>     print[ P_SCFInfo ] 1
|  7>     print[ P_SCFIterInfo ] 1
|  8>     print[ P_OrbEn ] 0
|  9>     print[ P_Cartesian ] 0
| 10> end
| 11> *xyz 0 1
| 12>  C        0.8842300000     0.1068500000     0.2778210000
| 13>  C        2.3162390000    -0.0578730000    -0.1625430000
| 14>  O        3.2039270000     0.9753660000     0.3107980000
| 15>  C        4.0546350000     0.0655130000     1.0374940000
| 16>  C        5.4896300000     0.0581400000     0.5765840000
| 17>  C        3.1647570000    -1.0826640000     0.5791440000
| 18>  O        3.1422820000    -2.2623810000     0.7329970000
| 19>  H        0.4551750000     1.0072430000    -0.1660870000
| 20>  H        0.8152060000     0.1891470000     1.3641740000
| 21>  H        0.2956280000    -0.7542170000    -0.0467850000
| 22>  H        2.3829730000    -0.1635540000    -1.2534470000
| 23>  H        3.9893380000     0.2455780000     2.1186990000
| 24>  H        5.5563630000    -0.1434270000    -0.4942180000
| 25>  H        6.0471850000    -0.7123510000     1.1139240000
| 26>  H        5.9542410000     1.0255300000     0.7769350000
| 27> *
| 28>
| 29>                          ****END OF INPUT****
 Total Charge           Charge          ....    0
 Multiplicity           Mult            ....    1
 Number of Electrons    NEL             ....   54
 Basis Dimension        Dim             ....  138

MULLIKEN ATOMIC CHARGES
-----------------------
   0 C :    0.055393
   1 C :    0.009884
   2 O :   -0.328199
   3 C :    0.015225
   4 C :    0.055097
   5 C :    0.011574
   6 O :   -0.101997
   7 H :    0.041835
   8 H :    0.020888
   9 H :    0.039541
  10 H :    0.040752
  11 H :    0.038506
  12 H :    0.019257
  13 H :    0.039553
  14 H :    0.042691
Sum of atomic charges:   -0.0000000

LOEWDIN ATOMIC CHARGES
----------------------
   0 C :   -0.062062
   1 C :    0.026255
   2 O :   -0.172444
   3 C :    0.027203
   4 C :   -0.061919
   5 C :    0.047505
   6 O :   -0.082565
   7 H :    0.038001
   8 H :    0.031684
   9 H :    0.040850
  10 H :    0.028727
  11 H :    0.028361
  12 H :    0.031501
  13 H :    0.040997
  14 H :    0.037904

  Mayer bond orders larger than 0.1
B(  0-C ,  1-C ) :   1.0857 B(  0-C ,  7-H ) :   0.9542 B(  0-C ,  8-H ) :   0.9510
B(  0-C ,  9-H ) :   0.9476 B(  1-C ,  2-O ) :   1.0351 B(  1-C ,  5-C ) :   0.9434
B(  1-C , 10-H ) :   0.8977 B(  2-O ,  3-C ) :   1.0323 B(  3-C ,  4-C ) :   1.0877
B(  3-C ,  5-C ) :   0.9418 B(  3-C , 11-H ) :   0.8973 B(  4-C , 12-H ) :   0.9502
B(  4-C , 13-H ) :   0.9471 B(  4-C , 14-H ) :   0.9555 B(  5-C ,  6-O ) :   2.2754

FINAL SINGLE POINT ENERGY      -345.087392526864

DIPOLE MOMENT
-------------
                                X             Y             Z
Electronic contribution:     -0.04836      -2.62863       0.34417
Nuclear contribution   :      0.05621       2.95172      -0.38499
                        -----------------------------------------
Total Dipole Moment    :      0.00785       0.32310      -0.04081
                        -----------------------------------------
Magnitude (a.u.)       :      0.32576
Magnitude (Debye)      :      0.82801

                             ****ORCA TERMINATED NORMALLY****
TOTAL RUN TIME: 0 days 0 hours 0 minutes 7 seconds 177 msec
