                         Program Version 3.0.3 - RELEASE   -
|  1> ! RI PBE def2-SVP def2-SVP/J NBO PAL2
|  2> % maxcore 2000
|  3> % output
|  4>     # printlevel mini
|  5>     print[ P_Basis ] 0
|  6>     print[ P_SCFInfo ] 1
|  7>     print[ P_SCFIterInfo ] 1
|  8>     print[ P_OrbEn ] 0
|  9>     print[ P_Cartesian ] 0
| 10> end
| 11> *xyz 0 1
| 12>  C        1.2153560000     0.0844860000     0.2331100000
| 13>  C        2.6265040000    -0.2593730000    -0.2129640000
| 14>  O        3.5548690000     0.7805740000     0.0262880000
| 15>  C        4.2160420000     0.5287620000     1.2602450000
| 16>  C        4.3697870000    -0.9797230000     1.3336800000
| 17>  C        3.1696380000    -1.4640000000     0.5463960000
| 18>  O        2.7105550000    -2.5713950000     0.5248510000
| 19>  H        0.8507820000     0.9509470000    -0.3202170000
| 20>  H        1.1830250000     0.3181530000     1.2999780000
| 21>  H        0.5528490000    -0.7631490000     0.0477910000
| 22>  H        2.6343910000    -0.4789230000    -1.2855730000
| 23>  H        3.6194990000     0.9046240000     2.1027520000
| 24>  H        5.1602640000     1.0726450000     1.2415870000
| 25>  H        4.3819870000    -1.4057670000     2.3366090000
| 26>  H        5.2697320000    -1.3146620000     0.8075660000
| 27> *
| 28>
| 29>                          ****END OF INPUT****
 Total Charge           Charge          ....    0
 Multiplicity           Mult            ....    1
 Number of Electrons    NEL             ....   54
 Basis Dimension        Dim             ....  138

MULLIKEN ATOMIC CHARGES
-----------------------
   0 C :    0.036083
   1 C :    0.068298
   2 O :   -0.343865
   3 C :    0.196820
   4 C :    0.000583
   5 C :   -0.069915
   6 O :   -0.137622
   7 H :    0.038161
   8 H :    0.013377
   9 H :    0.038672
  10 H :    0.035671
  11 H :    0.008930
  12 H :    0.020339
  13 H :    0.041094
  14 H :    0.053372
Sum of atomic charges:   -0.0000000

LOEWDIN ATOMIC CHARGES
----------------------
   0 C :   -0.063354
   1 C :    0.013135
   2 O :   -0.151371
   3 C :    0.068463
   4 C :   -0.081807
   5 C :    0.053106
   6 O :   -0.105210
   7 H :    0.034670
   8 H :    0.028379
   9 H :    0.037735
  10 H :    0.036139
  11 H :    0.006728
  12 H :    0.023859
  13 H :    0.044911
  14 H :    0.054617

  Mayer bond orders larger than 0.1
B(  0-C ,  1-C ) :   1.0703 B(  0-C ,  7-H ) :   0.9560 B(  0-C ,  8-H ) :   0.9511
B(  0-C ,  9-H ) :   0.9469 B(  1-C ,  2-O ) :   1.0306 B(  1-C ,  5-C ) :   0.9166
B(  1-C , 10-H ) :   0.9015 B(  2-O ,  3-C ) :   0.9950 B(  3-C ,  4-C ) :   1.0921
B(  3-C , 11-H ) :   0.9248 B(  3-C , 12-H ) :   0.9403 B(  4-C ,  5-C ) :   0.9993
B(  4-C , 13-H ) :   0.9162 B(  4-C , 14-H ) :   0.8965 B(  5-C ,  6-O ) :   2.2225

FINAL SINGLE POINT ENERGY      -345.107453238326

DIPOLE MOMENT
-------------
                                X             Y             Z
Electronic contribution:      1.43819      -2.96114      -1.52486
Nuclear contribution   :     -1.15527       3.40150       1.86018
                        -----------------------------------------
Total Dipole Moment    :      0.28292       0.44036       0.33533
                        -----------------------------------------
Magnitude (a.u.)       :      0.62161
Magnitude (Debye)      :      1.58001

                             ****ORCA TERMINATED NORMALLY****
TOTAL RUN TIME: 0 days 0 hours 0 minutes 6 seconds 691 msec
