                         Program Version 3.0.3 - RELEASE   -
|  1> ! RI PBE def2-SVP def2-SVP/J NBO PAL2
|  2> % maxcore 2000
|  3> % output
|  4>     # printlevel mini
|  5>     print[ P_Basis ] 0
|  6>     print[ P_SCFInfo ] 1
|  7>     print[ P_SCFIterInfo ] 1
|  8>     print[ P_OrbEn ] 0
|  9>     print[ P_Cartesian ] 0
| 10> end
| 11> *xyz 0 1
| 12>  C        0.9343950000    -0.0238170000     0.0018310000
| 13>  C        2.2686870000    -0.1162690000     0.0016380000
| 14>  O        2.9958460000     1.0614240000     0.0006560000
| 15>  C        4.3392490000     1.0420050000     0.0005350000
| 16>  C        5.0681080000    -0.0784950000     0.0012490000
| 17>  C        4.3692290000    -1.3372210000     0.0022060000
| 18>  C        3.0266950000    -1.3454020000     0.0023880000
| 19>  H        0.4375350000     0.9359580000     0.0012440000
| 20>  H        0.3379990000    -0.9244730000     0.0025860000
| 21>  H        4.7458730000     2.0450240000    -0.0002250000
| 22>  H        6.1469510000    -0.0188780000     0.0010950000
| 23>  H        4.9274480000    -2.2657960000     0.0027760000
| 24>  H        2.4610840000    -2.2686690000     0.0031110000
| 25> *
| 26>
| 27>                          ****END OF INPUT****
 Total Charge           Charge          ....    0
 Multiplicity           Mult            ....    1
 Number of Electrons    NEL             ....   50
 Basis Dimension        Dim             ....  128

MULLIKEN ATOMIC CHARGES
-----------------------
   0 C :   -0.081499
   1 C :    0.093516
   2 O :   -0.194073
   3 C :    0.154534
   4 C :   -0.060774
   5 C :    0.049114
   6 C :    0.003410
   7 H :    0.017705
   8 H :    0.007073
   9 H :    0.018037
  10 H :    0.006946
  11 H :   -0.005952
  12 H :   -0.008036
Sum of atomic charges:   -0.0000000

LOEWDIN ATOMIC CHARGES
----------------------
   0 C :   -0.137232
   1 C :    0.032614
   2 O :   -0.000627
   3 C :    0.071952
   4 C :   -0.103343
   5 C :   -0.019652
   6 C :   -0.033296
   7 H :    0.026946
   8 H :    0.027450
   9 H :    0.028233
  10 H :    0.037316
  11 H :    0.032619
  12 H :    0.037019

  Mayer bond orders larger than 0.1
B(  0-C ,  1-C ) :   1.8284 B(  0-C ,  5-C ) :   0.1086 B(  0-C ,  7-H ) :   0.9262
B(  0-C ,  8-H ) :   0.9306 B(  1-C ,  2-O ) :   1.0319 B(  1-C ,  6-C ) :   1.1149
B(  2-O ,  3-C ) :   1.1584 B(  3-C ,  4-C ) :   1.6645 B(  3-C ,  9-H ) :   0.9724
B(  4-C ,  5-C ) :   1.1266 B(  4-C , 10-H ) :   0.9677 B(  5-C ,  6-C ) :   1.6735
B(  5-C , 11-H ) :   0.9725 B(  6-C , 12-H ) :   0.9627

FINAL SINGLE POINT ENERGY      -306.814909028703

DIPOLE MOMENT
-------------
                                X             Y             Z
Electronic contribution:      1.09330       1.65904      -0.00150
Nuclear contribution   :     -0.51357      -1.85506       0.00158
                        -----------------------------------------
Total Dipole Moment    :      0.57973      -0.19602       0.00008
                        -----------------------------------------
Magnitude (a.u.)       :      0.61197
Magnitude (Debye)      :      1.55551

                             ****ORCA TERMINATED NORMALLY****
TOTAL RUN TIME: 0 days 0 hours 0 minutes 6 seconds 984 msec
