                         Program Version 3.0.3 - RELEASE   -
|  1> ! RI PBE def2-SVP def2-SVP/J NBO PAL2
|  2> % maxcore 2000
|  3> % output
|  4>     # printlevel mini
|  5>     print[ P_Basis ] 0
|  6>     print[ P_SCFInfo ] 1
|  7>     print[ P_SCFIterInfo ] 1
|  8>     print[ P_OrbEn ] 0
|  9>     print[ P_Cartesian ] 0
| 10> end
| 11> *xyz 0 1
| 12>  C        0.9410330000    -0.0142780000    -0.0871050000
| 13>  C        2.2725110000    -0.0836690000    -0.0841560000
| 14>  O        3.0608310000     1.0384980000    -0.0799210000
| 15>  C        4.3779520000     0.6565120000    -0.0776740000
| 16>  C        5.3730860000     1.5438370000    -0.0734600000
| 17>  C        4.4143370000    -0.7910790000    -0.0806870000
| 18>  C        3.1500000000    -1.2355640000    -0.0845800000
| 19>  H        0.4279130000     0.9372350000    -0.0862630000
| 20>  H        0.3594850000    -0.9248910000    -0.0904070000
| 21>  H        5.1778840000     2.6071160000    -0.0716390000
| 22>  H        6.3965370000     1.1974720000    -0.0718200000
| 23>  H        5.3248500000    -1.3714510000    -0.0798100000
| 24>  H        2.8029800000    -2.2580290000    -0.0875760000
| 25> *
| 26>
| 27>                          ****END OF INPUT****
 Total Charge           Charge          ....    0
 Multiplicity           Mult            ....    1
 Number of Electrons    NEL             ....   50
 Basis Dimension        Dim             ....  128

MULLIKEN ATOMIC CHARGES
-----------------------
   0 C :   -0.086167
   1 C :    0.138786
   2 O :   -0.210090
   3 C :    0.145105
   4 C :   -0.098357
   5 C :    0.009162
   6 C :    0.004190
   7 H :    0.032042
   8 H :    0.018835
   9 H :    0.034648
  10 H :    0.019597
  11 H :   -0.003834
  12 H :   -0.003916
Sum of atomic charges:   -0.0000000

LOEWDIN ATOMIC CHARGES
----------------------
   0 C :   -0.099711
   1 C :    0.033827
   2 O :   -0.023131
   3 C :    0.034639
   4 C :   -0.101940
   5 C :   -0.024936
   6 C :   -0.025312
   7 H :    0.034392
   8 H :    0.033310
   9 H :    0.034664
  10 H :    0.033189
  11 H :    0.035588
  12 H :    0.035420

  Mayer bond orders larger than 0.1
B(  0-C ,  1-C ) :   1.8242 B(  0-C ,  4-C ) :   0.1258 B(  0-C ,  7-H ) :   0.9240
B(  0-C ,  8-H ) :   0.9275 B(  1-C ,  2-O ) :   1.0776 B(  1-C ,  6-C ) :   1.0568
B(  2-O ,  3-C ) :   1.0782 B(  3-C ,  4-C ) :   1.8148 B(  3-C ,  5-C ) :   1.0618
B(  4-C ,  9-H ) :   0.9264 B(  4-C , 10-H ) :   0.9303 B(  5-C ,  6-C ) :   1.5991
B(  5-C , 11-H ) :   1.0020 B(  6-C , 12-H ) :   1.0034

FINAL SINGLE POINT ENERGY      -306.816353495966

DIPOLE MOMENT
-------------
                                X             Y             Z
Electronic contribution:     -0.11565       0.30680       0.00047
Nuclear contribution   :      0.30623      -0.87106      -0.00115
                        -----------------------------------------
Total Dipole Moment    :      0.19058      -0.56425      -0.00068
                        -----------------------------------------
Magnitude (a.u.)       :      0.59557
Magnitude (Debye)      :      1.51381

                             ****ORCA TERMINATED NORMALLY****
TOTAL RUN TIME: 0 days 0 hours 0 minutes 6 seconds 73 msec
