                         Program Version 3.0.3 - RELEASE   -
|  1> ! RI PBE def2-SVP def2-SVP/J NBO PAL2
|  2> % maxcore 2000
|  3> % output
|  4>     # printlevel mini
|  5>     print[ P_Basis ] 0
|  6>     print[ P_SCFInfo ] 1
|  7>     print[ P_SCFIterInfo ] 1
|  8>     print[ P_OrbEn ] 0
|  9>     print[ P_Cartesian ] 0
| 10> end
| 11> *xyz 0 1
| 12>  C        1.0418580000     0.0766840000     0.1295300000
| 13>  C        2.3769930000     0.0510910000     0.0884710000
| 14>  O        3.0728990000     1.1808650000     0.3903690000
| 15>  C        4.3745580000     1.2706170000    -0.1691940000
| 16>  C        5.2316250000     0.0740990000     0.1859160000
| 17>  C        4.4741560000    -1.1772020000    -0.1128500000
| 18>  C        3.1428890000    -1.1550470000    -0.1879330000
| 19>  H        0.5085110000     0.9899140000     0.3570800000
| 20>  H        0.4790270000    -0.8305340000    -0.0390870000
| 21>  H        4.7931830000     2.2003190000     0.2172420000
| 22>  H        4.2933000000     1.3551620000    -1.2606070000
| 23>  H        5.5189280000     0.1049320000     1.2444540000
| 24>  H        6.1620420000     0.1135500000    -0.3896950000
| 25>  H        5.0197180000    -2.1020450000    -0.2679010000
| 26>  H        2.5746220000    -2.0476040000    -0.4220960000
| 27> *
| 28>
| 29>                          ****END OF INPUT****
 Total Charge           Charge          ....    0
 Multiplicity           Mult            ....    1
 Number of Electrons    NEL             ....   52
 Basis Dimension        Dim             ....  138

MULLIKEN ATOMIC CHARGES
-----------------------
   0 C :   -0.065332
   1 C :    0.094089
   2 O :   -0.277066
   3 C :    0.174217
   4 C :    0.050697
   5 C :   -0.090508
   6 C :    0.007917
   7 H :    0.020457
   8 H :    0.010289
   9 H :    0.013243
  10 H :    0.019042
  11 H :    0.038740
  12 H :    0.020658
  13 H :   -0.002000
  14 H :   -0.014444
Sum of atomic charges:   -0.0000000

LOEWDIN ATOMIC CHARGES
----------------------
   0 C :   -0.104184
   1 C :    0.021424
   2 O :   -0.085045
   3 C :    0.074719
   4 C :   -0.058146
   5 C :   -0.032362
   6 C :   -0.051584
   7 H :    0.027821
   8 H :    0.027068
   9 H :    0.024270
  10 H :    0.015642
  11 H :    0.040948
  12 H :    0.039025
  13 H :    0.026528
  14 H :    0.033874

  Mayer bond orders larger than 0.1
B(  0-C ,  1-C ) :   1.8361 B(  0-C ,  5-C ) :   0.1362 B(  0-C ,  7-H ) :   0.9252
B(  0-C ,  8-H ) :   0.9319 B(  1-C ,  2-O ) :   1.1323 B(  1-C ,  6-C ) :   1.0585
B(  2-O ,  3-C ) :   0.9697 B(  3-C ,  4-C ) :   1.1049 B(  3-C ,  9-H ) :   0.9412
B(  3-C , 10-H ) :   0.9368 B(  4-C ,  5-C ) :   1.0475 B(  4-C , 11-H ) :   0.8946
B(  4-C , 12-H ) :   0.9130 B(  5-C ,  6-C ) :   1.7879 B(  5-C , 13-H ) :   0.9632
B(  6-C , 14-H ) :   0.9624

FINAL SINGLE POINT ENERGY      -308.018361426174

DIPOLE MOMENT
-------------
                                X             Y             Z
Electronic contribution:     -1.36930       0.62892       0.69205
Nuclear contribution   :      2.02406      -0.83854      -0.90249
                        -----------------------------------------
Total Dipole Moment    :      0.65477      -0.20962      -0.21043
                        -----------------------------------------
Magnitude (a.u.)       :      0.71899
Magnitude (Debye)      :      1.82752

                             ****ORCA TERMINATED NORMALLY****
TOTAL RUN TIME: 0 days 0 hours 0 minutes 7 seconds 320 msec
