                         Program Version 3.0.3 - RELEASE   -
|  1> ! RI PBE def2-SVP def2-SVP/J NBO PAL2
|  2> % maxcore 2000
|  3> % output
|  4>     # printlevel mini
|  5>     print[ P_Basis ] 0
|  6>     print[ P_SCFInfo ] 1
|  7>     print[ P_SCFIterInfo ] 1
|  8>     print[ P_OrbEn ] 0
|  9>     print[ P_Cartesian ] 0
| 10> end
| 11> *xyz 0 1
| 12>  C        0.9427230000     0.0648540000    -0.1675500000
| 13>  C        2.4493970000     0.0478060000    -0.0004030000
| 14>  O        3.0845490000     0.0577520000    -1.2797470000
| 15>  C        2.9996650000     1.1842900000     0.8622040000
| 16>  C        4.4283740000     0.7493270000     1.1824490000
| 17>  C        4.3748370000    -0.7928320000     1.2448050000
| 18>  C        2.9864130000    -1.1883850000     0.7146120000
| 19>  H        0.6193860000     0.9766080000    -0.6800800000
| 20>  H        0.4359780000     0.0296650000     0.7997300000
| 21>  H        0.6169600000    -0.7906420000    -0.7631910000
| 22>  H        2.8488670000     0.8784700000    -1.7217130000
| 23>  H        2.4010030000     1.2590690000     1.7763420000
| 24>  H        2.9408830000     2.1532400000     0.3562700000
| 25>  H        4.7994200000     1.1949260000     2.1074400000
| 26>  H        5.0980780000     1.0664000000     0.3811780000
| 27>  H        4.5223950000    -1.1594840000     2.2628870000
| 28>  H        5.1671340000    -1.2298920000     0.6356070000
| 29>  H        2.3124480000    -1.4368010000     1.5390490000
| 30>  H        3.0087910000    -2.0438710000     0.0372200000
| 31> *
| 32>
| 33>                          ****END OF INPUT****
 Total Charge           Charge          ....    0
 Multiplicity           Mult            ....    1
 Number of Electrons    NEL             ....   56
 Basis Dimension        Dim             ....  158

MULLIKEN ATOMIC CHARGES
-----------------------
   0 C :    0.088095
   1 C :   -0.205634
   2 O :   -0.260994
   3 C :    0.045595
   4 C :    0.041641
   5 C :    0.009994
   6 C :    0.085650
   7 H :   -0.000042
   8 H :    0.005944
   9 H :    0.024867
  10 H :    0.148238
  11 H :    0.000557
  12 H :   -0.006512
  13 H :    0.000626
  14 H :    0.003094
  15 H :   -0.002441
  16 H :    0.010105
  17 H :    0.000975
  18 H :    0.010241
Sum of atomic charges:    0.0000000

LOEWDIN ATOMIC CHARGES
----------------------
   0 C :   -0.067250
   1 C :    0.013184
   2 O :   -0.111330
   3 C :   -0.046841
   4 C :   -0.041416
   5 C :   -0.038950
   6 C :   -0.036530
   7 H :    0.021331
   8 H :    0.026401
   9 H :    0.029472
  10 H :    0.063112
  11 H :    0.023340
  12 H :    0.017235
  13 H :    0.021582
  14 H :    0.024019
  15 H :    0.021927
  16 H :    0.028114
  17 H :    0.024602
  18 H :    0.027998

  Mayer bond orders larger than 0.1
B(  0-C ,  1-C ) :   1.0833 B(  0-C ,  7-H ) :   0.9478 B(  0-C ,  8-H ) :   0.9398
B(  0-C ,  9-H ) :   0.9561 B(  1-C ,  2-O ) :   1.0170 B(  1-C ,  3-C ) :   1.0308
B(  1-C ,  6-C ) :   1.0323 B(  2-O , 10-H ) :   0.9832 B(  3-C ,  4-C ) :   1.1054
B(  3-C , 11-H ) :   0.9188 B(  3-C , 12-H ) :   0.9239 B(  4-C ,  5-C ) :   1.1260
B(  4-C , 13-H ) :   0.9356 B(  4-C , 14-H ) :   0.9179 B(  5-C ,  6-C ) :   1.1264
B(  5-C , 15-H ) :   0.9326 B(  5-C , 16-H ) :   0.9239 B(  6-C , 17-H ) :   0.9250
B(  6-C , 18-H ) :   0.9138

FINAL SINGLE POINT ENERGY      -310.449024755563

DIPOLE MOMENT
-------------
                                X             Y             Z
Electronic contribution:      1.10912      -0.15409      -2.50989
Nuclear contribution   :     -1.40953       0.54926       2.65077
                        -----------------------------------------
Total Dipole Moment    :     -0.30041       0.39517       0.14089
                        -----------------------------------------
Magnitude (a.u.)       :      0.51600
Magnitude (Debye)      :      1.31156

                             ****ORCA TERMINATED NORMALLY****
TOTAL RUN TIME: 0 days 0 hours 0 minutes 8 seconds 599 msec
