                         Program Version 3.0.3 - RELEASE   -
|  1> ! RI PBE def2-SVP def2-SVP/J NBO PAL2
|  2> % maxcore 2000
|  3> % output
|  4>     # printlevel mini
|  5>     print[ P_Basis ] 0
|  6>     print[ P_SCFInfo ] 1
|  7>     print[ P_SCFIterInfo ] 1
|  8>     print[ P_OrbEn ] 0
|  9>     print[ P_Cartesian ] 0
| 10> end
| 11> *xyz 0 1
| 12>  C        1.0005320000     0.0684770000     0.1195200000
| 13>  C        2.5287730000     0.0701550000     0.1755730000
| 14>  O        2.9756260000     0.0160070000     1.5224270000
| 15>  C        3.0863460000     1.2389100000    -0.6108040000
| 16>  C        3.7698910000     0.7881910000    -1.6643370000
| 17>  C        3.7701910000    -0.6835490000    -1.6451960000
| 18>  C        3.0912700000    -1.1097360000    -0.5788960000
| 19>  H        0.6026830000     0.9612730000     0.6121890000
| 20>  H        0.6130160000    -0.8117590000     0.6362210000
| 21>  H        0.6455590000     0.0626970000    -0.9127920000
| 22>  H        2.6234790000     0.7835160000     1.9820570000
| 23>  H        2.9018070000     2.2723520000    -0.3447800000
| 24>  H        4.2543450000     1.3915730000    -2.4216380000
| 25>  H        4.2535690000    -1.3063180000    -2.3869650000
| 26>  H        2.9200220000    -2.1314910000    -0.2685690000
| 27> *
| 28>
| 29>                          ****END OF INPUT****
 Total Charge           Charge          ....    0
 Multiplicity           Mult            ....    1
 Number of Electrons    NEL             ....   52
 Basis Dimension        Dim             ....  138

MULLIKEN ATOMIC CHARGES
-----------------------
   0 C :    0.064587
   1 C :   -0.039644
   2 O :   -0.254318
   3 C :    0.011997
   4 C :    0.007274
   5 C :    0.011346
   6 C :    0.026974
   7 H :    0.007495
   8 H :    0.027413
   9 H :    0.026027
  10 H :    0.152815
  11 H :   -0.013211
  12 H :   -0.012635
  13 H :   -0.011568
  14 H :   -0.004554
Sum of atomic charges:   -0.0000000

LOEWDIN ATOMIC CHARGES
----------------------
   0 C :   -0.053163
   1 C :    0.021742
   2 O :   -0.095256
   3 C :   -0.040446
   4 C :   -0.029459
   5 C :   -0.029463
   6 C :   -0.018560
   7 H :    0.021808
   8 H :    0.029107
   9 H :    0.036316
  10 H :    0.066740
  11 H :    0.019174
  12 H :    0.022793
  13 H :    0.023741
  14 H :    0.024927

  Mayer bond orders larger than 0.1
B(  0-C ,  1-C ) :   1.0096 B(  0-C ,  7-H ) :   0.9504 B(  0-C ,  8-H ) :   0.9544
B(  0-C ,  9-H ) :   0.9491 B(  1-C ,  2-O ) :   1.0119 B(  1-C ,  3-C ) :   0.9820
B(  1-C ,  6-C ) :   0.9847 B(  2-O , 10-H ) :   0.9810 B(  3-C ,  4-C ) :   1.7631
B(  3-C , 11-H ) :   0.9844 B(  4-C ,  5-C ) :   1.0529 B(  4-C , 12-H ) :   0.9930
B(  5-C ,  6-C ) :   1.7617 B(  5-C , 13-H ) :   0.9950 B(  6-C , 14-H ) :   0.9924

FINAL SINGLE POINT ENERGY      -308.005286369913

DIPOLE MOMENT
-------------
                                X             Y             Z
Electronic contribution:      3.28367      -0.28232       0.48788
Nuclear contribution   :     -3.71834       0.68020      -0.60022
                        -----------------------------------------
Total Dipole Moment    :     -0.43468       0.39787      -0.11234
                        -----------------------------------------
Magnitude (a.u.)       :      0.59989
Magnitude (Debye)      :      1.52479

                             ****ORCA TERMINATED NORMALLY****
TOTAL RUN TIME: 0 days 0 hours 0 minutes 6 seconds 899 msec
