                         Program Version 3.0.3 - RELEASE   -
|  1> ! RI PBE def2-SVP def2-SVP/J NBO PAL2
|  2> % maxcore 2000
|  3> % output
|  4>     # printlevel mini
|  5>     print[ P_Basis ] 0
|  6>     print[ P_SCFInfo ] 1
|  7>     print[ P_SCFIterInfo ] 1
|  8>     print[ P_OrbEn ] 0
|  9>     print[ P_Cartesian ] 0
| 10> end
| 11> *xyz 0 1
| 12>  C        1.0074570000     0.0565910000     0.0714540000
| 13>  C        2.5271320000     0.0547320000     0.0415790000
| 14>  O        3.0430830000     0.1163330000     1.3617720000
| 15>  C        3.0510020000    -1.1654400000    -0.7554260000
| 16>  C        3.3626210000    -0.6010270000    -2.1064990000
| 17>  C        3.3675660000     0.7276870000    -2.0937920000
| 18>  C        3.0599090000     1.2732870000    -0.7350900000
| 19>  H        0.6283630000    -0.8319910000     0.5875850000
| 20>  H        0.6022450000     0.0499560000    -0.9434790000
| 21>  H        0.6389470000     0.9441190000     0.5905420000
| 22>  H        2.6182890000    -0.5697970000     1.8839740000
| 23>  H        2.3234820000    -1.9840070000    -0.7854650000
| 24>  H        3.9562270000    -1.5560960000    -0.2752240000
| 25>  H        3.5902400000    -1.2157800000    -2.9698970000
| 26>  H        3.5988660000     1.3562410000    -2.9459870000
| 27>  H        2.3399740000     2.0973660000    -0.7472540000
| 28>  H        3.9645170000     1.6493250000    -0.2435930000
| 29> *
| 30>
| 31>                          ****END OF INPUT****
 Total Charge           Charge          ....    0
 Multiplicity           Mult            ....    1
 Number of Electrons    NEL             ....   54
 Basis Dimension        Dim             ....  148

MULLIKEN ATOMIC CHARGES
-----------------------
   0 C :    0.062058
   1 C :   -0.197143
   2 O :   -0.247464
   3 C :    0.146798
   4 C :   -0.071086
   5 C :   -0.068928
   6 C :    0.143954
   7 H :    0.006301
   8 H :    0.015442
   9 H :    0.024858
  10 H :    0.149305
  11 H :    0.005085
  12 H :    0.015247
  13 H :   -0.012713
  14 H :   -0.011456
  15 H :    0.011103
  16 H :    0.028638
Sum of atomic charges:   -0.0000000

LOEWDIN ATOMIC CHARGES
----------------------
   0 C :   -0.065767
   1 C :    0.028534
   2 O :   -0.105203
   3 C :   -0.049774
   4 C :   -0.039263
   5 C :   -0.035784
   6 C :   -0.035947
   7 H :    0.019724
   8 H :    0.031798
   9 H :    0.026768
  10 H :    0.064479
  11 H :    0.022643
  12 H :    0.032250
  13 H :    0.019637
  14 H :    0.020663
  15 H :    0.026910
  16 H :    0.038331

  Mayer bond orders larger than 0.1
B(  0-C ,  1-C ) :   1.0548 B(  0-C ,  7-H ) :   0.9472 B(  0-C ,  8-H ) :   0.9456
B(  0-C ,  9-H ) :   0.9518 B(  1-C ,  2-O ) :   1.0768 B(  1-C ,  3-C ) :   1.0280
B(  1-C ,  6-C ) :   1.0310 B(  2-O , 10-H ) :   0.9818 B(  3-C ,  4-C ) :   1.0287
B(  3-C , 11-H ) :   0.9211 B(  3-C , 12-H ) :   0.8898 B(  4-C ,  5-C ) :   1.8565
B(  4-C , 13-H ) :   0.9814 B(  5-C ,  6-C ) :   1.0300 B(  5-C , 14-H ) :   0.9828
B(  6-C , 15-H ) :   0.9242 B(  6-C , 16-H ) :   0.8939

FINAL SINGLE POINT ENERGY      -309.229734527907

DIPOLE MOMENT
-------------
                                X             Y             Z
Electronic contribution:      2.66346       0.27885       0.53514
Nuclear contribution   :     -3.02769      -0.62522      -0.57436
                        -----------------------------------------
Total Dipole Moment    :     -0.36422      -0.34637      -0.03922
                        -----------------------------------------
Magnitude (a.u.)       :      0.50415
Magnitude (Debye)      :      1.28146

                             ****ORCA TERMINATED NORMALLY****
TOTAL RUN TIME: 0 days 0 hours 0 minutes 7 seconds 495 msec
