                         Program Version 3.0.3 - RELEASE   -
|  1> ! RI PBE def2-SVP def2-SVP/J NBO PAL2
|  2> % maxcore 2000
|  3> % output
|  4>     # printlevel mini
|  5>     print[ P_Basis ] 0
|  6>     print[ P_SCFInfo ] 1
|  7>     print[ P_SCFIterInfo ] 1
|  8>     print[ P_OrbEn ] 0
|  9>     print[ P_Cartesian ] 0
| 10> end
| 11> *xyz 0 1
| 12>  C        0.9015910000    -0.0117410000     0.0112190000
| 13>  C        2.4249620000    -0.0512510000     0.0533920000
| 14>  O        2.9445290000     0.1334400000    -1.2575840000
| 15>  C        2.9677010000    -1.3278380000     0.7313110000
| 16>  C        3.2933380000    -0.9338920000     2.1786350000
| 17>  C        3.4201840000     0.5590430000     2.0957810000
| 18>  C        2.9680520000     1.0339940000     0.9433710000
| 19>  H        0.5151890000    -0.8048260000    -0.6387170000
| 20>  H        0.5537830000     0.9493590000    -0.3735730000
| 21>  H        0.4790040000    -0.1604610000     1.0074860000
| 22>  H        2.4731980000    -0.4565190000    -1.8523550000
| 23>  H        3.8877540000    -1.5989130000     0.2090370000
| 24>  H        2.2750880000    -2.1700320000     0.6591110000
| 25>  H        4.1997150000    -1.4163560000     2.5556610000
| 26>  H        2.4880190000    -1.2127880000     2.8698010000
| 27>  H        3.8074890000     1.1636950000     2.9080900000
| 28>  H        2.9256060000     2.0765660000     0.6507420000
| 29> *
| 30>
| 31>                          ****END OF INPUT****
 Total Charge           Charge          ....    0
 Multiplicity           Mult            ....    1
 Number of Electrons    NEL             ....   54
 Basis Dimension        Dim             ....  148

MULLIKEN ATOMIC CHARGES
-----------------------
   0 C :    0.072879
   1 C :   -0.107696
   2 O :   -0.254320
   3 C :    0.066275
   4 C :    0.044399
   5 C :   -0.065394
   6 C :    0.022039
   7 H :    0.008059
   8 H :    0.019950
   9 H :    0.012359
  10 H :    0.146965
  11 H :    0.011356
  12 H :   -0.005693
  13 H :    0.018454
  14 H :    0.026769
  15 H :   -0.008283
  16 H :   -0.008119
Sum of atomic charges:   -0.0000000

LOEWDIN ATOMIC CHARGES
----------------------
   0 C :   -0.063543
   1 C :    0.015441
   2 O :   -0.108536
   3 C :   -0.041119
   4 C :   -0.040666
   5 C :   -0.027437
   6 C :   -0.030073
   7 H :    0.020625
   8 H :    0.027594
   9 H :    0.029968
  10 H :    0.063136
  11 H :    0.030092
  12 H :    0.018379
  13 H :    0.028866
  14 H :    0.031398
  15 H :    0.021611
  16 H :    0.024264

  Mayer bond orders larger than 0.1
B(  0-C ,  1-C ) :   1.0417 B(  0-C ,  7-H ) :   0.9456 B(  0-C ,  8-H ) :   0.9544
B(  0-C ,  9-H ) :   0.9469 B(  1-C ,  2-O ) :   1.0534 B(  1-C ,  3-C ) :   1.0425
B(  1-C ,  6-C ) :   0.9795 B(  2-O , 10-H ) :   0.9816 B(  3-C ,  4-C ) :   1.0904
B(  3-C , 11-H ) :   0.9103 B(  3-C , 12-H ) :   0.9279 B(  4-C ,  5-C ) :   1.0378
B(  4-C , 13-H ) :   0.9279 B(  4-C , 14-H ) :   0.9111 B(  5-C ,  6-C ) :   1.8523
B(  5-C , 15-H ) :   0.9808 B(  6-C , 16-H ) :   0.9896

FINAL SINGLE POINT ENERGY      -309.228631172826

DIPOLE MOMENT
-------------
                                X             Y             Z
Electronic contribution:      2.53002       2.01459      -1.58098
Nuclear contribution   :     -2.97076      -2.41651       1.72164
                        -----------------------------------------
Total Dipole Moment    :     -0.44074      -0.40192       0.14065
                        -----------------------------------------
Magnitude (a.u.)       :      0.61284
Magnitude (Debye)      :      1.55771

                             ****ORCA TERMINATED NORMALLY****
TOTAL RUN TIME: 0 days 0 hours 0 minutes 7 seconds 496 msec
