                         Program Version 3.0.3 - RELEASE   -
|  1> ! RI PBE def2-SVP def2-SVP/J NBO PAL2
|  2> % maxcore 2000
|  3> % output
|  4>     # printlevel mini
|  5>     print[ P_Basis ] 0
|  6>     print[ P_SCFInfo ] 1
|  7>     print[ P_SCFIterInfo ] 1
|  8>     print[ P_OrbEn ] 0
|  9>     print[ P_Cartesian ] 0
| 10> end
| 11> *xyz 0 1
| 12>  C        1.0174060000     0.0569380000    -0.0720960000
| 13>  C        2.4977330000    -0.0938630000     0.2367640000
| 14>  O        3.2091750000     1.0724530000    -0.2252020000
| 15>  C        3.6069910000     1.0724370000    -1.5074040000
| 16>  C        3.7835510000    -0.0406230000    -2.2300320000
| 17>  C        3.6271410000    -1.3139540000    -1.5589630000
| 18>  C        3.0729800000    -1.3509160000    -0.3454890000
| 19>  H        0.6255750000     0.9811480000     0.3584370000
| 20>  H        0.4654740000    -0.7867220000     0.3494360000
| 21>  H        0.8532090000     0.0661640000    -1.1516170000
| 22>  H        2.6437520000    -0.0746930000     1.3198870000
| 23>  H        3.8322650000     2.0707150000    -1.8653800000
| 24>  H        4.1336610000     0.0298010000    -3.2500630000
| 25>  H        4.0144510000    -2.2136660000    -2.0241800000
| 26>  H        2.9890270000    -2.2683210000     0.2255020000
| 27> *
| 28>
| 29>                          ****END OF INPUT****
 Total Charge           Charge          ....    0
 Multiplicity           Mult            ....    1
 Number of Electrons    NEL             ....   52
 Basis Dimension        Dim             ....  138

MULLIKEN ATOMIC CHARGES
-----------------------
   0 C :    0.040748
   1 C :    0.088203
   2 O :   -0.250441
   3 C :    0.133340
   4 C :   -0.054180
   5 C :    0.038321
   6 C :   -0.077352
   7 H :    0.027146
   8 H :    0.017617
   9 H :    0.029264
  10 H :    0.018783
  11 H :    0.009425
  12 H :   -0.008360
  13 H :   -0.009828
  14 H :   -0.002685
Sum of atomic charges:   -0.0000000

LOEWDIN ATOMIC CHARGES
----------------------
   0 C :   -0.070422
   1 C :    0.059893
   2 O :   -0.057682
   3 C :    0.052979
   4 C :   -0.123063
   5 C :   -0.028598
   6 C :   -0.063698
   7 H :    0.028767
   8 H :    0.033386
   9 H :    0.032572
  10 H :    0.027639
  11 H :    0.021997
  12 H :    0.030988
  13 H :    0.029400
  14 H :    0.025843

  Mayer bond orders larger than 0.1
B(  0-C ,  1-C ) :   1.0732 B(  0-C ,  7-H ) :   0.9508 B(  0-C ,  8-H ) :   0.9507
B(  0-C ,  9-H ) :   0.9563 B(  1-C ,  2-O ) :   0.9389 B(  1-C ,  6-C ) :   1.0268
B(  1-C , 10-H ) :   0.9164 B(  2-O ,  3-C ) :   1.1739 B(  3-C ,  4-C ) :   1.6702
B(  3-C , 11-H ) :   0.9695 B(  4-C ,  5-C ) :   1.1159 B(  4-C , 12-H ) :   0.9611
B(  5-C ,  6-C ) :   1.7995 B(  5-C , 13-H ) :   0.9726 B(  6-C , 14-H ) :   0.9607

FINAL SINGLE POINT ENERGY      -308.018003727153

DIPOLE MOMENT
-------------
                                X             Y             Z
Electronic contribution:      3.50604       1.46149      -0.25957
Nuclear contribution   :     -3.70592      -1.64398       0.23651
                        -----------------------------------------
Total Dipole Moment    :     -0.19987      -0.18249      -0.02307
                        -----------------------------------------
Magnitude (a.u.)       :      0.27163
Magnitude (Debye)      :      0.69043

                             ****ORCA TERMINATED NORMALLY****
TOTAL RUN TIME: 0 days 0 hours 0 minutes 7 seconds 396 msec
