                         Program Version 3.0.3 - RELEASE   -
|  1> ! RI PBE def2-SVP def2-SVP/J NBO PAL2
|  2> % maxcore 2000
|  3> % output
|  4>     # printlevel mini
|  5>     print[ P_Basis ] 0
|  6>     print[ P_SCFInfo ] 1
|  7>     print[ P_SCFIterInfo ] 1
|  8>     print[ P_OrbEn ] 0
|  9>     print[ P_Cartesian ] 0
| 10> end
| 11> *xyz 0 1
| 12>  C        0.9098640000     0.1793370000    -0.2018090000
| 13>  C        2.3790670000     0.0698680000     0.1549810000
| 14>  O        2.6050020000    -1.0922110000     0.9578760000
| 15>  C        3.2079650000    -0.7422360000     2.1286370000
| 16>  C        3.5503760000    -1.6306910000     3.0627120000
| 17>  C        3.3822120000     0.7012700000     2.1318780000
| 18>  C        2.9105580000     1.1904810000     0.9884360000
| 19>  H        0.5831430000    -0.7168230000    -0.7318380000
| 20>  H        0.7419480000     1.0430490000    -0.8496890000
| 21>  H        0.3058850000     0.2944230000     0.7001820000
| 22>  H        2.9668500000    -0.0454800000    -0.7676060000
| 23>  H        3.3614160000    -2.6871250000     2.9316810000
| 24>  H        4.0271760000    -1.2923220000     3.9712090000
| 25>  H        3.8280810000     1.2477170000     2.9505090000
| 26>  H        2.8920470000     2.2252420000     0.6743510000
| 27> *
| 28>
| 29>                          ****END OF INPUT****
 Total Charge           Charge          ....    0
 Multiplicity           Mult            ....    1
 Number of Electrons    NEL             ....   52
 Basis Dimension        Dim             ....  138

MULLIKEN ATOMIC CHARGES
-----------------------
   0 C :    0.023070
   1 C :    0.122917
   2 O :   -0.267915
   3 C :    0.124151
   4 C :   -0.101484
   5 C :    0.013080
   6 C :   -0.060710
   7 H :    0.038676
   8 H :    0.024461
   9 H :    0.029527
  10 H :    0.029484
  11 H :    0.021714
  12 H :    0.006901
  13 H :   -0.006732
  14 H :    0.002862
Sum of atomic charges:   -0.0000000

LOEWDIN ATOMIC CHARGES
----------------------
   0 C :   -0.065074
   1 C :    0.063544
   2 O :   -0.078276
   3 C :    0.029030
   4 C :   -0.136440
   5 C :   -0.029757
   6 C :   -0.032567
   7 H :    0.035269
   8 H :    0.032808
   9 H :    0.032861
  10 H :    0.028014
  11 H :    0.028841
  12 H :    0.027893
  13 H :    0.034308
  14 H :    0.029547

  Mayer bond orders larger than 0.1
B(  0-C ,  1-C ) :   1.0742 B(  0-C ,  7-H ) :   0.9549 B(  0-C ,  8-H ) :   0.9543
B(  0-C ,  9-H ) :   0.9542 B(  1-C ,  2-O ) :   0.9824 B(  1-C ,  6-C ) :   1.0144
B(  1-C , 10-H ) :   0.8964 B(  2-O ,  3-C ) :   1.1071 B(  3-C ,  4-C ) :   1.8379
B(  3-C ,  5-C ) :   1.0370 B(  4-C ,  6-C ) :   0.1127 B(  4-C , 11-H ) :   0.9282
B(  4-C , 12-H ) :   0.9257 B(  5-C ,  6-C ) :   1.7288 B(  5-C , 13-H ) :   0.9995
B(  6-C , 14-H ) :   0.9852

FINAL SINGLE POINT ENERGY      -308.021670230650

DIPOLE MOMENT
-------------
                                X             Y             Z
Electronic contribution:      2.38130      -0.87403       1.00765
Nuclear contribution   :     -2.50050       1.62785      -1.32082
                        -----------------------------------------
Total Dipole Moment    :     -0.11920       0.75382      -0.31318
                        -----------------------------------------
Magnitude (a.u.)       :      0.82494
Magnitude (Debye)      :      2.09684

                             ****ORCA TERMINATED NORMALLY****
TOTAL RUN TIME: 0 days 0 hours 0 minutes 7 seconds 239 msec
