                         Program Version 3.0.3 - RELEASE   -
|  1> ! RI PBE def2-SVP def2-SVP/J NBO PAL2
|  2> % maxcore 2000
|  3> % output
|  4>     # printlevel mini
|  5>     print[ P_Basis ] 0
|  6>     print[ P_SCFInfo ] 1
|  7>     print[ P_SCFIterInfo ] 1
|  8>     print[ P_OrbEn ] 0
|  9>     print[ P_Cartesian ] 0
| 10> end
| 11> *xyz 0 1
| 12>  C        1.0640510000     0.0828210000    -0.1172270000
| 13>  C        2.5305040000    -0.0112410000     0.2634990000
| 14>  O        2.7602050000    -1.1539080000     1.0811490000
| 15>  C        3.3431620000    -0.7887940000     2.3276840000
| 16>  C        4.6613540000    -1.5139270000     2.5296710000
| 17>  C        3.4659920000     0.7010420000     2.2550310000
| 18>  C        3.0267930000     1.1364800000     1.0859430000
| 19>  H        0.7518680000    -0.8267410000    -0.6338370000
| 20>  H        0.8940380000     0.9321800000    -0.7843760000
| 21>  H        0.4456120000     0.2084990000     0.7740840000
| 22>  H        3.1255520000    -0.1156520000    -0.6572840000
| 23>  H        2.6541220000    -1.0830740000     3.1348220000
| 24>  H        5.3768340000    -1.2278390000     1.7557620000
| 25>  H        4.5066120000    -2.5934220000     2.4807700000
| 26>  H        5.0870600000    -1.2720250000     3.5072490000
| 27>  H        3.8706950000     1.3010850000     3.0601910000
| 28>  H        3.0038570000     2.1632060000     0.7432690000
| 29> *
| 30>
| 31>                          ****END OF INPUT****
 Total Charge           Charge          ....    0
 Multiplicity           Mult            ....    1
 Number of Electrons    NEL             ....   54
 Basis Dimension        Dim             ....  148

MULLIKEN ATOMIC CHARGES
-----------------------
   0 C :    0.024454
   1 C :    0.140779
   2 O :   -0.348437
   3 C :    0.130986
   4 C :    0.027546
   5 C :   -0.054617
   6 C :   -0.064827
   7 H :    0.031464
   8 H :    0.015313
   9 H :    0.018118
  10 H :    0.008714
  11 H :    0.008593
  12 H :    0.018829
  13 H :    0.036300
  14 H :    0.011008
  15 H :   -0.002120
  16 H :   -0.002103
Sum of atomic charges:    0.0000000

LOEWDIN ATOMIC CHARGES
----------------------
   0 C :   -0.071383
   1 C :    0.055788
   2 O :   -0.152309
   3 C :    0.055271
   4 C :   -0.071612
   5 C :   -0.038193
   6 C :   -0.040344
   7 H :    0.031998
   8 H :    0.027965
   9 H :    0.027443
  10 H :    0.016867
  11 H :    0.016730
  12 H :    0.027433
  13 H :    0.032844
  14 H :    0.027305
  15 H :    0.027144
  16 H :    0.027052

  Mayer bond orders larger than 0.1
B(  0-C ,  1-C ) :   1.0707 B(  0-C ,  7-H ) :   0.9552 B(  0-C ,  8-H ) :   0.9531
B(  0-C ,  9-H ) :   0.9541 B(  1-C ,  2-O ) :   1.0106 B(  1-C ,  6-C ) :   1.0032
B(  1-C , 10-H ) :   0.8961 B(  2-O ,  3-C ) :   1.0104 B(  3-C ,  4-C ) :   1.0717
B(  3-C ,  5-C ) :   1.0071 B(  3-C , 11-H ) :   0.8969 B(  4-C , 12-H ) :   0.9541
B(  4-C , 13-H ) :   0.9551 B(  4-C , 14-H ) :   0.9504 B(  5-C ,  6-C ) :   1.8552
B(  5-C , 15-H ) :   0.9847 B(  6-C , 16-H ) :   0.9886

FINAL SINGLE POINT ENERGY      -309.224895239938

DIPOLE MOMENT
-------------
                                X             Y             Z
Electronic contribution:      0.09141       0.39224       0.10876
Nuclear contribution   :      0.01931       0.08732       0.02611
                        -----------------------------------------
Total Dipole Moment    :      0.11072       0.47956       0.13487
                        -----------------------------------------
Magnitude (a.u.)       :      0.51032
Magnitude (Debye)      :      1.29713

                             ****ORCA TERMINATED NORMALLY****
TOTAL RUN TIME: 0 days 0 hours 0 minutes 7 seconds 566 msec
