                         Program Version 3.0.3 - RELEASE   -
|  1> ! RI PBE def2-SVP def2-SVP/J NBO PAL2
|  2> % maxcore 2000
|  3> % output
|  4>     # printlevel mini
|  5>     print[ P_Basis ] 0
|  6>     print[ P_SCFInfo ] 1
|  7>     print[ P_SCFIterInfo ] 1
|  8>     print[ P_OrbEn ] 0
|  9>     print[ P_Cartesian ] 0
| 10> end
| 11> *xyz 0 1
| 12>  C        1.0192190000     0.0646180000    -0.1712870000
| 13>  C        2.4703210000    -0.1102100000     0.2319270000
| 14>  O        2.6015100000    -1.2343940000     1.0998810000
| 15>  C        3.3168490000    -0.8762760000     2.2633120000
| 16>  C        3.5276850000     0.6038420000     2.1743830000
| 17>  C        4.1888880000     1.3762950000     3.2564680000
| 18>  C        3.0484490000     1.0269400000     1.0122420000
| 19>  H        0.6500430000    -0.8433430000    -0.6521240000
| 20>  H        0.9149820000     0.8928310000    -0.8772010000
| 21>  H        0.4026860000     0.2713020000     0.7061110000
| 22>  H        3.0661340000    -0.2970860000    -0.6770920000
| 23>  H        4.2758540000    -1.4169070000     2.3079040000
| 24>  H        2.7426470000    -1.1625670000     3.1557890000
| 25>  H        5.1992980000     0.9994370000     3.4465130000
| 26>  H        3.6376450000     1.2849060000     4.1980710000
| 27>  H        4.2621590000     2.4348840000     3.0050710000
| 28>  H        3.0650490000     2.0466160000     0.6470200000
| 29> *
| 30>
| 31>                          ****END OF INPUT****
 Total Charge           Charge          ....    0
 Multiplicity           Mult            ....    1
 Number of Electrons    NEL             ....   54
 Basis Dimension        Dim             ....  148

MULLIKEN ATOMIC CHARGES
-----------------------
   0 C :    0.020533
   1 C :    0.142583
   2 O :   -0.358944
   3 C :    0.294030
   4 C :   -0.223941
   5 C :    0.077348
   6 C :   -0.095259
   7 H :    0.029654
   8 H :    0.016375
   9 H :    0.016463
  10 H :    0.006640
  11 H :    0.005508
  12 H :    0.005690
  13 H :    0.029954
  14 H :    0.032311
  15 H :    0.022809
  16 H :   -0.021754
Sum of atomic charges:   -0.0000000

LOEWDIN ATOMIC CHARGES
----------------------
   0 C :   -0.071755
   1 C :    0.057843
   2 O :   -0.156925
   3 C :    0.074401
   4 C :   -0.052832
   5 C :   -0.057526
   6 C :   -0.059129
   7 H :    0.031496
   8 H :    0.028162
   9 H :    0.026590
  10 H :    0.014242
  11 H :    0.013002
  12 H :    0.015038
  13 H :    0.038909
  14 H :    0.038729
  15 H :    0.035947
  16 H :    0.023808

  Mayer bond orders larger than 0.1
B(  0-C ,  1-C ) :   1.0727 B(  0-C ,  7-H ) :   0.9547 B(  0-C ,  8-H ) :   0.9537
B(  0-C ,  9-H ) :   0.9537 B(  1-C ,  2-O ) :   1.0101 B(  1-C ,  6-C ) :   0.9937
B(  1-C , 10-H ) :   0.8921 B(  2-O ,  3-C ) :   1.0225 B(  3-C ,  4-C ) :   1.0356
B(  3-C , 11-H ) :   0.9097 B(  3-C , 12-H ) :   0.9188 B(  4-C ,  5-C ) :   1.1098
B(  4-C ,  6-C ) :   1.8571 B(  5-C , 13-H ) :   0.9378 B(  5-C , 14-H ) :   0.9415
B(  5-C , 15-H ) :   0.9492 B(  6-C , 16-H ) :   0.9886

FINAL SINGLE POINT ENERGY      -309.226288430040

DIPOLE MOMENT
-------------
                                X             Y             Z
Electronic contribution:      0.65658      -2.44632      -0.84735
Nuclear contribution   :     -0.40376       3.01815       1.09375
                        -----------------------------------------
Total Dipole Moment    :      0.25282       0.57183       0.24639
                        -----------------------------------------
Magnitude (a.u.)       :      0.67202
Magnitude (Debye)      :      1.70815

                             ****ORCA TERMINATED NORMALLY****
TOTAL RUN TIME: 0 days 0 hours 0 minutes 7 seconds 521 msec
