                         Program Version 3.0.3 - RELEASE   -
|  1> ! RI PBE def2-SVP def2-SVP/J NBO PAL2
|  2> % maxcore 2000
|  3> % output
|  4>     # printlevel mini
|  5>     print[ P_Basis ] 0
|  6>     print[ P_SCFInfo ] 1
|  7>     print[ P_SCFIterInfo ] 1
|  8>     print[ P_OrbEn ] 0
|  9>     print[ P_Cartesian ] 0
| 10> end
| 11> *xyz 0 1
| 12>  C        0.9958240000     0.1619480000     0.1479670000
| 13>  C        2.4979000000    -0.0943770000     0.1726950000
| 14>  O        3.2265260000     1.0463440000    -0.2462700000
| 15>  C        3.3995750000     1.1361430000    -1.6429490000
| 16>  C        4.2323320000    -0.0163240000    -2.1700980000
| 17>  C        3.6934800000    -1.3038070000    -1.6353390000
| 18>  C        2.8810670000    -1.3275910000    -0.5859970000
| 19>  H        0.7560860000     1.0330250000     0.7603180000
| 20>  H        0.4527900000    -0.7004270000     0.5427700000
| 21>  H        0.6436450000     0.3398560000    -0.8704350000
| 22>  H        2.7984250000    -0.2379660000     1.2183010000
| 23>  H        3.8824500000     2.0981100000    -1.8247250000
| 24>  H        2.4267040000     1.1482180000    -2.1551200000
| 25>  H        5.2828230000     0.1078630000    -1.8802730000
| 26>  H        4.2107000000    -0.0182570000    -3.2653610000
| 27>  H        3.9722810000    -2.2292410000    -2.1303650000
| 28>  H        2.4691130000    -2.2652150000    -0.2240190000
| 29> *
| 30>
| 31>                          ****END OF INPUT****
 Total Charge           Charge          ....    0
 Multiplicity           Mult            ....    1
 Number of Electrons    NEL             ....   54
 Basis Dimension        Dim             ....  148

MULLIKEN ATOMIC CHARGES
-----------------------
   0 C :    0.022736
   1 C :    0.128090
   2 O :   -0.340688
   3 C :    0.189106
   4 C :    0.027988
   5 C :   -0.083030
   6 C :   -0.060739
   7 H :    0.028089
   8 H :    0.014977
   9 H :    0.016340
  10 H :    0.013802
  11 H :    0.006899
  12 H :   -0.005049
  13 H :    0.033825
  14 H :    0.022287
  15 H :   -0.006264
  16 H :   -0.008369
Sum of atomic charges:   -0.0000000

LOEWDIN ATOMIC CHARGES
----------------------
   0 C :   -0.068699
   1 C :    0.044211
   2 O :   -0.145189
   3 C :    0.064979
   4 C :   -0.063266
   5 C :   -0.043110
   6 C :   -0.054645
   7 H :    0.029595
   8 H :    0.029404
   9 H :    0.024940
  10 H :    0.031588
  11 H :    0.021163
  12 H :    0.004692
  13 H :    0.037914
  14 H :    0.035843
  15 H :    0.024313
  16 H :    0.026266

  Mayer bond orders larger than 0.1
B(  0-C ,  1-C ) :   1.0735 B(  0-C ,  7-H ) :   0.9539 B(  0-C ,  8-H ) :   0.9512
B(  0-C ,  9-H ) :   0.9528 B(  1-C ,  2-O ) :   1.0204 B(  1-C ,  6-C ) :   0.9913
B(  1-C , 10-H ) :   0.8992 B(  2-O ,  3-C ) :   1.0121 B(  3-C ,  4-C ) :   1.1027
B(  3-C , 11-H ) :   0.9386 B(  3-C , 12-H ) :   0.9217 B(  4-C ,  5-C ) :   1.0499
B(  4-C , 13-H ) :   0.8971 B(  4-C , 14-H ) :   0.9143 B(  5-C ,  6-C ) :   1.9251
B(  5-C , 15-H ) :   0.9627 B(  6-C , 16-H ) :   0.9538

FINAL SINGLE POINT ENERGY      -309.223824630132

DIPOLE MOMENT
-------------
                                X             Y             Z
Electronic contribution:      2.47961       0.25569       1.03188
Nuclear contribution   :     -2.61222      -0.53614      -1.32860
                        -----------------------------------------
Total Dipole Moment    :     -0.13261      -0.28045      -0.29672
                        -----------------------------------------
Magnitude (a.u.)       :      0.42928
Magnitude (Debye)      :      1.09114

                             ****ORCA TERMINATED NORMALLY****
TOTAL RUN TIME: 0 days 0 hours 0 minutes 7 seconds 110 msec
