                         Program Version 3.0.3 - RELEASE   -
|  1> ! RI PBE def2-SVP def2-SVP/J NBO PAL2
|  2> % maxcore 2000
|  3> % output
|  4>     # printlevel mini
|  5>     print[ P_Basis ] 0
|  6>     print[ P_SCFInfo ] 1
|  7>     print[ P_SCFIterInfo ] 1
|  8>     print[ P_OrbEn ] 0
|  9>     print[ P_Cartesian ] 0
| 10> end
| 11> *xyz 0 1
| 12>  C        1.0330820000    -0.0082170000     0.0230930000
| 13>  C        2.5392860000    -0.0625730000    -0.1749160000
| 14>  O        2.9997170000    -1.3549180000    -0.4825660000
| 15>  C        2.6907280000    -1.7761680000    -1.7964010000
| 16>  C        3.2128890000    -0.7758030000    -2.8091050000
| 17>  C        2.6919400000     0.5992520000    -2.4392570000
| 18>  O        3.0008660000     0.8977960000    -1.0922150000
| 19>  H        0.7458790000    -0.7164800000     0.8020080000
| 20>  H        0.4744150000    -0.2526150000    -0.8810350000
| 21>  H        0.7467530000     0.9964760000     0.3384330000
| 22>  H        3.0349000000     0.1914830000     0.7647790000
| 23>  H        1.6059710000    -1.9107260000    -1.9181500000
| 24>  H        3.1580190000    -2.7552550000    -1.9142040000
| 25>  H        2.8945110000    -1.0490620000    -3.8194280000
| 26>  H        4.3062330000    -0.7695310000    -2.7838710000
| 27>  H        1.6072800000     0.6550760000    -2.6125290000
| 28>  H        3.1601310000     1.3848550000    -3.0346360000
| 29> *
| 30>
| 31>                          ****END OF INPUT****
 Total Charge           Charge          ....    0
 Multiplicity           Mult            ....    1
 Number of Electrons    NEL             ....   56
 Basis Dimension        Dim             ....  148

MULLIKEN ATOMIC CHARGES
-----------------------
   0 C :   -0.003190
   1 C :    0.211661
   2 O :   -0.332791
   3 C :    0.179091
   4 C :   -0.051099
   5 C :    0.170162
   6 O :   -0.328479
   7 H :    0.031334
   8 H :    0.021912
   9 H :    0.028312
  10 H :    0.002215
  11 H :   -0.005591
  12 H :    0.016675
  13 H :    0.011350
  14 H :    0.033179
  15 H :   -0.005685
  16 H :    0.020945
Sum of atomic charges:   -0.0000000

LOEWDIN ATOMIC CHARGES
----------------------
   0 C :   -0.089909
   1 C :    0.100939
   2 O :   -0.143616
   3 C :    0.061012
   4 C :   -0.075708
   5 C :    0.059598
   6 O :   -0.142542
   7 H :    0.035202
   8 H :    0.023633
   9 H :    0.034916
  10 H :    0.020315
  11 H :    0.003488
  12 H :    0.023440
  13 H :    0.030611
  14 H :    0.031153
  15 H :    0.003302
  16 H :    0.024167

  Mayer bond orders larger than 0.1
B(  0-C ,  1-C ) :   1.0788 B(  0-C ,  7-H ) :   0.9510 B(  0-C ,  8-H ) :   0.9447
B(  0-C ,  9-H ) :   0.9492 B(  1-C ,  2-O ) :   1.0504 B(  1-C ,  6-O ) :   1.0487
B(  1-C , 10-H ) :   0.9257 B(  2-O ,  3-C ) :   1.0009 B(  3-C ,  4-C ) :   1.0897
B(  3-C , 11-H ) :   0.9253 B(  3-C , 12-H ) :   0.9460 B(  4-C ,  5-C ) :   1.0901
B(  4-C , 13-H ) :   0.9208 B(  4-C , 14-H ) :   0.9152 B(  5-C ,  6-O ) :   1.0060
B(  5-C , 15-H ) :   0.9256 B(  5-C , 16-H ) :   0.9454

FINAL SINGLE POINT ENERGY      -346.296485330892

DIPOLE MOMENT
-------------
                                X             Y             Z
Electronic contribution:      3.39608       0.53156       1.96227
Nuclear contribution   :     -3.85344      -0.66525      -2.46546
                        -----------------------------------------
Total Dipole Moment    :     -0.45737      -0.13369      -0.50319
                        -----------------------------------------
Magnitude (a.u.)       :      0.69301
Magnitude (Debye)      :      1.76149

                             ****ORCA TERMINATED NORMALLY****
TOTAL RUN TIME: 0 days 0 hours 0 minutes 7 seconds 730 msec
