                         Program Version 3.0.3 - RELEASE   -
|  1> ! RI PBE def2-SVP def2-SVP/J NBO PAL2
|  2> % maxcore 2000
|  3> % output
|  4>     # printlevel mini
|  5>     print[ P_Basis ] 0
|  6>     print[ P_SCFInfo ] 1
|  7>     print[ P_SCFIterInfo ] 1
|  8>     print[ P_OrbEn ] 0
|  9>     print[ P_Cartesian ] 0
| 10> end
| 11> *xyz 0 1
| 12>  C        0.8819510000    -0.0310330000     0.3207040000
| 13>  C        2.2324430000     0.0020040000    -0.3262260000
| 14>  O        2.4842310000    -1.1822070000    -1.0660240000
| 15>  C        3.2175840000    -0.7450340000    -2.1479630000
| 16>  C        3.1333600000     0.5738670000    -2.2692220000
| 17>  C        3.6439610000     1.5298650000    -3.2665640000
| 18>  O        2.3397270000     1.0725500000    -1.2547470000
| 19>  H        0.8278510000    -0.8681720000     1.0182010000
| 20>  H        0.1077070000    -0.1452380000    -0.4389330000
| 21>  H        0.7127020000     0.8952840000     0.8716130000
| 22>  H        3.0427240000     0.1182910000     0.4167630000
| 23>  H        3.6976550000    -1.4876940000    -2.7620880000
| 24>  H        4.2148850000     1.0065230000    -4.0336680000
| 25>  H        4.2876290000     2.2817420000    -2.8014850000
| 26>  H        2.8162770000     2.0588420000    -3.7487690000
| 27> *
| 28>
| 29>                          ****END OF INPUT****
 Total Charge           Charge          ....    0
 Multiplicity           Mult            ....    1
 Number of Electrons    NEL             ....   54
 Basis Dimension        Dim             ....  138

MULLIKEN ATOMIC CHARGES
-----------------------
   0 C :    0.020767
   1 C :    0.237233
   2 O :   -0.280416
   3 C :    0.050963
   4 C :   -0.025989
   5 C :    0.091588
   6 O :   -0.289231
   7 H :    0.038650
   8 H :    0.028042
   9 H :    0.035695
  10 H :   -0.008367
  11 H :    0.002810
  12 H :    0.022897
  13 H :    0.037946
  14 H :    0.037412
Sum of atomic charges:   -0.0000000

LOEWDIN ATOMIC CHARGES
----------------------
   0 C :   -0.075739
   1 C :    0.137600
   2 O :   -0.104323
   3 C :   -0.025718
   4 C :   -0.021988
   5 C :   -0.061177
   6 O :   -0.105461
   7 H :    0.040317
   8 H :    0.034636
   9 H :    0.039374
  10 H :   -0.004784
  11 H :    0.022649
  12 H :    0.042452
  13 H :    0.039911
  14 H :    0.042253

  Mayer bond orders larger than 0.1
B(  0-C ,  1-C ) :   1.1020 B(  0-C ,  7-H ) :   0.9510 B(  0-C ,  8-H ) :   0.9465
B(  0-C ,  9-H ) :   0.9512 B(  1-C ,  2-O ) :   1.0249 B(  1-C ,  6-O ) :   1.0133
B(  1-C , 10-H ) :   0.9047 B(  2-O ,  3-C ) :   1.0354 B(  3-C ,  4-C ) :   1.7116
B(  3-C , 11-H ) :   0.9857 B(  4-C ,  5-C ) :   1.1290 B(  4-C ,  6-O ) :   1.0471
B(  5-C , 12-H ) :   0.9461 B(  5-C , 13-H ) :   0.9359 B(  5-C , 14-H ) :   0.9285

FINAL SINGLE POINT ENERGY      -345.089585305311

DIPOLE MOMENT
-------------
                                X             Y             Z
Electronic contribution:      0.73815      -2.10170       0.07687
Nuclear contribution   :     -0.59370       2.25660      -0.18692
                        -----------------------------------------
Total Dipole Moment    :      0.14444       0.15490      -0.11004
                        -----------------------------------------
Magnitude (a.u.)       :      0.23868
Magnitude (Debye)      :      0.60668

                             ****ORCA TERMINATED NORMALLY****
TOTAL RUN TIME: 0 days 0 hours 0 minutes 6 seconds 939 msec
