                         Program Version 3.0.3 - RELEASE   -
|  1> ! RI PBE def2-SVP def2-SVP/J NBO PAL2
|  2> % maxcore 2000
|  3> % output
|  4>     # printlevel mini
|  5>     print[ P_Basis ] 0
|  6>     print[ P_SCFInfo ] 1
|  7>     print[ P_SCFIterInfo ] 1
|  8>     print[ P_OrbEn ] 0
|  9>     print[ P_Cartesian ] 0
| 10> end
| 11> *xyz 0 1
| 12>  C        1.2569090000     0.1279650000    -0.2938390000
| 13>  C        2.6983880000     0.0379770000     0.1625370000
| 14>  O        3.4730730000     1.1379890000    -0.1977470000
| 15>  C        3.6038130000     1.3052570000    -1.5997740000
| 16>  C        3.8718100000    -0.0034030000    -2.2577530000
| 17>  C        3.7266870000    -1.1294760000    -1.5662220000
| 18>  O        3.2750180000    -1.1833550000    -0.2938900000
| 19>  H        0.8220950000     1.0683320000     0.0496690000
| 20>  H        0.6868040000    -0.6998260000     0.1296780000
| 21>  H        1.1804250000     0.0745200000    -1.3808290000
| 22>  H        2.7571600000    -0.0134290000     1.2507690000
| 23>  H        4.4458620000     1.9895550000    -1.7338360000
| 24>  H        2.7148510000     1.8047300000    -2.0154150000
| 25>  H        4.2243170000    -0.0374100000    -3.2800120000
| 26>  H        3.9672970000    -2.1119160000    -1.9548270000
| 27> *
| 28>
| 29>                          ****END OF INPUT****
 Total Charge           Charge          ....    0
 Multiplicity           Mult            ....    1
 Number of Electrons    NEL             ....   54
 Basis Dimension        Dim             ....  138

MULLIKEN ATOMIC CHARGES
-----------------------
   0 C :    0.015829
   1 C :    0.163036
   2 O :   -0.314140
   3 C :    0.256883
   4 C :   -0.184345
   5 C :    0.135146
   6 O :   -0.251625
   7 H :    0.035509
   8 H :    0.036172
   9 H :    0.030298
  10 H :    0.021480
  11 H :    0.033590
  12 H :    0.013239
  13 H :    0.003326
  14 H :    0.005602
Sum of atomic charges:    0.0000000

LOEWDIN ATOMIC CHARGES
----------------------
   0 C :   -0.084444
   1 C :    0.109786
   2 O :   -0.129535
   3 C :    0.066106
   4 C :   -0.144428
   5 C :    0.029276
   6 O :   -0.078313
   7 H :    0.036377
   8 H :    0.037880
   9 H :    0.034769
  10 H :    0.024261
  11 H :    0.032990
  12 H :    0.010852
  13 H :    0.031915
  14 H :    0.022510

  Mayer bond orders larger than 0.1
B(  0-C ,  1-C ) :   1.0724 B(  0-C ,  7-H ) :   0.9526 B(  0-C ,  8-H ) :   0.9488
B(  0-C ,  9-H ) :   0.9431 B(  1-C ,  2-O ) :   1.0924 B(  1-C ,  6-O ) :   0.9681
B(  1-C , 10-H ) :   0.9312 B(  2-O ,  3-C ) :   1.0020 B(  3-C ,  4-C ) :   1.0346
B(  3-C , 11-H ) :   0.9312 B(  3-C , 12-H ) :   0.9199 B(  4-C ,  5-C ) :   1.7881
B(  4-C ,  6-O ) :   0.1049 B(  4-C , 13-H ) :   0.9487 B(  5-C ,  6-O ) :   1.1321
B(  5-C , 14-H ) :   0.9764

FINAL SINGLE POINT ENERGY      -345.086123328685

DIPOLE MOMENT
-------------
                                X             Y             Z
Electronic contribution:      3.41916      -1.44888       1.72582
Nuclear contribution   :     -3.79262       1.53704      -2.09828
                        -----------------------------------------
Total Dipole Moment    :     -0.37346       0.08816      -0.37246
                        -----------------------------------------
Magnitude (a.u.)       :      0.53476
Magnitude (Debye)      :      1.35926

                             ****ORCA TERMINATED NORMALLY****
TOTAL RUN TIME: 0 days 0 hours 0 minutes 6 seconds 964 msec
