                         Program Version 3.0.3 - RELEASE   -
|  1> ! RI PBE def2-SVP def2-SVP/J NBO PAL2
|  2> % maxcore 2000
|  3> % output
|  4>     # printlevel mini
|  5>     print[ P_Basis ] 0
|  6>     print[ P_SCFInfo ] 1
|  7>     print[ P_SCFIterInfo ] 1
|  8>     print[ P_OrbEn ] 0
|  9>     print[ P_Cartesian ] 0
| 10> end
| 11> *xyz 0 1
| 12>  C        1.1474210000    -0.0783580000     0.0417170000
| 13>  C        2.6450970000    -0.0789410000     0.0365340000
| 14>  O        3.1534240000     1.0123150000     0.7468370000
| 15>  C        4.4361250000     0.6094510000     1.1793190000
| 16>  C        4.2883750000    -0.8790510000     1.3473950000
| 17>  C        5.0732680000    -1.7308840000     1.9904440000
| 18>  O        3.1520130000    -1.2359130000     0.6977020000
| 19>  H        0.7787700000     0.8174810000    -0.4597540000
| 20>  H        0.7827170000    -0.0922160000     1.0694340000
| 21>  H        0.7733500000    -0.9560260000    -0.4865930000
| 22>  H        3.0489310000    -0.0815800000    -0.9901300000
| 23>  H        4.6800070000     1.1279200000     2.1061530000
| 24>  H        5.1987970000     0.8459710000     0.4234880000
| 25>  H        5.9472580000    -1.3679780000     2.5129570000
| 26>  H        4.8569460000    -2.7901920000     2.0099960000
| 27> *
| 28>
| 29>                          ****END OF INPUT****
 Total Charge           Charge          ....    0
 Multiplicity           Mult            ....    1
 Number of Electrons    NEL             ....   54
 Basis Dimension        Dim             ....  138

MULLIKEN ATOMIC CHARGES
-----------------------
   0 C :    0.040813
   1 C :    0.212635
   2 O :   -0.326196
   3 C :    0.244236
   4 C :   -0.026685
   5 C :   -0.084484
   6 O :   -0.255691
   7 H :    0.036383
   8 H :    0.029233
   9 H :    0.036488
  10 H :   -0.001567
  11 H :    0.039206
  12 H :    0.024735
  13 H :    0.006339
  14 H :    0.024554
Sum of atomic charges:   -0.0000000

LOEWDIN ATOMIC CHARGES
----------------------
   0 C :   -0.070535
   1 C :    0.121125
   2 O :   -0.132730
   3 C :    0.060944
   4 C :    0.009209
   5 C :   -0.143615
   6 O :   -0.075885
   7 H :    0.040635
   8 H :    0.035997
   9 H :    0.040240
  10 H :   -0.001390
  11 H :    0.034769
  12 H :    0.021289
  13 H :    0.028817
  14 H :    0.031129

  Mayer bond orders larger than 0.1
B(  0-C ,  1-C ) :   1.0937 B(  0-C ,  7-H ) :   0.9504 B(  0-C ,  8-H ) :   0.9476
B(  0-C ,  9-H ) :   0.9501 B(  1-C ,  2-O ) :   1.0632 B(  1-C ,  6-O ) :   0.9850
B(  1-C , 10-H ) :   0.9134 B(  2-O ,  3-C ) :   1.0022 B(  3-C ,  4-C ) :   0.9957
B(  3-C , 11-H ) :   0.9349 B(  3-C , 12-H ) :   0.9142 B(  4-C ,  5-C ) :   1.9339
B(  4-C ,  6-O ) :   1.1304 B(  5-C , 13-H ) :   0.9254 B(  5-C , 14-H ) :   0.9295

FINAL SINGLE POINT ENERGY      -345.088775559012

DIPOLE MOMENT
-------------
                                X             Y             Z
Electronic contribution:      0.95065       0.20886       0.27826
Nuclear contribution   :     -0.92260       0.06364      -0.53826
                        -----------------------------------------
Total Dipole Moment    :      0.02805       0.27249      -0.26000
                        -----------------------------------------
Magnitude (a.u.)       :      0.37768
Magnitude (Debye)      :      0.95997

                             ****ORCA TERMINATED NORMALLY****
TOTAL RUN TIME: 0 days 0 hours 0 minutes 7 seconds 217 msec
