                         Program Version 3.0.3 - RELEASE   -
|  1> ! RI PBE def2-SVP def2-SVP/J NBO PAL2
|  2> % maxcore 2000
|  3> % output
|  4>     # printlevel mini
|  5>     print[ P_Basis ] 0
|  6>     print[ P_SCFInfo ] 1
|  7>     print[ P_SCFIterInfo ] 1
|  8>     print[ P_OrbEn ] 0
|  9>     print[ P_Cartesian ] 0
| 10> end
| 11> *xyz 0 1
| 12>  C        1.0178700000    -0.0734560000    -0.0349580000
| 13>  C        2.5329190000    -0.0334960000    -0.0056700000
| 14>  O        3.0522570000     0.0246420000    -1.3319990000
| 15>  C        3.1244110000     1.0947680000     0.8431420000
| 16>  C        4.4930400000     0.5372240000     1.1775430000
| 17>  O        4.2622800000    -0.8363390000     1.4322930000
| 18>  C        3.1691870000    -1.2698520000     0.6410220000
| 19>  H        0.6154430000     0.8306550000    -0.5024530000
| 20>  H        0.6041100000    -0.1406070000     0.9734040000
| 21>  H        0.6720210000    -0.9337640000    -0.6124160000
| 22>  H        2.6955130000     0.8093760000    -1.7581050000
| 23>  H        2.5373320000     1.2277730000     1.7563160000
| 24>  H        3.1510840000     2.0443520000     0.3036760000
| 25>  H        4.9459750000     0.9748330000     2.0691230000
| 26>  H        5.1812470000     0.6643470000     0.3313800000
| 27>  H        2.4607420000    -1.7938260000     1.2899530000
| 28>  H        3.5052890000    -1.9546300000    -0.1444520000
| 29> *
| 30>
| 31>                          ****END OF INPUT****
 Total Charge           Charge          ....    0
 Multiplicity           Mult            ....    1
 Number of Electrons    NEL             ....   56
 Basis Dimension        Dim             ....  148

MULLIKEN ATOMIC CHARGES
-----------------------
   0 C :    0.073247
   1 C :   -0.282875
   2 O :   -0.251672
   3 C :    0.041561
   4 C :    0.221172
   5 O :   -0.368271
   6 C :    0.331431
   7 H :    0.007778
   8 H :    0.015701
   9 H :    0.032146
  10 H :    0.150360
  11 H :    0.011796
  12 H :    0.001511
  13 H :    0.010239
  14 H :    0.001067
  15 H :   -0.001383
  16 H :    0.006191
Sum of atomic charges:   -0.0000000

LOEWDIN ATOMIC CHARGES
----------------------
   0 C :   -0.066612
   1 C :    0.000629
   2 O :   -0.105814
   3 C :   -0.060176
   4 C :    0.066674
   5 O :   -0.160071
   6 C :    0.069776
   7 H :    0.023511
   8 H :    0.029587
   9 H :    0.031576
  10 H :    0.064307
  11 H :    0.027963
  12 H :    0.023889
  13 H :    0.017644
  14 H :    0.005230
  15 H :    0.014039
  16 H :    0.017851

  Mayer bond orders larger than 0.1
B(  0-C ,  1-C ) :   1.0764 B(  0-C ,  7-H ) :   0.9492 B(  0-C ,  8-H ) :   0.9393
B(  0-C ,  9-H ) :   0.9554 B(  1-C ,  2-O ) :   1.0259 B(  1-C ,  3-C ) :   1.0422
B(  1-C ,  6-C ) :   1.0011 B(  2-O , 10-H ) :   0.9808 B(  3-C ,  4-C ) :   1.0788
B(  3-C , 11-H ) :   0.9141 B(  3-C , 12-H ) :   0.9192 B(  4-C ,  5-O ) :   1.0091
B(  4-C , 13-H ) :   0.9443 B(  4-C , 14-H ) :   0.9276 B(  5-O ,  6-C ) :   1.0246
B(  6-C , 15-H ) :   0.9357 B(  6-C , 16-H ) :   0.9089

FINAL SINGLE POINT ENERGY      -346.296702592014

DIPOLE MOMENT
-------------
                                X             Y             Z
Electronic contribution:      3.53393      -1.61044      -0.26317
Nuclear contribution   :     -4.25468       2.36331       0.08565
                        -----------------------------------------
Total Dipole Moment    :     -0.72074       0.75287      -0.17751
                        -----------------------------------------
Magnitude (a.u.)       :      1.05726
Magnitude (Debye)      :      2.68734

                             ****ORCA TERMINATED NORMALLY****
TOTAL RUN TIME: 0 days 0 hours 0 minutes 7 seconds 732 msec
