                         Program Version 3.0.3 - RELEASE   -
|  1> ! RI PBE def2-SVP def2-SVP/J NBO PAL2
|  2> % maxcore 2000
|  3> % output
|  4>     # printlevel mini
|  5>     print[ P_Basis ] 0
|  6>     print[ P_SCFInfo ] 1
|  7>     print[ P_SCFIterInfo ] 1
|  8>     print[ P_OrbEn ] 0
|  9>     print[ P_Cartesian ] 0
| 10> end
| 11> *xyz 0 1
| 12>  C        1.0588970000     0.0645230000     0.3036730000
| 13>  C        2.5373990000     0.0611840000    -0.0185600000
| 14>  O        2.7686620000    -0.0200870000    -1.4044370000
| 15>  C        3.3385150000     1.1646130000     0.7356430000
| 16>  C        3.8562770000     0.0694980000     1.6544470000
| 17>  O        4.3844610000     0.0691610000     2.7250960000
| 18>  C        3.3402000000    -1.0234270000     0.7341130000
| 19>  H        0.5722290000     0.9473910000    -0.1235340000
| 20>  H        0.8877600000     0.0852760000     1.3826640000
| 21>  H        0.5805970000    -0.8278240000    -0.1058070000
| 22>  H        2.2433140000     0.6549370000    -1.8437630000
| 23>  H        2.7970420000     1.9904320000     1.2006410000
| 24>  H        4.1458750000     1.5567490000     0.1106650000
| 25>  H        2.7999480000    -1.8542980000     1.1900240000
| 26>  H        4.1446140000    -1.4133290000     0.1039250000
| 27> *
| 28>
| 29>                          ****END OF INPUT****
 Total Charge           Charge          ....    0
 Multiplicity           Mult            ....    1
 Number of Electrons    NEL             ....   54
 Basis Dimension        Dim             ....  138

MULLIKEN ATOMIC CHARGES
-----------------------
   0 C :    0.080866
   1 C :   -0.305695
   2 O :   -0.232163
   3 C :    0.169815
   4 C :   -0.107506
   5 O :   -0.117289
   6 C :    0.159817
   7 H :    0.015893
   8 H :    0.014712
   9 H :    0.032447
  10 H :    0.155757
  11 H :    0.028583
  12 H :    0.028278
  13 H :    0.033821
  14 H :    0.042663
Sum of atomic charges:   -0.0000000

LOEWDIN ATOMIC CHARGES
----------------------
   0 C :   -0.065754
   1 C :    0.016474
   2 O :   -0.099413
   3 C :   -0.075934
   4 C :    0.053362
   5 O :   -0.099215
   6 C :   -0.059876
   7 H :    0.025106
   8 H :    0.033584
   9 H :    0.031627
  10 H :    0.069827
  11 H :    0.032077
  12 H :    0.048195
  13 H :    0.035666
  14 H :    0.054272

  Mayer bond orders larger than 0.1
B(  0-C ,  1-C ) :   1.0346 B(  0-C ,  7-H ) :   0.9504 B(  0-C ,  8-H ) :   0.9406
B(  0-C ,  9-H ) :   0.9542 B(  1-C ,  2-O ) :   1.0810 B(  1-C ,  3-C ) :   1.0122
B(  1-C ,  6-C ) :   1.0115 B(  2-O , 10-H ) :   0.9781 B(  3-C ,  4-C ) :   0.9856
B(  3-C ,  6-C ) :  -0.1361 B(  3-C , 11-H ) :   0.9210 B(  3-C , 12-H ) :   0.8603
B(  4-C ,  5-O ) :   2.2422 B(  4-C ,  6-C ) :   0.9745 B(  6-C , 13-H ) :   0.9211
B(  6-C , 14-H ) :   0.8675

FINAL SINGLE POINT ENERGY      -345.093031310461

DIPOLE MOMENT
-------------
                                X             Y             Z
Electronic contribution:      4.75775      -0.25986       2.21183
Nuclear contribution   :     -5.61224       0.62001      -3.00144
                        -----------------------------------------
Total Dipole Moment    :     -0.85449       0.36015      -0.78961
                        -----------------------------------------
Magnitude (a.u.)       :      1.21793
Magnitude (Debye)      :      3.09573

                             ****ORCA TERMINATED NORMALLY****
TOTAL RUN TIME: 0 days 0 hours 0 minutes 6 seconds 897 msec
