                         Program Version 3.0.3 - RELEASE   -
|  1> ! RI PBE def2-SVP def2-SVP/J NBO PAL2
|  2> % maxcore 2000
|  3> % output
|  4>     # printlevel mini
|  5>     print[ P_Basis ] 0
|  6>     print[ P_SCFInfo ] 1
|  7>     print[ P_SCFIterInfo ] 1
|  8>     print[ P_OrbEn ] 0
|  9>     print[ P_Cartesian ] 0
| 10> end
| 11> *xyz 0 1
| 12>  C        1.0063710000     0.0623550000     0.4388180000
| 13>  C        2.3362050000     0.1359110000    -0.2817930000
| 14>  O        2.1515990000     0.1639320000    -1.6789030000
| 15>  C        3.3041370000     1.1881950000     0.3128630000
| 16>  C        3.9723060000     0.0662510000     1.1075660000
| 17>  O        5.3712800000     0.1636090000     1.1603610000
| 18>  C        3.3351420000    -0.9519950000     0.1420620000
| 19>  H        0.4053450000     0.9543970000     0.2309600000
| 20>  H        1.1408970000     0.0036610000     1.5216430000
| 21>  H        0.4466790000    -0.8167760000     0.1107740000
| 22>  H        1.5084500000     0.8480550000    -1.8871330000
| 23>  H        2.8881790000     2.0379390000     0.8575740000
| 24>  H        3.9890700000     1.5370380000    -0.4621420000
| 25>  H        3.5509870000    -0.0188240000     2.1172330000
| 26>  H        5.7137380000    -0.5865220000     1.6532360000
| 27>  H        2.9371060000    -1.8875550000     0.5401700000
| 28>  H        4.0208890000    -1.1555730000    -0.6823780000
| 29> *
| 30>
| 31>                          ****END OF INPUT****
 Total Charge           Charge          ....    0
 Multiplicity           Mult            ....    1
 Number of Electrons    NEL             ....   56
 Basis Dimension        Dim             ....  148

MULLIKEN ATOMIC CHARGES
-----------------------
   0 C :    0.073297
   1 C :   -0.320395
   2 O :   -0.228697
   3 C :    0.236215
   4 C :   -0.106362
   5 O :   -0.236189
   6 C :    0.250673
   7 H :    0.011719
   8 H :    0.009453
   9 H :    0.027110
  10 H :    0.148248
  11 H :    0.005189
  12 H :   -0.008230
  13 H :   -0.006432
  14 H :    0.155499
  15 H :    0.000519
  16 H :   -0.011617
Sum of atomic charges:    0.0000000

LOEWDIN ATOMIC CHARGES
----------------------
   0 C :   -0.069435
   1 C :    0.016356
   2 O :   -0.102418
   3 C :   -0.046383
   4 C :    0.046767
   5 O :   -0.109992
   6 C :   -0.047856
   7 H :    0.023244
   8 H :    0.028655
   9 H :    0.029099
  10 H :    0.065613
  11 H :    0.014383
  12 H :    0.032968
  13 H :    0.002017
  14 H :    0.070740
  15 H :    0.013331
  16 H :    0.032912

  Mayer bond orders larger than 0.1
B(  0-C ,  1-C ) :   1.0429 B(  0-C ,  7-H ) :   0.9435 B(  0-C ,  8-H ) :   0.9411
B(  0-C ,  9-H ) :   0.9491 B(  1-C ,  2-O ) :   1.1103 B(  1-C ,  3-C ) :   1.0162
B(  1-C ,  6-C ) :   1.0347 B(  2-O , 10-H ) :   0.9796 B(  3-C ,  4-C ) :   1.0647
B(  3-C , 11-H ) :   0.9257 B(  3-C , 12-H ) :   0.8412 B(  4-C ,  5-O ) :   1.1472
B(  4-C ,  6-C ) :   1.0380 B(  4-C , 13-H ) :   0.9222 B(  5-O , 14-H ) :   0.9804
B(  6-C , 15-H ) :   0.9255 B(  6-C , 16-H ) :   0.8338

FINAL SINGLE POINT ENERGY      -346.281979439446

DIPOLE MOMENT
-------------
                                X             Y             Z
Electronic contribution:      3.44864       0.16080      -1.70048
Nuclear contribution   :     -3.93795      -0.25808       2.23478
                        -----------------------------------------
Total Dipole Moment    :     -0.48931      -0.09727       0.53429
                        -----------------------------------------
Magnitude (a.u.)       :      0.73100
Magnitude (Debye)      :      1.85804

                             ****ORCA TERMINATED NORMALLY****
TOTAL RUN TIME: 0 days 0 hours 0 minutes 7 seconds 142 msec
