                         Program Version 3.0.3 - RELEASE   -
|  1> ! RI PBE def2-SVP def2-SVP/J NBO PAL2
|  2> % maxcore 2000
|  3> % output
|  4>     # printlevel mini
|  5>     print[ P_Basis ] 0
|  6>     print[ P_SCFInfo ] 1
|  7>     print[ P_SCFIterInfo ] 1
|  8>     print[ P_OrbEn ] 0
|  9>     print[ P_Cartesian ] 0
| 10> end
| 11> *xyz 0 1
| 12>  C        1.0610000000     0.0327340000    -0.1184020000
| 13>  C        2.5657660000    -0.0065360000    -0.1323970000
| 14>  O        3.0768070000     1.0237600000     0.6984550000
| 15>  C        4.3422800000     0.6108400000     1.1483400000
| 16>  O        4.4882730000    -0.7538160000     0.8467290000
| 17>  C        3.2106760000    -1.2441280000     0.4719930000
| 18>  C        3.3723840000    -2.4253060000    -0.4471220000
| 19>  H        0.6997320000     0.9903600000    -0.4965480000
| 20>  H        0.6842440000    -0.1002100000     0.8980450000
| 21>  H        0.6521540000    -0.7574490000    -0.7526920000
| 22>  H        2.9422720000     0.1218290000    -1.1601710000
| 23>  H        4.3921730000     0.7905440000     2.2303130000
| 24>  H        5.1473410000     1.1579020000     0.6402740000
| 25>  H        2.6439330000    -1.5341860000     1.3715480000
| 26>  H        3.9284570000    -2.1399100000    -1.3427330000
| 27>  H        2.3957360000    -2.8131400000    -0.7464980000
| 28>  H        3.9156610000    -3.2281880000     0.0536660000
| 29> *
| 30>
| 31>                          ****END OF INPUT****
 Total Charge           Charge          ....    0
 Multiplicity           Mult            ....    1
 Number of Electrons    NEL             ....   56
 Basis Dimension        Dim             ....  148

MULLIKEN ATOMIC CHARGES
-----------------------
   0 C :    0.053294
   1 C :    0.053986
   2 O :   -0.353297
   3 C :    0.371785
   4 O :   -0.352671
   5 C :    0.048607
   6 C :    0.050193
   7 H :    0.032762
   8 H :    0.018744
   9 H :    0.020294
  10 H :   -0.009773
  11 H :    0.001917
  12 H :    0.000353
  13 H :   -0.008321
  14 H :    0.020484
  15 H :    0.016363
  16 H :    0.035281
Sum of atomic charges:   -0.0000000

LOEWDIN ATOMIC CHARGES
----------------------
   0 C :   -0.062871
   1 C :    0.037686
   2 O :   -0.152569
   3 C :    0.147129
   4 O :   -0.152648
   5 C :    0.037537
   6 C :   -0.063744
   7 H :    0.035647
   8 H :    0.028948
   9 H :    0.032226
  10 H :    0.007519
  11 H :    0.000215
  12 H :   -0.000200
  13 H :    0.007919
  14 H :    0.029487
  15 H :    0.031675
  16 H :    0.036044

  Mayer bond orders larger than 0.1
B(  0-C ,  1-C ) :   1.0872 B(  0-C ,  7-H ) :   0.9505 B(  0-C ,  8-H ) :   0.9478
B(  0-C ,  9-H ) :   0.9528 B(  1-C ,  2-O ) :   0.9979 B(  1-C ,  5-C ) :   1.0410
B(  1-C , 10-H ) :   0.9034 B(  2-O ,  3-C ) :   1.0266 B(  3-C ,  4-O ) :   1.0259
B(  3-C , 11-H ) :   0.9426 B(  3-C , 12-H ) :   0.9424 B(  4-O ,  5-C ) :   0.9970
B(  5-C ,  6-C ) :   1.0933 B(  5-C , 13-H ) :   0.9030 B(  6-C , 14-H ) :   0.9471
B(  6-C , 15-H ) :   0.9499 B(  6-C , 16-H ) :   0.9502

FINAL SINGLE POINT ENERGY      -346.298514358811

DIPOLE MOMENT
-------------
                                X             Y             Z
Electronic contribution:      3.65495       3.10958       2.46384
Nuclear contribution   :     -3.98480      -3.38797      -2.68844
                        -----------------------------------------
Total Dipole Moment    :     -0.32986      -0.27838      -0.22460
                        -----------------------------------------
Magnitude (a.u.)       :      0.48657
Magnitude (Debye)      :      1.23676

                             ****ORCA TERMINATED NORMALLY****
TOTAL RUN TIME: 0 days 0 hours 0 minutes 7 seconds 349 msec
