                         Program Version 3.0.3 - RELEASE   -
|  1> ! RI PBE def2-SVP def2-SVP/J NBO PAL2
|  2> % maxcore 2000
|  3> % output
|  4>     # printlevel mini
|  5>     print[ P_Basis ] 0
|  6>     print[ P_SCFInfo ] 1
|  7>     print[ P_SCFIterInfo ] 1
|  8>     print[ P_OrbEn ] 0
|  9>     print[ P_Cartesian ] 0
| 10> end
| 11> *xyz 0 1
| 12>  C        0.9853870000     0.0726740000     0.0627980000
| 13>  C        2.2725910000     0.0251040000    -0.2565180000
| 14>  O        2.9793520000     1.1197430000    -0.6521840000
| 15>  C        4.3057780000     0.7388250000    -0.9161880000
| 16>  O        4.4106590000    -0.6408360000    -0.6717530000
| 17>  C        3.1991660000    -1.1145650000    -0.2690650000
| 18>  C        2.9864290000    -2.3884850000     0.0358790000
| 19>  H        0.4349220000     1.0017940000     0.0206930000
| 20>  H        0.4734760000    -0.8269830000     0.3703890000
| 21>  H        4.9844200000     1.2831540000    -0.2505210000
| 22>  H        4.5465210000     0.9461810000    -1.9645240000
| 23>  H        3.7830870000    -3.1163180000    -0.0244790000
| 24>  H        2.0046120000    -2.7100970000     0.3499640000
| 25> *
| 26>
| 27>                          ****END OF INPUT****
 Total Charge           Charge          ....    0
 Multiplicity           Mult            ....    1
 Number of Electrons    NEL             ....   52
 Basis Dimension        Dim             ....  128

MULLIKEN ATOMIC CHARGES
-----------------------
   0 C :   -0.097682
   1 C :    0.103207
   2 O :   -0.266274
   3 C :    0.356993
   4 O :   -0.265506
   5 C :    0.104724
   6 C :   -0.097495
   7 H :    0.028850
   8 H :    0.020202
   9 H :    0.036047
  10 H :    0.031033
  11 H :    0.029794
  12 H :    0.016107
Sum of atomic charges:   -0.0000000

LOEWDIN ATOMIC CHARGES
----------------------
   0 C :   -0.113510
   1 C :    0.017073
   2 O :   -0.071501
   3 C :    0.171448
   4 O :   -0.071347
   5 C :    0.017200
   6 C :   -0.113220
   7 H :    0.034409
   8 H :    0.033910
   9 H :    0.014290
  10 H :    0.013481
  11 H :    0.034488
  12 H :    0.033277

  Mayer bond orders larger than 0.1
B(  0-C ,  1-C ) :   1.9190 B(  0-C ,  7-H ) :   0.9217 B(  0-C ,  8-H ) :   0.9191
B(  1-C ,  2-O ) :   1.0886 B(  1-C ,  5-C ) :   0.9676 B(  2-O ,  3-C ) :   1.0108
B(  3-C ,  4-O ) :   1.0104 B(  3-C ,  9-H ) :   0.9433 B(  3-C , 10-H ) :   0.9423
B(  4-O ,  5-C ) :   1.0892 B(  5-C ,  6-C ) :   1.9164 B(  6-C , 11-H ) :   0.9230
B(  6-C , 12-H ) :   0.9199

FINAL SINGLE POINT ENERGY      -343.871942050724

DIPOLE MOMENT
-------------
                                X             Y             Z
Electronic contribution:      2.17953       1.78115      -0.90339
Nuclear contribution   :     -1.95601      -1.59923       0.81402
                        -----------------------------------------
Total Dipole Moment    :      0.22352       0.18192      -0.08937
                        -----------------------------------------
Magnitude (a.u.)       :      0.30173
Magnitude (Debye)      :      0.76694

                             ****ORCA TERMINATED NORMALLY****
TOTAL RUN TIME: 0 days 0 hours 0 minutes 6 seconds 289 msec
