                         Program Version 3.0.3 - RELEASE   -
|  1> ! RI PBE def2-SVP def2-SVP/J NBO PAL2
|  2> % maxcore 2000
|  3> % output
|  4>     # printlevel mini
|  5>     print[ P_Basis ] 0
|  6>     print[ P_SCFInfo ] 1
|  7>     print[ P_SCFIterInfo ] 1
|  8>     print[ P_OrbEn ] 0
|  9>     print[ P_Cartesian ] 0
| 10> end
| 11> *xyz 0 1
| 12>  C        0.9386340000     0.2263130000     0.1558000000
| 13>  C        2.3922740000    -0.0722180000    -0.0642740000
| 14>  O        3.2597010000     0.9678090000     0.4964700000
| 15>  C        3.9205300000     0.0633880000     1.2685350000
| 16>  O        4.8414460000     0.2596310000     1.9892870000
| 17>  C        3.0784750000    -1.1196800000     0.8228650000
| 18>  C        3.8144840000    -2.2749390000     0.1829500000
| 19>  H        0.6473260000     1.1402150000    -0.3653760000
| 20>  H        0.7244370000     0.3522510000     1.2194860000
| 21>  H        0.3267210000    -0.5941070000    -0.2277440000
| 22>  H        2.6282730000    -0.1869030000    -1.1257610000
| 23>  H        2.4309910000    -1.4619070000     1.6351090000
| 24>  H        4.4571650000    -1.9318520000    -0.6310210000
| 25>  H        3.1139470000    -3.0094540000    -0.2204090000
| 26>  H        4.4454760000    -2.7769650000     0.9185030000
| 27> *
| 28>
| 29>                          ****END OF INPUT****
 Total Charge           Charge          ....    0
 Multiplicity           Mult            ....    1
 Number of Electrons    NEL             ....   54
 Basis Dimension        Dim             ....  138

MULLIKEN ATOMIC CHARGES
-----------------------
   0 C :    0.060473
   1 C :    0.050973
   2 O :   -0.245319
   3 C :    0.159038
   4 O :   -0.128645
   5 C :   -0.212125
   6 C :    0.047654
   7 H :    0.040815
   8 H :    0.021669
   9 H :    0.035955
  10 H :    0.021757
  11 H :    0.036863
  12 H :    0.029793
  13 H :    0.034403
  14 H :    0.046694
Sum of atomic charges:   -0.0000000

LOEWDIN ATOMIC CHARGES
----------------------
   0 C :   -0.066929
   1 C :    0.073649
   2 O :   -0.082652
   3 C :    0.036856
   4 O :   -0.111749
   5 C :   -0.077255
   6 C :   -0.050605
   7 H :    0.038763
   8 H :    0.032657
   9 H :    0.039480
  10 H :    0.020828
  11 H :    0.042208
  12 H :    0.031744
  13 H :    0.032526
  14 H :    0.040481

  Mayer bond orders larger than 0.1
B(  0-C ,  1-C ) :   1.0980 B(  0-C ,  7-H ) :   0.9510 B(  0-C ,  8-H ) :   0.9446
B(  0-C ,  9-H ) :   0.9507 B(  1-C ,  2-O ) :   0.9805 B(  1-C ,  5-C ) :   1.0225
B(  1-C , 10-H ) :   0.9220 B(  2-O ,  3-C ) :   1.1299 B(  2-O ,  4-O ) :   0.1135
B(  3-C ,  4-O ) :   2.2340 B(  3-C ,  5-C ) :   0.9145 B(  5-C ,  6-C ) :   1.0762
B(  5-C , 11-H ) :   0.8935 B(  6-C , 12-H ) :   0.9594 B(  6-C , 13-H ) :   0.9611
B(  6-C , 14-H ) :   0.9545

FINAL SINGLE POINT ENERGY      -345.124453562239

DIPOLE MOMENT
-------------
                                X             Y             Z
Electronic contribution:      5.11421       4.99881       3.33425
Nuclear contribution   :     -6.23166      -5.89047      -4.05788
                        -----------------------------------------
Total Dipole Moment    :     -1.11745      -0.89166      -0.72362
                        -----------------------------------------
Magnitude (a.u.)       :      1.60231
Magnitude (Debye)      :      4.07275

                             ****ORCA TERMINATED NORMALLY****
TOTAL RUN TIME: 0 days 0 hours 0 minutes 6 seconds 785 msec
