                         Program Version 3.0.3 - RELEASE   -
|  1> ! RI PBE def2-SVP def2-SVP/J NBO PAL2
|  2> % maxcore 2000
|  3> % output
|  4>     # printlevel mini
|  5>     print[ P_Basis ] 0
|  6>     print[ P_SCFInfo ] 1
|  7>     print[ P_SCFIterInfo ] 1
|  8>     print[ P_OrbEn ] 0
|  9>     print[ P_Cartesian ] 0
| 10> end
| 11> *xyz 0 1
| 12>  C        0.9388490000     0.1070810000    -0.0280180000
| 13>  C        2.4404310000     0.0014760000    -0.0382410000
| 14>  O        3.0125820000     1.0508390000     0.7340050000
| 15>  C        4.2520330000     0.5699410000     1.1331340000
| 16>  O        4.0958940000    -0.8222060000     1.3488970000
| 17>  C        3.0254350000    -1.2268410000     0.6164510000
| 18>  C        2.6259560000    -2.4877460000     0.5384970000
| 19>  H        0.6249720000     1.0572590000    -0.4631740000
| 20>  H        0.5609030000     0.0395960000     0.9928650000
| 21>  H        0.5018600000    -0.7001780000    -0.6183380000
| 22>  H        2.8178140000     0.0693680000    -1.0718160000
| 23>  H        4.5502510000     1.0490290000     2.0664300000
| 24>  H        5.0157330000     0.7226950000     0.3541530000
| 25>  H        3.1580740000    -3.2781130000     1.0500040000
| 26>  H        1.7517210000    -2.7425030000    -0.0433390000
| 27> *
| 28>
| 29>                          ****END OF INPUT****
 Total Charge           Charge          ....    0
 Multiplicity           Mult            ....    1
 Number of Electrons    NEL             ....   54
 Basis Dimension        Dim             ....  138

MULLIKEN ATOMIC CHARGES
-----------------------
   0 C :    0.041232
   1 C :    0.086658
   2 O :   -0.328620
   3 C :    0.349830
   4 O :   -0.267594
   5 C :    0.023714
   6 C :   -0.084331
   7 H :    0.032187
   8 H :    0.029735
   9 H :    0.032037
  10 H :    0.022562
  11 H :    0.032305
  12 H :    0.002411
  13 H :    0.021175
  14 H :    0.006701
Sum of atomic charges:   -0.0000000

LOEWDIN ATOMIC CHARGES
----------------------
   0 C :   -0.056121
   1 C :    0.042372
   2 O :   -0.133800
   3 C :    0.149678
   4 O :   -0.078364
   5 C :    0.013446
   6 C :   -0.138436
   7 H :    0.035270
   8 H :    0.034416
   9 H :    0.036233
  10 H :    0.021904
  11 H :    0.018487
  12 H :   -0.003539
  13 H :    0.031158
  14 H :    0.027296

  Mayer bond orders larger than 0.1
B(  0-C ,  1-C ) :   1.1042 B(  0-C ,  7-H ) :   0.9514 B(  0-C ,  8-H ) :   0.9552
B(  0-C ,  9-H ) :   0.9484 B(  1-C ,  2-O ) :   0.9852 B(  1-C ,  5-C ) :   0.9600
B(  1-C , 10-H ) :   0.8879 B(  2-O ,  3-C ) :   1.0652 B(  3-C ,  4-O ) :   0.9860
B(  3-C , 11-H ) :   0.9536 B(  3-C , 12-H ) :   0.9310 B(  4-O ,  5-C ) :   1.1270
B(  5-C ,  6-C ) :   1.9383 B(  6-C , 13-H ) :   0.9234 B(  6-C , 14-H ) :   0.9278

FINAL SINGLE POINT ENERGY      -345.084583395749

DIPOLE MOMENT
-------------
                                X             Y             Z
Electronic contribution:      4.02802       1.02222       2.18412
Nuclear contribution   :     -4.09362      -0.78938      -2.53103
                        -----------------------------------------
Total Dipole Moment    :     -0.06560       0.23284      -0.34691
                        -----------------------------------------
Magnitude (a.u.)       :      0.42292
Magnitude (Debye)      :      1.07498

                             ****ORCA TERMINATED NORMALLY****
TOTAL RUN TIME: 0 days 0 hours 0 minutes 6 seconds 857 msec
