                         Program Version 3.0.3 - RELEASE   -
|  1> ! RI PBE def2-SVP def2-SVP/J NBO PAL2
|  2> % maxcore 2000
|  3> % output
|  4>     # printlevel mini
|  5>     print[ P_Basis ] 0
|  6>     print[ P_SCFInfo ] 1
|  7>     print[ P_SCFIterInfo ] 1
|  8>     print[ P_OrbEn ] 0
|  9>     print[ P_Cartesian ] 0
| 10> end
| 11> *xyz 0 1
| 12>  C        1.0717610000     0.0136970000    -0.1425060000
| 13>  C        2.3819520000     0.1128310000     0.0612620000
| 14>  O        3.1648990000    -0.9763320000     0.3288150000
| 15>  C        4.4729420000    -0.5565530000     0.4915380000
| 16>  O        5.3558670000    -1.3187170000     0.7339720000
| 17>  C        4.4797300000     0.9037950000     0.3071820000
| 18>  C        3.2275620000     1.2911620000     0.0512930000
| 19>  H        0.5680540000    -0.9424950000    -0.1042890000
| 20>  H        0.4943850000     0.9037030000    -0.3508380000
| 21>  H        5.3794620000     1.4943090000     0.3807270000
| 22>  H        2.8570870000     2.2887990000    -0.1365450000
| 23> *
| 24>
| 25>                          ****END OF INPUT****
 Total Charge           Charge          ....    0
 Multiplicity           Mult            ....    1
 Number of Electrons    NEL             ....   50
 Basis Dimension        Dim             ....  118

MULLIKEN ATOMIC CHARGES
-----------------------
   0 C :   -0.052399
   1 C :    0.116521
   2 O :   -0.201946
   3 C :    0.187598
   4 O :   -0.119038
   5 C :   -0.077842
   6 C :    0.043964
   7 H :    0.049073
   8 H :    0.031272
   9 H :    0.015005
  10 H :    0.007791
Sum of atomic charges:   -0.0000000

LOEWDIN ATOMIC CHARGES
----------------------
   0 C :   -0.050553
   1 C :    0.030502
   2 O :   -0.033026
   3 C :    0.045150
   4 O :   -0.103916
   5 C :   -0.049177
   6 C :    0.000105
   7 H :    0.042193
   8 H :    0.038695
   9 H :    0.041207
  10 H :    0.038820

  Mayer bond orders larger than 0.1
B(  0-C ,  1-C ) :   1.8426 B(  0-C ,  5-C ) :   0.1157 B(  0-C ,  7-H ) :   0.9264
B(  0-C ,  8-H ) :   0.9265 B(  1-C ,  2-O ) :   1.0973 B(  1-C ,  6-C ) :   1.0458
B(  2-O ,  3-C ) :   1.0229 B(  3-C ,  4-O ) :   2.1869 B(  3-C ,  5-C ) :   0.9882
B(  5-C ,  6-C ) :   1.6160 B(  5-C ,  9-H ) :   1.0084 B(  6-C , 10-H ) :   1.0034

FINAL SINGLE POINT ENERGY      -342.716934887185

DIPOLE MOMENT
-------------
                                X             Y             Z
Electronic contribution:      3.41173      -2.66013       0.89826
Nuclear contribution   :     -4.27684       3.94124      -1.20662
                        -----------------------------------------
Total Dipole Moment    :     -0.86511       1.28112      -0.30835
                        -----------------------------------------
Magnitude (a.u.)       :      1.57631
Magnitude (Debye)      :      4.00666

                             ****ORCA TERMINATED NORMALLY****
TOTAL RUN TIME: 0 days 0 hours 0 minutes 5 seconds 731 msec
