                         Program Version 3.0.3 - RELEASE   -
|  1> ! RI PBE def2-SVP def2-SVP/J NBO PAL2
|  2> % maxcore 2000
|  3> % output
|  4>     # printlevel mini
|  5>     print[ P_Basis ] 0
|  6>     print[ P_SCFInfo ] 1
|  7>     print[ P_SCFIterInfo ] 1
|  8>     print[ P_OrbEn ] 0
|  9>     print[ P_Cartesian ] 0
| 10> end
| 11> *xyz 0 1
| 12>  C        0.8294750000     0.0856180000     0.0332260000
| 13>  C        2.1633380000     0.0358880000     0.0231460000
| 14>  O        2.8551900000     1.2119390000     0.0052420000
| 15>  C        4.2557730000     1.2653920000    -0.0071330000
| 16>  O        4.9690170000     0.0466310000     0.0009670000
| 17>  C        4.2756640000    -1.1044080000     0.0187630000
| 18>  C        2.9458500000    -1.1747070000     0.0298670000
| 19>  H        0.3030650000     1.0299360000     0.0273660000
| 20>  H        0.2622040000    -0.8337520000     0.0475640000
| 21>  H        4.5723910000     1.8225070000     0.8800800000
| 22>  H        4.5574860000     1.8019600000    -0.9120480000
| 23>  H        4.9344220000    -1.9633930000     0.0229030000
| 24>  H        2.4462250000    -2.1316110000     0.0440550000
| 25> *
| 26>
| 27>                          ****END OF INPUT****
 Total Charge           Charge          ....    0
 Multiplicity           Mult            ....    1
 Number of Electrons    NEL             ....   52
 Basis Dimension        Dim             ....  128

MULLIKEN ATOMIC CHARGES
-----------------------
   0 C :   -0.076323
   1 C :    0.107289
   2 O :   -0.282685
   3 C :    0.350114
   4 O :   -0.269926
   5 C :    0.120000
   6 C :   -0.058940
   7 H :    0.019360
   8 H :    0.010226
   9 H :    0.034893
  10 H :    0.034400
  11 H :    0.017144
  12 H :   -0.005552
Sum of atomic charges:   -0.0000000

LOEWDIN ATOMIC CHARGES
----------------------
   0 C :   -0.120770
   1 C :    0.032192
   2 O :   -0.083804
   3 C :    0.169481
   4 O :   -0.068388
   5 C :    0.042404
   6 C :   -0.127968
   7 H :    0.027324
   8 H :    0.028137
   9 H :    0.016385
  10 H :    0.016252
  11 H :    0.027903
  12 H :    0.040853

  Mayer bond orders larger than 0.1
B(  0-C ,  1-C ) :   1.8470 B(  0-C ,  5-C ) :   0.1264 B(  0-C ,  7-H ) :   0.9276
B(  0-C ,  8-H ) :   0.9338 B(  1-C ,  2-O ) :   1.0878 B(  1-C ,  6-C ) :   1.0875
B(  2-O ,  3-C ) :   1.0187 B(  3-C ,  4-O ) :   0.9768 B(  3-C ,  9-H ) :   0.9508
B(  3-C , 10-H ) :   0.9507 B(  4-O ,  5-C ) :   1.1394 B(  5-C ,  6-C ) :   1.6579
B(  5-C , 11-H ) :   0.9701 B(  6-C , 12-H ) :   0.9572

FINAL SINGLE POINT ENERGY      -343.868188848527

DIPOLE MOMENT
-------------
                                X             Y             Z
Electronic contribution:      2.52301       0.65085      -0.02504
Nuclear contribution   :     -2.10270      -0.76616       0.02329
                        -----------------------------------------
Total Dipole Moment    :      0.42031      -0.11531      -0.00175
                        -----------------------------------------
Magnitude (a.u.)       :      0.43584
Magnitude (Debye)      :      1.10783

                             ****ORCA TERMINATED NORMALLY****
TOTAL RUN TIME: 0 days 0 hours 0 minutes 6 seconds 788 msec
