                         Program Version 3.0.3 - RELEASE   -
|  1> ! RI PBE def2-SVP def2-SVP/J NBO PAL2
|  2> % maxcore 2000
|  3> % output
|  4>     # printlevel mini
|  5>     print[ P_Basis ] 0
|  6>     print[ P_SCFInfo ] 1
|  7>     print[ P_SCFIterInfo ] 1
|  8>     print[ P_OrbEn ] 0
|  9>     print[ P_Cartesian ] 0
| 10> end
| 11> *xyz 0 1
| 12>  C        0.8940040000    -0.0751020000    -0.2609020000
| 13>  C        2.3944430000    -0.0041350000    -0.0268140000
| 14>  O        3.0623900000     0.2405190000    -1.2647560000
| 15>  C        2.9466150000    -1.2605020000     0.6826250000
| 16>  O        3.8361320000    -0.8210810000     1.7151830000
| 17>  C        3.6469360000     0.5124840000     1.8324000000
| 18>  C        2.8292170000     1.0576960000     0.9401960000
| 19>  H        0.6400630000    -0.9212540000    -0.9098700000
| 20>  H        0.5476440000     0.8412000000    -0.7431110000
| 21>  H        0.3532890000    -0.1989210000     0.6783520000
| 22>  H        2.6282330000    -0.2774560000    -1.9495780000
| 23>  H        3.5034620000    -1.8963640000    -0.0069250000
| 24>  H        2.1483750000    -1.8391910000     1.1566330000
| 25>  H        4.1953450000     0.9767450000     2.6411750000
| 26>  H        2.5786410000     2.1032830000     0.8511850000
| 27> *
| 28>
| 29>                          ****END OF INPUT****
 Total Charge           Charge          ....    0
 Multiplicity           Mult            ....    1
 Number of Electrons    NEL             ....   54
 Basis Dimension        Dim             ....  138

MULLIKEN ATOMIC CHARGES
-----------------------
   0 C :    0.031559
   1 C :   -0.187466
   2 O :   -0.248245
   3 C :    0.339233
   4 O :   -0.282898
   5 C :    0.131393
   6 C :   -0.021461
   7 H :    0.016556
   8 H :    0.030848
   9 H :    0.024069
  10 H :    0.144043
  11 H :    0.006973
  12 H :    0.010227
  13 H :    0.009567
  14 H :   -0.004397
Sum of atomic charges:    0.0000000

LOEWDIN ATOMIC CHARGES
----------------------
   0 C :   -0.068200
   1 C :    0.007208
   2 O :   -0.110103
   3 C :    0.078013
   4 O :   -0.081936
   5 C :    0.051386
   6 C :   -0.115860
   7 H :    0.022674
   8 H :    0.031023
   9 H :    0.031635
  10 H :    0.059903
  11 H :    0.023492
  12 H :    0.019673
  13 H :    0.023171
  14 H :    0.027921

  Mayer bond orders larger than 0.1
B(  0-C ,  1-C ) :   1.0516 B(  0-C ,  7-H ) :   0.9530 B(  0-C ,  8-H ) :   0.9560
B(  0-C ,  9-H ) :   0.9446 B(  1-C ,  2-O ) :   1.0398 B(  1-C ,  3-C ) :   0.9991
B(  1-C ,  6-C ) :   1.0103 B(  2-O , 10-H ) :   0.9791 B(  3-C ,  4-O ) :   0.9671
B(  3-C , 11-H ) :   0.9161 B(  3-C , 12-H ) :   0.9280 B(  4-O ,  5-C ) :   1.1298
B(  4-O ,  6-C ) :   0.1225 B(  5-C ,  6-C ) :   1.7154 B(  5-C , 13-H ) :   0.9859
B(  6-C , 14-H ) :   0.9910

FINAL SINGLE POINT ENERGY      -345.082626692231

DIPOLE MOMENT
-------------
                                X             Y             Z
Electronic contribution:      4.69016       0.28688       1.71821
Nuclear contribution   :     -5.38502      -0.56292      -1.91770
                        -----------------------------------------
Total Dipole Moment    :     -0.69486      -0.27604      -0.19949
                        -----------------------------------------
Magnitude (a.u.)       :      0.77384
Magnitude (Debye)      :      1.96695

                             ****ORCA TERMINATED NORMALLY****
TOTAL RUN TIME: 0 days 0 hours 0 minutes 6 seconds 937 msec
