                         Program Version 3.0.3 - RELEASE   -
|  1> ! RI PBE def2-SVP def2-SVP/J NBO PAL2
|  2> % maxcore 2000
|  3> % output
|  4>     # printlevel mini
|  5>     print[ P_Basis ] 0
|  6>     print[ P_SCFInfo ] 1
|  7>     print[ P_SCFIterInfo ] 1
|  8>     print[ P_OrbEn ] 0
|  9>     print[ P_Cartesian ] 0
| 10> end
| 11> *xyz 0 1
| 12>  C        0.8913110000     0.1113340000    -0.1612480000
| 13>  C        2.3825620000     0.0420890000     0.0971190000
| 14>  O        2.7020300000    -1.1328220000     0.8353150000
| 15>  C        3.3608120000    -0.8080810000     1.9839280000
| 16>  O        3.7360130000    -1.6280290000     2.7669910000
| 17>  C        3.4851860000     0.6630660000     2.0220790000
| 18>  C        2.9221890000     1.1590730000     0.9285890000
| 19>  H        0.5650010000    -0.7718600000    -0.7116250000
| 20>  H        0.6523400000     0.9970580000    -0.7541440000
| 21>  H        0.3427420000     0.1606590000     0.7810530000
| 22>  H        2.9202270000    -0.0141820000    -0.8586400000
| 23>  H        3.9654970000     1.1821220000     2.8375320000
| 24>  H        2.8363800000     2.1987710000     0.6400710000
| 25> *
| 26>
| 27>                          ****END OF INPUT****
 Total Charge           Charge          ....    0
 Multiplicity           Mult            ....    1
 Number of Electrons    NEL             ....   52
 Basis Dimension        Dim             ....  128

MULLIKEN ATOMIC CHARGES
-----------------------
   0 C :    0.025869
   1 C :    0.100158
   2 O :   -0.244600
   3 C :    0.174441
   4 O :   -0.146815
   5 C :   -0.069208
   6 C :   -0.027992
   7 H :    0.048404
   8 H :    0.030583
   9 H :    0.034637
  10 H :    0.045004
  11 H :    0.011241
  12 H :    0.018277
Sum of atomic charges:   -0.0000000

LOEWDIN ATOMIC CHARGES
----------------------
   0 C :   -0.058797
   1 C :    0.057854
   2 O :   -0.068077
   3 C :    0.032671
   4 O :   -0.128844
   5 C :   -0.056767
   6 C :   -0.001061
   7 H :    0.039819
   8 H :    0.035761
   9 H :    0.035872
  10 H :    0.038578
  11 H :    0.039390
  12 H :    0.033600

  Mayer bond orders larger than 0.1
B(  0-C ,  1-C ) :   1.0675 B(  0-C ,  7-H ) :   0.9550 B(  0-C ,  8-H ) :   0.9545
B(  0-C ,  9-H ) :   0.9537 B(  1-C ,  2-O ) :   0.9952 B(  1-C ,  6-C ) :   1.0108
B(  1-C , 10-H ) :   0.8932 B(  2-O ,  3-C ) :   1.0865 B(  3-C ,  4-O ) :   2.1673
B(  3-C ,  5-C ) :   0.9650 B(  5-C ,  6-C ) :   1.7422 B(  5-C , 11-H ) :   1.0105
B(  6-C , 12-H ) :   0.9876

FINAL SINGLE POINT ENERGY      -343.927707295405

DIPOLE MOMENT
-------------
                                X             Y             Z
Electronic contribution:      4.44519      -3.54312       3.98799
Nuclear contribution   :     -4.95318       5.00056      -4.94325
                        -----------------------------------------
Total Dipole Moment    :     -0.50799       1.45744      -0.95526
                        -----------------------------------------
Magnitude (a.u.)       :      1.81513
Magnitude (Debye)      :      4.61370

                             ****ORCA TERMINATED NORMALLY****
TOTAL RUN TIME: 0 days 0 hours 0 minutes 6 seconds 195 msec
