                         Program Version 3.0.3 - RELEASE   -
|  1> ! RI PBE def2-SVP def2-SVP/J NBO PAL2
|  2> % maxcore 2000
|  3> % output
|  4>     # printlevel mini
|  5>     print[ P_Basis ] 0
|  6>     print[ P_SCFInfo ] 1
|  7>     print[ P_SCFIterInfo ] 1
|  8>     print[ P_OrbEn ] 0
|  9>     print[ P_Cartesian ] 0
| 10> end
| 11> *xyz 0 1
| 12>  C        1.1008970000     0.2422920000    -0.0429830000
| 13>  C        2.5909370000    -0.0357650000     0.0535270000
| 14>  O        3.3620380000     1.1031910000    -0.3364760000
| 15>  C        3.6299920000     1.1187220000    -1.6940200000
| 16>  O        4.4585740000     0.0477610000    -2.0964640000
| 17>  C        3.9703230000    -1.1361980000    -1.6620590000
| 18>  C        3.0477230000    -1.2387570000    -0.7092200000
| 19>  H        0.8379050000     1.1041150000     0.5735340000
| 20>  H        0.5311180000    -0.6222760000     0.3066010000
| 21>  H        0.8036090000     0.4412760000    -1.0748840000
| 22>  H        2.8492470000    -0.1791630000     1.1091370000
| 23>  H        4.1711870000     2.0367140000    -1.9157250000
| 24>  H        2.7027730000     1.0575930000    -2.2833210000
| 25>  H        4.4101210000    -1.9822070000    -2.1766420000
| 26>  H        2.6720770000    -2.2149180000    -0.4306960000
| 27> *
| 28>
| 29>                          ****END OF INPUT****
 Total Charge           Charge          ....    0
 Multiplicity           Mult            ....    1
 Number of Electrons    NEL             ....   54
 Basis Dimension        Dim             ....  138

MULLIKEN ATOMIC CHARGES
-----------------------
   0 C :    0.036070
   1 C :    0.115093
   2 O :   -0.325574
   3 C :    0.331687
   4 O :   -0.262936
   5 C :    0.123977
   6 C :   -0.134951
   7 H :    0.028566
   8 H :    0.020499
   9 H :    0.012825
  10 H :    0.024344
  11 H :    0.026754
  12 H :   -0.003440
  13 H :    0.005560
  14 H :    0.001527
Sum of atomic charges:   -0.0000000

LOEWDIN ATOMIC CHARGES
----------------------
   0 C :   -0.069527
   1 C :    0.052144
   2 O :   -0.130527
   3 C :    0.135698
   4 O :   -0.079640
   5 C :    0.029339
   6 C :   -0.129280
   7 H :    0.029914
   8 H :    0.032695
   9 H :    0.024113
  10 H :    0.033729
  11 H :    0.020877
  12 H :   -0.003822
  13 H :    0.022478
  14 H :    0.031808

  Mayer bond orders larger than 0.1
B(  0-C ,  1-C ) :   1.0812 B(  0-C ,  7-H ) :   0.9528 B(  0-C ,  8-H ) :   0.9509
B(  0-C ,  9-H ) :   0.9492 B(  1-C ,  2-O ) :   0.9862 B(  1-C ,  6-C ) :   1.0119
B(  1-C , 10-H ) :   0.9051 B(  2-O ,  3-C ) :   1.0820 B(  3-C ,  4-O ) :   0.9958
B(  3-C , 11-H ) :   0.9551 B(  3-C , 12-H ) :   0.9191 B(  4-O ,  5-C ) :   1.1401
B(  4-O ,  6-C ) :   0.1038 B(  5-C ,  6-C ) :   1.7924 B(  5-C , 13-H ) :   0.9737
B(  6-C , 14-H ) :   0.9506

FINAL SINGLE POINT ENERGY      -345.085841499839

DIPOLE MOMENT
-------------
                                X             Y             Z
Electronic contribution:      5.39729       0.50456      -1.52088
Nuclear contribution   :     -5.89906      -0.72941       1.47819
                        -----------------------------------------
Total Dipole Moment    :     -0.50177      -0.22485      -0.04269
                        -----------------------------------------
Magnitude (a.u.)       :      0.55150
Magnitude (Debye)      :      1.40181

                             ****ORCA TERMINATED NORMALLY****
TOTAL RUN TIME: 0 days 0 hours 0 minutes 6 seconds 893 msec
