                         Program Version 3.0.3 - RELEASE   -
|  1> ! RI PBE def2-SVP def2-SVP/J NBO PAL2
|  2> % maxcore 2000
|  3> % output
|  4>     # printlevel mini
|  5>     print[ P_Basis ] 0
|  6>     print[ P_SCFInfo ] 1
|  7>     print[ P_SCFIterInfo ] 1
|  8>     print[ P_OrbEn ] 0
|  9>     print[ P_Cartesian ] 0
| 10> end
| 11> *xyz 0 1
| 12>  C        3.0630940000    -0.2533670000     0.9953440000
| 13>  C        2.0378090000     0.2640530000    -0.0011700000
| 14>  C        2.6640580000     0.7902960000    -1.2643660000
| 15>  C        1.9591980000     1.8095240000    -2.1048990000
| 16>  C        3.1868490000     2.1920550000    -1.3218610000
| 17>  C        4.4554460000     2.5040940000    -2.0551470000
| 18>  O        4.5009160000     3.8326380000    -2.5343470000
| 19>  H        2.5837820000    -0.6299460000     1.9018530000
| 20>  H        3.7599000000     0.5367280000     1.2869370000
| 21>  H        3.6508040000    -1.0699040000     0.5669410000
| 22>  H        1.4437160000     1.0617170000     0.4588260000
| 23>  H        1.3308350000    -0.5345670000    -0.2531150000
| 24>  H        3.2474940000     0.0567850000    -1.8166050000
| 25>  H        0.9984530000     2.1733630000    -1.7596260000
| 26>  H        2.0477650000     1.7293090000    -3.1832820000
| 27>  H        3.0161570000     2.8009750000    -0.4380120000
| 28>  H        4.5842020000     1.7845790000    -2.8783520000
| 29>  H        5.3195320000     2.3987950000    -1.3935400000
| 30>  H        3.6806900000     3.9963620000    -3.0084680000
| 31> *
| 32>
| 33>                          ****END OF INPUT****
 Total Charge           Charge          ....    0
 Multiplicity           Mult            ....    1
 Number of Electrons    NEL             ....   56
 Basis Dimension        Dim             ....  158

MULLIKEN ATOMIC CHARGES
-----------------------
   0 C :   -0.015978
   1 C :    0.055751
   2 C :   -0.140111
   3 C :    0.016683
   4 C :   -0.194103
   5 C :    0.279610
   6 O :   -0.287930
   7 H :    0.020678
   8 H :    0.021144
   9 H :    0.017039
  10 H :   -0.004635
  11 H :    0.015465
  12 H :    0.011856
  13 H :    0.019371
  14 H :    0.024319
  15 H :    0.021908
  16 H :   -0.019879
  17 H :    0.009490
  18 H :    0.149321
Sum of atomic charges:   -0.0000000

LOEWDIN ATOMIC CHARGES
----------------------
   0 C :   -0.065668
   1 C :   -0.036873
   2 C :   -0.036966
   3 C :   -0.048920
   4 C :   -0.065125
   5 C :    0.060764
   6 O :   -0.125129
   7 H :    0.026851
   8 H :    0.025705
   9 H :    0.025093
  10 H :    0.024024
  11 H :    0.027278
  12 H :    0.023503
  13 H :    0.025561
  14 H :    0.023064
  15 H :    0.026458
  16 H :    0.002475
  17 H :    0.022788
  18 H :    0.065115

  Mayer bond orders larger than 0.1
B(  0-C ,  1-C ) :   1.1155 B(  0-C ,  7-H ) :   0.9592 B(  0-C ,  8-H ) :   0.9676
B(  0-C ,  9-H ) :   0.9654 B(  1-C ,  2-C ) :   1.0783 B(  1-C , 10-H ) :   0.9207
B(  1-C , 11-H ) :   0.9288 B(  2-C ,  3-C ) :   0.9991 B(  2-C ,  4-C ) :   0.9108
B(  2-C , 12-H ) :   0.9380 B(  3-C ,  4-C ) :   0.9906 B(  3-C , 13-H ) :   0.9336
B(  3-C , 14-H ) :   0.9376 B(  4-C ,  5-C ) :   1.0691 B(  4-C , 15-H ) :   0.9387
B(  5-C ,  6-O ) :   1.0635 B(  5-C , 16-H ) :   0.9178 B(  5-C , 17-H ) :   0.9311
B(  6-O , 18-H ) :   0.9850

FINAL SINGLE POINT ENERGY      -310.413351323073

DIPOLE MOMENT
-------------
                                X             Y             Z
Electronic contribution:      1.58304       4.51865      -3.62368
Nuclear contribution   :     -2.10166      -4.92472       3.62855
                        -----------------------------------------
Total Dipole Moment    :     -0.51862      -0.40607       0.00487
                        -----------------------------------------
Magnitude (a.u.)       :      0.65870
Magnitude (Debye)      :      1.67429

                             ****ORCA TERMINATED NORMALLY****
TOTAL RUN TIME: 0 days 0 hours 0 minutes 8 seconds 241 msec
