                         Program Version 3.0.3 - RELEASE   -
|  1> ! RI PBE def2-SVP def2-SVP/J NBO PAL2
|  2> % maxcore 2000
|  3> % output
|  4>     # printlevel mini
|  5>     print[ P_Basis ] 0
|  6>     print[ P_SCFInfo ] 1
|  7>     print[ P_SCFIterInfo ] 1
|  8>     print[ P_OrbEn ] 0
|  9>     print[ P_Cartesian ] 0
| 10> end
| 11> *xyz 0 1
| 12>  C        1.9207820000     0.9251420000    -1.0928140000
| 13>  C        2.5698280000     0.2010000000    -0.1918760000
| 14>  C        3.2164170000     0.6949780000     1.0411050000
| 15>  C        4.6262320000     1.1648510000     1.0346680000
| 16>  C        3.5132230000     2.1655800000     1.2466540000
| 17>  C        3.3228000000     2.7042540000     2.6061850000
| 18>  O        3.5825880000     2.1012690000     3.6165020000
| 19>  H        1.4938710000     0.4661100000    -1.9763960000
| 20>  H        1.7842840000     1.9955490000    -0.9829120000
| 21>  H        2.6579940000    -0.8729710000    -0.3466350000
| 22>  H        2.9256150000     0.1845790000     1.9555180000
| 23>  H        5.1398290000     1.2143730000     0.0828710000
| 24>  H        5.2343820000     0.9468210000     1.9040150000
| 25>  H        3.2874780000     2.8424610000     0.4326360000
| 26>  H        2.9079770000     3.7326040000     2.6578880000
| 27> *
| 28>
| 29>                          ****END OF INPUT****
 Total Charge           Charge          ....    0
 Multiplicity           Mult            ....    1
 Number of Electrons    NEL             ....   52
 Basis Dimension        Dim             ....  138

MULLIKEN ATOMIC CHARGES
-----------------------
   0 C :   -0.030251
   1 C :   -0.019670
   2 C :   -0.044652
   3 C :    0.051284
   4 C :   -0.143727
   5 C :    0.144977
   6 O :   -0.174812
   7 H :    0.027250
   8 H :    0.019118
   9 H :    0.017999
  10 H :    0.049210
  11 H :    0.044709
  12 H :    0.049856
  13 H :    0.025892
  14 H :   -0.017183
Sum of atomic charges:   -0.0000000

LOEWDIN ATOMIC CHARGES
----------------------
   0 C :   -0.059929
   1 C :   -0.023785
   2 C :   -0.014968
   3 C :    0.000260
   4 C :   -0.084623
   5 C :    0.093157
   6 O :   -0.124499
   7 H :    0.027796
   8 H :    0.021208
   9 H :    0.034742
  10 H :    0.040867
  11 H :    0.034071
  12 H :    0.034274
  13 H :    0.030439
  14 H :   -0.009010

  Mayer bond orders larger than 0.1
B(  0-C ,  1-C ) :   2.0110 B(  0-C ,  7-H ) :   0.9421 B(  0-C ,  8-H ) :   0.9363
B(  1-C ,  2-C ) :   1.0580 B(  1-C ,  9-H ) :   0.9540 B(  2-C ,  3-C ) :   1.0012
B(  2-C ,  4-C ) :   0.8925 B(  2-C , 10-H ) :   0.9213 B(  3-C ,  4-C ) :   0.9599
B(  3-C , 11-H ) :   0.9421 B(  3-C , 12-H ) :   0.9324 B(  4-C ,  5-C ) :   0.9855
B(  4-C , 13-H ) :   0.9298 B(  5-C ,  6-O ) :   2.1454 B(  5-C , 14-H ) :   0.9367

FINAL SINGLE POINT ENERGY      -307.997808363076

DIPOLE MOMENT
-------------
                                X             Y             Z
Electronic contribution:      0.55419       1.02492       4.72554
Nuclear contribution   :     -0.58918      -0.94934      -5.63382
                        -----------------------------------------
Total Dipole Moment    :     -0.03500       0.07558      -0.90828
                        -----------------------------------------
Magnitude (a.u.)       :      0.91209
Magnitude (Debye)      :      2.31835

                             ****ORCA TERMINATED NORMALLY****
TOTAL RUN TIME: 0 days 0 hours 0 minutes 6 seconds 520 msec
