                         Program Version 3.0.3 - RELEASE   -
|  1> ! RI PBE def2-SVP def2-SVP/J NBO PAL2
|  2> % maxcore 2000
|  3> % output
|  4>     # printlevel mini
|  5>     print[ P_Basis ] 0
|  6>     print[ P_SCFInfo ] 1
|  7>     print[ P_SCFIterInfo ] 1
|  8>     print[ P_OrbEn ] 0
|  9>     print[ P_Cartesian ] 0
| 10> end
| 11> *xyz 0 1
| 12>  C        3.3512310000    -0.7460190000     0.6211430000
| 13>  C        2.2566460000     0.0471690000    -0.0771490000
| 14>  C        2.7931000000     1.1137660000    -0.9926080000
| 15>  C        1.9659290000     2.3150320000    -1.3779650000
| 16>  C        3.1826060000     2.4941710000    -0.5375740000
| 17>  C        3.0690530000     2.9321860000     0.8943200000
| 18>  O        4.2475150000     3.0961660000    -1.2241410000
| 19>  H        2.9333830000    -1.5304250000     1.2566630000
| 20>  H        3.9674570000    -0.0989520000     1.2507930000
| 21>  H        4.0123450000    -1.2258420000    -0.1058960000
| 22>  H        1.5917570000     0.4952460000     0.6680220000
| 23>  H        1.6272260000    -0.6338180000    -0.6617330000
| 24>  H        3.4282130000     0.7400250000    -1.7920620000
| 25>  H        1.0003420000     2.4352200000    -0.8991720000
| 26>  H        2.0216140000     2.6659370000    -2.4004560000
| 27>  H        2.2110990000     2.4783370000     1.3917340000
| 28>  H        2.9561450000     4.0180370000     0.9401400000
| 29>  H        3.9667240000     2.6625220000     1.4604150000
| 30>  H        5.0678140000     2.7400410000    -0.8699630000
| 31> *
| 32>
| 33>                          ****END OF INPUT****
 Total Charge           Charge          ....    0
 Multiplicity           Mult            ....    1
 Number of Electrons    NEL             ....   56
 Basis Dimension        Dim             ....  158

MULLIKEN ATOMIC CHARGES
-----------------------
   0 C :   -0.022141
   1 C :    0.064299
   2 C :   -0.145325
   3 C :    0.047363
   4 C :   -0.104654
   5 C :    0.100347
   6 O :   -0.241529
   7 H :    0.020566
   8 H :    0.016565
   9 H :    0.016670
  10 H :   -0.005421
  11 H :    0.012841
  12 H :    0.007993
  13 H :    0.015307
  14 H :    0.028577
  15 H :   -0.002099
  16 H :    0.028839
  17 H :    0.009778
  18 H :    0.152025
Sum of atomic charges:   -0.0000000

LOEWDIN ATOMIC CHARGES
----------------------
   0 C :   -0.067119
   1 C :   -0.041247
   2 C :   -0.056867
   3 C :   -0.040781
   4 C :    0.007212
   5 C :   -0.064923
   6 O :   -0.095562
   7 H :    0.026452
   8 H :    0.023028
   9 H :    0.024997
  10 H :    0.022300
  11 H :    0.028409
  12 H :    0.025769
  13 H :    0.023863
  14 H :    0.031097
  15 H :    0.027699
  16 H :    0.033396
  17 H :    0.022863
  18 H :    0.069414

  Mayer bond orders larger than 0.1
B(  0-C ,  1-C ) :   1.1119 B(  0-C ,  7-H ) :   0.9603 B(  0-C ,  8-H ) :   0.9685
B(  0-C ,  9-H ) :   0.9645 B(  1-C ,  2-C ) :   1.0726 B(  1-C , 10-H ) :   0.9184
B(  1-C , 11-H ) :   0.9201 B(  2-C ,  3-C ) :   0.9788 B(  2-C ,  4-C ) :   0.9168
B(  2-C , 12-H ) :   0.9277 B(  3-C ,  4-C ) :   0.9791 B(  3-C , 13-H ) :   0.9381
B(  3-C , 14-H ) :   0.9231 B(  4-C ,  5-C ) :   1.0973 B(  4-C ,  6-O ) :   1.0830
B(  5-C , 15-H ) :   0.9294 B(  5-C , 16-H ) :   0.9463 B(  5-C , 17-H ) :   0.9457
B(  6-O , 18-H ) :   0.9818

FINAL SINGLE POINT ENERGY      -310.417545180162

DIPOLE MOMENT
-------------
                                X             Y             Z
Electronic contribution:      1.49316       4.00981      -3.95996
Nuclear contribution   :     -1.36322      -4.39341       4.36977
                        -----------------------------------------
Total Dipole Moment    :      0.12994      -0.38361       0.40981
                        -----------------------------------------
Magnitude (a.u.)       :      0.57618
Magnitude (Debye)      :      1.46453

                             ****ORCA TERMINATED NORMALLY****
TOTAL RUN TIME: 0 days 0 hours 0 minutes 8 seconds 472 msec
