                         Program Version 3.0.3 - RELEASE   -
|  1> ! RI PBE def2-SVP def2-SVP/J NBO PAL2
|  2> % maxcore 2000
|  3> % output
|  4>     # printlevel mini
|  5>     print[ P_Basis ] 0
|  6>     print[ P_SCFInfo ] 1
|  7>     print[ P_SCFIterInfo ] 1
|  8>     print[ P_OrbEn ] 0
|  9>     print[ P_Cartesian ] 0
| 10> end
| 11> *xyz 0 1
| 12>  C        3.0082590000     0.3183550000     1.3020550000
| 13>  C        2.2305850000    -0.2535390000     0.1267280000
| 14>  C        3.0062820000    -1.3054080000    -0.6187350000
| 15>  C        2.9748980000    -2.7239430000    -0.1963230000
| 16>  C        2.2620070000    -2.3144640000    -1.4680130000
| 17>  C        2.8634600000    -2.7096430000    -2.7469230000
| 18>  O        2.2541880000    -2.9684820000    -3.7506410000
| 19>  H        2.4265500000     1.0785360000     1.8278340000
| 20>  H        3.9393280000     0.7846800000     0.9690670000
| 21>  H        3.2680520000    -0.4635200000     2.0200880000
| 22>  H        1.9561070000     0.5506460000    -0.5640360000
| 23>  H        1.2898870000    -0.6896490000     0.4800570000
| 24>  H        3.9485610000    -0.9625570000    -1.0400940000
| 25>  H        2.3390400000    -2.9999650000     0.6362830000
| 26>  H        3.8725380000    -3.3225900000    -0.2999570000
| 27>  H        1.1789380000    -2.2792120000    -1.4577090000
| 28>  H        3.9784310000    -2.7542450000    -2.7314920000
| 29> *
| 30>
| 31>                          ****END OF INPUT****
 Total Charge           Charge          ....    0
 Multiplicity           Mult            ....    1
 Number of Electrons    NEL             ....   54
 Basis Dimension        Dim             ....  148

MULLIKEN ATOMIC CHARGES
-----------------------
   0 C :   -0.016231
   1 C :    0.048495
   2 C :   -0.131932
   3 C :    0.029175
   4 C :   -0.116981
   5 C :    0.157878
   6 O :   -0.163341
   7 H :    0.027852
   8 H :    0.020616
   9 H :    0.022465
  10 H :    0.024691
  11 H :    0.001789
  12 H :    0.021807
  13 H :    0.039029
  14 H :    0.037518
  15 H :    0.030062
  16 H :   -0.032891
Sum of atomic charges:   -0.0000000

LOEWDIN ATOMIC CHARGES
----------------------
   0 C :   -0.064603
   1 C :   -0.034105
   2 C :   -0.019548
   3 C :   -0.021870
   4 C :   -0.071999
   5 C :    0.079512
   6 O :   -0.119005
   7 H :    0.029514
   8 H :    0.026830
   9 H :    0.026741
  10 H :    0.031827
  11 H :    0.026868
  12 H :    0.026885
  13 H :    0.034094
  14 H :    0.029686
  15 H :    0.035880
  16 H :   -0.016708

  Mayer bond orders larger than 0.1
B(  0-C ,  1-C ) :   1.1216 B(  0-C ,  7-H ) :   0.9602 B(  0-C ,  8-H ) :   0.9620
B(  0-C ,  9-H ) :   0.9673 B(  1-C ,  2-C ) :   1.0818 B(  1-C , 10-H ) :   0.9303
B(  1-C , 11-H ) :   0.9200 B(  2-C ,  3-C ) :   1.0091 B(  2-C ,  4-C ) :   0.8528
B(  2-C , 12-H ) :   0.9412 B(  3-C ,  4-C ) :   0.9384 B(  3-C , 13-H ) :   0.9327
B(  3-C , 14-H ) :   0.9407 B(  4-C ,  5-C ) :   1.0250 B(  4-C , 15-H ) :   0.9428
B(  5-C ,  6-O ) :   2.1664 B(  5-C , 16-H ) :   0.9166

FINAL SINGLE POINT ENERGY      -309.222343391489

DIPOLE MOMENT
-------------
                                X             Y             Z
Electronic contribution:     -1.22916      -5.10355      -8.52952
Nuclear contribution   :      1.51682       5.53256       9.69623
                        -----------------------------------------
Total Dipole Moment    :      0.28767       0.42901       1.16671
                        -----------------------------------------
Magnitude (a.u.)       :      1.27594
Magnitude (Debye)      :      3.24317

                             ****ORCA TERMINATED NORMALLY****
TOTAL RUN TIME: 0 days 0 hours 0 minutes 6 seconds 669 msec
