                         Program Version 3.0.3 - RELEASE   -
|  1> ! RI PBE def2-SVP def2-SVP/J NBO PAL2
|  2> % maxcore 2000
|  3> % output
|  4>     # printlevel mini
|  5>     print[ P_Basis ] 0
|  6>     print[ P_SCFInfo ] 1
|  7>     print[ P_SCFIterInfo ] 1
|  8>     print[ P_OrbEn ] 0
|  9>     print[ P_Cartesian ] 0
| 10> end
| 11> *xyz 0 1
| 12>  C        2.3229970000     0.6018080000    -1.0899060000
| 13>  C        1.8565530000    -0.3932480000    -0.0387910000
| 14>  C        2.9287260000    -1.3684970000     0.3624960000
| 15>  C        2.5775980000    -2.6968560000     0.9814850000
| 16>  C        3.1301060000    -2.6456480000    -0.3960930000
| 17>  O        4.4085900000    -3.1505330000    -0.5726580000
| 18>  C        5.0670850000    -2.5710620000    -1.6699790000
| 19>  H        1.5261050000     1.2970940000    -1.3639550000
| 20>  H        2.6485750000     0.0894190000    -1.9992690000
| 21>  H        3.1672060000     1.1925380000    -0.7237790000
| 22>  H        0.9913190000    -0.9511740000    -0.4153480000
| 23>  H        1.5025050000     0.1443310000     0.8483710000
| 24>  H        3.8468270000    -0.9243180000     0.7383640000
| 25>  H        1.5307320000    -2.9484800000     1.1054810000
| 26>  H        3.2370150000    -3.0815350000     1.7492450000
| 27>  H        2.4510100000    -2.8420650000    -1.2278840000
| 28>  H        6.0564780000    -3.0247370000    -1.7325590000
| 29>  H        5.1751700000    -1.4856400000    -1.5477260000
| 30>  H        4.5289030000    -2.7631100000    -2.6081950000
| 31> *
| 32>
| 33>                          ****END OF INPUT****
 Total Charge           Charge          ....    0
 Multiplicity           Mult            ....    1
 Number of Electrons    NEL             ....   56
 Basis Dimension        Dim             ....  158

MULLIKEN ATOMIC CHARGES
-----------------------
   0 C :   -0.017535
   1 C :    0.069810
   2 C :   -0.164182
   3 C :    0.029369
   4 C :    0.059871
   5 O :   -0.305113
   6 C :    0.160757
   7 H :    0.021399
   8 H :    0.016268
   9 H :    0.016418
  10 H :   -0.008485
  11 H :    0.012290
  12 H :    0.018022
  13 H :    0.019886
  14 H :    0.034112
  15 H :   -0.002325
  16 H :    0.029383
  17 H :    0.008556
  18 H :    0.001499
Sum of atomic charges:    0.0000000

LOEWDIN ATOMIC CHARGES
----------------------
   0 C :   -0.067071
   1 C :   -0.037106
   2 C :   -0.057978
   3 C :   -0.046446
   4 C :    0.034071
   5 O :   -0.128095
   6 C :    0.052652
   7 H :    0.026808
   8 H :    0.023506
   9 H :    0.024604
  10 H :    0.022848
  11 H :    0.026882
  12 H :    0.027754
  13 H :    0.026465
  14 H :    0.033348
  15 H :    0.004877
  16 H :    0.022232
  17 H :    0.005239
  18 H :    0.005410

  Mayer bond orders larger than 0.1
B(  0-C ,  1-C ) :   1.1162 B(  0-C ,  7-H ) :   0.9590 B(  0-C ,  8-H ) :   0.9659
B(  0-C ,  9-H ) :   0.9648 B(  1-C ,  2-C ) :   1.0706 B(  1-C , 10-H ) :   0.9197
B(  1-C , 11-H ) :   0.9248 B(  2-C ,  3-C ) :   0.9844 B(  2-C ,  4-C ) :   0.9410
B(  2-C , 12-H ) :   0.9315 B(  3-C ,  4-C ) :   1.0153 B(  3-C , 13-H ) :   0.9299
B(  3-C , 14-H ) :   0.9315 B(  4-C ,  5-O ) :   1.0908 B(  4-C , 15-H ) :   0.9261
B(  5-O ,  6-C ) :   1.0078 B(  6-C , 16-H ) :   0.9747 B(  6-C , 17-H ) :   0.9549
B(  6-C , 18-H ) :   0.9558

FINAL SINGLE POINT ENERGY      -310.401466761468

DIPOLE MOMENT
-------------
                                X             Y             Z
Electronic contribution:      1.69316      -4.90540       2.13377
Nuclear contribution   :     -1.81163       5.27567      -2.39468
                        -----------------------------------------
Total Dipole Moment    :     -0.11847       0.37027      -0.26091
                        -----------------------------------------
Magnitude (a.u.)       :      0.46820
Magnitude (Debye)      :      1.19007

                             ****ORCA TERMINATED NORMALLY****
TOTAL RUN TIME: 0 days 0 hours 0 minutes 7 seconds 475 msec
