                         Program Version 3.0.3 - RELEASE   -
|  1> ! RI PBE def2-SVP def2-SVP/J NBO PAL2
|  2> % maxcore 2000
|  3> % output
|  4>     # printlevel mini
|  5>     print[ P_Basis ] 0
|  6>     print[ P_SCFInfo ] 1
|  7>     print[ P_SCFIterInfo ] 1
|  8>     print[ P_OrbEn ] 0
|  9>     print[ P_Cartesian ] 0
| 10> end
| 11> *xyz 0 1
| 12>  C        1.7324870000    -0.8531530000    -0.0825770000
| 13>  C        2.5920930000     0.3324780000     0.3248950000
| 14>  C        3.0726750000     1.1410940000    -0.8543370000
| 15>  C        2.1813690000     2.1781020000    -1.4405070000
| 16>  C        3.4161390000     2.5892060000    -0.6784620000
| 17>  O        3.8136780000     0.4359910000    -1.8068380000
| 18>  C        5.0966450000     0.0608010000    -1.3728520000
| 19>  H        1.4087920000    -1.4241380000     0.7904940000
| 20>  H        2.2828380000    -1.5255910000    -0.7435410000
| 21>  H        0.8403280000    -0.5227980000    -0.6205750000
| 22>  H        3.4522430000    -0.0106300000     0.9113780000
| 23>  H        2.0289350000     0.9992670000     0.9848120000
| 24>  H        1.2122790000     2.3385790000    -0.9832670000
| 25>  H        2.2069390000     2.2877610000    -2.5170490000
| 26>  H        3.2988840000     3.0377210000     0.3009040000
| 27>  H        4.2435690000     2.9743830000    -1.2616450000
| 28>  H        5.6133540000    -0.3624560000    -2.2347640000
| 29>  H        5.0625650000    -0.6975790000    -0.5809960000
| 30>  H        5.6647980000     0.9241520000    -1.0040840000
| 31> *
| 32>
| 33>                          ****END OF INPUT****
 Total Charge           Charge          ....    0
 Multiplicity           Mult            ....    1
 Number of Electrons    NEL             ....   56
 Basis Dimension        Dim             ....  158

MULLIKEN ATOMIC CHARGES
-----------------------
   0 C :    0.010322
   1 C :    0.054411
   2 C :   -0.104121
   3 C :   -0.000271
   4 C :   -0.029031
   5 O :   -0.312013
   6 C :    0.159958
   7 H :    0.015709
   8 H :    0.023587
   9 H :    0.013185
  10 H :    0.007324
  11 H :   -0.006885
  12 H :    0.024531
  13 H :    0.038397
  14 H :    0.026628
  15 H :    0.033847
  16 H :    0.031304
  17 H :    0.009896
  18 H :    0.003221
Sum of atomic charges:    0.0000000

LOEWDIN ATOMIC CHARGES
----------------------
   0 C :   -0.063840
   1 C :   -0.045767
   2 C :    0.007763
   3 C :   -0.043324
   4 C :   -0.056954
   5 O :   -0.125370
   6 C :    0.051895
   7 H :    0.025400
   8 H :    0.026925
   9 H :    0.026240
  10 H :    0.023629
  11 H :    0.028359
  12 H :    0.024881
  13 H :    0.032586
  14 H :    0.024378
  15 H :    0.029868
  16 H :    0.022908
  17 H :    0.004508
  18 H :    0.005917

  Mayer bond orders larger than 0.1
B(  0-C ,  1-C ) :   1.1176 B(  0-C ,  7-H ) :   0.9581 B(  0-C ,  8-H ) :   0.9602
B(  0-C ,  9-H ) :   0.9641 B(  1-C ,  2-C ) :   1.0509 B(  1-C , 10-H ) :   0.9179
B(  1-C , 11-H ) :   0.9074 B(  2-C ,  3-C ) :   0.9793 B(  2-C ,  4-C ) :   0.9829
B(  2-C ,  5-O ) :   1.0561 B(  3-C ,  4-C ) :   1.0370 B(  3-C , 12-H ) :   0.9405
B(  3-C , 13-H ) :   0.9347 B(  4-C , 14-H ) :   0.9382 B(  4-C , 15-H ) :   0.9302
B(  5-O ,  6-C ) :   1.0062 B(  6-C , 16-H ) :   0.9757 B(  6-C , 17-H ) :   0.9561
B(  6-C , 18-H ) :   0.9509

FINAL SINGLE POINT ENERGY      -310.402659455989

DIPOLE MOMENT
-------------
                                X             Y             Z
Electronic contribution:      0.68216       1.57826      -2.65513
Nuclear contribution   :     -0.49173      -1.53078       3.03566
                        -----------------------------------------
Total Dipole Moment    :      0.19043       0.04747       0.38052
                        -----------------------------------------
Magnitude (a.u.)       :      0.42815
Magnitude (Debye)      :      1.08828

                             ****ORCA TERMINATED NORMALLY****
TOTAL RUN TIME: 0 days 0 hours 0 minutes 8 seconds 366 msec
