                         Program Version 3.0.3 - RELEASE   -
|  1> ! RI PBE def2-SVP def2-SVP/J NBO PAL2
|  2> % maxcore 2000
|  3> % output
|  4>     # printlevel mini
|  5>     print[ P_Basis ] 0
|  6>     print[ P_SCFInfo ] 1
|  7>     print[ P_SCFIterInfo ] 1
|  8>     print[ P_OrbEn ] 0
|  9>     print[ P_Cartesian ] 0
| 10> end
| 11> *xyz 0 1
| 12>  C        1.2082560000     0.2940150000    -0.6621770000
| 13>  C        2.5081780000    -0.0677680000     0.0396070000
| 14>  C        3.1393170000    -1.3322460000    -0.4969270000
| 15>  C        4.4056090000    -1.9152440000     0.1643580000
| 16>  C        3.8681610000    -3.3273560000    -0.1345140000
| 17>  C        2.4704790000    -2.6983320000    -0.2391880000
| 18>  O        1.5203120000    -3.2143880000    -1.1274610000
| 19>  H        0.7571050000     1.1896700000    -0.2290380000
| 20>  H        0.4823860000    -0.5194120000    -0.5910350000
| 21>  H        1.3771450000     0.4889650000    -1.7251690000
| 22>  H        2.3262200000    -0.1959350000     1.1137260000
| 23>  H        3.2216260000     0.7600090000    -0.0492690000
| 24>  H        3.3161900000    -1.2370490000    -1.5777000000
| 25>  H        4.4177120000    -1.7085080000     1.2375570000
| 26>  H        5.3726870000    -1.6373370000    -0.2550220000
| 27>  H        4.0279320000    -4.1231640000     0.5939350000
| 28>  H        4.2046630000    -3.6735410000    -1.1167230000
| 29>  H        1.9846100000    -2.6893830000     0.7418690000
| 30>  H        1.9086210000    -3.2303870000    -2.0066370000
| 31> *
| 32>
| 33>                          ****END OF INPUT****
 Total Charge           Charge          ....    0
 Multiplicity           Mult            ....    1
 Number of Electrons    NEL             ....   56
 Basis Dimension        Dim             ....  158

MULLIKEN ATOMIC CHARGES
-----------------------
   0 C :   -0.021038
   1 C :    0.039089
   2 C :   -0.165450
   3 C :    0.046758
   4 C :    0.049432
   5 C :    0.064126
   6 O :   -0.243933
   7 H :    0.015705
   8 H :    0.035182
   9 H :    0.012611
  10 H :   -0.000665
  11 H :    0.012181
  12 H :   -0.015270
  13 H :    0.008501
  14 H :    0.006978
  15 H :    0.014993
  16 H :   -0.007954
  17 H :   -0.002261
  18 H :    0.151013
Sum of atomic charges:   -0.0000000

LOEWDIN ATOMIC CHARGES
----------------------
   0 C :   -0.068500
   1 C :   -0.047364
   2 C :   -0.054079
   3 C :   -0.027293
   4 C :   -0.048461
   5 C :    0.040316
   6 O :   -0.102076
   7 H :    0.025391
   8 H :    0.028513
   9 H :    0.023660
  10 H :    0.021978
  11 H :    0.024593
  12 H :    0.018659
  13 H :    0.023874
  14 H :    0.017166
  15 H :    0.017832
  16 H :    0.020075
  17 H :    0.021031
  18 H :    0.064685

  Mayer bond orders larger than 0.1
B(  0-C ,  1-C ) :   1.1198 B(  0-C ,  7-H ) :   0.9585 B(  0-C ,  8-H ) :   0.9657
B(  0-C ,  9-H ) :   0.9610 B(  1-C ,  2-C ) :   1.0851 B(  1-C , 10-H ) :   0.9163
B(  1-C , 11-H ) :   0.9329 B(  2-C ,  3-C ) :   1.0674 B(  2-C ,  5-C ) :   1.0050
B(  2-C , 12-H ) :   0.8867 B(  3-C ,  4-C ) :   1.1103 B(  3-C , 13-H ) :   0.9225
B(  3-C , 14-H ) :   0.9245 B(  4-C ,  5-C ) :   1.0617 B(  4-C , 15-H ) :   0.9281
B(  4-C , 16-H ) :   0.9102 B(  5-C ,  6-O ) :   1.1003 B(  5-C , 17-H ) :   0.9034
B(  6-O , 18-H ) :   0.9766

FINAL SINGLE POINT ENERGY      -310.421614777691

DIPOLE MOMENT
-------------
                                X             Y             Z
Electronic contribution:     -0.56703      -4.12929      -0.83799
Nuclear contribution   :      1.03639       4.29946       0.62349
                        -----------------------------------------
Total Dipole Moment    :      0.46936       0.17016      -0.21450
                        -----------------------------------------
Magnitude (a.u.)       :      0.54338
Magnitude (Debye)      :      1.38117

                             ****ORCA TERMINATED NORMALLY****
TOTAL RUN TIME: 0 days 0 hours 0 minutes 7 seconds 931 msec
