                         Program Version 3.0.3 - RELEASE   -
|  1> ! RI PBE def2-SVP def2-SVP/J NBO PAL2
|  2> % maxcore 2000
|  3> % output
|  4>     # printlevel mini
|  5>     print[ P_Basis ] 0
|  6>     print[ P_SCFInfo ] 1
|  7>     print[ P_SCFIterInfo ] 1
|  8>     print[ P_OrbEn ] 0
|  9>     print[ P_Cartesian ] 0
| 10> end
| 11> *xyz 0 1
| 12>  C        2.2909550000     1.1043520000     0.5052690000
| 13>  C        2.1966730000     0.0190600000    -0.2500300000
| 14>  C        3.0945710000    -1.1616320000    -0.1832450000
| 15>  C        4.0471620000    -1.4154960000     1.0090680000
| 16>  C        3.6061780000    -2.8972170000     1.0628610000
| 17>  C        2.4722900000    -2.5364170000     0.1136410000
| 18>  O        1.4555450000    -3.0659950000    -0.2109570000
| 19>  H        1.5872660000     1.9214730000     0.4006640000
| 20>  H        3.0718990000     1.2224910000     1.2489140000
| 21>  H        1.3986800000    -0.0549540000    -0.9852150000
| 22>  H        3.6374150000    -1.2698840000    -1.1335520000
| 23>  H        3.7358420000    -0.8686890000     1.8994120000
| 24>  H        5.1043530000    -1.2292280000     0.8282850000
| 25>  H        3.3068030000    -3.3145630000     2.0251620000
| 26>  H        4.3127600000    -3.5836020000     0.5883030000
| 27> *
| 28>
| 29>                          ****END OF INPUT****
 Total Charge           Charge          ....    0
 Multiplicity           Mult            ....    1
 Number of Electrons    NEL             ....   52
 Basis Dimension        Dim             ....  138

MULLIKEN ATOMIC CHARGES
-----------------------
   0 C :   -0.049356
   1 C :   -0.012945
   2 C :   -0.114821
   3 C :    0.055890
   4 C :   -0.014834
   5 C :   -0.012845
   6 O :   -0.111086
   7 H :    0.031089
   8 H :    0.022205
   9 H :    0.018710
  10 H :    0.051580
  11 H :    0.025795
  12 H :    0.015155
  13 H :    0.043110
  14 H :    0.052353
Sum of atomic charges:    0.0000000

LOEWDIN ATOMIC CHARGES
----------------------
   0 C :   -0.065955
   1 C :   -0.023490
   2 C :   -0.072202
   3 C :   -0.026464
   4 C :   -0.062796
   5 C :    0.060721
   6 O :   -0.092375
   7 H :    0.028140
   8 H :    0.021193
   9 H :    0.033888
  10 H :    0.056757
  11 H :    0.029815
  12 H :    0.025849
  13 H :    0.038830
  14 H :    0.048091

  Mayer bond orders larger than 0.1
B(  0-C ,  1-C ) :   2.0158 B(  0-C ,  7-H ) :   0.9438 B(  0-C ,  8-H ) :   0.9425
B(  1-C ,  2-C ) :   1.0173 B(  1-C ,  9-H ) :   0.9541 B(  2-C ,  3-C ) :   1.0981
B(  2-C ,  5-C ) :   0.9124 B(  2-C , 10-H ) :   0.8515 B(  3-C ,  4-C ) :   1.1328
B(  3-C , 11-H ) :   0.9170 B(  3-C , 12-H ) :   0.9026 B(  4-C ,  5-C ) :   1.0088
B(  4-C , 13-H ) :   0.9196 B(  4-C , 14-H ) :   0.9070 B(  5-C ,  6-O ) :   2.2650

FINAL SINGLE POINT ENERGY      -308.007478938658

DIPOLE MOMENT
-------------
                                X             Y             Z
Electronic contribution:     -3.17523      -3.79324      -2.11950
Nuclear contribution   :      4.03659       4.09629       2.32624
                        -----------------------------------------
Total Dipole Moment    :      0.86136       0.30305       0.20674
                        -----------------------------------------
Magnitude (a.u.)       :      0.93622
Magnitude (Debye)      :      2.37969

                             ****ORCA TERMINATED NORMALLY****
TOTAL RUN TIME: 0 days 0 hours 0 minutes 6 seconds 807 msec
