                         Program Version 3.0.3 - RELEASE   -
|  1> ! RI PBE def2-SVP def2-SVP/J NBO PAL2
|  2> % maxcore 2000
|  3> % output
|  4>     # printlevel mini
|  5>     print[ P_Basis ] 0
|  6>     print[ P_SCFInfo ] 1
|  7>     print[ P_SCFIterInfo ] 1
|  8>     print[ P_OrbEn ] 0
|  9>     print[ P_Cartesian ] 0
| 10> end
| 11> *xyz 0 1
| 12>  C        1.8795500000     0.1791060000    -1.7066860000
| 13>  C        2.1774150000     0.1281440000    -0.2175260000
| 14>  C        3.0023910000     1.2552170000     0.3739160000
| 15>  C        3.2286210000     1.0937300000     1.8553580000
| 16>  C        4.1248530000     1.8780000000    -0.4209640000
| 17>  C        2.8621170000     2.6446280000    -0.1560940000
| 18>  O        2.8598820000     3.6945450000     0.7609550000
| 19>  H        1.3031940000    -0.6997310000    -2.0039260000
| 20>  H        2.7920660000     0.1853820000    -2.3075420000
| 21>  H        1.2902210000     1.0575150000    -1.9796670000
| 22>  H        2.6966340000    -0.8116710000     0.0071820000
| 23>  H        1.2307210000     0.0840350000     0.3345700000
| 24>  H        3.7956560000     0.1797020000     2.0553550000
| 25>  H        2.2746400000     1.0193500000     2.3859350000
| 26>  H        3.7729110000     1.9397200000     2.2734240000
| 27>  H        4.3222450000     1.5441760000    -1.4325810000
| 28>  H        5.0030370000     2.1771150000     0.1399910000
| 29>  H        2.1909760000     2.7907190000    -0.9995030000
| 30>  H        3.3317780000     4.4335100000     0.3684030000
| 31> *
| 32>
| 33>                          ****END OF INPUT****
 Total Charge           Charge          ....    0
 Multiplicity           Mult            ....    1
 Number of Electrons    NEL             ....   56
 Basis Dimension        Dim             ....  158

MULLIKEN ATOMIC CHARGES
-----------------------
   0 C :   -0.041445
   1 C :    0.085893
   2 C :   -0.305287
   3 C :    0.109904
   4 C :    0.005558
   5 C :    0.061035
   6 O :   -0.230381
   7 H :    0.019348
   8 H :    0.021098
   9 H :    0.028251
  10 H :    0.002890
  11 H :    0.007435
  12 H :    0.010822
  13 H :    0.014427
  14 H :    0.008947
  15 H :    0.018316
  16 H :    0.018730
  17 H :    0.004599
  18 H :    0.159860
Sum of atomic charges:   -0.0000000

LOEWDIN ATOMIC CHARGES
----------------------
   0 C :   -0.070374
   1 C :   -0.029176
   2 C :   -0.066885
   3 C :   -0.043245
   4 C :   -0.063535
   5 C :    0.033453
   6 O :   -0.095487
   7 H :    0.030571
   8 H :    0.023992
   9 H :    0.023874
  10 H :    0.025330
  11 H :    0.027341
  12 H :    0.025291
  13 H :    0.027899
  14 H :    0.025125
  15 H :    0.020606
  16 H :    0.026210
  17 H :    0.005182
  18 H :    0.073825

  Mayer bond orders larger than 0.1
B(  0-C ,  1-C ) :   1.1268 B(  0-C ,  7-H ) :   0.9539 B(  0-C ,  8-H ) :   0.9578
B(  0-C ,  9-H ) :   0.9576 B(  1-C ,  2-C ) :   1.0499 B(  1-C , 10-H ) :   0.9301
B(  1-C , 11-H ) :   0.9249 B(  2-C ,  3-C ) :   1.1011 B(  2-C ,  4-C ) :   0.9653
B(  2-C ,  5-C ) :   0.9075 B(  3-C , 12-H ) :   0.9572 B(  3-C , 13-H ) :   0.9554
B(  3-C , 14-H ) :   0.9364 B(  4-C ,  5-C ) :   0.9694 B(  4-C , 15-H ) :   0.9294
B(  4-C , 16-H ) :   0.9316 B(  5-C ,  6-O ) :   1.1440 B(  5-C , 17-H ) :   0.9433
B(  6-O , 18-H ) :   0.9790

FINAL SINGLE POINT ENERGY      -310.412909857077

DIPOLE MOMENT
-------------
                                X             Y             Z
Electronic contribution:      0.63152       4.93740       1.52039
Nuclear contribution   :     -0.41572      -4.83880      -1.94661
                        -----------------------------------------
Total Dipole Moment    :      0.21580       0.09860      -0.42622
                        -----------------------------------------
Magnitude (a.u.)       :      0.48780
Magnitude (Debye)      :      1.23990

                             ****ORCA TERMINATED NORMALLY****
TOTAL RUN TIME: 0 days 0 hours 0 minutes 8 seconds 444 msec
