                         Program Version 3.0.3 - RELEASE   -
|  1> ! RI PBE def2-SVP def2-SVP/J NBO PAL2
|  2> % maxcore 2000
|  3> % output
|  4>     # printlevel mini
|  5>     print[ P_Basis ] 0
|  6>     print[ P_SCFInfo ] 1
|  7>     print[ P_SCFIterInfo ] 1
|  8>     print[ P_OrbEn ] 0
|  9>     print[ P_Cartesian ] 0
| 10> end
| 11> *xyz 0 1
| 12>  C        0.6611850000    -0.1618180000    -0.2181360000
| 13>  C        2.1683030000    -0.0363360000    -0.0481770000
| 14>  C        3.0095540000    -1.1044840000    -0.7261560000
| 15>  C        3.3890610000    -2.4086450000    -0.0508840000
| 16>  C        2.9034000000    -2.7485690000     1.3283100000
| 17>  C        2.4675430000    -2.4175720000    -1.2129550000
| 18>  O        2.9510710000    -2.9689240000    -2.3989640000
| 19>  H        0.1502340000     0.6851780000     0.2460300000
| 20>  H        0.2670390000    -1.0708520000     0.2431990000
| 21>  H        0.3812970000    -0.1827380000    -1.2746810000
| 22>  H        2.4065040000    -0.0017560000     1.0208820000
| 23>  H        2.4784060000     0.9345620000    -0.4453090000
| 24>  H        3.7997060000    -0.7195060000    -1.3633050000
| 25>  H        4.3913090000    -2.7533080000    -0.2856440000
| 26>  H        3.5270300000    -2.2816180000     2.0958760000
| 27>  H        2.9256040000    -3.8289640000     1.4933930000
| 28>  H        1.8771570000    -2.4116680000     1.4919050000
| 29>  H        1.4213190000    -2.6359020000    -1.0037620000
| 30>  H        2.5946070000    -2.4614710000    -3.1331220000
| 31> *
| 32>
| 33>                          ****END OF INPUT****
 Total Charge           Charge          ....    0
 Multiplicity           Mult            ....    1
 Number of Electrons    NEL             ....   56
 Basis Dimension        Dim             ....  158

MULLIKEN ATOMIC CHARGES
-----------------------
   0 C :   -0.016760
   1 C :    0.051926
   2 C :   -0.126609
   3 C :   -0.115218
   4 C :    0.069964
   5 C :    0.069214
   6 O :   -0.235025
   7 H :    0.018615
   8 H :    0.020788
   9 H :    0.011804
  10 H :    0.011082
  11 H :    0.002457
  12 H :    0.007729
  13 H :    0.017681
  14 H :    0.025136
  15 H :    0.028709
  16 H :    0.003820
  17 H :   -0.000956
  18 H :    0.155644
Sum of atomic charges:    0.0000000

LOEWDIN ATOMIC CHARGES
----------------------
   0 C :   -0.066585
   1 C :   -0.043172
   2 C :   -0.063433
   3 C :   -0.045840
   4 C :   -0.058981
   5 C :    0.032163
   6 O :   -0.100229
   7 H :    0.027162
   8 H :    0.019336
   9 H :    0.022933
  10 H :    0.025380
  11 H :    0.028991
  12 H :    0.026175
  13 H :    0.029600
  14 H :    0.029491
  15 H :    0.033440
  16 H :    0.026414
  17 H :    0.005190
  18 H :    0.071964

  Mayer bond orders larger than 0.1
B(  0-C ,  1-C ) :   1.1417 B(  0-C ,  7-H ) :   0.9558 B(  0-C ,  8-H ) :   0.9547
B(  0-C ,  9-H ) :   0.9625 B(  1-C ,  2-C ) :   1.0483 B(  1-C , 10-H ) :   0.9186
B(  1-C , 11-H ) :   0.9286 B(  2-C ,  3-C ) :   0.9421 B(  2-C ,  5-C ) :   0.9589
B(  2-C , 12-H ) :   0.9271 B(  3-C ,  4-C ) :   1.1183 B(  3-C ,  5-C ) :   0.9498
B(  3-C , 13-H ) :   0.9241 B(  4-C , 14-H ) :   0.9526 B(  4-C , 15-H ) :   0.9561
B(  4-C , 16-H ) :   0.9393 B(  5-C ,  6-O ) :   1.1368 B(  5-C , 17-H ) :   0.9334
B(  6-O , 18-H ) :   0.9824

FINAL SINGLE POINT ENERGY      -310.409944359123

DIPOLE MOMENT
-------------
                                X             Y             Z
Electronic contribution:      3.07933      -3.04442      -4.80524
Nuclear contribution   :     -3.38083       3.50662       4.78446
                        -----------------------------------------
Total Dipole Moment    :     -0.30150       0.46220      -0.02079
                        -----------------------------------------
Magnitude (a.u.)       :      0.55224
Magnitude (Debye)      :      1.40368

                             ****ORCA TERMINATED NORMALLY****
TOTAL RUN TIME: 0 days 0 hours 0 minutes 7 seconds 554 msec
