                         Program Version 3.0.3 - RELEASE   -
|  1> ! RI PBE def2-SVP def2-SVP/J NBO PAL2
|  2> % maxcore 2000
|  3> % output
|  4>     # printlevel mini
|  5>     print[ P_Basis ] 0
|  6>     print[ P_SCFInfo ] 1
|  7>     print[ P_SCFIterInfo ] 1
|  8>     print[ P_OrbEn ] 0
|  9>     print[ P_Cartesian ] 0
| 10> end
| 11> *xyz 0 1
| 12>  C        0.9960300000     0.3326110000    -0.1332170000
| 13>  C        2.4779280000     0.0342170000     0.0297330000
| 14>  C        3.0183910000    -0.8835230000    -1.0480960000
| 15>  C        4.4998950000    -1.3420200000    -1.0216720000
| 16>  C        4.0712770000    -2.7948050000    -1.3325050000
| 17>  C        2.6456620000    -2.3665600000    -1.0106970000
| 18>  O        1.6552030000    -2.9619270000    -0.7073930000
| 19>  H        0.6353030000     0.9818300000     0.6675730000
| 20>  H        0.4104470000    -0.5882050000    -0.1157890000
| 21>  H        0.7997590000     0.8366960000    -1.0838430000
| 22>  H        2.6583760000    -0.4250950000     1.0082340000
| 23>  H        3.0536740000     0.9664000000     0.0171550000
| 24>  H        2.7643500000    -0.4921300000    -2.0421300000
| 25>  H        4.9291700000    -1.2482430000    -0.0224960000
| 26>  H        5.1666280000    -0.8661560000    -1.7394010000
| 27>  H        4.4799920000    -3.6065060000    -0.7291810000
| 28>  H        4.1730150000    -3.0566730000    -2.3892860000
| 29> *
| 30>
| 31>                          ****END OF INPUT****
 Total Charge           Charge          ....    0
 Multiplicity           Mult            ....    1
 Number of Electrons    NEL             ....   54
 Basis Dimension        Dim             ....  148

MULLIKEN ATOMIC CHARGES
-----------------------
   0 C :   -0.029134
   1 C :    0.054397
   2 C :   -0.207907
   3 C :    0.071075
   4 C :   -0.000392
   5 C :   -0.001506
   6 O :   -0.122019
   7 H :    0.022395
   8 H :    0.039866
   9 H :    0.015680
  10 H :    0.005161
  11 H :    0.014095
  12 H :    0.030917
  13 H :    0.015633
  14 H :    0.011160
  15 H :    0.037999
  16 H :    0.042581
Sum of atomic charges:    0.0000000

LOEWDIN ATOMIC CHARGES
----------------------
   0 C :   -0.066974
   1 C :   -0.035876
   2 C :   -0.071023
   3 C :   -0.027372
   4 C :   -0.062284
   5 C :    0.054988
   6 O :   -0.100399
   7 H :    0.027721
   8 H :    0.030589
   9 H :    0.023988
  10 H :    0.024963
  11 H :    0.027119
  12 H :    0.041724
  13 H :    0.027718
  14 H :    0.023615
  15 H :    0.035500
  16 H :    0.046001

  Mayer bond orders larger than 0.1
B(  0-C ,  1-C ) :   1.1128 B(  0-C ,  7-H ) :   0.9597 B(  0-C ,  8-H ) :   0.9636
B(  0-C ,  9-H ) :   0.9651 B(  1-C ,  2-C ) :   1.0615 B(  1-C , 10-H ) :   0.9312
B(  1-C , 11-H ) :   0.9319 B(  2-C ,  3-C ) :   1.0754 B(  2-C ,  5-C ) :   0.9281
B(  2-C , 12-H ) :   0.8802 B(  3-C ,  4-C ) :   1.1285 B(  3-C , 13-H ) :   0.9227
B(  3-C , 14-H ) :   0.9037 B(  4-C ,  5-C ) :   1.0122 B(  4-C , 15-H ) :   0.9199
B(  4-C , 16-H ) :   0.9056 B(  5-C ,  6-O ) :   2.2311

FINAL SINGLE POINT ENERGY      -309.232850540472

DIPOLE MOMENT
-------------
                                X             Y             Z
Electronic contribution:     -0.81902      -5.72102      -1.07812
Nuclear contribution   :      1.59230       6.25503       0.85558
                        -----------------------------------------
Total Dipole Moment    :      0.77329       0.53402      -0.22255
                        -----------------------------------------
Magnitude (a.u.)       :      0.96575
Magnitude (Debye)      :      2.45474

                             ****ORCA TERMINATED NORMALLY****
TOTAL RUN TIME: 0 days 0 hours 0 minutes 7 seconds 305 msec
