                         Program Version 3.0.3 - RELEASE   -
|  1> ! RI PBE def2-SVP def2-SVP/J NBO PAL2
|  2> % maxcore 2000
|  3> % output
|  4>     # printlevel mini
|  5>     print[ P_Basis ] 0
|  6>     print[ P_SCFInfo ] 1
|  7>     print[ P_SCFIterInfo ] 1
|  8>     print[ P_OrbEn ] 0
|  9>     print[ P_Cartesian ] 0
| 10> end
| 11> *xyz 0 1
| 12>  C        3.6006600000    -0.5704880000    -0.7943180000
| 13>  C        2.4267950000     0.0436470000    -0.0370590000
| 14>  C        2.7797980000     1.2763980000     0.7063720000
| 15>  C        2.3923050000     2.5727750000     0.6045180000
| 16>  C        3.1028150000     3.2925860000     1.6122410000
| 17>  C        3.8685230000     2.3790000000     2.2492340000
| 18>  O        3.6839290000     1.1509240000     1.7113110000
| 19>  H        3.2924550000    -1.4816550000    -1.3116460000
| 20>  H        4.4124160000    -0.8274460000    -0.1115090000
| 21>  H        3.9940530000     0.1274640000    -1.5364990000
| 22>  H        2.0181510000    -0.6942100000     0.6628490000
| 23>  H        1.6205170000     0.2959600000    -0.7299150000
| 24>  H        1.6821010000     2.9677240000    -0.1048600000
| 25>  H        3.0483190000     4.3472070000     1.8304380000
| 26>  H        4.5664440000     2.4377350000     3.0678420000
| 27> *
| 28>
| 29>                          ****END OF INPUT****
 Total Charge           Charge          ....    0
 Multiplicity           Mult            ....    1
 Number of Electrons    NEL             ....   52
 Basis Dimension        Dim             ....  138

MULLIKEN ATOMIC CHARGES
-----------------------
   0 C :   -0.030666
   1 C :    0.076668
   2 C :    0.016378
   3 C :   -0.061526
   4 C :   -0.020343
   5 C :    0.108876
   6 O :   -0.179907
   7 H :    0.021551
   8 H :    0.035575
   9 H :    0.025767
  10 H :    0.027525
  11 H :    0.008072
  12 H :   -0.021390
  13 H :   -0.008176
  14 H :    0.001597
Sum of atomic charges:   -0.0000000

LOEWDIN ATOMIC CHARGES
----------------------
   0 C :   -0.061084
   1 C :   -0.049295
   2 C :    0.009008
   3 C :   -0.089690
   4 C :   -0.082034
   5 C :    0.009552
   6 O :    0.025839
   7 H :    0.026947
   8 H :    0.029129
   9 H :    0.028042
  10 H :    0.038405
  11 H :    0.038545
  12 H :    0.027630
  13 H :    0.029855
  14 H :    0.019152

  Mayer bond orders larger than 0.1
B(  0-C ,  1-C ) :   1.1101 B(  0-C ,  7-H ) :   0.9599 B(  0-C ,  8-H ) :   0.9680
B(  0-C ,  9-H ) :   0.9673 B(  1-C ,  2-C ) :   1.0807 B(  1-C , 10-H ) :   0.9045
B(  1-C , 11-H ) :   0.9148 B(  2-C ,  3-C ) :   1.5638 B(  2-C ,  5-C ) :   0.1048
B(  2-C ,  6-O ) :   1.1458 B(  3-C ,  4-C ) :   1.1946 B(  3-C , 12-H ) :   1.0097
B(  4-C ,  5-C ) :   1.5414 B(  4-C , 13-H ) :   0.9962 B(  5-C ,  6-O ) :   1.1412
B(  5-C , 14-H ) :   1.0021

FINAL SINGLE POINT ENERGY      -308.044689470775

DIPOLE MOMENT
-------------
                                X             Y             Z
Electronic contribution:      0.36486       3.68692       4.53790
Nuclear contribution   :     -0.46127      -3.71067      -4.67732
                        -----------------------------------------
Total Dipole Moment    :     -0.09642      -0.02375      -0.13942
                        -----------------------------------------
Magnitude (a.u.)       :      0.17116
Magnitude (Debye)      :      0.43506

                             ****ORCA TERMINATED NORMALLY****
TOTAL RUN TIME: 0 days 0 hours 0 minutes 7 seconds 6 msec
