                         Program Version 3.0.3 - RELEASE   -
|  1> ! RI PBE def2-SVP def2-SVP/J NBO PAL2
|  2> % maxcore 2000
|  3> % output
|  4>     # printlevel mini
|  5>     print[ P_Basis ] 0
|  6>     print[ P_SCFInfo ] 1
|  7>     print[ P_SCFIterInfo ] 1
|  8>     print[ P_OrbEn ] 0
|  9>     print[ P_Cartesian ] 0
| 10> end
| 11> *xyz 0 1
| 12>  C        2.7531520000    -1.2647530000     0.2350070000
| 13>  C        2.3944990000    -0.0113830000    -0.0410150000
| 14>  C        2.9779600000     0.8292680000    -1.0519080000
| 15>  C        2.7075100000     2.1118400000    -1.4311140000
| 16>  C        3.6058360000     2.4219550000    -2.4885470000
| 17>  C        4.3548890000     1.3086820000    -2.6748150000
| 18>  O        3.9876580000     0.3365890000    -1.8139760000
| 19>  H        2.2565810000    -1.8250100000     1.0166710000
| 20>  H        3.5477120000    -1.7604780000    -0.3099130000
| 21>  H        1.5942590000     0.4594570000     0.5222140000
| 22>  H        1.9535840000     2.7514000000    -0.9998270000
| 23>  H        3.6858370000     3.3465450000    -3.0374460000
| 24>  H        5.1557120000     1.0616790000    -3.3521220000
| 25> *
| 26>
| 27>                          ****END OF INPUT****
 Total Charge           Charge          ....    0
 Multiplicity           Mult            ....    1
 Number of Electrons    NEL             ....   50
 Basis Dimension        Dim             ....  128

MULLIKEN ATOMIC CHARGES
-----------------------
   0 C :   -0.020840
   1 C :   -0.016941
   2 C :    0.113738
   3 C :   -0.053996
   4 C :   -0.010283
   5 C :    0.121304
   6 O :   -0.169665
   7 H :    0.025207
   8 H :    0.027734
   9 H :   -0.006318
  10 H :   -0.014159
  11 H :   -0.004571
  12 H :    0.008790
Sum of atomic charges:   -0.0000000

LOEWDIN ATOMIC CHARGES
----------------------
   0 C :   -0.051071
   1 C :   -0.046519
   2 C :    0.006571
   3 C :   -0.067883
   4 C :   -0.077254
   5 C :    0.025157
   6 O :    0.035230
   7 H :    0.026930
   8 H :    0.026071
   9 H :    0.037245
  10 H :    0.030918
  11 H :    0.032318
  12 H :    0.022286

  Mayer bond orders larger than 0.1
B(  0-C ,  1-C ) :   1.8865 B(  0-C ,  7-H ) :   0.9350 B(  0-C ,  8-H ) :   0.9487
B(  1-C ,  2-C ) :   1.1542 B(  1-C ,  9-H ) :   0.9495 B(  2-C ,  3-C ) :   1.4576
B(  2-C ,  6-O ) :   1.1543 B(  3-C ,  4-C ) :   1.2197 B(  3-C , 10-H ) :   1.0071
B(  4-C ,  5-C ) :   1.5161 B(  4-C , 11-H ) :   0.9974 B(  5-C ,  6-O ) :   1.1507
B(  5-C , 12-H ) :   0.9990

FINAL SINGLE POINT ENERGY      -306.828085030649

DIPOLE MOMENT
-------------
                                X             Y             Z
Electronic contribution:      1.30584       0.92792      -1.77480
Nuclear contribution   :     -1.33479      -0.66394       1.67425
                        -----------------------------------------
Total Dipole Moment    :     -0.02894       0.26398      -0.10055
                        -----------------------------------------
Magnitude (a.u.)       :      0.28396
Magnitude (Debye)      :      0.72177

                             ****ORCA TERMINATED NORMALLY****
TOTAL RUN TIME: 0 days 0 hours 0 minutes 6 seconds 582 msec
