                         Program Version 3.0.3 - RELEASE   -
|  1> ! RI PBE def2-SVP def2-SVP/J NBO PAL2
|  2> % maxcore 2000
|  3> % output
|  4>     # printlevel mini
|  5>     print[ P_Basis ] 0
|  6>     print[ P_SCFInfo ] 1
|  7>     print[ P_SCFIterInfo ] 1
|  8>     print[ P_OrbEn ] 0
|  9>     print[ P_Cartesian ] 0
| 10> end
| 11> *xyz 0 1
| 12>  C        1.0726960000    -0.1063730000    -0.0328030000
| 13>  C        2.2733300000    -0.0348430000    -0.0294620000
| 14>  C        3.6748390000     0.0705970000    -0.0259750000
| 15>  C        4.5127730000     1.1465110000    -0.0265700000
| 16>  C        5.8329190000     0.6251010000    -0.0216390000
| 17>  C        5.7008250000    -0.7243340000    -0.0184210000
| 18>  O        4.4030320000    -1.0797390000    -0.0209850000
| 19>  H        0.0104770000    -0.1720580000    -0.0359430000
| 20>  H        4.2080880000     2.1804190000    -0.0301250000
| 21>  H        6.7577600000     1.1791450000    -0.0206150000
| 22>  H        6.4113620000    -1.5344260000    -0.0143630000
| 23> *
| 24>
| 25>                          ****END OF INPUT****
 Total Charge           Charge          ....    0
 Multiplicity           Mult            ....    1
 Number of Electrons    NEL             ....   48
 Basis Dimension        Dim             ....  118

MULLIKEN ATOMIC CHARGES
-----------------------
   0 C :   -0.462422
   1 C :    0.450132
   2 C :    0.061048
   3 C :   -0.021198
   4 C :   -0.008336
   5 C :    0.124022
   6 O :   -0.157897
   7 H :    0.010770
   8 H :   -0.006986
   9 H :   -0.002063
  10 H :    0.012930
Sum of atomic charges:   -0.0000000

LOEWDIN ATOMIC CHARGES
----------------------
   0 C :   -0.044972
   1 C :   -0.029520
   2 C :   -0.009697
   3 C :   -0.048461
   4 C :   -0.075951
   5 C :    0.028602
   6 O :    0.046319
   7 H :    0.037959
   8 H :    0.036448
   9 H :    0.034334
  10 H :    0.024940

  Mayer bond orders larger than 0.1
B(  0-C ,  1-C ) :   2.2216 B(  0-C ,  7-H ) :   1.0923 B(  1-C ,  2-C ) :   0.9384
B(  1-C ,  7-H ) :  -0.1031 B(  2-C ,  3-C ) :   1.4938 B(  2-C ,  5-C ) :   0.1050
B(  2-C ,  6-O ) :   1.1464 B(  3-C ,  4-C ) :   1.2211 B(  3-C ,  8-H ) :   1.0161
B(  4-C ,  5-C ) :   1.5020 B(  4-C ,  9-H ) :   0.9940 B(  5-C ,  6-O ) :   1.1670
B(  5-C , 10-H ) :   0.9993

FINAL SINGLE POINT ENERGY      -305.578823102919

DIPOLE MOMENT
-------------
                                X             Y             Z
Electronic contribution:     -1.16063      -1.49616       0.00108
Nuclear contribution   :      1.44509       1.69354      -0.00111
                        -----------------------------------------
Total Dipole Moment    :      0.28447       0.19738      -0.00004
                        -----------------------------------------
Magnitude (a.u.)       :      0.34624
Magnitude (Debye)      :      0.88007

                             ****ORCA TERMINATED NORMALLY****
TOTAL RUN TIME: 0 days 0 hours 0 minutes 5 seconds 435 msec
