                         Program Version 3.0.3 - RELEASE   -
|  1> ! RI PBE def2-SVP def2-SVP/J NBO PAL2
|  2> % maxcore 2000
|  3> % output
|  4>     # printlevel mini
|  5>     print[ P_Basis ] 0
|  6>     print[ P_SCFInfo ] 1
|  7>     print[ P_SCFIterInfo ] 1
|  8>     print[ P_OrbEn ] 0
|  9>     print[ P_Cartesian ] 0
| 10> end
| 11> *xyz 0 1
| 12>  C        2.5344930000    -1.5640810000    -0.1287900000
| 13>  C        2.4892220000    -0.0458570000    -0.1147560000
| 14>  C        2.9280900000     0.5786220000    -1.4217390000
| 15>  C        2.8893120000     2.0988440000    -1.4600910000
| 16>  C        3.9343600000     2.4127390000    -2.5208530000
| 17>  C        4.9783090000     1.3368310000    -2.2515100000
| 18>  O        4.2850610000     0.2323930000    -1.6902360000
| 19>  H        2.2218480000    -1.9784970000     0.8322820000
| 20>  H        3.5452180000    -1.9175190000    -0.3396660000
| 21>  H        1.8711530000    -1.9703020000    -0.8978510000
| 22>  H        3.1323760000     0.3434430000     0.6822010000
| 23>  H        1.4711310000     0.2981720000     0.1012430000
| 24>  H        2.3004740000     0.1774160000    -2.2353220000
| 25>  H        3.1933870000     2.5006310000    -0.4876460000
| 26>  H        1.8970780000     2.4876200000    -1.6945760000
| 27>  H        4.3428700000     3.4219950000    -2.4502750000
| 28>  H        3.5069750000     2.2905870000    -3.5199860000
| 29>  H        5.7327100000     1.6874850000    -1.5356490000
| 30>  H        5.4982630000     1.0119570000    -3.1577910000
| 31> *
| 32>
| 33>                          ****END OF INPUT****
 Total Charge           Charge          ....    0
 Multiplicity           Mult            ....    1
 Number of Electrons    NEL             ....   56
 Basis Dimension        Dim             ....  158

MULLIKEN ATOMIC CHARGES
-----------------------
   0 C :    0.004970
   1 C :    0.018928
   2 C :    0.038703
   3 C :    0.038746
   4 C :   -0.059553
   5 C :    0.213397
   6 O :   -0.361915
   7 H :    0.013406
   8 H :    0.028543
   9 H :    0.010074
  10 H :   -0.000133
  11 H :    0.002279
  12 H :   -0.010845
  13 H :    0.006403
  14 H :    0.013193
  15 H :    0.018494
  16 H :    0.017767
  17 H :    0.002645
  18 H :    0.004896
Sum of atomic charges:   -0.0000000

LOEWDIN ATOMIC CHARGES
----------------------
   0 C :   -0.064387
   1 C :   -0.051693
   2 C :    0.051879
   3 C :   -0.044661
   4 C :   -0.054751
   5 C :    0.067115
   6 O :   -0.164053
   7 H :    0.024414
   8 H :    0.028637
   9 H :    0.023366
  10 H :    0.023376
  11 H :    0.025599
  12 H :    0.005095
  13 H :    0.025377
  14 H :    0.027956
  15 H :    0.028689
  16 H :    0.026925
  17 H :    0.007940
  18 H :    0.013176

  Mayer bond orders larger than 0.1
B(  0-C ,  1-C ) :   1.1216 B(  0-C ,  7-H ) :   0.9620 B(  0-C ,  8-H ) :   0.9632
B(  0-C ,  9-H ) :   0.9629 B(  1-C ,  2-C ) :   1.0703 B(  1-C , 10-H ) :   0.9147
B(  1-C , 11-H ) :   0.9246 B(  2-C ,  3-C ) :   1.0578 B(  2-C ,  6-O ) :   0.9990
B(  2-C , 12-H ) :   0.9126 B(  3-C ,  4-C ) :   1.1058 B(  3-C , 13-H ) :   0.9204
B(  3-C , 14-H ) :   0.9280 B(  4-C ,  5-C ) :   1.0942 B(  4-C , 15-H ) :   0.9353
B(  4-C , 16-H ) :   0.9304 B(  5-C ,  6-O ) :   1.0110 B(  5-C , 17-H ) :   0.9402
B(  5-C , 18-H ) :   0.9386

FINAL SINGLE POINT ENERGY      -310.440356034700

DIPOLE MOMENT
-------------
                                X             Y             Z
Electronic contribution:      2.20499       0.58893      -1.66409
Nuclear contribution   :     -2.42785      -0.03789       1.56878
                        -----------------------------------------
Total Dipole Moment    :     -0.22285       0.55103      -0.09530
                        -----------------------------------------
Magnitude (a.u.)       :      0.60198
Magnitude (Debye)      :      1.53012

                             ****ORCA TERMINATED NORMALLY****
TOTAL RUN TIME: 0 days 0 hours 0 minutes 8 seconds 359 msec
