                         Program Version 3.0.3 - RELEASE   -
|  1> ! RI PBE def2-SVP def2-SVP/J NBO PAL2
|  2> % maxcore 2000
|  3> % output
|  4>     # printlevel mini
|  5>     print[ P_Basis ] 0
|  6>     print[ P_SCFInfo ] 1
|  7>     print[ P_SCFIterInfo ] 1
|  8>     print[ P_OrbEn ] 0
|  9>     print[ P_Cartesian ] 0
| 10> end
| 11> *xyz 0 1
| 12>  C        1.2542750000    -0.5644440000    -0.4034890000
| 13>  C        2.1339470000     0.2590970000     0.1463000000
| 14>  C        2.8657890000     1.3249960000    -0.5947020000
| 15>  C        2.5534410000     2.7432810000    -0.1216900000
| 16>  C        3.8405820000     3.4791130000    -0.4641380000
| 17>  C        4.8849090000     2.4202390000    -0.1472820000
| 18>  O        4.2705910000     1.1653130000    -0.4021080000
| 19>  H        0.7267640000    -1.3086760000     0.1815070000
| 20>  H        1.0306900000    -0.5229080000    -1.4652520000
| 21>  H        2.3608880000     0.1934770000     1.2087080000
| 22>  H        2.6426000000     1.2345390000    -1.6678930000
| 23>  H        2.3858870000     2.7452790000     0.9601020000
| 24>  H        1.6643160000     3.1515650000    -0.6031260000
| 25>  H        3.9833640000     4.3977990000     0.1069560000
| 26>  H        3.8620930000     3.7328630000    -1.5276490000
| 27>  H        5.1895610000     2.4694200000     0.9063960000
| 28>  H        5.7838850000     2.5037490000    -0.7642410000
| 29> *
| 30>
| 31>                          ****END OF INPUT****
 Total Charge           Charge          ....    0
 Multiplicity           Mult            ....    1
 Number of Electrons    NEL             ....   54
 Basis Dimension        Dim             ....  148

MULLIKEN ATOMIC CHARGES
-----------------------
   0 C :   -0.033637
   1 C :   -0.000629
   2 C :    0.109376
   3 C :    0.013644
   4 C :   -0.053885
   5 C :    0.217417
   6 O :   -0.358707
   7 H :    0.025141
   8 H :    0.019273
   9 H :   -0.003583
  10 H :   -0.014137
  11 H :    0.010090
  12 H :    0.019493
  13 H :    0.018907
  14 H :    0.022647
  15 H :   -0.000327
  16 H :    0.008918
Sum of atomic charges:   -0.0000000

LOEWDIN ATOMIC CHARGES
----------------------
   0 C :   -0.057126
   1 C :   -0.032055
   2 C :    0.053346
   3 C :   -0.041088
   4 C :   -0.055365
   5 C :    0.067473
   6 O :   -0.159729
   7 H :    0.026022
   8 H :    0.022527
   9 H :    0.025902
  10 H :    0.011170
  11 H :    0.027177
  12 H :    0.030448
  13 H :    0.029895
  14 H :    0.028605
  15 H :    0.007045
  16 H :    0.015755

  Mayer bond orders larger than 0.1
B(  0-C ,  1-C ) :   1.9902 B(  0-C ,  7-H ) :   0.9400 B(  0-C ,  8-H ) :   0.9466
B(  1-C ,  2-C ) :   1.0324 B(  1-C ,  9-H ) :   0.9419 B(  2-C ,  3-C ) :   1.0508
B(  2-C ,  6-O ) :   0.9777 B(  2-C , 10-H ) :   0.9152 B(  3-C ,  4-C ) :   1.0997
B(  3-C , 11-H ) :   0.9220 B(  3-C , 12-H ) :   0.9321 B(  4-C ,  5-C ) :   1.0995
B(  4-C , 13-H ) :   0.9319 B(  4-C , 14-H ) :   0.9279 B(  5-C ,  6-O ) :   1.0079
B(  5-C , 15-H ) :   0.9380 B(  5-C , 16-H ) :   0.9389

FINAL SINGLE POINT ENERGY      -309.213783003500

DIPOLE MOMENT
-------------
                                X             Y             Z
Electronic contribution:      1.46921      -2.14249      -0.14927
Nuclear contribution   :     -1.70174       2.77369       0.19004
                        -----------------------------------------
Total Dipole Moment    :     -0.23253       0.63120       0.04078
                        -----------------------------------------
Magnitude (a.u.)       :      0.67391
Magnitude (Debye)      :      1.71294

                             ****ORCA TERMINATED NORMALLY****
TOTAL RUN TIME: 0 days 0 hours 0 minutes 7 seconds 541 msec
