                         Program Version 3.0.3 - RELEASE   -
|  1> ! RI PBE def2-SVP def2-SVP/J NBO PAL2
|  2> % maxcore 2000
|  3> % output
|  4>     # printlevel mini
|  5>     print[ P_Basis ] 0
|  6>     print[ P_SCFInfo ] 1
|  7>     print[ P_SCFIterInfo ] 1
|  8>     print[ P_OrbEn ] 0
|  9>     print[ P_Cartesian ] 0
| 10> end
| 11> *xyz 0 1
| 12>  C        0.5878500000     0.5678590000    -0.1126990000
| 13>  C        1.8711280000     0.8655370000     0.0781600000
| 14>  C        2.8314560000    -0.0198470000     0.6972020000
| 15>  C        4.1310200000     0.1884440000     0.9305460000
| 16>  C        4.7185700000    -1.0169940000     1.5951480000
| 17>  C        3.4919580000    -1.9425330000     1.6861450000
| 18>  O        2.3826960000    -1.2367900000     1.1088550000
| 19>  H       -0.0860650000     1.2730480000    -0.5831210000
| 20>  H        0.1832680000    -0.3879280000     0.1975090000
| 21>  H        2.2682580000     1.8257110000    -0.2357790000
| 22>  H        4.6693090000     1.0890840000     0.6773420000
| 23>  H        5.1345760000    -0.7883110000     2.5819680000
| 24>  H        5.5278100000    -1.4643950000     1.0085720000
| 25>  H        3.2292760000    -2.1925110000     2.7163950000
| 26>  H        3.6241810000    -2.8716450000     1.1273570000
| 27> *
| 28>
| 29>                          ****END OF INPUT****
 Total Charge           Charge          ....    0
 Multiplicity           Mult            ....    1
 Number of Electrons    NEL             ....   52
 Basis Dimension        Dim             ....  138

MULLIKEN ATOMIC CHARGES
-----------------------
   0 C :   -0.010737
   1 C :   -0.023856
   2 C :    0.143801
   3 C :   -0.167928
   4 C :    0.013153
   5 C :    0.203064
   6 O :   -0.296314
   7 H :    0.025010
   8 H :    0.031181
   9 H :   -0.012004
  10 H :   -0.014266
  11 H :    0.030202
  12 H :    0.031912
  13 H :    0.022874
  14 H :    0.023910
Sum of atomic charges:   -0.0000000

LOEWDIN ATOMIC CHARGES
----------------------
   0 C :   -0.041146
   1 C :   -0.045040
   2 C :    0.023809
   3 C :   -0.098980
   4 C :   -0.048825
   5 C :    0.088562
   6 O :   -0.095406
   7 H :    0.026156
   8 H :    0.027638
   9 H :    0.034117
  10 H :    0.025443
  11 H :    0.032098
  12 H :    0.032163
  13 H :    0.019618
  14 H :    0.019791

  Mayer bond orders larger than 0.1
B(  0-C ,  1-C ) :   1.8936 B(  0-C ,  3-C ) :   0.1372 B(  0-C ,  7-H ) :   0.9346
B(  0-C ,  8-H ) :   0.9422 B(  1-C ,  2-C ) :   1.1454 B(  1-C ,  9-H ) :   0.9515
B(  2-C ,  3-C ) :   1.6436 B(  2-C ,  6-O ) :   1.1302 B(  3-C ,  4-C ) :   1.0351
B(  3-C , 10-H ) :   0.9888 B(  4-C ,  5-C ) :   1.1088 B(  4-C , 11-H ) :   0.9170
B(  4-C , 12-H ) :   0.9181 B(  5-C ,  6-O ) :   0.9647 B(  5-C , 13-H ) :   0.9487
B(  5-C , 14-H ) :   0.9475

FINAL SINGLE POINT ENERGY      -308.012115284457

DIPOLE MOMENT
-------------
                                X             Y             Z
Electronic contribution:     -1.11539       0.14773      -0.33762
Nuclear contribution   :      1.58244      -0.21693       0.48487
                        -----------------------------------------
Total Dipole Moment    :      0.46705      -0.06920       0.14725
                        -----------------------------------------
Magnitude (a.u.)       :      0.49458
Magnitude (Debye)      :      1.25711

                             ****ORCA TERMINATED NORMALLY****
TOTAL RUN TIME: 0 days 0 hours 0 minutes 7 seconds 233 msec
