                         Program Version 3.0.3 - RELEASE   -
|  1> ! RI PBE def2-SVP def2-SVP/J NBO PAL2
|  2> % maxcore 2000
|  3> % output
|  4>     # printlevel mini
|  5>     print[ P_Basis ] 0
|  6>     print[ P_SCFInfo ] 1
|  7>     print[ P_SCFIterInfo ] 1
|  8>     print[ P_OrbEn ] 0
|  9>     print[ P_Cartesian ] 0
| 10> end
| 11> *xyz 0 1
| 12>  C        3.0023040000     0.9256750000     0.7812050000
| 13>  C        2.3846760000    -0.0954970000     0.2070390000
| 14>  C        2.8858270000    -0.7980620000    -1.0042140000
| 15>  C        3.2155770000    -2.2907650000    -0.7940650000
| 16>  C        2.6015800000    -2.9090870000    -2.0175370000
| 17>  C        1.8579050000    -1.9891780000    -2.6170300000
| 18>  O        1.8726140000    -0.7620700000    -2.0389100000
| 19>  H        2.6196160000     1.3876540000     1.6835750000
| 20>  H        3.9183300000     1.3359760000     0.3674170000
| 21>  H        1.4626560000    -0.4902140000     0.6287570000
| 22>  H        3.7600850000    -0.2717550000    -1.4042500000
| 23>  H        2.7633850000    -2.6795250000     0.1268010000
| 24>  H        4.2936440000    -2.4446580000    -0.7111030000
| 25>  H        2.6944270000    -3.9410730000    -2.3186580000
| 26>  H        1.2284930000    -2.0701110000    -3.4929260000
| 27> *
| 28>
| 29>                          ****END OF INPUT****
 Total Charge           Charge          ....    0
 Multiplicity           Mult            ....    1
 Number of Electrons    NEL             ....   52
 Basis Dimension        Dim             ....  138

MULLIKEN ATOMIC CHARGES
-----------------------
   0 C :   -0.020034
   1 C :   -0.025045
   2 C :    0.103451
   3 C :    0.119566
   4 C :   -0.164392
   5 C :    0.157601
   6 O :   -0.279542
   7 H :    0.029454
   8 H :    0.021070
   9 H :    0.004752
  10 H :    0.005593
  11 H :    0.016367
  12 H :    0.026041
  13 H :   -0.000793
  14 H :    0.005911
Sum of atomic charges:   -0.0000000

LOEWDIN ATOMIC CHARGES
----------------------
   0 C :   -0.045860
   1 C :   -0.033287
   2 C :    0.074281
   3 C :   -0.033504
   4 C :   -0.119715
   5 C :    0.038807
   6 O :   -0.092492
   7 H :    0.027749
   8 H :    0.023824
   9 H :    0.028951
  10 H :    0.021892
  11 H :    0.028070
  12 H :    0.032973
  13 H :    0.025930
  14 H :    0.022380

  Mayer bond orders larger than 0.1
B(  0-C ,  1-C ) :   1.9908 B(  0-C ,  7-H ) :   0.9421 B(  0-C ,  8-H ) :   0.9478
B(  1-C ,  2-C ) :   1.0367 B(  1-C ,  9-H ) :   0.9508 B(  2-C ,  3-C ) :   1.0620
B(  2-C ,  6-O ) :   0.9359 B(  2-C , 10-H ) :   0.9090 B(  3-C ,  4-C ) :   1.0274
B(  3-C , 11-H ) :   0.9112 B(  3-C , 12-H ) :   0.9217 B(  4-C ,  5-C ) :   1.7508
B(  4-C ,  6-O ) :   0.1202 B(  4-C , 13-H ) :   0.9827 B(  5-C ,  6-O ) :   1.1084
B(  5-C , 14-H ) :   0.9889

FINAL SINGLE POINT ENERGY      -308.000245382114

DIPOLE MOMENT
-------------
                                X             Y             Z
Electronic contribution:     -1.98330       0.01071      -3.00935
Nuclear contribution   :      2.24041      -0.21580       3.23759
                        -----------------------------------------
Total Dipole Moment    :      0.25710      -0.20509       0.22824
                        -----------------------------------------
Magnitude (a.u.)       :      0.40032
Magnitude (Debye)      :      1.01752

                             ****ORCA TERMINATED NORMALLY****
TOTAL RUN TIME: 0 days 0 hours 0 minutes 6 seconds 972 msec
