                         Program Version 3.0.3 - RELEASE   -
|  1> ! RI PBE def2-SVP def2-SVP/J NBO PAL2
|  2> % maxcore 2000
|  3> % output
|  4>     # printlevel mini
|  5>     print[ P_Basis ] 0
|  6>     print[ P_SCFInfo ] 1
|  7>     print[ P_SCFIterInfo ] 1
|  8>     print[ P_OrbEn ] 0
|  9>     print[ P_Cartesian ] 0
| 10> end
| 11> *xyz 0 1
| 12>  C        0.9815220000    -0.1344140000     0.1418640000
| 13>  C        2.1696330000    -0.0442970000    -0.0045020000
| 14>  C        3.6114650000     0.0890390000    -0.1900170000
| 15>  C        4.2239140000     1.2133610000     0.6722880000
| 16>  C        5.5116860000     0.5823670000     1.1874430000
| 17>  C        5.1012320000    -0.8730600000     1.2976360000
| 18>  O        4.2973500000    -1.1113320000     0.1566360000
| 19>  H       -0.0710480000    -0.2255170000     0.2707360000
| 20>  H        3.8032780000     0.2694500000    -1.2541470000
| 21>  H        3.5529660000     1.4495560000     1.5001300000
| 22>  H        4.3798750000     2.1244240000     0.0946300000
| 23>  H        5.8443400000     1.0095270000     2.1347740000
| 24>  H        6.3185470000     0.6882370000     0.4576560000
| 25>  H        4.5284910000    -1.0517640000     2.2189340000
| 26>  H        5.9354190000    -1.5760680000     1.2664490000
| 27> *
| 28>
| 29>                          ****END OF INPUT****
 Total Charge           Charge          ....    0
 Multiplicity           Mult            ....    1
 Number of Electrons    NEL             ....   52
 Basis Dimension        Dim             ....  138

MULLIKEN ATOMIC CHARGES
-----------------------
   0 C :   -0.517733
   1 C :    0.421165
   2 C :    0.127975
   3 C :    0.006528
   4 C :   -0.062673
   5 C :    0.210884
   6 O :   -0.340102
   7 H :    0.000677
   8 H :    0.027832
   9 H :    0.028862
  10 H :    0.026471
  11 H :    0.020363
  12 H :    0.027013
  13 H :    0.000651
  14 H :    0.022086
Sum of atomic charges:   -0.0000000

LOEWDIN ATOMIC CHARGES
----------------------
   0 C :   -0.075550
   1 C :   -0.028952
   2 C :    0.046317
   3 C :   -0.035306
   4 C :   -0.054744
   5 C :    0.067280
   6 O :   -0.145771
   7 H :    0.034887
   8 H :    0.035871
   9 H :    0.033793
  10 H :    0.032929
  11 H :    0.030944
  12 H :    0.029493
  13 H :    0.006596
  14 H :    0.022213

  Mayer bond orders larger than 0.1
B(  0-C ,  1-C ) :   2.3213 B(  0-C ,  7-H ) :   1.1036 B(  1-C ,  2-C ) :   0.9420
B(  1-C ,  7-H ) :  -0.1142 B(  2-C ,  3-C ) :   1.0651 B(  2-C ,  6-O ) :   1.0485
B(  2-C ,  8-H ) :   0.8826 B(  3-C ,  4-C ) :   1.1141 B(  3-C ,  9-H ) :   0.9340
B(  3-C , 10-H ) :   0.9279 B(  4-C ,  5-C ) :   1.1023 B(  4-C , 11-H ) :   0.9305
B(  4-C , 12-H ) :   0.9249 B(  5-C ,  6-O ) :   0.9993 B(  5-C , 13-H ) :   0.9316
B(  5-C , 14-H ) :   0.9422

FINAL SINGLE POINT ENERGY      -307.966556387566

DIPOLE MOMENT
-------------
                                X             Y             Z
Electronic contribution:     -3.53336      -2.32975      -2.32894
Nuclear contribution   :      3.85729       2.90153       2.63714
                        -----------------------------------------
Total Dipole Moment    :      0.32393       0.57178       0.30820
                        -----------------------------------------
Magnitude (a.u.)       :      0.72585
Magnitude (Debye)      :      1.84495

                             ****ORCA TERMINATED NORMALLY****
TOTAL RUN TIME: 0 days 0 hours 0 minutes 6 seconds 807 msec
