                         Program Version 3.0.3 - RELEASE   -
|  1> ! RI PBE def2-SVP def2-SVP/J NBO PAL2
|  2> % maxcore 2000
|  3> % output
|  4>     # printlevel mini
|  5>     print[ P_Basis ] 0
|  6>     print[ P_SCFInfo ] 1
|  7>     print[ P_SCFIterInfo ] 1
|  8>     print[ P_OrbEn ] 0
|  9>     print[ P_Cartesian ] 0
| 10> end
| 11> *xyz 0 1
| 12>  C        0.9398960000     0.1258230000     0.0769980000
| 13>  C        2.1393690000     0.0696680000     0.0362910000
| 14>  C        3.5530020000     0.0007010000    -0.0111000000
| 15>  C        4.3404200000    -1.0704210000     0.1017780000
| 16>  C        5.7696280000    -0.6384380000    -0.0119450000
| 17>  C        5.6194700000     0.8800810000    -0.2162830000
| 18>  O        4.2126220000     1.1789580000    -0.1959000000
| 19>  H       -0.1227260000     0.1742920000     0.1133650000
| 20>  H        3.9947460000    -2.0809080000     0.2521470000
| 21>  H        6.2804390000    -1.1185690000    -0.8525750000
| 22>  H        6.3455200000    -0.8784290000     0.8875310000
| 23>  H        6.0150190000     1.2162200000    -1.1768320000
| 24>  H        6.0923940000     1.4608420000     0.5780370000
| 25> *
| 26>
| 27>                          ****END OF INPUT****
 Total Charge           Charge          ....    0
 Multiplicity           Mult            ....    1
 Number of Electrons    NEL             ....   50
 Basis Dimension        Dim             ....  128

MULLIKEN ATOMIC CHARGES
-----------------------
   0 C :   -0.449127
   1 C :    0.456599
   2 C :    0.059331
   3 C :   -0.111986
   4 C :   -0.003966
   5 C :    0.204257
   6 O :   -0.287237
   7 H :    0.010109
   8 H :   -0.008723
   9 H :    0.037344
  10 H :    0.035700
  11 H :    0.026262
  12 H :    0.031436
Sum of atomic charges:   -0.0000000

LOEWDIN ATOMIC CHARGES
----------------------
   0 C :   -0.041885
   1 C :   -0.017570
   2 C :    0.006939
   3 C :   -0.079592
   4 C :   -0.048382
   5 C :    0.088344
   6 O :   -0.089116
   7 H :    0.037896
   8 H :    0.030963
   9 H :    0.034561
  10 H :    0.033910
  11 H :    0.021374
  12 H :    0.022559

  Mayer bond orders larger than 0.1
B(  0-C ,  1-C ) :   2.2525 B(  0-C ,  3-C ) :   0.1121 B(  0-C ,  7-H ) :   1.0921
B(  1-C ,  2-C ) :   0.9459 B(  1-C ,  7-H ) :  -0.1026 B(  2-C ,  3-C ) :   1.6923
B(  2-C ,  6-O ) :   1.1315 B(  3-C ,  4-C ) :   1.0191 B(  3-C ,  6-O ) :   0.1097
B(  3-C ,  8-H ) :   0.9953 B(  4-C ,  5-C ) :   1.1046 B(  4-C ,  9-H ) :   0.9174
B(  4-C , 10-H ) :   0.9176 B(  5-C ,  6-O ) :   0.9589 B(  5-C , 11-H ) :   0.9484
B(  5-C , 12-H ) :   0.9484

FINAL SINGLE POINT ENERGY      -306.760556764752

DIPOLE MOMENT
-------------
                                X             Y             Z
Electronic contribution:     -4.55749       1.41530      -0.00045
Nuclear contribution   :      5.02141      -1.73464       0.02846
                        -----------------------------------------
Total Dipole Moment    :      0.46392      -0.31934       0.02800
                        -----------------------------------------
Magnitude (a.u.)       :      0.56390
Magnitude (Debye)      :      1.43332

                             ****ORCA TERMINATED NORMALLY****
TOTAL RUN TIME: 0 days 0 hours 0 minutes 6 seconds 617 msec
