                         Program Version 3.0.3 - RELEASE   -
|  1> ! RI PBE def2-SVP def2-SVP/J NBO PAL2
|  2> % maxcore 2000
|  3> % output
|  4>     # printlevel mini
|  5>     print[ P_Basis ] 0
|  6>     print[ P_SCFInfo ] 1
|  7>     print[ P_SCFIterInfo ] 1
|  8>     print[ P_OrbEn ] 0
|  9>     print[ P_Cartesian ] 0
| 10> end
| 11> *xyz 0 1
| 12>  C        1.0056420000    -0.1190280000     0.4543030000
| 13>  C        2.1631810000    -0.0428050000     0.1494160000
| 14>  C        3.5718080000     0.0112200000    -0.1945790000
| 15>  C        4.1284550000    -1.2757700000    -0.8444300000
| 16>  C        4.9789670000    -0.6962260000    -1.9376060000
| 17>  C        4.7123810000     0.5986980000    -2.0354260000
| 18>  O        3.8187920000     1.0816510000    -1.1342080000
| 19>  H       -0.0238180000    -0.1777140000     0.7185120000
| 20>  H        4.1504740000     0.2510970000     0.7057440000
| 21>  H        3.3254790000    -1.9060400000    -1.2405250000
| 22>  H        4.6835420000    -1.8693210000    -0.1153510000
| 23>  H        5.6391610000    -1.2549770000    -2.5824850000
| 24>  H        5.0869160000     1.3333160000    -2.7348660000
| 25> *
| 26>
| 27>                          ****END OF INPUT****
 Total Charge           Charge          ....    0
 Multiplicity           Mult            ....    1
 Number of Electrons    NEL             ....   50
 Basis Dimension        Dim             ....  128

MULLIKEN ATOMIC CHARGES
-----------------------
   0 C :   -0.468878
   1 C :    0.381705
   2 C :    0.125023
   3 C :    0.106342
   4 C :   -0.160584
   5 C :    0.155170
   6 O :   -0.269648
   7 H :    0.007418
   8 H :    0.039004
   9 H :    0.033417
  10 H :    0.033372
  11 H :    0.005473
  12 H :    0.012185
Sum of atomic charges:   -0.0000000

LOEWDIN ATOMIC CHARGES
----------------------
   0 C :   -0.058792
   1 C :   -0.026331
   2 C :    0.067392
   3 C :   -0.026099
   4 C :   -0.117031
   5 C :    0.042620
   6 O :   -0.084434
   7 H :    0.037809
   8 H :    0.040629
   9 H :    0.035156
  10 H :    0.035398
  11 H :    0.028584
  12 H :    0.025098

  Mayer bond orders larger than 0.1
B(  0-C ,  1-C ) :   2.3615 B(  0-C ,  7-H ) :   1.0950 B(  1-C ,  2-C ) :   0.9757
B(  1-C ,  7-H ) :  -0.1051 B(  2-C ,  3-C ) :   1.0816 B(  2-C ,  6-O ) :   0.9868
B(  2-C ,  8-H ) :   0.8802 B(  3-C ,  4-C ) :   1.0334 B(  3-C ,  9-H ) :   0.9136
B(  3-C , 10-H ) :   0.9206 B(  4-C ,  5-C ) :   1.7557 B(  4-C ,  6-O ) :   0.1200
B(  4-C , 11-H ) :   0.9841 B(  5-C ,  6-O ) :   1.1000 B(  5-C , 12-H ) :   0.9882

FINAL SINGLE POINT ENERGY      -306.752322592654

DIPOLE MOMENT
-------------
                                X             Y             Z
Electronic contribution:     -1.47718       2.69394       0.42841
Nuclear contribution   :      1.64958      -3.10470      -0.36048
                        -----------------------------------------
Total Dipole Moment    :      0.17240      -0.41076       0.06793
                        -----------------------------------------
Magnitude (a.u.)       :      0.45062
Magnitude (Debye)      :      1.14539

                             ****ORCA TERMINATED NORMALLY****
TOTAL RUN TIME: 0 days 0 hours 0 minutes 6 seconds 577 msec
