                         Program Version 3.0.3 - RELEASE   -
|  1> ! RI PBE def2-SVP def2-SVP/J NBO PAL2
|  2> % maxcore 2000
|  3> % output
|  4>     # printlevel mini
|  5>     print[ P_Basis ] 0
|  6>     print[ P_SCFInfo ] 1
|  7>     print[ P_SCFIterInfo ] 1
|  8>     print[ P_OrbEn ] 0
|  9>     print[ P_Cartesian ] 0
| 10> end
| 11> *xyz 0 1
| 12>  C        1.0331310000     0.1975390000     0.0642940000
| 13>  C        2.5026970000     0.0949510000    -0.1654310000
| 14>  C        3.1125520000     0.3435270000    -1.3198810000
| 15>  C        2.5305420000     0.7776340000    -2.6378740000
| 16>  C        3.6546870000     0.4544340000    -3.6186520000
| 17>  C        4.8786760000     0.6337890000    -2.7386180000
| 18>  O        4.4702570000     0.2121310000    -1.4441950000
| 19>  H        0.6155180000    -0.7501300000     0.4209350000
| 20>  H        0.4929940000     0.4763030000    -0.8423790000
| 21>  H        0.7985550000     0.9484860000     0.8266290000
| 22>  H        3.1274060000    -0.2002450000     0.6723470000
| 23>  H        2.3272630000     1.8540830000    -2.6236780000
| 24>  H        1.5944920000     0.2698850000    -2.8694340000
| 25>  H        3.6655730000     1.0986210000    -4.4983880000
| 26>  H        3.5819240000    -0.5836500000    -3.9522550000
| 27>  H        5.1915370000     1.6854730000    -2.6987080000
| 28>  H        5.7353660000     0.0271590000    -3.0354310000
| 29> *
| 30>
| 31>                          ****END OF INPUT****
 Total Charge           Charge          ....    0
 Multiplicity           Mult            ....    1
 Number of Electrons    NEL             ....   54
 Basis Dimension        Dim             ....  148

MULLIKEN ATOMIC CHARGES
-----------------------
   0 C :    0.037187
   1 C :   -0.164714
   2 C :    0.033217
   3 C :    0.039753
   4 C :   -0.049959
   5 C :    0.195159
   6 O :   -0.278395
   7 H :    0.024346
   8 H :    0.008949
   9 H :    0.027243
  10 H :   -0.016761
  11 H :    0.034189
  12 H :    0.031727
  13 H :    0.016506
  14 H :    0.029411
  15 H :    0.011745
  16 H :    0.020398
Sum of atomic charges:   -0.0000000

LOEWDIN ATOMIC CHARGES
----------------------
   0 C :   -0.064130
   1 C :   -0.117743
   2 C :    0.013032
   3 C :   -0.047033
   4 C :   -0.050594
   5 C :    0.073481
   6 O :   -0.089954
   7 H :    0.031009
   8 H :    0.025436
   9 H :    0.031946
  10 H :    0.026159
  11 H :    0.038425
  12 H :    0.035803
  13 H :    0.030496
  14 H :    0.031118
  15 H :    0.011428
  16 H :    0.021121

  Mayer bond orders larger than 0.1
B(  0-C ,  1-C ) :   1.1007 B(  0-C ,  7-H ) :   0.9474 B(  0-C ,  8-H ) :   0.9535
B(  0-C ,  9-H ) :   0.9461 B(  1-C ,  2-C ) :   1.8575 B(  1-C , 10-H ) :   0.9311
B(  2-C ,  3-C ) :   1.0261 B(  2-C ,  6-O ) :   1.1207 B(  3-C ,  4-C ) :   1.0948
B(  3-C , 11-H ) :   0.9101 B(  3-C , 12-H ) :   0.9164 B(  4-C ,  5-C ) :   1.0946
B(  4-C , 13-H ) :   0.9268 B(  4-C , 14-H ) :   0.9347 B(  5-C ,  6-O ) :   0.9764
B(  5-C , 15-H ) :   0.9387 B(  5-C , 16-H ) :   0.9473

FINAL SINGLE POINT ENERGY      -309.231081610038

DIPOLE MOMENT
-------------
                                X             Y             Z
Electronic contribution:      4.17563      -0.63836       0.75622
Nuclear contribution   :     -4.31455       0.86305      -1.48645
                        -----------------------------------------
Total Dipole Moment    :     -0.13892       0.22469      -0.73023
                        -----------------------------------------
Magnitude (a.u.)       :      0.77654
Magnitude (Debye)      :      1.97382

                             ****ORCA TERMINATED NORMALLY****
TOTAL RUN TIME: 0 days 0 hours 0 minutes 7 seconds 586 msec
