                         Program Version 3.0.3 - RELEASE   -
|  1> ! RI PBE def2-SVP def2-SVP/J NBO PAL2
|  2> % maxcore 2000
|  3> % output
|  4>     # printlevel mini
|  5>     print[ P_Basis ] 0
|  6>     print[ P_SCFInfo ] 1
|  7>     print[ P_SCFIterInfo ] 1
|  8>     print[ P_OrbEn ] 0
|  9>     print[ P_Cartesian ] 0
| 10> end
| 11> *xyz 0 1
| 12>  C        1.0751590000     0.1675300000    -0.0976890000
| 13>  C        2.5464870000    -0.0936520000    -0.0307940000
| 14>  C        3.1291870000    -0.6251860000     1.0356030000
| 15>  C        2.5157960000    -1.0644850000     2.3393000000
| 16>  C        3.7206030000    -1.5609790000     3.0805110000
| 17>  C        4.7754950000    -1.4042280000     2.2928720000
| 18>  O        4.4929380000    -0.8575390000     1.0739680000
| 19>  H        0.7985430000     0.6062180000    -1.0566630000
| 20>  H        0.7438300000     0.8598800000     0.6843260000
| 21>  H        0.4881800000    -0.7500200000     0.0216110000
| 22>  H        3.1697610000     0.1576370000    -0.8816250000
| 23>  H        1.7547510000    -1.8399180000     2.1858610000
| 24>  H        2.0098550000    -0.2337170000     2.8471190000
| 25>  H        3.7286980000    -1.9726160000     4.0772350000
| 26>  H        5.8184270000    -1.6353160000     2.4518850000
| 27> *
| 28>
| 29>                          ****END OF INPUT****
 Total Charge           Charge          ....    0
 Multiplicity           Mult            ....    1
 Number of Electrons    NEL             ....   52
 Basis Dimension        Dim             ....  138

MULLIKEN ATOMIC CHARGES
-----------------------
   0 C :    0.027147
   1 C :   -0.163682
   2 C :    0.017029
   3 C :    0.141744
   4 C :   -0.132898
   5 C :    0.156953
   6 O :   -0.215102
   7 H :    0.021189
   8 H :    0.032575
   9 H :    0.032578
  10 H :   -0.007419
  11 H :    0.046043
  12 H :    0.043204
  13 H :   -0.002746
  14 H :    0.003384
Sum of atomic charges:   -0.0000000

LOEWDIN ATOMIC CHARGES
----------------------
   0 C :   -0.065665
   1 C :   -0.102624
   2 C :    0.031964
   3 C :   -0.040274
   4 C :   -0.101399
   5 C :    0.043857
   6 O :   -0.034749
   7 H :    0.033625
   8 H :    0.032328
   9 H :    0.032743
  10 H :    0.029518
  11 H :    0.044499
  12 H :    0.043898
  13 H :    0.028518
  14 H :    0.023762

  Mayer bond orders larger than 0.1
B(  0-C ,  1-C ) :   1.0876 B(  0-C ,  7-H ) :   0.9551 B(  0-C ,  8-H ) :   0.9501
B(  0-C ,  9-H ) :   0.9493 B(  1-C ,  2-C ) :   1.8647 B(  1-C , 10-H ) :   0.9356
B(  2-C ,  3-C ) :   1.0365 B(  2-C ,  6-O ) :   1.0732 B(  3-C ,  4-C ) :   1.0394
B(  3-C , 11-H ) :   0.8871 B(  3-C , 12-H ) :   0.8866 B(  4-C ,  5-C ) :   1.7550
B(  4-C ,  6-O ) :   0.1006 B(  4-C , 13-H ) :   0.9791 B(  5-C ,  6-O ) :   1.0790
B(  5-C , 14-H ) :   0.9960

FINAL SINGLE POINT ENERGY      -308.015158005518

DIPOLE MOMENT
-------------
                                X             Y             Z
Electronic contribution:      6.06355      -1.34792       0.92816
Nuclear contribution   :     -6.33946       1.23355      -0.55111
                        -----------------------------------------
Total Dipole Moment    :     -0.27591      -0.11436       0.37704
                        -----------------------------------------
Magnitude (a.u.)       :      0.48100
Magnitude (Debye)      :      1.22262

                             ****ORCA TERMINATED NORMALLY****
TOTAL RUN TIME: 0 days 0 hours 0 minutes 6 seconds 995 msec
