                         Program Version 3.0.3 - RELEASE   -
|  1> ! RI PBE def2-SVP def2-SVP/J NBO PAL2
|  2> % maxcore 2000
|  3> % output
|  4>     # printlevel mini
|  5>     print[ P_Basis ] 0
|  6>     print[ P_SCFInfo ] 1
|  7>     print[ P_SCFIterInfo ] 1
|  8>     print[ P_OrbEn ] 0
|  9>     print[ P_Cartesian ] 0
| 10> end
| 11> *xyz 0 1
| 12>  C        1.0415400000    -0.2490580000     0.3204900000
| 13>  C        2.5529500000    -0.0590040000     0.2435470000
| 14>  C        3.0721040000     0.9058250000     1.2444020000
| 15>  C        3.9401180000     0.7501830000     2.2420710000
| 16>  C        4.1735940000     2.0788520000     2.9022200000
| 17>  C        3.0526570000     2.9105560000     2.2682040000
| 18>  O        2.5975660000     2.1798980000     1.1193650000
| 19>  H        0.7010890000    -0.9494870000    -0.4450120000
| 20>  H        0.5231660000     0.6989630000     0.1697250000
| 21>  H        0.7483400000    -0.6431710000     1.2961600000
| 22>  H        2.8229520000     0.3038230000    -0.7549990000
| 23>  H        3.0676320000    -1.0114770000     0.3876470000
| 24>  H        4.4485590000    -0.1699340000     2.4867540000
| 25>  H        5.1696870000     2.4763350000     2.6720270000
| 26>  H        4.0833510000     2.0514550000     3.9911290000
| 27>  H        3.3648170000     3.9007160000     1.9352770000
| 28>  H        2.2040670000     3.0189150000     2.9518840000
| 29> *
| 30>
| 31>                          ****END OF INPUT****
 Total Charge           Charge          ....    0
 Multiplicity           Mult            ....    1
 Number of Electrons    NEL             ....   54
 Basis Dimension        Dim             ....  148

MULLIKEN ATOMIC CHARGES
-----------------------
   0 C :   -0.029228
   1 C :    0.083295
   2 C :    0.036477
   3 C :   -0.164951
   4 C :    0.008567
   5 C :    0.193838
   6 O :   -0.299197
   7 H :    0.021611
   8 H :    0.034553
   9 H :    0.019686
  10 H :    0.021323
  11 H :    0.004088
  12 H :   -0.022537
  13 H :    0.024677
  14 H :    0.026993
  15 H :    0.020673
  16 H :    0.020133
Sum of atomic charges:    0.0000000

LOEWDIN ATOMIC CHARGES
----------------------
   0 C :   -0.060056
   1 C :   -0.045249
   2 C :    0.028450
   3 C :   -0.127337
   4 C :   -0.050509
   5 C :    0.084524
   6 O :   -0.100690
   7 H :    0.026559
   8 H :    0.028944
   9 H :    0.026330
  10 H :    0.038433
  11 H :    0.035115
  12 H :    0.021744
  13 H :    0.026050
  14 H :    0.031004
  15 H :    0.020036
  16 H :    0.016648

  Mayer bond orders larger than 0.1
B(  0-C ,  1-C ) :   1.1071 B(  0-C ,  7-H ) :   0.9630 B(  0-C ,  8-H ) :   0.9659
B(  0-C ,  9-H ) :   0.9678 B(  1-C ,  2-C ) :   1.0718 B(  1-C , 10-H ) :   0.9013
B(  1-C , 11-H ) :   0.9209 B(  2-C ,  3-C ) :   1.7559 B(  2-C ,  6-O ) :   1.1079
B(  3-C ,  4-C ) :   1.0234 B(  3-C , 12-H ) :   0.9852 B(  4-C ,  5-C ) :   1.1118
B(  4-C , 13-H ) :   0.9178 B(  4-C , 14-H ) :   0.9235 B(  5-C ,  6-O ) :   0.9632
B(  5-C , 15-H ) :   0.9500 B(  5-C , 16-H ) :   0.9411

FINAL SINGLE POINT ENERGY      -309.230579900653

DIPOLE MOMENT
-------------
                                X             Y             Z
Electronic contribution:      1.73217       2.42585       0.14508
Nuclear contribution   :     -1.60994      -2.45041       0.06293
                        -----------------------------------------
Total Dipole Moment    :      0.12223      -0.02455       0.20801
                        -----------------------------------------
Magnitude (a.u.)       :      0.24251
Magnitude (Debye)      :      0.61641

                             ****ORCA TERMINATED NORMALLY****
TOTAL RUN TIME: 0 days 0 hours 0 minutes 7 seconds 714 msec
