                         Program Version 3.0.3 - RELEASE   -
|  1> ! RI PBE def2-SVP def2-SVP/J NBO PAL2
|  2> % maxcore 2000
|  3> % output
|  4>     # printlevel mini
|  5>     print[ P_Basis ] 0
|  6>     print[ P_SCFInfo ] 1
|  7>     print[ P_SCFIterInfo ] 1
|  8>     print[ P_OrbEn ] 0
|  9>     print[ P_Cartesian ] 0
| 10> end
| 11> *xyz 0 1
| 12>  C        0.9698490000     0.1842880000     0.1081690000
| 13>  C        2.4818670000     0.0695960000     0.0307870000
| 14>  C        3.2216940000     0.3392720000     1.3325090000
| 15>  C        4.7003270000     0.0605310000     1.1865350000
| 16>  C        2.8795600000     1.6520740000     2.0660060000
| 17>  C        2.3015390000     0.7423050000     3.1473970000
| 18>  O        2.6634200000    -0.4390890000     2.4242520000
| 19>  H        0.5140420000    -0.0877930000    -0.8461930000
| 20>  H        0.6437070000     1.2007210000     0.3434440000
| 21>  H        0.5743300000    -0.4855020000     0.8737100000
| 22>  H        2.8787910000     0.7520200000    -0.7298630000
| 23>  H        2.7497210000    -0.9424090000    -0.2939920000
| 24>  H        5.1400050000     0.7029280000     0.4184570000
| 25>  H        4.8629850000    -0.9810750000     0.8984470000
| 26>  H        5.2213140000     0.2395250000     2.1291940000
| 27>  H        2.1653410000     2.3027230000     1.5631490000
| 28>  H        3.7494300000     2.2370860000     2.3641400000
| 29>  H        1.2181940000     0.8131610000     3.2922750000
| 30>  H        2.7935850000     0.7882680000     4.1242860000
| 31> *
| 32>
| 33>                          ****END OF INPUT****
 Total Charge           Charge          ....    0
 Multiplicity           Mult            ....    1
 Number of Electrons    NEL             ....   56
 Basis Dimension        Dim             ....  158

MULLIKEN ATOMIC CHARGES
-----------------------
   0 C :   -0.013073
   1 C :    0.064352
   2 C :   -0.178898
   3 C :    0.112553
   4 C :    0.003826
   5 C :    0.200342
   6 O :   -0.345139
   7 H :    0.016224
   8 H :    0.008096
   9 H :    0.033731
  10 H :    0.006038
  11 H :    0.005767
  12 H :    0.015049
  13 H :    0.017976
  14 H :    0.007780
  15 H :    0.017199
  16 H :    0.009269
  17 H :    0.009834
  18 H :    0.009075
Sum of atomic charges:   -0.0000000

LOEWDIN ATOMIC CHARGES
----------------------
   0 C :   -0.067790
   1 C :   -0.047128
   2 C :    0.036987
   3 C :   -0.060489
   4 C :   -0.046159
   5 C :    0.082831
   6 O :   -0.179163
   7 H :    0.028260
   8 H :    0.020463
   9 H :    0.029231
  10 H :    0.027349
  11 H :    0.028406
  12 H :    0.029628
  13 H :    0.030367
  14 H :    0.025978
  15 H :    0.022262
  16 H :    0.024004
  17 H :    0.006841
  18 H :    0.008121

  Mayer bond orders larger than 0.1
B(  0-C ,  1-C ) :   1.1159 B(  0-C ,  7-H ) :   0.9573 B(  0-C ,  8-H ) :   0.9610
B(  0-C ,  9-H ) :   0.9566 B(  1-C ,  2-C ) :   1.0158 B(  1-C , 10-H ) :   0.9238
B(  1-C , 11-H ) :   0.9223 B(  2-C ,  3-C ) :   1.0663 B(  2-C ,  4-C ) :   1.0622
B(  2-C ,  6-O ) :   1.0264 B(  3-C , 12-H ) :   0.9484 B(  3-C , 13-H ) :   0.9476
B(  3-C , 14-H ) :   0.9418 B(  4-C ,  5-C ) :   1.1072 B(  4-C , 15-H ) :   0.9310
B(  4-C , 16-H ) :   0.9305 B(  5-C ,  6-O ) :   1.0295 B(  5-C , 17-H ) :   0.9361
B(  5-C , 18-H ) :   0.9368

FINAL SINGLE POINT ENERGY      -310.417267625009

DIPOLE MOMENT
-------------
                                X             Y             Z
Electronic contribution:      0.41617      -1.47824       3.11473
Nuclear contribution   :     -0.32243       2.05718      -3.31082
                        -----------------------------------------
Total Dipole Moment    :      0.09374       0.57893      -0.19609
                        -----------------------------------------
Magnitude (a.u.)       :      0.61839
Magnitude (Debye)      :      1.57181

                             ****ORCA TERMINATED NORMALLY****
TOTAL RUN TIME: 0 days 0 hours 0 minutes 8 seconds 534 msec
