                         Program Version 3.0.3 - RELEASE   -
|  1> ! RI PBE def2-SVP def2-SVP/J NBO PAL2
|  2> % maxcore 2000
|  3> % output
|  4>     # printlevel mini
|  5>     print[ P_Basis ] 0
|  6>     print[ P_SCFInfo ] 1
|  7>     print[ P_SCFIterInfo ] 1
|  8>     print[ P_OrbEn ] 0
|  9>     print[ P_Cartesian ] 0
| 10> end
| 11> *xyz 0 1
| 12>  C        2.2859560000     1.3023010000    -1.5577050000
| 13>  C        2.2609990000     0.6979810000    -0.1654720000
| 14>  C        3.5218830000     0.8715990000     0.6493750000
| 15>  C        3.4851650000     0.2949880000     2.0442390000
| 16>  C        2.5598220000     1.0369380000     2.9972710000
| 17>  C        4.4823560000     1.9377410000     0.3653560000
| 18>  O        4.7353670000     0.6052680000    -0.0536790000
| 19>  H        1.4060700000     0.9909910000    -2.1241810000
| 20>  H        3.1722530000     0.9776070000    -2.1062110000
| 21>  H        2.2825430000     2.3942680000    -1.5271180000
| 22>  H        2.0779770000    -0.3811460000    -0.2380920000
| 23>  H        1.4207560000     1.1077850000     0.4039710000
| 24>  H        4.5076770000     0.3048710000     2.4315860000
| 25>  H        3.1879130000    -0.7579840000     1.9785520000
| 26>  H        2.6189030000     0.6124440000     4.0016870000
| 27>  H        2.8301920000     2.0940340000     3.0666020000
| 28>  H        1.5157640000     0.9807530000     2.6814350000
| 29>  H        5.1232390000     2.3007090000     1.1669050000
| 30>  H        4.2991530000     2.6473620000    -0.4367320000
| 31> *
| 32>
| 33>                          ****END OF INPUT****
 Total Charge           Charge          ....    0
 Multiplicity           Mult            ....    1
 Number of Electrons    NEL             ....   56
 Basis Dimension        Dim             ....  158

MULLIKEN ATOMIC CHARGES
-----------------------
   0 C :   -0.038285
   1 C :    0.080337
   2 C :   -0.192133
   3 C :    0.069831
   4 C :   -0.017453
   5 C :    0.170945
   6 O :   -0.290398
   7 H :    0.018833
   8 H :    0.036870
   9 H :    0.025272
  10 H :    0.013304
  11 H :    0.006255
  12 H :    0.003571
  13 H :    0.011976
  14 H :    0.023688
  15 H :    0.016144
  16 H :    0.025559
  17 H :    0.016581
  18 H :    0.019104
Sum of atomic charges:    0.0000000

LOEWDIN ATOMIC CHARGES
----------------------
   0 C :   -0.068501
   1 C :   -0.044625
   2 C :    0.010128
   3 C :   -0.042035
   4 C :   -0.064205
   5 C :    0.053665
   6 O :   -0.152886
   7 H :    0.029768
   8 H :    0.030033
   9 H :    0.024701
  10 H :    0.032952
  11 H :    0.028862
  12 H :    0.030762
  13 H :    0.028939
  14 H :    0.029840
  15 H :    0.025384
  16 H :    0.023655
  17 H :    0.011823
  18 H :    0.011740

  Mayer bond orders larger than 0.1
B(  0-C ,  1-C ) :   1.1314 B(  0-C ,  7-H ) :   0.9540 B(  0-C ,  8-H ) :   0.9561
B(  0-C ,  9-H ) :   0.9583 B(  1-C ,  2-C ) :   1.0254 B(  1-C , 10-H ) :   0.9145
B(  1-C , 11-H ) :   0.9197 B(  2-C ,  3-C ) :   1.0587 B(  2-C ,  5-C ) :   1.0900
B(  2-C ,  6-O ) :   0.9563 B(  3-C ,  4-C ) :   1.1130 B(  3-C , 12-H ) :   0.9075
B(  3-C , 13-H ) :   0.9208 B(  4-C , 14-H ) :   0.9558 B(  4-C , 15-H ) :   0.9637
B(  4-C , 16-H ) :   0.9613 B(  5-C ,  6-O ) :   1.0039 B(  5-C , 17-H ) :   0.9239
B(  5-C , 18-H ) :   0.9190

FINAL SINGLE POINT ENERGY      -310.413409500403

DIPOLE MOMENT
-------------
                                X             Y             Z
Electronic contribution:      4.70067      -1.22169      -1.56912
Nuclear contribution   :     -5.18962       1.56239       1.90703
                        -----------------------------------------
Total Dipole Moment    :     -0.48895       0.34070       0.33791
                        -----------------------------------------
Magnitude (a.u.)       :      0.68508
Magnitude (Debye)      :      1.74132

                             ****ORCA TERMINATED NORMALLY****
TOTAL RUN TIME: 0 days 0 hours 0 minutes 8 seconds 368 msec
