                         Program Version 3.0.3 - RELEASE   -
|  1> ! RI PBE def2-SVP def2-SVP/J NBO PAL2
|  2> % maxcore 2000
|  3> % output
|  4>     # printlevel mini
|  5>     print[ P_Basis ] 0
|  6>     print[ P_SCFInfo ] 1
|  7>     print[ P_SCFIterInfo ] 1
|  8>     print[ P_OrbEn ] 0
|  9>     print[ P_Cartesian ] 0
| 10> end
| 11> *xyz 0 1
| 12>  C        1.8206490000     1.2429120000    -0.6903920000
| 13>  C        2.5173680000     0.0285730000    -0.1027550000
| 14>  C        2.9215840000    -0.9997680000    -1.1365420000
| 15>  C        3.6261830000    -2.2418070000    -0.5531930000
| 16>  C        2.7596570000    -3.3601910000    -1.0536990000
| 17>  C        1.7444530000    -2.8360390000    -1.7267930000
| 18>  O        1.7376940000    -1.4855200000    -1.8174620000
| 19>  H        1.5422720000     1.9537150000     0.0905780000
| 20>  H        0.9133280000     0.9510480000    -1.2219220000
| 21>  H        2.4699320000     1.7647190000    -1.3992230000
| 22>  H        1.8718440000    -0.4642270000     0.6328790000
| 23>  H        3.4240650000     0.3337700000     0.4319670000
| 24>  H        3.5384470000    -0.5251070000    -1.9080430000
| 25>  H        3.6574610000    -2.2013030000     0.5424530000
| 26>  H        4.6612340000    -2.3197910000    -0.8982130000
| 27>  H        2.9202120000    -4.4119400000    -0.8740780000
| 28>  H        0.9129170000    -3.3271430000    -2.2143530000
| 29> *
| 30>
| 31>                          ****END OF INPUT****
 Total Charge           Charge          ....    0
 Multiplicity           Mult            ....    1
 Number of Electrons    NEL             ....   54
 Basis Dimension        Dim             ....  148

MULLIKEN ATOMIC CHARGES
-----------------------
   0 C :   -0.010919
   1 C :   -0.006906
   2 C :    0.035946
   3 C :    0.125405
   4 C :   -0.162933
   5 C :    0.148324
   6 O :   -0.282293
   7 H :    0.021760
   8 H :    0.032693
   9 H :    0.016886
  10 H :    0.016162
  11 H :    0.014274
  12 H :    0.010197
  13 H :    0.016461
  14 H :    0.022072
  15 H :   -0.002776
  16 H :    0.005647
Sum of atomic charges:   -0.0000000

LOEWDIN ATOMIC CHARGES
----------------------
   0 C :   -0.068226
   1 C :   -0.052851
   2 C :    0.074758
   3 C :   -0.039816
   4 C :   -0.120867
   5 C :    0.036014
   6 O :   -0.092902
   7 H :    0.027871
   8 H :    0.029662
   9 H :    0.025407
  10 H :    0.028524
  11 H :    0.029059
  12 H :    0.018091
  13 H :    0.027978
  14 H :    0.030564
  15 H :    0.025150
  16 H :    0.021585

  Mayer bond orders larger than 0.1
B(  0-C ,  1-C ) :   1.1223 B(  0-C ,  7-H ) :   0.9599 B(  0-C ,  8-H ) :   0.9617
B(  0-C ,  9-H ) :   0.9627 B(  1-C ,  2-C ) :   1.0707 B(  1-C , 10-H ) :   0.9226
B(  1-C , 11-H ) :   0.9266 B(  2-C ,  3-C ) :   1.0726 B(  2-C ,  6-O ) :   0.9555
B(  2-C , 12-H ) :   0.9173 B(  3-C ,  4-C ) :   1.0402 B(  3-C , 13-H ) :   0.9091
B(  3-C , 14-H ) :   0.9146 B(  4-C ,  5-C ) :   1.7517 B(  4-C ,  6-O ) :   0.1265
B(  4-C , 15-H ) :   0.9872 B(  5-C ,  6-O ) :   1.1080 B(  5-C , 16-H ) :   0.9893

FINAL SINGLE POINT ENERGY      -309.227593661826

DIPOLE MOMENT
-------------
                                X             Y             Z
Electronic contribution:     -1.18809      -4.68910      -2.83913
Nuclear contribution   :      1.47540       4.70376       3.07122
                        -----------------------------------------
Total Dipole Moment    :      0.28731       0.01466       0.23209
                        -----------------------------------------
Magnitude (a.u.)       :      0.36964
Magnitude (Debye)      :      0.93954

                             ****ORCA TERMINATED NORMALLY****
TOTAL RUN TIME: 0 days 0 hours 0 minutes 7 seconds 833 msec
