                         Program Version 3.0.3 - RELEASE   -
|  1> ! RI PBE def2-SVP def2-SVP/J NBO PAL2
|  2> % maxcore 2000
|  3> % output
|  4>     # printlevel mini
|  5>     print[ P_Basis ] 0
|  6>     print[ P_SCFInfo ] 1
|  7>     print[ P_SCFIterInfo ] 1
|  8>     print[ P_OrbEn ] 0
|  9>     print[ P_Cartesian ] 0
| 10> end
| 11> *xyz 0 1
| 12>  C        2.4096700000    -1.1028140000     1.0343300000
| 13>  C        2.3110620000     0.0555840000     0.0567780000
| 14>  C        3.3063840000     1.1506360000     0.3555630000
| 15>  C        3.1287340000     2.4808950000    -0.3834470000
| 16>  C        2.8313600000     3.0616700000     1.0040920000
| 17>  C        3.7424760000     4.1385810000     1.5284350000
| 18>  O        3.0681060000     1.7850160000     1.6288780000
| 19>  H        1.6571430000    -1.8660780000     0.8252170000
| 20>  H        2.2622030000    -0.7518610000     2.0577540000
| 21>  H        3.3923770000    -1.5801050000     0.9824960000
| 22>  H        1.3028590000     0.4843800000     0.0794400000
| 23>  H        2.4854280000    -0.2912550000    -0.9690280000
| 24>  H        4.3258040000     0.7439730000     0.3223870000
| 25>  H        2.3050740000     2.5064290000    -1.0976080000
| 26>  H        4.0296970000     2.8757860000    -0.8537430000
| 27>  H        1.7837720000     3.3592910000     1.1391800000
| 28>  H        4.7902000000     3.8624510000     1.3870340000
| 29>  H        3.5702310000     4.2979140000     2.5954760000
| 30>  H        3.5557110000     5.0820190000     1.0073570000
| 31> *
| 32>
| 33>                          ****END OF INPUT****
 Total Charge           Charge          ....    0
 Multiplicity           Mult            ....    1
 Number of Electrons    NEL             ....   56
 Basis Dimension        Dim             ....  158

MULLIKEN ATOMIC CHARGES
-----------------------
   0 C :   -0.020782
   1 C :    0.044331
   2 C :    0.039227
   3 C :    0.045886
   4 C :    0.040914
   5 C :    0.059741
   6 O :   -0.348899
   7 H :    0.021928
   8 H :    0.032392
   9 H :    0.016066
  10 H :   -0.005167
  11 H :    0.005006
  12 H :   -0.004339
  13 H :    0.012420
  14 H :    0.004720
  15 H :   -0.001376
  16 H :    0.011289
  17 H :    0.031587
  18 H :    0.015055
Sum of atomic charges:   -0.0000000

LOEWDIN ATOMIC CHARGES
----------------------
   0 C :   -0.066883
   1 C :   -0.055256
   2 C :    0.069506
   3 C :   -0.046831
   4 C :    0.067973
   5 C :   -0.072654
   6 O :   -0.181540
   7 H :    0.026877
   8 H :    0.029754
   9 H :    0.024569
  10 H :    0.023394
  11 H :    0.026495
  12 H :    0.007248
  13 H :    0.024513
  14 H :    0.024355
  15 H :    0.008158
  16 H :    0.025977
  17 H :    0.033702
  18 H :    0.030643

  Mayer bond orders larger than 0.1
B(  0-C ,  1-C ) :   1.1155 B(  0-C ,  7-H ) :   0.9627 B(  0-C ,  8-H ) :   0.9634
B(  0-C ,  9-H ) :   0.9640 B(  1-C ,  2-C ) :   1.0531 B(  1-C , 10-H ) :   0.9156
B(  1-C , 11-H ) :   0.9222 B(  2-C ,  3-C ) :   1.0832 B(  2-C ,  6-O ) :   1.0290
B(  2-C , 12-H ) :   0.9157 B(  3-C ,  4-C ) :   1.0897 B(  3-C , 13-H ) :   0.9286
B(  3-C , 14-H ) :   0.9241 B(  4-C ,  5-C ) :   1.0942 B(  4-C ,  6-O ) :   1.0256
B(  4-C , 15-H ) :   0.9152 B(  5-C , 16-H ) :   0.9472 B(  5-C , 17-H ) :   0.9527
B(  5-C , 18-H ) :   0.9478

FINAL SINGLE POINT ENERGY      -310.420365322292

DIPOLE MOMENT
-------------
                                X             Y             Z
Electronic contribution:      0.19000       1.19765       1.04139
Nuclear contribution   :     -0.20116      -0.97333      -1.60410
                        -----------------------------------------
Total Dipole Moment    :     -0.01116       0.22432      -0.56271
                        -----------------------------------------
Magnitude (a.u.)       :      0.60588
Magnitude (Debye)      :      1.54002

                             ****ORCA TERMINATED NORMALLY****
TOTAL RUN TIME: 0 days 0 hours 0 minutes 8 seconds 281 msec
