                         Program Version 3.0.3 - RELEASE   -
|  1> ! RI PBE def2-SVP def2-SVP/J NBO PAL2
|  2> % maxcore 2000
|  3> % output
|  4>     # printlevel mini
|  5>     print[ P_Basis ] 0
|  6>     print[ P_SCFInfo ] 1
|  7>     print[ P_SCFIterInfo ] 1
|  8>     print[ P_OrbEn ] 0
|  9>     print[ P_Cartesian ] 0
| 10> end
| 11> *xyz 0 1
| 12>  C        3.5046900000    -0.5269650000    -0.8865720000
| 13>  C        2.3736830000     0.0651840000    -0.0525330000
| 14>  C        2.8241280000     1.1533380000     0.8635680000
| 15>  C        2.4729360000     2.4619860000     0.8250800000
| 16>  O        3.0862760000     3.1630030000     1.8076120000
| 17>  C        3.8488560000     2.2847880000     2.4918650000
| 18>  C        3.7338390000     1.0443710000     1.9657610000
| 19>  H        3.1366220000    -1.3264600000    -1.5338190000
| 20>  H        4.2876270000    -0.9458980000    -0.2500290000
| 21>  H        3.9654620000     0.2373670000    -1.5162690000
| 22>  H        1.9035370000    -0.7311570000     0.5350340000
| 23>  H        1.5948270000     0.4560680000    -0.7136320000
| 24>  H        1.8161910000     3.0243270000     0.1811010000
| 25>  H        4.4085930000     2.6874290000     3.3199740000
| 26>  H        4.2307320000     0.1534980000     2.3179680000
| 27> *
| 28>
| 29>                          ****END OF INPUT****
 Total Charge           Charge          ....    0
 Multiplicity           Mult            ....    1
 Number of Electrons    NEL             ....   52
 Basis Dimension        Dim             ....  138

MULLIKEN ATOMIC CHARGES
-----------------------
   0 C :   -0.030144
   1 C :    0.065365
   2 C :   -0.060983
   3 C :    0.049913
   4 O :   -0.167578
   5 C :    0.112385
   6 C :   -0.044458
   7 H :    0.022654
   8 H :    0.024531
   9 H :    0.025324
  10 H :    0.019524
  11 H :    0.002333
  12 H :   -0.004978
  13 H :    0.004039
  14 H :   -0.017927
Sum of atomic charges:   -0.0000000

LOEWDIN ATOMIC CHARGES
----------------------
   0 C :   -0.061151
   1 C :   -0.036610
   2 C :   -0.076151
   3 C :    0.000507
   4 O :    0.032126
   5 C :    0.014127
   6 C :   -0.083153
   7 H :    0.026089
   8 H :    0.025558
   9 H :    0.027670
  10 H :    0.033830
  11 H :    0.030744
  12 H :    0.018557
  13 H :    0.019647
  14 H :    0.028208

  Mayer bond orders larger than 0.1
B(  0-C ,  1-C ) :   1.1089 B(  0-C ,  7-H ) :   0.9623 B(  0-C ,  8-H ) :   0.9696
B(  0-C ,  9-H ) :   0.9658 B(  1-C ,  2-C ) :   1.0848 B(  1-C , 10-H ) :   0.9165
B(  1-C , 11-H ) :   0.9210 B(  2-C ,  3-C ) :   1.5378 B(  2-C ,  6-C ) :   1.2387
B(  3-C ,  4-O ) :   1.1476 B(  3-C , 12-H ) :   1.0045 B(  4-O ,  5-C ) :   1.1608
B(  5-C ,  6-C ) :   1.5260 B(  5-C , 13-H ) :   0.9966 B(  6-C , 14-H ) :   1.0063

FINAL SINGLE POINT ENERGY      -308.040408855450

DIPOLE MOMENT
-------------
                                X             Y             Z
Electronic contribution:     -0.33178       6.66142       5.01957
Nuclear contribution   :      0.33551      -6.94833      -5.11738
                        -----------------------------------------
Total Dipole Moment    :      0.00373      -0.28691      -0.09780
                        -----------------------------------------
Magnitude (a.u.)       :      0.30314
Magnitude (Debye)      :      0.77052

                             ****ORCA TERMINATED NORMALLY****
TOTAL RUN TIME: 0 days 0 hours 0 minutes 7 seconds 39 msec
