                         Program Version 3.0.3 - RELEASE   -
|  1> ! RI PBE def2-SVP def2-SVP/J NBO PAL2
|  2> % maxcore 2000
|  3> % output
|  4>     # printlevel mini
|  5>     print[ P_Basis ] 0
|  6>     print[ P_SCFInfo ] 1
|  7>     print[ P_SCFIterInfo ] 1
|  8>     print[ P_OrbEn ] 0
|  9>     print[ P_Cartesian ] 0
| 10> end
| 11> *xyz 0 1
| 12>  C        1.7073050000    -0.4822160000     0.9324080000
| 13>  C        2.3542440000     0.1616410000    -0.0362960000
| 14>  C        2.9777060000    -0.4502260000    -1.1929130000
| 15>  C        3.6390470000     0.2107440000    -2.1826110000
| 16>  O        4.1025960000    -0.6455440000    -3.1151960000
| 17>  C        3.7337990000    -1.8868840000    -2.7213190000
| 18>  C        3.0473690000    -1.8362110000    -1.5607500000
| 19>  H        1.2691520000     0.0542870000     1.7645200000
| 20>  H        1.5929210000    -1.5606100000     0.9290970000
| 21>  H        2.4375370000     1.2443130000     0.0199420000
| 22>  H        3.8496000000     1.2552160000    -2.3466900000
| 23>  H        4.0321150000    -2.6953200000    -3.3680850000
| 24>  H        2.6379990000    -2.6784910000    -1.0265970000
| 25> *
| 26>
| 27>                          ****END OF INPUT****
 Total Charge           Charge          ....    0
 Multiplicity           Mult            ....    1
 Number of Electrons    NEL             ....   50
 Basis Dimension        Dim             ....  128

MULLIKEN ATOMIC CHARGES
-----------------------
   0 C :   -0.037881
   1 C :    0.003744
   2 C :    0.023903
   3 C :    0.063729
   4 O :   -0.162213
   5 C :    0.116259
   6 C :   -0.036664
   7 H :    0.023593
   8 H :    0.016936
   9 H :   -0.010250
  10 H :    0.002630
  11 H :    0.009131
  12 H :   -0.012916
Sum of atomic charges:   -0.0000000

LOEWDIN ATOMIC CHARGES
----------------------
   0 C :   -0.058258
   1 C :   -0.027838
   2 C :   -0.079510
   3 C :    0.020801
   4 O :    0.037610
   5 C :    0.021154
   6 C :   -0.069391
   7 H :    0.026110
   8 H :    0.021723
   9 H :    0.031863
  10 H :    0.021919
  11 H :    0.022401
  12 H :    0.031416

  Mayer bond orders larger than 0.1
B(  0-C ,  1-C ) :   1.9246 B(  0-C ,  7-H ) :   0.9386 B(  0-C ,  8-H ) :   0.9445
B(  1-C ,  2-C ) :   1.1250 B(  1-C ,  9-H ) :   0.9526 B(  2-C ,  3-C ) :   1.4709
B(  2-C ,  6-C ) :   1.2172 B(  3-C ,  4-O ) :   1.1605 B(  3-C , 10-H ) :   0.9991
B(  4-O ,  5-C ) :   1.1470 B(  5-C ,  6-C ) :   1.5487 B(  5-C , 11-H ) :   0.9950
B(  6-C , 12-H ) :   0.9986

FINAL SINGLE POINT ENERGY      -306.822404579695

DIPOLE MOMENT
-------------
                                X             Y             Z
Electronic contribution:      2.55504       0.08483      -4.26261
Nuclear contribution   :     -2.56627      -0.15007       4.27765
                        -----------------------------------------
Total Dipole Moment    :     -0.01123      -0.06524       0.01505
                        -----------------------------------------
Magnitude (a.u.)       :      0.06789
Magnitude (Debye)      :      0.17255

                             ****ORCA TERMINATED NORMALLY****
TOTAL RUN TIME: 0 days 0 hours 0 minutes 6 seconds 332 msec
