                         Program Version 3.0.3 - RELEASE   -
|  1> ! RI PBE def2-SVP def2-SVP/J NBO PAL2
|  2> % maxcore 2000
|  3> % output
|  4>     # printlevel mini
|  5>     print[ P_Basis ] 0
|  6>     print[ P_SCFInfo ] 1
|  7>     print[ P_SCFIterInfo ] 1
|  8>     print[ P_OrbEn ] 0
|  9>     print[ P_Cartesian ] 0
| 10> end
| 11> *xyz 0 1
| 12>  C        0.8763460000    -0.0101670000     0.0683200000
| 13>  C        2.0786310000    -0.0238320000     0.0707660000
| 14>  C        3.4909980000    -0.0594310000     0.0738400000
| 15>  C        4.3384450000     1.0075350000     0.0752120000
| 16>  O        5.6174890000     0.5956370000     0.0781330000
| 17>  C        5.6037220000    -0.7580910000     0.0787070000
| 18>  C        4.3359670000    -1.2203670000     0.0762310000
| 19>  H       -0.1876140000     0.0060300000     0.0663050000
| 20>  H        4.1685770000     2.0711120000     0.0743720000
| 21>  H        6.5665970000    -1.2408130000     0.0809850000
| 22>  H        4.0157420000    -2.2493020000     0.0760280000
| 23> *
| 24>
| 25>                          ****END OF INPUT****
 Total Charge           Charge          ....    0
 Multiplicity           Mult            ....    1
 Number of Electrons    NEL             ....   48
 Basis Dimension        Dim             ....  118

MULLIKEN ATOMIC CHARGES
-----------------------
   0 C :   -0.472652
   1 C :    0.432099
   2 C :   -0.035969
   3 C :    0.092635
   4 O :   -0.153979
   5 C :    0.120261
   6 C :   -0.007889
   7 H :    0.005009
   8 H :    0.012536
   9 H :    0.013451
  10 H :   -0.005500
Sum of atomic charges:   -0.0000000

LOEWDIN ATOMIC CHARGES
----------------------
   0 C :   -0.066713
   1 C :   -0.014279
   2 C :   -0.093927
   3 C :    0.037899
   4 O :    0.046478
   5 C :    0.022186
   6 C :   -0.056867
   7 H :    0.035572
   8 H :    0.027516
   9 H :    0.024665
  10 H :    0.037471

  Mayer bond orders larger than 0.1
B(  0-C ,  1-C ) :   2.2526 B(  0-C ,  7-H ) :   1.0951 B(  1-C ,  2-C ) :   0.9813
B(  1-C ,  7-H ) :  -0.1054 B(  2-C ,  3-C ) :   1.4681 B(  2-C ,  6-C ) :   1.2147
B(  3-C ,  4-O ) :   1.1761 B(  3-C ,  8-H ) :   1.0077 B(  4-O ,  5-C ) :   1.1428
B(  5-C ,  6-C ) :   1.5314 B(  5-C ,  9-H ) :   0.9948 B(  6-C , 10-H ) :   1.0127

FINAL SINGLE POINT ENERGY      -305.577457528035

DIPOLE MOMENT
-------------
                                X             Y             Z
Electronic contribution:      0.86789       1.00735       0.00114
Nuclear contribution   :     -0.71374      -1.12542      -0.00067
                        -----------------------------------------
Total Dipole Moment    :      0.15415      -0.11806       0.00046
                        -----------------------------------------
Magnitude (a.u.)       :      0.19417
Magnitude (Debye)      :      0.49353

                             ****ORCA TERMINATED NORMALLY****
TOTAL RUN TIME: 0 days 0 hours 0 minutes 5 seconds 424 msec
