                         Program Version 3.0.3 - RELEASE   -
|  1> ! RI PBE def2-SVP def2-SVP/J NBO PAL2
|  2> % maxcore 2000
|  3> % output
|  4>     # printlevel mini
|  5>     print[ P_Basis ] 0
|  6>     print[ P_SCFInfo ] 1
|  7>     print[ P_SCFIterInfo ] 1
|  8>     print[ P_OrbEn ] 0
|  9>     print[ P_Cartesian ] 0
| 10> end
| 11> *xyz 0 1
| 12>  C        0.9894070000     0.0616760000     0.0645860000
| 13>  C        2.4973570000    -0.1338950000     0.0833500000
| 14>  C        3.0102320000    -1.0302320000    -1.0296020000
| 15>  C        4.5209890000    -1.2444260000    -1.0382490000
| 16>  C        4.6584500000    -2.5037740000    -1.8736410000
| 17>  O        3.4856710000    -3.2687240000    -1.6317820000
| 18>  C        2.5197070000    -2.4729890000    -0.9654400000
| 19>  H        0.6669530000     0.7349370000     0.8619130000
| 20>  H        0.4597670000    -0.8849300000     0.1998310000
| 21>  H        0.6596850000     0.4913640000    -0.8856350000
| 22>  H        2.8030950000    -0.5605750000     1.0465770000
| 23>  H        2.9919680000     0.8408430000     0.0116390000
| 24>  H        2.7131280000    -0.6045730000    -1.9971520000
| 25>  H        4.8743980000    -1.4191220000    -0.0163740000
| 26>  H        5.0746360000    -0.3979370000    -1.4488920000
| 27>  H        5.5318960000    -3.1062760000    -1.6094470000
| 28>  H        4.7226940000    -2.2624450000    -2.9433120000
| 29>  H        2.4322620000    -2.7984580000     0.0824040000
| 30>  H        1.5498140000    -2.6219650000    -1.4481940000
| 31> *
| 32>
| 33>                          ****END OF INPUT****
 Total Charge           Charge          ....    0
 Multiplicity           Mult            ....    1
 Number of Electrons    NEL             ....   56
 Basis Dimension        Dim             ....  158

MULLIKEN ATOMIC CHARGES
-----------------------
   0 C :   -0.010841
   1 C :    0.028411
   2 C :   -0.247399
   3 C :   -0.001237
   4 C :    0.219166
   5 O :   -0.372804
   6 C :    0.266084
   7 H :    0.022933
   8 H :    0.021926
   9 H :    0.017818
  10 H :    0.004301
  11 H :    0.007630
  12 H :    0.011373
  13 H :    0.012524
  14 H :    0.015172
  15 H :    0.005855
  16 H :    0.000203
  17 H :   -0.006763
  18 H :    0.005648
Sum of atomic charges:   -0.0000000

LOEWDIN ATOMIC CHARGES
----------------------
   0 C :   -0.066146
   1 C :   -0.038857
   2 C :   -0.058692
   3 C :   -0.049024
   4 C :    0.066360
   5 O :   -0.168480
   6 C :    0.069319
   7 H :    0.028177
   8 H :    0.025129
   9 H :    0.025556
  10 H :    0.022338
  11 H :    0.025274
  12 H :    0.025304
  13 H :    0.025730
  14 H :    0.028354
  15 H :    0.014812
  16 H :    0.006633
  17 H :    0.004204
  18 H :    0.014009

  Mayer bond orders larger than 0.1
B(  0-C ,  1-C ) :   1.1197 B(  0-C ,  7-H ) :   0.9610 B(  0-C ,  8-H ) :   0.9634
B(  0-C ,  9-H ) :   0.9645 B(  1-C ,  2-C ) :   1.0659 B(  1-C , 10-H ) :   0.9230
B(  1-C , 11-H ) :   0.9289 B(  2-C ,  3-C ) :   1.0633 B(  2-C ,  6-C ) :   1.0411
B(  2-C , 12-H ) :   0.9116 B(  3-C ,  4-C ) :   1.1028 B(  3-C , 13-H ) :   0.9221
B(  3-C , 14-H ) :   0.9288 B(  4-C ,  5-O ) :   1.0099 B(  4-C , 15-H ) :   0.9389
B(  4-C , 16-H ) :   0.9343 B(  5-O ,  6-C ) :   1.0168 B(  6-C , 17-H ) :   0.9347
B(  6-C , 18-H ) :   0.9302

FINAL SINGLE POINT ENERGY      -310.434990547169

DIPOLE MOMENT
-------------
                                X             Y             Z
Electronic contribution:      2.43959      -4.69165      -2.45001
Nuclear contribution   :     -2.38583       5.35507       2.62865
                        -----------------------------------------
Total Dipole Moment    :      0.05376       0.66342       0.17864
                        -----------------------------------------
Magnitude (a.u.)       :      0.68915
Magnitude (Debye)      :      1.75168

                             ****ORCA TERMINATED NORMALLY****
TOTAL RUN TIME: 0 days 0 hours 0 minutes 8 seconds 417 msec
