                         Program Version 3.0.3 - RELEASE   -
|  1> ! RI PBE def2-SVP def2-SVP/J NBO PAL2
|  2> % maxcore 2000
|  3> % output
|  4>     # printlevel mini
|  5>     print[ P_Basis ] 0
|  6>     print[ P_SCFInfo ] 1
|  7>     print[ P_SCFIterInfo ] 1
|  8>     print[ P_OrbEn ] 0
|  9>     print[ P_Cartesian ] 0
| 10> end
| 11> *xyz 0 1
| 12>  C        1.9215350000     1.1689150000    -0.3269830000
| 13>  C        2.5736500000     0.0872360000     0.0760210000
| 14>  C        3.3019850000    -0.8584440000    -0.8125200000
| 15>  C        4.7719660000    -1.0780870000    -0.4462500000
| 16>  C        5.0705720000    -2.4010130000    -1.1288220000
| 17>  O        3.8588260000    -3.1407760000    -1.1060070000
| 18>  C        2.7826590000    -2.2954760000    -0.7416980000
| 19>  H        1.4091680000     1.8171930000     0.3741540000
| 20>  H        1.8778900000     1.4453690000    -1.3760490000
| 21>  H        2.5932500000    -0.1565810000     1.1381440000
| 22>  H        3.2404550000    -0.5061590000    -1.8480030000
| 23>  H        4.8718390000    -1.1725050000     0.6397420000
| 24>  H        5.4196070000    -0.2654180000    -0.7779910000
| 25>  H        5.8474520000    -2.9805720000    -0.6227050000
| 26>  H        5.3846910000    -2.2460020000    -2.1696990000
| 27>  H        2.4518810000    -2.5331100000     0.2794360000
| 28>  H        1.9425430000    -2.4692500000    -1.4195590000
| 29> *
| 30>
| 31>                          ****END OF INPUT****
 Total Charge           Charge          ....    0
 Multiplicity           Mult            ....    1
 Number of Electrons    NEL             ....   54
 Basis Dimension        Dim             ....  148

MULLIKEN ATOMIC CHARGES
-----------------------
   0 C :   -0.034909
   1 C :   -0.002033
   2 C :   -0.189655
   3 C :   -0.027389
   4 C :    0.224738
   5 O :   -0.370437
   6 C :    0.282446
   7 H :    0.025984
   8 H :    0.018005
   9 H :    0.000967
  10 H :    0.008928
  11 H :    0.022219
  12 H :    0.027071
  13 H :    0.008941
  14 H :    0.001104
  15 H :   -0.006916
  16 H :    0.010937
Sum of atomic charges:   -0.0000000

LOEWDIN ATOMIC CHARGES
----------------------
   0 C :   -0.063386
   1 C :   -0.023255
   2 C :   -0.057074
   3 C :   -0.045619
   4 C :    0.067335
   5 O :   -0.165778
   6 C :    0.075778
   7 H :    0.025996
   8 H :    0.022443
   9 H :    0.025340
  10 H :    0.031126
  11 H :    0.028002
  12 H :    0.031907
  13 H :    0.016401
  14 H :    0.007576
  15 H :    0.005426
  16 H :    0.017782

  Mayer bond orders larger than 0.1
B(  0-C ,  1-C ) :   2.0068 B(  0-C ,  7-H ) :   0.9390 B(  0-C ,  8-H ) :   0.9505
B(  1-C ,  2-C ) :   1.0275 B(  1-C ,  9-H ) :   0.9449 B(  2-C ,  3-C ) :   1.0440
B(  2-C ,  6-C ) :   1.0262 B(  2-C , 10-H ) :   0.9146 B(  3-C ,  4-C ) :   1.0938
B(  3-C , 11-H ) :   0.9280 B(  3-C , 12-H ) :   0.9342 B(  4-C ,  5-O ) :   1.0088
B(  4-C , 13-H ) :   0.9388 B(  4-C , 14-H ) :   0.9340 B(  5-O ,  6-C ) :   1.0147
B(  6-C , 15-H ) :   0.9348 B(  6-C , 16-H ) :   0.9334

FINAL SINGLE POINT ENERGY      -309.211497600989

DIPOLE MOMENT
-------------
                                X             Y             Z
Electronic contribution:     -0.01568      -2.79114      -0.58862
Nuclear contribution   :      0.15255       3.31619       0.69794
                        -----------------------------------------
Total Dipole Moment    :      0.13687       0.52505       0.10932
                        -----------------------------------------
Magnitude (a.u.)       :      0.55350
Magnitude (Debye)      :      1.40690

                             ****ORCA TERMINATED NORMALLY****
TOTAL RUN TIME: 0 days 0 hours 0 minutes 7 seconds 331 msec
