                         Program Version 3.0.3 - RELEASE   -
|  1> ! RI PBE def2-SVP def2-SVP/J NBO PAL2
|  2> % maxcore 2000
|  3> % output
|  4>     # printlevel mini
|  5>     print[ P_Basis ] 0
|  6>     print[ P_SCFInfo ] 1
|  7>     print[ P_SCFIterInfo ] 1
|  8>     print[ P_OrbEn ] 0
|  9>     print[ P_Cartesian ] 0
| 10> end
| 11> *xyz 0 1
| 12>  C        1.3743610000     0.9002710000     0.4281880000
| 13>  C        2.0459010000    -0.0302370000    -0.2504110000
| 14>  C        2.8718550000     0.2296780000    -1.4076940000
| 15>  C        3.5629240000    -0.6605880000    -2.1215040000
| 16>  C        4.2822190000     0.0161420000    -3.2328380000
| 17>  O        3.9522280000     1.3880380000    -3.1093820000
| 18>  C        3.0872250000     1.5880150000    -2.0059710000
| 19>  H        0.7707600000     0.6422790000     1.2895530000
| 20>  H        1.4043140000     1.9476130000     0.1477700000
| 21>  H        1.9854910000    -1.0679130000     0.0682580000
| 22>  H        3.6084380000    -1.7265920000    -1.9370880000
| 23>  H        3.9717620000    -0.3554770000    -4.2204820000
| 24>  H        5.3725120000    -0.1133800000    -3.1664660000
| 25>  H        2.1454070000     2.0403510000    -2.3467070000
| 26>  H        3.5487020000     2.2830210000    -1.2906160000
| 27> *
| 28>
| 29>                          ****END OF INPUT****
 Total Charge           Charge          ....    0
 Multiplicity           Mult            ....    1
 Number of Electrons    NEL             ....   52
 Basis Dimension        Dim             ....  138

MULLIKEN ATOMIC CHARGES
-----------------------
   0 C :   -0.041795
   1 C :    0.014606
   2 C :   -0.116949
   3 C :   -0.164829
   4 C :    0.273517
   5 O :   -0.368508
   6 C :    0.289739
   7 H :    0.029567
   8 H :    0.027715
   9 H :   -0.012792
  10 H :   -0.006232
  11 H :    0.017417
  12 H :    0.023749
  13 H :    0.017506
  14 H :    0.017290
Sum of atomic charges:   -0.0000000

LOEWDIN ATOMIC CHARGES
----------------------
   0 C :   -0.050502
   1 C :   -0.028593
   2 C :   -0.054239
   3 C :   -0.040442
   4 C :    0.072795
   5 O :   -0.161527
   6 C :    0.077265
   7 H :    0.027634
   8 H :    0.024357
   9 H :    0.031559
  10 H :    0.028026
  11 H :    0.018724
  12 H :    0.019957
  13 H :    0.017426
  14 H :    0.017560

  Mayer bond orders larger than 0.1
B(  0-C ,  1-C ) :   1.8855 B(  0-C ,  3-C ) :   0.1342 B(  0-C ,  7-H ) :   0.9403
B(  0-C ,  8-H ) :   0.9419 B(  1-C ,  2-C ) :   1.1446 B(  1-C ,  9-H ) :   0.9569
B(  2-C ,  3-C ) :   1.7533 B(  2-C ,  6-C ) :   1.0418 B(  3-C ,  4-C ) :   1.0224
B(  3-C , 10-H ) :   0.9795 B(  4-C ,  5-O ) :   1.0193 B(  4-C , 11-H ) :   0.9144
B(  4-C , 12-H ) :   0.9152 B(  5-O ,  6-C ) :   1.0127 B(  6-C , 13-H ) :   0.9094
B(  6-C , 14-H ) :   0.9070

FINAL SINGLE POINT ENERGY      -308.002220301860

DIPOLE MOMENT
-------------
                                X             Y             Z
Electronic contribution:      1.32345       0.03067      -1.75891
Nuclear contribution   :     -1.47388      -0.50023       2.07314
                        -----------------------------------------
Total Dipole Moment    :     -0.15042      -0.46956       0.31423
                        -----------------------------------------
Magnitude (a.u.)       :      0.58468
Magnitude (Debye)      :      1.48615

                             ****ORCA TERMINATED NORMALLY****
TOTAL RUN TIME: 0 days 0 hours 0 minutes 7 seconds 246 msec
