                         Program Version 3.0.3 - RELEASE   -
|  1> ! RI PBE def2-SVP def2-SVP/J NBO PAL2
|  2> % maxcore 2000
|  3> % output
|  4>     # printlevel mini
|  5>     print[ P_Basis ] 0
|  6>     print[ P_SCFInfo ] 1
|  7>     print[ P_SCFIterInfo ] 1
|  8>     print[ P_OrbEn ] 0
|  9>     print[ P_Cartesian ] 0
| 10> end
| 11> *xyz 0 1
| 12>  C        2.4527440000    -0.8821900000    -0.8231010000
| 13>  C        2.1639460000     0.2165500000    -0.1392600000
| 14>  C        3.1387830000     1.2662580000     0.2457570000
| 15>  C        2.7914490000     2.7364110000    -0.1273560000
| 16>  C        3.1763110000     3.1297530000     1.2912910000
| 17>  O        3.4496360000     4.1644320000     1.8178830000
| 18>  C        3.1929290000     1.6774160000     1.7456900000
| 19>  H        1.6914640000    -1.6115730000    -1.0731550000
| 20>  H        3.4642040000    -1.0906490000    -1.1579840000
| 21>  H        1.1350980000     0.3885440000     0.1783550000
| 22>  H        4.1362310000     1.0057300000    -0.1150220000
| 23>  H        1.7181620000     2.8792660000    -0.2901290000
| 24>  H        3.3365040000     3.2113710000    -0.9441050000
| 25>  H        2.2702930000     1.4263380000     2.2788410000
| 26>  H        4.0443380000     1.3520320000     2.3449190000
| 27> *
| 28>
| 29>                          ****END OF INPUT****
 Total Charge           Charge          ....    0
 Multiplicity           Mult            ....    1
 Number of Electrons    NEL             ....   52
 Basis Dimension        Dim             ....  138

MULLIKEN ATOMIC CHARGES
-----------------------
   0 C :   -0.030809
   1 C :    0.001258
   2 C :   -0.199569
   3 C :    0.103812
   4 C :   -0.073224
   5 O :   -0.113857
   6 C :    0.101236
   7 H :    0.027801
   8 H :    0.017537
   9 H :   -0.006149
  10 H :    0.008700
  11 H :    0.037056
  12 H :    0.042656
  13 H :    0.037785
  14 H :    0.045767
Sum of atomic charges:   -0.0000000

LOEWDIN ATOMIC CHARGES
----------------------
   0 C :   -0.060797
   1 C :   -0.032850
   2 C :   -0.032529
   3 C :   -0.052516
   4 C :    0.050480
   5 O :   -0.095078
   6 C :   -0.053102
   7 H :    0.026766
   8 H :    0.023071
   9 H :    0.024298
  10 H :    0.032588
  11 H :    0.046929
  12 H :    0.037549
  13 H :    0.046873
  14 H :    0.038320

  Mayer bond orders larger than 0.1
B(  0-C ,  1-C ) :   2.0015 B(  0-C ,  7-H ) :   0.9374 B(  0-C ,  8-H ) :   0.9500
B(  1-C ,  2-C ) :   1.0101 B(  1-C ,  9-H ) :   0.9488 B(  2-C ,  3-C ) :   1.0333
B(  2-C ,  6-C ) :   1.0353 B(  2-C , 10-H ) :   0.9087 B(  3-C ,  4-C ) :   0.9783
B(  3-C ,  6-C ) :  -0.1222 B(  3-C , 11-H ) :   0.8948 B(  3-C , 12-H ) :   0.9206
B(  4-C ,  5-O ) :   2.2462 B(  4-C ,  6-C ) :   0.9801 B(  6-C , 13-H ) :   0.8953
B(  6-C , 14-H ) :   0.9217

FINAL SINGLE POINT ENERGY      -308.007652188910

DIPOLE MOMENT
-------------
                                X             Y             Z
Electronic contribution:      1.21744       5.52205       2.86347
Nuclear contribution   :     -1.43141      -6.30576      -3.25916
                        -----------------------------------------
Total Dipole Moment    :     -0.21396      -0.78371      -0.39568
                        -----------------------------------------
Magnitude (a.u.)       :      0.90363
Magnitude (Debye)      :      2.29684

                             ****ORCA TERMINATED NORMALLY****
TOTAL RUN TIME: 0 days 0 hours 0 minutes 6 seconds 767 msec
