                         Program Version 3.0.3 - RELEASE   -
|  1> ! RI PBE def2-SVP def2-SVP/J NBO PAL2
|  2> % maxcore 2000
|  3> % output
|  4>     # printlevel mini
|  5>     print[ P_Basis ] 0
|  6>     print[ P_SCFInfo ] 1
|  7>     print[ P_SCFIterInfo ] 1
|  8>     print[ P_OrbEn ] 0
|  9>     print[ P_Cartesian ] 0
| 10> end
| 11> *xyz 0 1
| 12>  C        0.9027810000    -0.0479660000    -0.1133050000
| 13>  C        2.1033510000    -0.0273840000    -0.1002780000
| 14>  C        3.5514910000    -0.0135690000    -0.0694270000
| 15>  C        4.1712210000     1.1117210000     0.7690470000
| 16>  C        5.5616900000     0.5616770000     1.0834130000
| 17>  O        5.5106240000    -0.8459370000     0.8762090000
| 18>  C        4.1854880000    -1.2335470000     0.6016200000
| 19>  H       -0.1612250000    -0.0645280000    -0.1285060000
| 20>  H        3.9320180000     0.0488190000    -1.0953520000
| 21>  H        3.5835360000     1.2451880000     1.6795880000
| 22>  H        4.1978100000     2.0646710000     0.2404580000
| 23>  H        5.8590870000     0.7743900000     2.1155600000
| 24>  H        6.3275520000     0.9722820000     0.4179240000
| 25>  H        3.6369120000    -1.4795690000     1.5219180000
| 26>  H        4.2073530000    -2.1158480000    -0.0401700000
| 27> *
| 28>
| 29>                          ****END OF INPUT****
 Total Charge           Charge          ....    0
 Multiplicity           Mult            ....    1
 Number of Electrons    NEL             ....   52
 Basis Dimension        Dim             ....  138

MULLIKEN ATOMIC CHARGES
-----------------------
   0 C :   -0.530471
   1 C :    0.464788
   2 C :   -0.172374
   3 C :   -0.033314
   4 C :    0.237524
   5 O :   -0.361400
   6 C :    0.244641
   7 H :   -0.002237
   8 H :    0.044306
   9 H :    0.029707
  10 H :    0.031841
  11 H :    0.003579
  12 H :    0.011594
  13 H :    0.007814
  14 H :    0.024002
Sum of atomic charges:    0.0000000

LOEWDIN ATOMIC CHARGES
----------------------
   0 C :   -0.084405
   1 C :   -0.016388
   2 C :   -0.063481
   3 C :   -0.037617
   4 C :    0.070155
   5 O :   -0.158466
   6 C :    0.078523
   7 H :    0.034581
   8 H :    0.050068
   9 H :    0.032456
  10 H :    0.033956
  11 H :    0.013953
  12 H :    0.014920
  13 H :    0.008285
  14 H :    0.023460

  Mayer bond orders larger than 0.1
B(  0-C ,  1-C ) :   2.2666 B(  0-C ,  7-H ) :   1.1120 B(  1-C ,  2-C ) :   0.9824
B(  1-C ,  7-H ) :  -0.1219 B(  2-C ,  3-C ) :   1.0585 B(  2-C ,  6-C ) :   1.0326
B(  2-C ,  8-H ) :   0.8673 B(  3-C ,  4-C ) :   1.0951 B(  3-C ,  9-H ) :   0.9308
B(  3-C , 10-H ) :   0.9339 B(  4-C ,  5-O ) :   1.0063 B(  4-C , 11-H ) :   0.9380
B(  4-C , 12-H ) :   0.9407 B(  5-O ,  6-C ) :   1.0269 B(  6-C , 13-H ) :   0.9340
B(  6-C , 14-H ) :   0.9369

FINAL SINGLE POINT ENERGY      -307.967541134971

DIPOLE MOMENT
-------------
                                X             Y             Z
Electronic contribution:     -1.25734      -1.55325      -0.95948
Nuclear contribution   :      1.08455       1.95859       0.92492
                        -----------------------------------------
Total Dipole Moment    :     -0.17279       0.40534      -0.03456
                        -----------------------------------------
Magnitude (a.u.)       :      0.44199
Magnitude (Debye)      :      1.12344

                             ****ORCA TERMINATED NORMALLY****
TOTAL RUN TIME: 0 days 0 hours 0 minutes 6 seconds 850 msec
