                         Program Version 3.0.3 - RELEASE   -
|  1> ! RI PBE def2-SVP def2-SVP/J NBO PAL2
|  2> % maxcore 2000
|  3> % output
|  4>     # printlevel mini
|  5>     print[ P_Basis ] 0
|  6>     print[ P_SCFInfo ] 1
|  7>     print[ P_SCFIterInfo ] 1
|  8>     print[ P_OrbEn ] 0
|  9>     print[ P_Cartesian ] 0
| 10> end
| 11> *xyz 0 1
| 12>  C        0.9310080000     0.0764210000    -0.0685690000
| 13>  C        2.1315160000    -0.0045630000    -0.0784130000
| 14>  C        3.5424630000    -0.0434010000    -0.0864870000
| 15>  C        4.3397780000    -1.1090400000    -0.1558150000
| 16>  C        5.7629560000    -0.6767400000    -0.1346810000
| 17>  O        5.7251660000     0.7359820000    -0.0469500000
| 18>  C        4.3903340000     1.1979070000    -0.0128390000
| 19>  H       -0.1316030000     0.1359070000    -0.0606130000
| 20>  H        4.0187540000    -2.1398870000    -0.2184940000
| 21>  H        6.3033700000    -0.9824660000    -1.0424190000
| 22>  H        6.3103920000    -1.0919970000     0.7240310000
| 23>  H        4.1976980000     1.8703220000    -0.8591600000
| 24>  H        4.2048680000     1.7603370000     0.9117100000
| 25> *
| 26>
| 27>                          ****END OF INPUT****
 Total Charge           Charge          ....    0
 Multiplicity           Mult            ....    1
 Number of Electrons    NEL             ....   50
 Basis Dimension        Dim             ....  128

MULLIKEN ATOMIC CHARGES
-----------------------
   0 C :   -0.450916
   1 C :    0.427967
   2 C :   -0.181118
   3 C :   -0.101626
   4 C :    0.258712
   5 O :   -0.364927
   6 C :    0.301059
   7 H :    0.008802
   8 H :   -0.000438
   9 H :    0.026467
  10 H :    0.027718
  11 H :    0.025100
  12 H :    0.023201
Sum of atomic charges:   -0.0000000

LOEWDIN ATOMIC CHARGES
----------------------
   0 C :   -0.055489
   1 C :   -0.016345
   2 C :   -0.070429
   3 C :   -0.019319
   4 C :    0.073624
   5 O :   -0.157698
   6 C :    0.088545
   7 H :    0.037423
   8 H :    0.034072
   9 H :    0.021308
  10 H :    0.021602
  11 H :    0.021513
  12 H :    0.021192

  Mayer bond orders larger than 0.1
B(  0-C ,  1-C ) :   2.2420 B(  0-C ,  3-C ) :   0.1235 B(  0-C ,  7-H ) :   1.0940
B(  1-C ,  2-C ) :   1.0199 B(  1-C ,  7-H ) :  -0.1039 B(  2-C ,  3-C ) :   1.7751
B(  2-C ,  6-C ) :   1.0165 B(  3-C ,  4-C ) :   1.0149 B(  3-C ,  8-H ) :   0.9882
B(  4-C ,  5-O ) :   1.0151 B(  4-C ,  9-H ) :   0.9153 B(  4-C , 10-H ) :   0.9153
B(  5-O ,  6-C ) :   1.0098 B(  6-C , 11-H ) :   0.9178 B(  6-C , 12-H ) :   0.9173

FINAL SINGLE POINT ENERGY      -306.756054163817

DIPOLE MOMENT
-------------
                                X             Y             Z
Electronic contribution:     -1.53478       0.30530       0.02438
Nuclear contribution   :      1.25356      -0.68534      -0.04731
                        -----------------------------------------
Total Dipole Moment    :     -0.28123      -0.38004      -0.02293
                        -----------------------------------------
Magnitude (a.u.)       :      0.47333
Magnitude (Debye)      :      1.20311

                             ****ORCA TERMINATED NORMALLY****
TOTAL RUN TIME: 0 days 0 hours 0 minutes 6 seconds 467 msec
