                         Program Version 3.0.3 - RELEASE   -
|  1> ! RI PBE def2-SVP def2-SVP/J NBO PAL2
|  2> % maxcore 2000
|  3> % output
|  4>     # printlevel mini
|  5>     print[ P_Basis ] 0
|  6>     print[ P_SCFInfo ] 1
|  7>     print[ P_SCFIterInfo ] 1
|  8>     print[ P_OrbEn ] 0
|  9>     print[ P_Cartesian ] 0
| 10> end
| 11> *xyz 0 1
| 12>  C        1.0073500000    -0.1444800000     0.2158200000
| 13>  C        2.4942380000    -0.0354150000     0.2000620000
| 14>  C        3.1924680000     1.0915260000     0.1441860000
| 15>  C        2.6758420000     2.5063730000     0.0923620000
| 16>  C        3.9396770000     3.2940700000    -0.2383750000
| 17>  O        4.9970970000     2.5566010000     0.3401800000
| 18>  C        4.6993080000     1.1924660000     0.1211980000
| 19>  H        0.6458370000    -0.7434970000    -0.6265750000
| 20>  H        0.5237690000     0.8321580000     0.1671270000
| 21>  H        0.6597370000    -0.6453610000     1.1254200000
| 22>  H        3.0429290000    -0.9751150000     0.2430390000
| 23>  H        2.2841570000     2.8073710000     1.0695150000
| 24>  H        1.8827280000     2.6490530000    -0.6444550000
| 25>  H        3.9608550000     4.3005960000     0.1808560000
| 26>  H        4.0748130000     3.3660790000    -1.3283980000
| 27>  H        5.1869390000     0.6045540000     0.9016530000
| 28>  H        5.0951380000     0.8671210000    -0.8541250000
| 29> *
| 30>
| 31>                          ****END OF INPUT****
 Total Charge           Charge          ....    0
 Multiplicity           Mult            ....    1
 Number of Electrons    NEL             ....   54
 Basis Dimension        Dim             ....  148

MULLIKEN ATOMIC CHARGES
-----------------------
   0 C :    0.043550
   1 C :   -0.124841
   2 C :   -0.240812
   3 C :    0.045361
   4 C :    0.187418
   5 O :   -0.355488
   6 C :    0.286862
   7 H :    0.031569
   8 H :    0.017405
   9 H :    0.031282
  10 H :   -0.019262
  11 H :    0.032825
  12 H :    0.027493
  13 H :    0.010897
  14 H :   -0.000645
  15 H :    0.022870
  16 H :    0.003515
Sum of atomic charges:   -0.0000000

LOEWDIN ATOMIC CHARGES
----------------------
   0 C :   -0.065858
   1 C :   -0.058981
   2 C :   -0.061818
   3 C :   -0.053340
   4 C :    0.066082
   5 O :   -0.154244
   6 C :    0.067046
   7 H :    0.036824
   8 H :    0.028935
   9 H :    0.037190
  10 H :    0.022561
  11 H :    0.038407
  12 H :    0.034062
  13 H :    0.019578
  14 H :    0.003876
  15 H :    0.026359
  16 H :    0.013321

  Mayer bond orders larger than 0.1
B(  0-C ,  1-C ) :   1.0942 B(  0-C ,  7-H ) :   0.9456 B(  0-C ,  8-H ) :   0.9555
B(  0-C ,  9-H ) :   0.9453 B(  1-C ,  2-C ) :   1.9337 B(  1-C , 10-H ) :   0.9420
B(  2-C ,  3-C ) :   1.0679 B(  2-C ,  6-C ) :   1.0266 B(  3-C ,  4-C ) :   1.0949
B(  3-C , 11-H ) :   0.9004 B(  3-C , 12-H ) :   0.9110 B(  4-C ,  5-O ) :   1.0118
B(  4-C , 13-H ) :   0.9409 B(  4-C , 14-H ) :   0.9236 B(  5-O ,  6-C ) :   1.0188
B(  6-C , 15-H ) :   0.9357 B(  6-C , 16-H ) :   0.9072

FINAL SINGLE POINT ENERGY      -309.218363344462

DIPOLE MOMENT
-------------
                                X             Y             Z
Electronic contribution:      4.69653       1.80127       0.76008
Nuclear contribution   :     -5.26438      -1.97346      -0.93456
                        -----------------------------------------
Total Dipole Moment    :     -0.56786      -0.17219      -0.17449
                        -----------------------------------------
Magnitude (a.u.)       :      0.61851
Magnitude (Debye)      :      1.57214

                             ****ORCA TERMINATED NORMALLY****
TOTAL RUN TIME: 0 days 0 hours 0 minutes 7 seconds 254 msec
