                         Program Version 3.0.3 - RELEASE   -
|  1> ! RI PBE def2-SVP def2-SVP/J NBO PAL2
|  2> % maxcore 2000
|  3> % output
|  4>     # printlevel mini
|  5>     print[ P_Basis ] 0
|  6>     print[ P_SCFInfo ] 1
|  7>     print[ P_SCFIterInfo ] 1
|  8>     print[ P_OrbEn ] 0
|  9>     print[ P_Cartesian ] 0
| 10> end
| 11> *xyz 0 1
| 12>  C        1.0499400000    -0.2346920000     0.0465120000
| 13>  C        2.5640180000    -0.0630290000     0.1377740000
| 14>  C        3.0298570000     0.4352320000     1.4625850000
| 15>  C        3.8436110000    -0.1543740000     2.3295050000
| 16>  C        4.0487050000     0.7126160000     3.5241350000
| 17>  O        3.2741560000     1.8741640000     3.2745290000
| 18>  C        2.6215840000     1.7641660000     2.0243310000
| 19>  H        0.7635670000    -0.6235750000    -0.9329630000
| 20>  H        0.5277770000     0.7138770000     0.1904840000
| 21>  H        0.6897600000    -0.9320020000     0.8064300000
| 22>  H        2.8886140000     0.6384980000    -0.6412310000
| 23>  H        3.0578710000    -1.0142770000    -0.0780420000
| 24>  H        4.3113510000    -1.1235640000     2.2069250000
| 25>  H        5.1027940000     0.9924580000     3.6654450000
| 26>  H        3.7116010000     0.2355760000     4.4558790000
| 27>  H        2.9237590000     2.5943350000     1.3673700000
| 28>  H        1.5342460000     1.8426810000     2.1664420000
| 29> *
| 30>
| 31>                          ****END OF INPUT****
 Total Charge           Charge          ....    0
 Multiplicity           Mult            ....    1
 Number of Electrons    NEL             ....   54
 Basis Dimension        Dim             ....  148

MULLIKEN ATOMIC CHARGES
-----------------------
   0 C :   -0.038160
   1 C :    0.071917
   2 C :   -0.204756
   3 C :   -0.142795
   4 C :    0.270409
   5 O :   -0.372301
   6 C :    0.289703
   7 H :    0.022340
   8 H :    0.028365
   9 H :    0.029583
  10 H :    0.020442
  11 H :    0.001746
  12 H :   -0.020441
  13 H :    0.015020
  14 H :    0.010795
  15 H :    0.004697
  16 H :    0.013435
Sum of atomic charges:   -0.0000000

LOEWDIN ATOMIC CHARGES
----------------------
   0 C :   -0.061251
   1 C :   -0.037580
   2 C :   -0.051754
   3 C :   -0.063095
   4 C :    0.073165
   5 O :   -0.162964
   6 C :    0.073482
   7 H :    0.028569
   8 H :    0.025112
   9 H :    0.028710
  10 H :    0.034394
  11 H :    0.031164
  12 H :    0.024076
  13 H :    0.015020
  14 H :    0.014237
  15 H :    0.014459
  16 H :    0.014257

  Mayer bond orders larger than 0.1
B(  0-C ,  1-C ) :   1.1064 B(  0-C ,  7-H ) :   0.9595 B(  0-C ,  8-H ) :   0.9669
B(  0-C ,  9-H ) :   0.9680 B(  1-C ,  2-C ) :   1.0817 B(  1-C , 10-H ) :   0.9141
B(  1-C , 11-H ) :   0.9169 B(  2-C ,  3-C ) :   1.8708 B(  2-C ,  6-C ) :   1.0365
B(  3-C ,  4-C ) :   1.0197 B(  3-C , 12-H ) :   0.9788 B(  4-C ,  5-O ) :   1.0135
B(  4-C , 13-H ) :   0.9194 B(  4-C , 14-H ) :   0.9182 B(  5-O ,  6-C ) :   1.0166
B(  6-C , 15-H ) :   0.9070 B(  6-C , 16-H ) :   0.9155

FINAL SINGLE POINT ENERGY      -309.218517560411

DIPOLE MOMENT
-------------
                                X             Y             Z
Electronic contribution:      3.18257       2.37013       4.29000
Nuclear contribution   :     -3.22527      -2.87414      -4.80480
                        -----------------------------------------
Total Dipole Moment    :     -0.04270      -0.50401      -0.51480
                        -----------------------------------------
Magnitude (a.u.)       :      0.72171
Magnitude (Debye)      :      1.83444

                             ****ORCA TERMINATED NORMALLY****
TOTAL RUN TIME: 0 days 0 hours 0 minutes 7 seconds 523 msec
