                         Program Version 3.0.3 - RELEASE   -
|  1> ! RI PBE def2-SVP def2-SVP/J NBO PAL2
|  2> % maxcore 2000
|  3> % output
|  4>     # printlevel mini
|  5>     print[ P_Basis ] 0
|  6>     print[ P_SCFInfo ] 1
|  7>     print[ P_SCFIterInfo ] 1
|  8>     print[ P_OrbEn ] 0
|  9>     print[ P_Cartesian ] 0
| 10> end
| 11> *xyz 0 1
| 12>  C        2.6219790000    -0.4943280000     1.5139030000
| 13>  C        2.4131850000    -0.0799870000     0.0663240000
| 14>  C        2.9298500000    -1.0391310000    -1.0032340000
| 15>  C        2.6475660000    -0.4886810000    -2.3859580000
| 16>  C        4.3631090000    -1.5560030000    -0.7781980000
| 17>  O        3.8921520000    -2.8597140000    -0.4184770000
| 18>  C        2.5525110000    -2.5172160000    -0.7912290000
| 19>  H        2.2155600000     0.2642470000     2.1864450000
| 20>  H        3.6796030000    -0.6142770000     1.7583930000
| 21>  H        2.1236630000    -1.4377560000     1.7470370000
| 22>  H        2.8870630000     0.8951360000    -0.1008930000
| 23>  H        1.3421780000     0.0760820000    -0.1124700000
| 24>  H        3.1322350000     0.4820690000    -2.5265480000
| 25>  H        1.5735480000    -0.3457100000    -2.5378440000
| 26>  H        3.0113060000    -1.1629600000    -3.1650240000
| 27>  H        4.9402770000    -1.0907110000     0.0271070000
| 28>  H        4.9773180000    -1.5834900000    -1.6866680000
| 29>  H        1.8347590000    -2.7394640000     0.0047320000
| 30>  H        2.2414500000    -3.0358950000    -1.7063980000
| 31> *
| 32>
| 33>                          ****END OF INPUT****
 Total Charge           Charge          ....    0
 Multiplicity           Mult            ....    1
 Number of Electrons    NEL             ....   56
 Basis Dimension        Dim             ....  158

MULLIKEN ATOMIC CHARGES
-----------------------
   0 C :   -0.005824
   1 C :    0.044445
   2 C :   -0.496409
   3 C :    0.095148
   4 C :    0.312575
   5 O :   -0.365720
   6 C :    0.301908
   7 H :    0.023428
   8 H :    0.021583
   9 H :    0.020672
  10 H :    0.004598
  11 H :    0.008106
  12 H :    0.013602
  13 H :    0.017078
  14 H :    0.014689
  15 H :    0.002205
  16 H :   -0.008666
  17 H :    0.005122
  18 H :   -0.008539
Sum of atomic charges:   -0.0000000

LOEWDIN ATOMIC CHARGES
----------------------
   0 C :   -0.067498
   1 C :   -0.036258
   2 C :   -0.079514
   3 C :   -0.052267
   4 C :    0.091941
   5 O :   -0.180148
   6 C :    0.090865
   7 H :    0.030430
   8 H :    0.026395
   9 H :    0.026637
  10 H :    0.024866
  11 H :    0.025261
  12 H :    0.026761
  13 H :    0.027299
  14 H :    0.024415
  15 H :    0.004923
  16 H :    0.005222
  17 H :    0.005299
  18 H :    0.005371

  Mayer bond orders larger than 0.1
B(  0-C ,  1-C ) :   1.1267 B(  0-C ,  7-H ) :   0.9561 B(  0-C ,  8-H ) :   0.9571
B(  0-C ,  9-H ) :   0.9549 B(  1-C ,  2-C ) :   1.0207 B(  1-C , 10-H ) :   0.9258
B(  1-C , 11-H ) :   0.9289 B(  2-C ,  3-C ) :   1.0620 B(  2-C ,  4-C ) :   1.0522
B(  2-C ,  6-C ) :   1.0510 B(  3-C , 12-H ) :   0.9524 B(  3-C , 13-H ) :   0.9547
B(  3-C , 14-H ) :   0.9459 B(  4-C ,  5-O ) :   1.0340 B(  4-C , 15-H ) :   0.9268
B(  4-C , 16-H ) :   0.9214 B(  5-O ,  6-C ) :   1.0350 B(  6-C , 17-H ) :   0.9283
B(  6-C , 18-H ) :   0.9208

FINAL SINGLE POINT ENERGY      -310.407475869871

DIPOLE MOMENT
-------------
                                X             Y             Z
Electronic contribution:      2.30647      -4.34459      -0.45954
Nuclear contribution   :     -2.63878       4.96627       0.27345
                        -----------------------------------------
Total Dipole Moment    :     -0.33231       0.62168      -0.18609
                        -----------------------------------------
Magnitude (a.u.)       :      0.72907
Magnitude (Debye)      :      1.85315

                             ****ORCA TERMINATED NORMALLY****
TOTAL RUN TIME: 0 days 0 hours 0 minutes 8 seconds 532 msec
