                         Program Version 3.0.3 - RELEASE   -
|  1> ! RI PBE def2-SVP def2-SVP/J NBO PAL2
|  2> % maxcore 2000
|  3> % output
|  4>     # printlevel mini
|  5>     print[ P_Basis ] 0
|  6>     print[ P_SCFInfo ] 1
|  7>     print[ P_SCFIterInfo ] 1
|  8>     print[ P_OrbEn ] 0
|  9>     print[ P_Cartesian ] 0
| 10> end
| 11> *xyz 0 1
| 12>  C        1.4722630000     0.3083700000    -0.9442520000
| 13>  C        2.4877640000    -0.0923000000     0.1123770000
| 14>  C        3.2258310000    -1.3691980000    -0.2263730000
| 15>  C        4.1926180000    -1.9397710000     0.8426820000
| 16>  C        3.5367660000    -3.2971980000     0.6341760000
| 17>  O        3.8345490000    -4.4138070000     0.9326440000
| 18>  C        2.4147680000    -2.6930490000    -0.1984910000
| 19>  H        0.9472400000     1.2247520000    -0.6662060000
| 20>  H        0.7210690000    -0.4731480000    -1.0883340000
| 21>  H        1.9560630000     0.4821640000    -1.9094190000
| 22>  H        1.9860350000    -0.2217280000     1.0796320000
| 23>  H        3.2148650000     0.7155420000     0.2522720000
| 24>  H        3.7392800000    -1.2604550000    -1.1862450000
| 25>  H        3.9863420000    -1.5529080000     1.8463740000
| 26>  H        5.2677200000    -1.8894050000     0.6625810000
| 27>  H        1.4928670000    -2.6106220000     0.3876720000
| 28>  H        2.1866500000    -3.1970270000    -1.1389090000
| 29> *
| 30>
| 31>                          ****END OF INPUT****
 Total Charge           Charge          ....    0
 Multiplicity           Mult            ....    1
 Number of Electrons    NEL             ....   54
 Basis Dimension        Dim             ....  148

MULLIKEN ATOMIC CHARGES
-----------------------
   0 C :   -0.004771
   1 C :    0.017593
   2 C :   -0.257510
   3 C :    0.111245
   4 C :   -0.074663
   5 O :   -0.121802
   6 C :    0.088823
   7 H :    0.021942
   8 H :    0.021482
   9 H :    0.017433
  10 H :    0.001597
  11 H :    0.018534
  12 H :    0.013151
  13 H :    0.030333
  14 H :    0.042707
  15 H :    0.035230
  16 H :    0.038676
Sum of atomic charges:   -0.0000000

LOEWDIN ATOMIC CHARGES
----------------------
   0 C :   -0.065308
   1 C :   -0.045914
   2 C :   -0.033491
   3 C :   -0.061755
   4 C :    0.054337
   5 O :   -0.100941
   6 C :   -0.064247
   7 H :    0.028424
   8 H :    0.025029
   9 H :    0.025789
  10 H :    0.021335
  11 H :    0.027870
  12 H :    0.026702
  13 H :    0.044420
  14 H :    0.037154
  15 H :    0.044600
  16 H :    0.035996

  Mayer bond orders larger than 0.1
B(  0-C ,  1-C ) :   1.1187 B(  0-C ,  7-H ) :   0.9600 B(  0-C ,  8-H ) :   0.9653
B(  0-C ,  9-H ) :   0.9638 B(  1-C ,  2-C ) :   1.0411 B(  1-C , 10-H ) :   0.9252
B(  1-C , 11-H ) :   0.9303 B(  2-C ,  3-C ) :   1.0573 B(  2-C ,  6-C ) :   1.0649
B(  2-C , 12-H ) :   0.9038 B(  3-C ,  4-C ) :   0.9858 B(  3-C ,  6-C ) :  -0.1239
B(  3-C , 13-H ) :   0.8888 B(  3-C , 14-H ) :   0.9178 B(  4-C ,  5-O ) :   2.2414
B(  4-C ,  6-C ) :   0.9880 B(  6-C , 15-H ) :   0.8910 B(  6-C , 16-H ) :   0.9187

FINAL SINGLE POINT ENERGY      -309.231707885037

DIPOLE MOMENT
-------------
                                X             Y             Z
Electronic contribution:      4.00643      -8.72221       2.87380
Nuclear contribution   :     -4.28462       9.74859      -3.14976
                        -----------------------------------------
Total Dipole Moment    :     -0.27820       1.02638      -0.27596
                        -----------------------------------------
Magnitude (a.u.)       :      1.09864
Magnitude (Debye)      :      2.79251

                             ****ORCA TERMINATED NORMALLY****
TOTAL RUN TIME: 0 days 0 hours 0 minutes 7 seconds 307 msec
