                         Program Version 3.0.3 - RELEASE   -
|  1> ! RI PBE def2-SVP def2-SVP/J NBO PAL2
|  2> % maxcore 2000
|  3> % output
|  4>     # printlevel mini
|  5>     print[ P_Basis ] 0
|  6>     print[ P_SCFInfo ] 1
|  7>     print[ P_SCFIterInfo ] 1
|  8>     print[ P_OrbEn ] 0
|  9>     print[ P_Cartesian ] 0
| 10> end
| 11> *xyz 0 1
| 12>  C        1.0984730000     0.3208270000    -0.0299080000
| 13>  C        2.5867670000     0.0271100000     0.0669090000
| 14>  C        3.0891960000    -0.8622500000    -1.0474490000
| 15>  C        4.5489540000    -1.3615540000    -1.0005770000
| 16>  C        4.0733700000    -2.7331930000    -1.4918450000
| 17>  O        4.2563230000    -2.8074870000    -2.8899000000
| 18>  C        2.6407190000    -2.3413350000    -1.0779670000
| 19>  H        0.7591880000     0.9537830000     0.7933020000
| 20>  H        0.5114250000    -0.6015360000    -0.0020740000
| 21>  H        0.8593640000     0.8347510000    -0.9652220000
| 22>  H        2.8074550000    -0.4514600000     1.0294710000
| 23>  H        3.1506380000     0.9674210000     0.0579890000
| 24>  H        2.8884750000    -0.3957710000    -2.0164650000
| 25>  H        4.9238850000    -1.4110780000     0.0250920000
| 26>  H        5.2870530000    -0.8654550000    -1.6320180000
| 27>  H        4.5046770000    -3.6131910000    -0.9998020000
| 28>  H        3.7664740000    -3.5668040000    -3.2165970000
| 29>  H        2.4013570000    -2.7066040000    -0.0744800000
| 30>  H        1.8378180000    -2.6276850000    -1.7612380000
| 31> *
| 32>
| 33>                          ****END OF INPUT****
 Total Charge           Charge          ....    0
 Multiplicity           Mult            ....    1
 Number of Electrons    NEL             ....   56
 Basis Dimension        Dim             ....  158

MULLIKEN ATOMIC CHARGES
-----------------------
   0 C :   -0.025158
   1 C :    0.057884
   2 C :   -0.234696
   3 C :    0.148794
   4 C :   -0.020975
   5 O :   -0.258563
   6 C :    0.128344
   7 H :    0.021184
   8 H :    0.018512
   9 H :    0.017828
  10 H :   -0.006996
  11 H :    0.007261
  12 H :    0.007967
  13 H :   -0.003756
  14 H :    0.014035
  15 H :   -0.013118
  16 H :    0.153564
  17 H :   -0.008365
  18 H :   -0.003748
Sum of atomic charges:   -0.0000000

LOEWDIN ATOMIC CHARGES
----------------------
   0 C :   -0.067739
   1 C :   -0.045057
   2 C :   -0.034166
   3 C :   -0.032330
   4 C :    0.052772
   5 O :   -0.115519
   6 C :   -0.048284
   7 H :    0.026486
   8 H :    0.024129
   9 H :    0.024992
  10 H :    0.018565
  11 H :    0.025177
  12 H :    0.025407
  13 H :    0.024621
  14 H :    0.023036
  15 H :   -0.006058
  16 H :    0.068055
  17 H :    0.021951
  18 H :    0.013962

  Mayer bond orders larger than 0.1
B(  0-C ,  1-C ) :   1.1145 B(  0-C ,  7-H ) :   0.9618 B(  0-C ,  8-H ) :   0.9654
B(  0-C ,  9-H ) :   0.9658 B(  1-C ,  2-C ) :   1.0774 B(  1-C , 10-H ) :   0.9206
B(  1-C , 11-H ) :   0.9268 B(  2-C ,  3-C ) :   1.0759 B(  2-C ,  6-C ) :   1.0714
B(  2-C , 12-H ) :   0.9064 B(  3-C ,  4-C ) :   1.0817 B(  3-C , 13-H ) :   0.9076
B(  3-C , 14-H ) :   0.9101 B(  4-C ,  5-O ) :   1.0848 B(  4-C ,  6-C ) :   1.0735
B(  4-C , 15-H ) :   0.9222 B(  5-O , 16-H ) :   0.9820 B(  6-C , 17-H ) :   0.9015
B(  6-C , 18-H ) :   0.9125

FINAL SINGLE POINT ENERGY      -310.416962424873

DIPOLE MOMENT
-------------
                                X             Y             Z
Electronic contribution:      3.85468      -3.61149      -3.92207
Nuclear contribution   :     -4.19297       3.28909       4.12710
                        -----------------------------------------
Total Dipole Moment    :     -0.33829      -0.32240       0.20503
                        -----------------------------------------
Magnitude (a.u.)       :      0.51031
Magnitude (Debye)      :      1.29711

                             ****ORCA TERMINATED NORMALLY****
TOTAL RUN TIME: 0 days 0 hours 0 minutes 8 seconds 117 msec
