                         Program Version 3.0.3 - RELEASE   -
|  1> ! RI PBE def2-SVP def2-SVP/J NBO PAL2
|  2> % maxcore 2000
|  3> % output
|  4>     # printlevel mini
|  5>     print[ P_Basis ] 0
|  6>     print[ P_SCFInfo ] 1
|  7>     print[ P_SCFIterInfo ] 1
|  8>     print[ P_OrbEn ] 0
|  9>     print[ P_Cartesian ] 0
| 10> end
| 11> *xyz 0 1
| 12>  C        1.8486160000     1.2333960000     0.2072770000
| 13>  C        2.5604360000     0.1163130000     0.1829670000
| 14>  C        3.2395180000    -0.3931170000    -1.0296850000
| 15>  C        4.7183420000    -0.7846070000    -0.9134930000
| 16>  C        4.2117800000    -2.1756460000    -1.2325170000
| 17>  O        4.6613480000    -3.2595330000    -1.3895180000
| 18>  O        2.9052620000    -1.7968990000    -1.3063500000
| 19>  H        1.3864730000     1.5924410000     1.1188800000
| 20>  H        1.7046100000     1.8313740000    -0.6871530000
| 21>  H        2.6873590000    -0.4782810000     1.0851840000
| 22>  H        3.0016670000     0.2124100000    -1.9061780000
| 23>  H        5.1562500000    -0.6906010000     0.0801700000
| 24>  H        5.3932490000    -0.3645380000    -1.6578740000
| 25> *
| 26>
| 27>                          ****END OF INPUT****
 Total Charge           Charge          ....    0
 Multiplicity           Mult            ....    1
 Number of Electrons    NEL             ....   52
 Basis Dimension        Dim             ....  128

MULLIKEN ATOMIC CHARGES
-----------------------
   0 C :   -0.016116
   1 C :    0.023197
   2 C :    0.041089
   3 C :   -0.015636
   4 C :    0.126039
   5 O :   -0.122488
   6 O :   -0.239070
   7 H :    0.034887
   8 H :    0.030523
   9 H :    0.003492
  10 H :    0.019422
  11 H :    0.051798
  12 H :    0.062863
Sum of atomic charges:   -0.0000000

LOEWDIN ATOMIC CHARGES
----------------------
   0 C :   -0.034056
   1 C :   -0.039460
   2 C :    0.073416
   3 C :   -0.062531
   4 C :    0.034915
   5 O :   -0.104328
   6 O :   -0.081616
   7 H :    0.031709
   8 H :    0.027366
   9 H :    0.032055
  10 H :    0.025991
  11 H :    0.047463
  12 H :    0.049075

  Mayer bond orders larger than 0.1
B(  0-C ,  1-C ) :   1.9786 B(  0-C ,  7-H ) :   0.9361 B(  0-C ,  8-H ) :   0.9532
B(  1-C ,  2-C ) :   1.0431 B(  1-C ,  9-H ) :   0.9431 B(  2-C ,  3-C ) :   1.0669
B(  2-C ,  6-O ) :   0.9630 B(  2-C , 10-H ) :   0.9203 B(  3-C ,  4-C ) :   0.9506
B(  3-C , 11-H ) :   0.9192 B(  3-C , 12-H ) :   0.9203 B(  4-C ,  5-O ) :   2.2233
B(  4-C ,  6-O ) :   1.1212 B(  5-O ,  6-O ) :   0.1128

FINAL SINGLE POINT ENERGY      -343.895033150229

DIPOLE MOMENT
-------------
                                X             Y             Z
Electronic contribution:      1.37162      -6.31661      -2.30919
Nuclear contribution   :     -1.34622       7.83025       2.64682
                        -----------------------------------------
Total Dipole Moment    :      0.02540       1.51364       0.33763
                        -----------------------------------------
Magnitude (a.u.)       :      1.55105
Magnitude (Debye)      :      3.94245

                             ****ORCA TERMINATED NORMALLY****
TOTAL RUN TIME: 0 days 0 hours 0 minutes 6 seconds 248 msec
