                         Program Version 3.0.3 - RELEASE   -
|  1> ! RI PBE def2-SVP def2-SVP/J NBO PAL2
|  2> % maxcore 2000
|  3> % output
|  4>     # printlevel mini
|  5>     print[ P_Basis ] 0
|  6>     print[ P_SCFInfo ] 1
|  7>     print[ P_SCFIterInfo ] 1
|  8>     print[ P_OrbEn ] 0
|  9>     print[ P_Cartesian ] 0
| 10> end
| 11> *xyz 0 1
| 12>  C        1.5614010000     0.2710250000    -1.0341870000
| 13>  C        2.4840490000    -0.0966840000     0.1154810000
| 14>  C        3.3847140000    -1.2574640000    -0.2055290000
| 15>  C        4.1518970000    -1.9174000000     0.9397990000
| 16>  C        3.2955980000    -3.1219870000     0.6048120000
| 17>  O        3.1565840000    -4.2343360000     0.9875950000
| 18>  O        2.6315570000    -2.5011410000    -0.4084540000
| 19>  H        0.9125210000     1.1062990000    -0.7647560000
| 20>  H        0.9276860000    -0.5747690000    -1.3077780000
| 21>  H        2.1313200000     0.5637680000    -1.9201260000
| 22>  H        1.8998820000    -0.3441720000     1.0085590000
| 23>  H        3.1215040000     0.7542840000     0.3814480000
| 24>  H        3.9850870000    -1.0659380000    -1.0987740000
| 25>  H        3.9705480000    -1.5058120000     1.9329580000
| 26>  H        5.2192620000    -2.0765740000     0.7919610000
| 27> *
| 28>
| 29>                          ****END OF INPUT****
 Total Charge           Charge          ....    0
 Multiplicity           Mult            ....    1
 Number of Electrons    NEL             ....   54
 Basis Dimension        Dim             ....  138

MULLIKEN ATOMIC CHARGES
-----------------------
   0 C :   -0.019626
   1 C :    0.036554
   2 C :   -0.001111
   3 C :   -0.012971
   4 C :    0.117691
   5 O :   -0.127116
   6 O :   -0.246211
   7 H :    0.029431
   8 H :    0.040252
   9 H :    0.021553
  10 H :    0.008033
  11 H :    0.023900
  12 H :    0.022288
  13 H :    0.046692
  14 H :    0.060642
Sum of atomic charges:   -0.0000000

LOEWDIN ATOMIC CHARGES
----------------------
   0 C :   -0.064303
   1 C :   -0.052643
   2 C :    0.075099
   3 C :   -0.070342
   4 C :    0.036243
   5 O :   -0.109189
   6 O :   -0.086333
   7 H :    0.031064
   8 H :    0.033046
   9 H :    0.027337
  10 H :    0.030124
  11 H :    0.035355
  12 H :    0.021002
  13 H :    0.045472
  14 H :    0.048068

  Mayer bond orders larger than 0.1
B(  0-C ,  1-C ) :   1.1176 B(  0-C ,  7-H ) :   0.9616 B(  0-C ,  8-H ) :   0.9655
B(  0-C ,  9-H ) :   0.9640 B(  1-C ,  2-C ) :   1.0615 B(  1-C , 10-H ) :   0.9127
B(  1-C , 11-H ) :   0.9239 B(  2-C ,  3-C ) :   1.0757 B(  2-C ,  6-O ) :   0.9788
B(  2-C , 12-H ) :   0.9174 B(  3-C ,  4-C ) :   0.9626 B(  3-C , 13-H ) :   0.9154
B(  3-C , 14-H ) :   0.9183 B(  4-C ,  5-O ) :   2.2227 B(  4-C ,  6-O ) :   1.1234
B(  5-O ,  6-O ) :   0.1125

FINAL SINGLE POINT ENERGY      -345.122041818037

DIPOLE MOMENT
-------------
                                X             Y             Z
Electronic contribution:      1.71199      -9.34869       1.86862
Nuclear contribution   :     -1.21736      10.83506      -1.91085
                        -----------------------------------------
Total Dipole Moment    :      0.49463       1.48637      -0.04223
                        -----------------------------------------
Magnitude (a.u.)       :      1.56708
Magnitude (Debye)      :      3.98321

                             ****ORCA TERMINATED NORMALLY****
TOTAL RUN TIME: 0 days 0 hours 0 minutes 6 seconds 530 msec
