                         Program Version 3.0.3 - RELEASE   -
|  1> ! RI PBE def2-SVP def2-SVP/J NBO PAL2
|  2> % maxcore 2000
|  3> % output
|  4>     # printlevel mini
|  5>     print[ P_Basis ] 0
|  6>     print[ P_SCFInfo ] 1
|  7>     print[ P_SCFIterInfo ] 1
|  8>     print[ P_OrbEn ] 0
|  9>     print[ P_Cartesian ] 0
| 10> end
| 11> *xyz 0 1
| 12>  C        3.0910080000    -1.3088020000    -0.0632720000
| 13>  C        2.4444130000     0.0359790000     0.2277800000
| 14>  C        3.0746170000     1.1755420000    -0.5405410000
| 15>  C        2.6668360000     2.6082620000    -0.1868330000
| 16>  O        4.0325820000     3.0088790000    -0.0242490000
| 17>  C        4.4849050000     1.6459860000    -0.1410080000
| 18>  C        5.6189320000     1.4959370000    -1.1163070000
| 19>  H        2.6142770000    -2.1114680000     0.5034890000
| 20>  H        4.1520710000    -1.3046020000     0.2012610000
| 21>  H        3.0168630000    -1.5611460000    -1.1246820000
| 22>  H        2.5066780000     0.2533870000     1.3006440000
| 23>  H        1.3757530000    -0.0098990000    -0.0116380000
| 24>  H        3.0148920000     0.9868420000    -1.6171830000
| 25>  H        2.1058210000     2.6891810000     0.7532150000
| 26>  H        2.1570770000     3.1923300000    -0.9586150000
| 27>  H        4.7799710000     1.2624030000     0.8475030000
| 28>  H        5.3273980000     1.8594910000    -2.1043330000
| 29>  H        5.9139270000     0.4463480000    -1.2012670000
| 30>  H        6.4877880000     2.0681500000    -0.7821740000
| 31> *
| 32>
| 33>                          ****END OF INPUT****
 Total Charge           Charge          ....    0
 Multiplicity           Mult            ....    1
 Number of Electrons    NEL             ....   56
 Basis Dimension        Dim             ....  158

MULLIKEN ATOMIC CHARGES
-----------------------
   0 C :   -0.019589
   1 C :    0.037114
   2 C :   -0.220562
   3 C :    0.266914
   4 O :   -0.355355
   5 C :    0.087291
   6 C :    0.069362
   7 H :    0.023452
   8 H :    0.022946
   9 H :    0.019245
  10 H :    0.009226
  11 H :    0.014738
  12 H :   -0.000837
  13 H :   -0.005873
  14 H :    0.011817
  15 H :   -0.012768
  16 H :    0.009242
  17 H :    0.015449
  18 H :    0.028187
Sum of atomic charges:   -0.0000000

LOEWDIN ATOMIC CHARGES
----------------------
   0 C :   -0.066518
   1 C :   -0.044417
   2 C :   -0.054543
   3 C :    0.086975
   4 O :   -0.182219
   5 C :    0.067370
   6 C :   -0.070740
   7 H :    0.028995
   8 H :    0.024357
   9 H :    0.025550
  10 H :    0.022823
  11 H :    0.027027
  12 H :    0.023390
  13 H :    0.005547
  14 H :    0.009876
  15 H :    0.006013
  16 H :    0.025672
  17 H :    0.030824
  18 H :    0.034019

  Mayer bond orders larger than 0.1
B(  0-C ,  1-C ) :   1.1158 B(  0-C ,  7-H ) :   0.9578 B(  0-C ,  8-H ) :   0.9653
B(  0-C ,  9-H ) :   0.9648 B(  1-C ,  2-C ) :   1.0578 B(  1-C , 10-H ) :   0.9230
B(  1-C , 11-H ) :   0.9258 B(  2-C ,  3-C ) :   1.0794 B(  2-C ,  5-C ) :   1.0476
B(  2-C , 12-H ) :   0.9047 B(  3-C ,  4-O ) :   1.0319 B(  3-C , 13-H ) :   0.9234
B(  3-C , 14-H ) :   0.9348 B(  4-O ,  5-C ) :   1.0374 B(  5-C ,  6-C ) :   1.0991
B(  5-C , 15-H ) :   0.9032 B(  6-C , 16-H ) :   0.9426 B(  6-C , 17-H ) :   0.9496
B(  6-C , 18-H ) :   0.9489

FINAL SINGLE POINT ENERGY      -310.414935418169

DIPOLE MOMENT
-------------
                                X             Y             Z
Electronic contribution:      0.01026       5.95211       0.80794
Nuclear contribution   :     -0.26784      -6.60614      -0.95488
                        -----------------------------------------
Total Dipole Moment    :     -0.25758      -0.65403      -0.14694
                        -----------------------------------------
Magnitude (a.u.)       :      0.71811
Magnitude (Debye)      :      1.82530

                             ****ORCA TERMINATED NORMALLY****
TOTAL RUN TIME: 0 days 0 hours 0 minutes 8 seconds 85 msec
