                         Program Version 3.0.3 - RELEASE   -
|  1> ! RI PBE def2-SVP def2-SVP/J NBO PAL2
|  2> % maxcore 2000
|  3> % output
|  4>     # printlevel mini
|  5>     print[ P_Basis ] 0
|  6>     print[ P_SCFInfo ] 1
|  7>     print[ P_SCFIterInfo ] 1
|  8>     print[ P_OrbEn ] 0
|  9>     print[ P_Cartesian ] 0
| 10> end
| 11> *xyz 0 1
| 12>  C        1.1184400000     0.1475920000     0.3910410000
| 13>  C        2.5500700000     0.1565890000     0.9069660000
| 14>  C        3.4843980000     1.0124550000     0.0876070000
| 15>  C        3.7796600000     0.5130040000    -1.3002070000
| 16>  O        4.6360940000     1.4900810000     0.7876540000
| 17>  C        3.6635500000     2.4423110000     0.3724660000
| 18>  C        2.9521740000     3.2194400000     1.4360170000
| 19>  H        0.4805450000    -0.4689550000     1.0278050000
| 20>  H        1.0546780000    -0.2546080000    -0.6224040000
| 21>  H        0.6979490000     1.1564930000     0.3751200000
| 22>  H        2.9487010000    -0.8644070000     0.9167410000
| 23>  H        2.5762050000     0.5000310000     1.9425200000
| 24>  H        2.8735800000     0.4707830000    -1.9091920000
| 25>  H        4.2057130000    -0.4934890000    -1.2584150000
| 26>  H        4.4978670000     1.1676580000    -1.7953710000
| 27>  H        3.9988100000     3.0528420000    -0.4684930000
| 28>  H        2.5868530000     2.5800720000     2.2388910000
| 29>  H        2.1047440000     3.7607380000     1.0065200000
| 30>  H        3.6296580000     3.9567810000     1.8746460000
| 31> *
| 32>
| 33>                          ****END OF INPUT****
 Total Charge           Charge          ....    0
 Multiplicity           Mult            ....    1
 Number of Electrons    NEL             ....   56
 Basis Dimension        Dim             ....  158

MULLIKEN ATOMIC CHARGES
-----------------------
   0 C :   -0.023770
   1 C :    0.079658
   2 C :   -0.159256
   3 C :    0.097684
   4 O :   -0.285280
   5 C :    0.009470
   6 C :    0.086396
   7 H :    0.026631
   8 H :    0.019369
   9 H :    0.019751
  10 H :    0.010233
  11 H :   -0.000319
  12 H :    0.024494
  13 H :    0.018323
  14 H :    0.015517
  15 H :    0.001052
  16 H :    0.005067
  17 H :    0.023811
  18 H :    0.031168
Sum of atomic charges:   -0.0000000

LOEWDIN ATOMIC CHARGES
----------------------
   0 C :   -0.064376
   1 C :   -0.042917
   2 C :    0.011503
   3 C :   -0.060131
   4 O :   -0.157732
   5 C :    0.039114
   6 C :   -0.069889
   7 H :    0.030316
   8 H :    0.024057
   9 H :    0.025680
  10 H :    0.029528
  11 H :    0.026910
  12 H :    0.031369
  13 H :    0.032273
  14 H :    0.032912
  15 H :    0.011305
  16 H :    0.029122
  17 H :    0.033961
  18 H :    0.036996

  Mayer bond orders larger than 0.1
B(  0-C ,  1-C ) :   1.1121 B(  0-C ,  7-H ) :   0.9564 B(  0-C ,  8-H ) :   0.9616
B(  0-C ,  9-H ) :   0.9652 B(  1-C ,  2-C ) :   1.0614 B(  1-C , 10-H ) :   0.9162
B(  1-C , 11-H ) :   0.9021 B(  2-C ,  3-C ) :   1.0727 B(  2-C ,  4-O ) :   0.9665
B(  2-C ,  5-C ) :   1.0353 B(  3-C , 12-H ) :   0.9490 B(  3-C , 13-H ) :   0.9416
B(  3-C , 14-H ) :   0.9351 B(  4-O ,  5-C ) :   0.9822 B(  5-C ,  6-C ) :   1.1021
B(  5-C , 15-H ) :   0.9189 B(  6-C , 16-H ) :   0.9390 B(  6-C , 17-H ) :   0.9484
B(  6-C , 18-H ) :   0.9431

FINAL SINGLE POINT ENERGY      -310.420185840530

DIPOLE MOMENT
-------------
                                X             Y             Z
Electronic contribution:      5.24415       0.86885       0.96854
Nuclear contribution   :     -5.89441      -0.77675      -1.22183
                        -----------------------------------------
Total Dipole Moment    :     -0.65026       0.09210      -0.25329
                        -----------------------------------------
Magnitude (a.u.)       :      0.70390
Magnitude (Debye)      :      1.78916

                             ****ORCA TERMINATED NORMALLY****
TOTAL RUN TIME: 0 days 0 hours 0 minutes 8 seconds 374 msec
