                         Program Version 3.0.3 - RELEASE   -
|  1> ! RI PBE def2-SVP def2-SVP/J NBO PAL2
|  2> % maxcore 2000
|  3> % output
|  4>     # printlevel mini
|  5>     print[ P_Basis ] 0
|  6>     print[ P_SCFInfo ] 1
|  7>     print[ P_SCFIterInfo ] 1
|  8>     print[ P_OrbEn ] 0
|  9>     print[ P_Cartesian ] 0
| 10> end
| 11> *xyz 0 1
| 12>  C        1.9983070000     1.2375500000     0.1309290000
| 13>  C        2.7053150000     0.1314770000     0.3101220000
| 14>  C        3.3421620000    -0.6402070000    -0.7869410000
| 15>  C        4.7763710000    -1.1474630000    -0.5949820000
| 16>  O        4.3287750000    -2.5252000000    -0.7141530000
| 17>  C        3.0303850000    -2.1411710000    -0.8536790000
| 18>  O        2.0770490000    -2.8299020000    -0.9762820000
| 19>  H        1.5448100000     1.7584960000     0.9655580000
| 20>  H        1.8422880000     1.6583250000    -0.8572430000
| 21>  H        2.8357510000    -0.2667230000     1.3143910000
| 22>  H        3.1712970000    -0.1652760000    -1.7553620000
| 23>  H        5.2100260000    -0.9681600000     0.3893600000
| 24>  H        5.4869630000    -0.9002450000    -1.3833280000
| 25> *
| 26>
| 27>                          ****END OF INPUT****
 Total Charge           Charge          ....    0
 Multiplicity           Mult            ....    1
 Number of Electrons    NEL             ....   52
 Basis Dimension        Dim             ....  128

MULLIKEN ATOMIC CHARGES
-----------------------
   0 C :   -0.015570
   1 C :    0.019118
   2 C :   -0.239546
   3 C :    0.249002
   4 O :   -0.255913
   5 C :    0.180218
   6 O :   -0.117365
   7 H :    0.034281
   8 H :    0.025044
   9 H :    0.006904
  10 H :    0.040942
  11 H :    0.031331
  12 H :    0.041554
Sum of atomic charges:   -0.0000000

LOEWDIN ATOMIC CHARGES
----------------------
   0 C :   -0.041867
   1 C :   -0.025208
   2 C :   -0.077425
   3 C :    0.099244
   4 O :   -0.080991
   5 C :    0.040514
   6 O :   -0.097565
   7 H :    0.030739
   8 H :    0.026004
   9 H :    0.030819
  10 H :    0.048168
  11 H :    0.022315
  12 H :    0.025252

  Mayer bond orders larger than 0.1
B(  0-C ,  1-C ) :   1.9988 B(  0-C ,  7-H ) :   0.9371 B(  0-C ,  8-H ) :   0.9523
B(  1-C ,  2-C ) :   1.0312 B(  1-C ,  9-H ) :   0.9563 B(  2-C ,  3-C ) :   1.0389
B(  2-C ,  5-C ) :   0.8774 B(  2-C , 10-H ) :   0.8959 B(  3-C ,  4-O ) :   0.9837
B(  3-C , 11-H ) :   0.9405 B(  3-C , 12-H ) :   0.9360 B(  4-O ,  5-C ) :   1.1281
B(  4-O ,  6-O ) :   0.1141 B(  5-C ,  6-O ) :   2.2419

FINAL SINGLE POINT ENERGY      -343.890795180345

DIPOLE MOMENT
-------------
                                X             Y             Z
Electronic contribution:     -0.20495      -6.33603      -1.48017
Nuclear contribution   :      0.88110       7.61872       1.61084
                        -----------------------------------------
Total Dipole Moment    :      0.67616       1.28269       0.13067
                        -----------------------------------------
Magnitude (a.u.)       :      1.45587
Magnitude (Debye)      :      3.70052

                             ****ORCA TERMINATED NORMALLY****
TOTAL RUN TIME: 0 days 0 hours 0 minutes 6 seconds 65 msec
