                         Program Version 3.0.3 - RELEASE   -
|  1> ! RI PBE def2-SVP def2-SVP/J NBO PAL2
|  2> % maxcore 2000
|  3> % output
|  4>     # printlevel mini
|  5>     print[ P_Basis ] 0
|  6>     print[ P_SCFInfo ] 1
|  7>     print[ P_SCFIterInfo ] 1
|  8>     print[ P_OrbEn ] 0
|  9>     print[ P_Cartesian ] 0
| 10> end
| 11> *xyz 0 1
| 12>  C        2.7610010000     1.3322240000     0.3290830000
| 13>  C        2.3611770000    -0.1124680000     0.0723290000
| 14>  C        2.8178820000    -1.0395070000     1.1657100000
| 15>  C        3.0782550000    -2.4939980000     0.9094940000
| 16>  O        2.8417040000    -2.9714010000    -0.3756260000
| 17>  C        4.2239580000    -1.5782680000     1.1708630000
| 18>  O        4.9167510000    -1.7574880000     2.3645090000
| 19>  H        2.4134010000     1.9893170000    -0.4714470000
| 20>  H        3.8480240000     1.4335810000     0.3940760000
| 21>  H        2.3376330000     1.7012600000     1.2676490000
| 22>  H        2.7692410000    -0.4549030000    -0.8818730000
| 23>  H        1.2728650000    -0.1844770000    -0.0270970000
| 24>  H        2.4104880000    -0.8343570000     2.1525260000
| 25>  H        2.8285000000    -3.1763450000     1.7195820000
| 26>  H        3.4950890000    -3.6492870000    -0.5685470000
| 27>  H        4.8330780000    -1.3245220000     0.3031110000
| 28>  H        5.1222240000    -0.8916630000     2.7274570000
| 29> *
| 30>
| 31>                          ****END OF INPUT****
 Total Charge           Charge          ....    0
 Multiplicity           Mult            ....    1
 Number of Electrons    NEL             ....   56
 Basis Dimension        Dim             ....  148

MULLIKEN ATOMIC CHARGES
-----------------------
   0 C :   -0.022970
   1 C :    0.069415
   2 C :   -0.143331
   3 C :    0.088902
   4 O :   -0.231396
   5 C :    0.050448
   6 O :   -0.231675
   7 H :    0.022862
   8 H :    0.014451
   9 H :    0.012731
  10 H :   -0.000157
  11 H :    0.022150
  12 H :    0.013109
  13 H :    0.011251
  14 H :    0.162125
  15 H :    0.001690
  16 H :    0.160395
Sum of atomic charges:   -0.0000000

LOEWDIN ATOMIC CHARGES
----------------------
   0 C :   -0.067662
   1 C :   -0.034999
   2 C :   -0.065182
   3 C :    0.027793
   4 O :   -0.093748
   5 C :    0.009444
   6 O :   -0.100356
   7 H :    0.027100
   8 H :    0.022120
   9 H :    0.023108
  10 H :    0.025177
  11 H :    0.031053
  12 H :    0.027105
  13 H :    0.011866
  14 H :    0.076977
  15 H :    0.006350
  16 H :    0.073854

  Mayer bond orders larger than 0.1
B(  0-C ,  1-C ) :   1.1188 B(  0-C ,  7-H ) :   0.9609 B(  0-C ,  8-H ) :   0.9677
B(  0-C ,  9-H ) :   0.9624 B(  1-C ,  2-C ) :   1.0695 B(  1-C , 10-H ) :   0.9162
B(  1-C , 11-H ) :   0.9285 B(  2-C ,  3-C ) :   0.9302 B(  2-C ,  5-C ) :   0.9203
B(  2-C , 12-H ) :   0.9264 B(  3-C ,  4-O ) :   1.1354 B(  3-C ,  5-C ) :   0.9336
B(  3-C , 13-H ) :   0.9307 B(  4-O , 14-H ) :   0.9793 B(  5-C ,  6-O ) :   1.1390
B(  5-C , 15-H ) :   0.9307 B(  6-O , 16-H ) :   0.9794

FINAL SINGLE POINT ENERGY      -346.269238241604

DIPOLE MOMENT
-------------
                                X             Y             Z
Electronic contribution:      2.00782      -6.36402       1.41442
Nuclear contribution   :     -1.70989       6.65208      -1.34776
                        -----------------------------------------
Total Dipole Moment    :      0.29794       0.28806       0.06666
                        -----------------------------------------
Magnitude (a.u.)       :      0.41975
Magnitude (Debye)      :      1.06692

                             ****ORCA TERMINATED NORMALLY****
TOTAL RUN TIME: 0 days 0 hours 0 minutes 7 seconds 300 msec
