                         Program Version 3.0.3 - RELEASE   -
|  1> ! RI PBE def2-SVP def2-SVP/J NBO PAL2
|  2> % maxcore 2000
|  3> % output
|  4>     # printlevel mini
|  5>     print[ P_Basis ] 0
|  6>     print[ P_SCFInfo ] 1
|  7>     print[ P_SCFIterInfo ] 1
|  8>     print[ P_OrbEn ] 0
|  9>     print[ P_Cartesian ] 0
| 10> end
| 11> *xyz 0 1
| 12>  C        3.2990670000    -1.0448310000     0.6549300000
| 13>  C        2.5212210000     0.0655080000    -0.0321240000
| 14>  C        3.2458340000     1.3986020000     0.0105360000
| 15>  C        2.5038370000     2.6586850000    -0.4368670000
| 16>  O        2.6322200000     3.2270690000     0.8955130000
| 17>  C        3.2781770000     2.1165970000     1.3529490000
| 18>  O        3.6632260000     1.9087150000     2.4544350000
| 19>  H        2.7430910000    -1.9839140000     0.6274900000
| 20>  H        3.4971380000    -0.7960880000     1.6991490000
| 21>  H        4.2613980000    -1.2126950000     0.1639380000
| 22>  H        1.5372950000     0.1788000000     0.4359540000
| 23>  H        2.3373990000    -0.1959410000    -1.0795820000
| 24>  H        4.2498740000     1.3105600000    -0.4133950000
| 25>  H        1.4525490000     2.5189090000    -0.6929440000
| 26>  H        3.0016630000     3.2879240000    -1.1744900000
| 27> *
| 28>
| 29>                          ****END OF INPUT****
 Total Charge           Charge          ....    0
 Multiplicity           Mult            ....    1
 Number of Electrons    NEL             ....   54
 Basis Dimension        Dim             ....  138

MULLIKEN ATOMIC CHARGES
-----------------------
   0 C :   -0.027381
   1 C :    0.034296
   2 C :   -0.288418
   3 C :    0.254084
   4 O :   -0.258233
   5 C :    0.178306
   6 O :   -0.131132
   7 H :    0.028391
   8 H :    0.047128
   9 H :    0.019961
  10 H :    0.015444
  11 H :    0.023674
  12 H :    0.044624
  13 H :    0.024683
  14 H :    0.034574
Sum of atomic charges:   -0.0000000

LOEWDIN ATOMIC CHARGES
----------------------
   0 C :   -0.065005
   1 C :   -0.033341
   2 C :   -0.078234
   3 C :    0.095017
   4 O :   -0.082816
   5 C :    0.038207
   6 O :   -0.108857
   7 H :    0.030583
   8 H :    0.033957
   9 H :    0.026918
  10 H :    0.028697
  11 H :    0.028754
  12 H :    0.042626
  13 H :    0.021095
  14 H :    0.022398

  Mayer bond orders larger than 0.1
B(  0-C ,  1-C ) :   1.1205 B(  0-C ,  7-H ) :   0.9602 B(  0-C ,  8-H ) :   0.9629
B(  0-C ,  9-H ) :   0.9621 B(  1-C ,  2-C ) :   1.0525 B(  1-C , 10-H ) :   0.9277
B(  1-C , 11-H ) :   0.9342 B(  2-C ,  3-C ) :   1.0602 B(  2-C ,  5-C ) :   0.9190
B(  2-C , 12-H ) :   0.8954 B(  3-C ,  4-O ) :   0.9872 B(  3-C , 13-H ) :   0.9327
B(  3-C , 14-H ) :   0.9371 B(  4-O ,  5-C ) :   1.1313 B(  4-O ,  6-O ) :   0.1156
B(  5-C ,  6-O ) :   2.1988

FINAL SINGLE POINT ENERGY      -345.116806677940

DIPOLE MOMENT
-------------
                                X             Y             Z
Electronic contribution:      0.76740       7.64925       4.36158
Nuclear contribution   :     -1.00708      -8.12416      -5.75895
                        -----------------------------------------
Total Dipole Moment    :     -0.23967      -0.47490      -1.39736
                        -----------------------------------------
Magnitude (a.u.)       :      1.49519
Magnitude (Debye)      :      3.80048

                             ****ORCA TERMINATED NORMALLY****
TOTAL RUN TIME: 0 days 0 hours 0 minutes 7 seconds 280 msec
