                         Program Version 3.0.3 - RELEASE   -
|  1> ! RI PBE def2-SVP def2-SVP/J NBO PAL2
|  2> % maxcore 2000
|  3> % output
|  4>     # printlevel mini
|  5>     print[ P_Basis ] 0
|  6>     print[ P_SCFInfo ] 1
|  7>     print[ P_SCFIterInfo ] 1
|  8>     print[ P_OrbEn ] 0
|  9>     print[ P_Cartesian ] 0
| 10> end
| 11> *xyz 0 1
| 12>  C        1.5638600000     0.9404720000     0.5697580000
| 13>  C        2.1860410000    -0.0397000000    -0.0912580000
| 14>  C        2.9273830000     0.1234910000    -1.3108410000
| 15>  C        3.5601710000    -0.8368760000    -1.9944130000
| 16>  O        4.1922790000    -0.4439460000    -3.1164300000
| 17>  C        3.9816510000     0.9774310000    -3.2488370000
| 18>  C        3.1301040000     1.4200230000    -2.0502790000
| 19>  H        1.0220630000     0.7439780000     1.4861920000
| 20>  H        1.5771130000     1.9657030000     0.2161450000
| 21>  H        2.1420620000    -1.0514170000     0.3063200000
| 22>  H        3.6371580000    -1.8932080000    -1.7722440000
| 23>  H        3.4884890000     1.1472450000    -4.2076800000
| 24>  H        4.9638080000     1.4530040000    -3.2727200000
| 25>  H        2.1775790000     1.8613450000    -2.3595090000
| 26>  H        3.6420280000     2.1622650000    -1.4300030000
| 27> *
| 28>
| 29>                          ****END OF INPUT****
 Total Charge           Charge          ....    0
 Multiplicity           Mult            ....    1
 Number of Electrons    NEL             ....   52
 Basis Dimension        Dim             ....  138

MULLIKEN ATOMIC CHARGES
-----------------------
   0 C :   -0.062598
   1 C :    0.011200
   2 C :   -0.133367
   3 C :    0.101033
   4 O :   -0.275506
   5 C :    0.201976
   6 C :    0.026512
   7 H :    0.019264
   8 H :    0.011892
   9 H :   -0.021608
  10 H :    0.003491
  11 H :    0.025982
  12 H :    0.029445
  13 H :    0.031255
  14 H :    0.031029
Sum of atomic charges:   -0.0000000

LOEWDIN ATOMIC CHARGES
----------------------
   0 C :   -0.086380
   1 C :   -0.033577
   2 C :   -0.105338
   3 C :    0.043951
   4 O :   -0.076809
   5 C :    0.090664
   6 C :   -0.040421
   7 H :    0.022744
   8 H :    0.017750
   9 H :    0.029177
  10 H :    0.024052
  11 H :    0.022796
  12 H :    0.023514
  13 H :    0.034113
  14 H :    0.033763

  Mayer bond orders larger than 0.1
B(  0-C ,  1-C ) :   1.8646 B(  0-C ,  3-C ) :   0.1193 B(  0-C ,  7-H ) :   0.9391
B(  0-C ,  8-H ) :   0.9420 B(  1-C ,  2-C ) :   1.1877 B(  1-C ,  9-H ) :   0.9529
B(  2-C ,  3-C ) :   1.6123 B(  2-C ,  4-O ) :   0.1095 B(  2-C ,  6-C ) :   1.0734
B(  3-C ,  4-O ) :   1.1369 B(  3-C , 10-H ) :   0.9888 B(  4-O ,  5-C ) :   0.9553
B(  5-C ,  6-C ) :   1.1134 B(  5-C , 11-H ) :   0.9450 B(  5-C , 12-H ) :   0.9446
B(  6-C , 13-H ) :   0.9045 B(  6-C , 14-H ) :   0.9050

FINAL SINGLE POINT ENERGY      -308.013349693513

DIPOLE MOMENT
-------------
                                X             Y             Z
Electronic contribution:      2.09679      -3.33807      -2.20497
Nuclear contribution   :     -2.02296       3.61043       2.00841
                        -----------------------------------------
Total Dipole Moment    :      0.07383       0.27235      -0.19656
                        -----------------------------------------
Magnitude (a.u.)       :      0.34390
Magnitude (Debye)      :      0.87412

                             ****ORCA TERMINATED NORMALLY****
TOTAL RUN TIME: 0 days 0 hours 0 minutes 7 seconds 51 msec
