                         Program Version 3.0.3 - RELEASE   -
|  1> ! RI PBE def2-SVP def2-SVP/J NBO PAL2
|  2> % maxcore 2000
|  3> % output
|  4>     # printlevel mini
|  5>     print[ P_Basis ] 0
|  6>     print[ P_SCFInfo ] 1
|  7>     print[ P_SCFIterInfo ] 1
|  8>     print[ P_OrbEn ] 0
|  9>     print[ P_Cartesian ] 0
| 10> end
| 11> *xyz 0 1
| 12>  C        1.0724050000     0.3679830000    -0.4841090000
| 13>  C        2.2552310000     0.1458080000     0.0697070000
| 14>  C        3.4328640000     1.0823490000     0.0417260000
| 15>  C        3.7009050000     1.7637100000     1.4038770000
| 16>  O        3.2557440000     3.1232420000     1.2823110000
| 17>  C        3.1323090000     3.3622720000    -0.0454740000
| 18>  C        3.2546450000     2.2976190000    -0.8283530000
| 19>  H        0.2705870000    -0.3569100000    -0.4065640000
| 20>  H        0.8663830000     1.2840130000    -1.0275390000
| 21>  H        2.4190660000    -0.7840760000     0.6126740000
| 22>  H        4.3161590000     0.5006960000    -0.2451150000
| 23>  H        4.7711850000     1.7855550000     1.6311270000
| 24>  H        3.1631820000     1.3039520000     2.2335380000
| 25>  H        2.9378620000     4.3942830000    -0.3048380000
| 26>  H        3.1698920000     2.2891140000    -1.9038680000
| 27> *
| 28>
| 29>                          ****END OF INPUT****
 Total Charge           Charge          ....    0
 Multiplicity           Mult            ....    1
 Number of Electrons    NEL             ....   52
 Basis Dimension        Dim             ....  138

MULLIKEN ATOMIC CHARGES
-----------------------
   0 C :   -0.016841
   1 C :   -0.045794
   2 C :   -0.068028
   3 C :    0.260501
   4 O :   -0.285413
   5 C :    0.139171
   6 C :   -0.100288
   7 H :    0.023935
   8 H :    0.021392
   9 H :   -0.000950
  10 H :    0.021819
  11 H :    0.017159
  12 H :    0.019234
  13 H :    0.007812
  14 H :    0.006292
Sum of atomic charges:   -0.0000000

LOEWDIN ATOMIC CHARGES
----------------------
   0 C :   -0.059847
   1 C :   -0.030601
   2 C :   -0.050512
   3 C :    0.098335
   4 O :   -0.089678
   5 C :    0.044347
   6 C :   -0.112341
   7 H :    0.025718
   8 H :    0.022438
   9 H :    0.022904
  10 H :    0.037858
  11 H :    0.018581
  12 H :    0.022333
  13 H :    0.022660
  14 H :    0.027805

  Mayer bond orders larger than 0.1
B(  0-C ,  1-C ) :   2.0314 B(  0-C ,  7-H ) :   0.9438 B(  0-C ,  8-H ) :   0.9225
B(  1-C ,  2-C ) :   0.9999 B(  1-C ,  9-H ) :   0.9510 B(  2-C ,  3-C ) :   1.0473
B(  2-C ,  6-C ) :   1.0315 B(  2-C , 10-H ) :   0.8869 B(  3-C ,  4-O ) :   0.9659
B(  3-C , 11-H ) :   0.9320 B(  3-C , 12-H ) :   0.9464 B(  4-O ,  5-C ) :   1.1250
B(  4-O ,  6-C ) :   0.1140 B(  5-C ,  6-C ) :   1.7171 B(  5-C , 13-H ) :   0.9899
B(  6-C , 14-H ) :   0.9877

FINAL SINGLE POINT ENERGY      -307.996578744396

DIPOLE MOMENT
-------------
                                X             Y             Z
Electronic contribution:      1.20429       3.10918       1.12888
Nuclear contribution   :     -1.02647      -3.38683      -1.22736
                        -----------------------------------------
Total Dipole Moment    :      0.17782      -0.27764      -0.09848
                        -----------------------------------------
Magnitude (a.u.)       :      0.34410
Magnitude (Debye)      :      0.87462

                             ****ORCA TERMINATED NORMALLY****
TOTAL RUN TIME: 0 days 0 hours 0 minutes 7 seconds 166 msec
