                         Program Version 3.0.3 - RELEASE   -
|  1> ! RI PBE def2-SVP def2-SVP/J NBO PAL2
|  2> % maxcore 2000
|  3> % output
|  4>     # printlevel mini
|  5>     print[ P_Basis ] 0
|  6>     print[ P_SCFInfo ] 1
|  7>     print[ P_SCFIterInfo ] 1
|  8>     print[ P_OrbEn ] 0
|  9>     print[ P_Cartesian ] 0
| 10> end
| 11> *xyz 0 1
| 12>  C        1.0362830000    -0.0779150000     0.1369020000
| 13>  C        2.2360230000    -0.1142890000     0.0300170000
| 14>  C        3.6366340000    -0.1036980000    -0.0910720000
| 15>  C        4.4426030000    -1.1617100000    -0.2344560000
| 16>  O        5.7529750000    -0.8861950000    -0.3291180000
| 17>  C        5.9033410000     0.5478000000    -0.2440240000
| 18>  C        4.4960020000     1.1405950000    -0.0789660000
| 19>  H       -0.0232610000    -0.0589530000     0.2303900000
| 20>  H        4.1823300000    -2.2098850000    -0.2844450000
| 21>  H        6.3998850000     0.8784320000    -1.1577990000
| 22>  H        6.5559710000     0.7574980000     0.6050320000
| 23>  H        4.2314750000     1.8185990000    -0.8943500000
| 24>  H        4.3847570000     1.6954320000     0.8561000000
| 25> *
| 26>
| 27>                          ****END OF INPUT****
 Total Charge           Charge          ....    0
 Multiplicity           Mult            ....    1
 Number of Electrons    NEL             ....   50
 Basis Dimension        Dim             ....  128

MULLIKEN ATOMIC CHARGES
-----------------------
   0 C :   -0.478044
   1 C :    0.423339
   2 C :   -0.210367
   3 C :    0.149995
   4 O :   -0.269159
   5 C :    0.179895
   6 C :    0.051556
   7 H :   -0.001211
   8 H :    0.009667
   9 H :    0.034297
  10 H :    0.036401
  11 H :    0.037861
  12 H :    0.035769
Sum of atomic charges:   -0.0000000

LOEWDIN ATOMIC CHARGES
----------------------
   0 C :   -0.086887
   1 C :   -0.022285
   2 C :   -0.127346
   3 C :    0.062484
   4 O :   -0.071202
   5 C :    0.089445
   6 C :   -0.029370
   7 H :    0.032709
   8 H :    0.029405
   9 H :    0.024834
  10 H :    0.025320
  11 H :    0.036688
  12 H :    0.036204

  Mayer bond orders larger than 0.1
B(  0-C ,  1-C ) :   2.2147 B(  0-C ,  3-C ) :   0.1083 B(  0-C ,  7-H ) :   1.0968
B(  1-C ,  2-C ) :   1.0623 B(  1-C ,  7-H ) :  -0.1064 B(  2-C ,  3-C ) :   1.6327
B(  2-C ,  4-O ) :   0.1200 B(  2-C ,  6-C ) :   1.0566 B(  3-C ,  4-O ) :   1.1446
B(  3-C ,  8-H ) :   0.9942 B(  4-O ,  5-C ) :   0.9526 B(  5-C ,  6-C ) :   1.1017
B(  5-C ,  9-H ) :   0.9456 B(  5-C , 10-H ) :   0.9460 B(  6-C , 11-H ) :   0.9166
B(  6-C , 12-H ) :   0.9170

FINAL SINGLE POINT ENERGY      -306.767029297117

DIPOLE MOMENT
-------------
                                X             Y             Z
Electronic contribution:     -1.14270      -2.82045      -0.09390
Nuclear contribution   :      1.48354       3.19976       0.09159
                        -----------------------------------------
Total Dipole Moment    :      0.34083       0.37931      -0.00231
                        -----------------------------------------
Magnitude (a.u.)       :      0.50995
Magnitude (Debye)      :      1.29620

                             ****ORCA TERMINATED NORMALLY****
TOTAL RUN TIME: 0 days 0 hours 0 minutes 6 seconds 82 msec
