                         Program Version 3.0.3 - RELEASE   -
|  1> ! RI PBE def2-SVP def2-SVP/J NBO PAL2
|  2> % maxcore 2000
|  3> % output
|  4>     # printlevel mini
|  5>     print[ P_Basis ] 0
|  6>     print[ P_SCFInfo ] 1
|  7>     print[ P_SCFIterInfo ] 1
|  8>     print[ P_OrbEn ] 0
|  9>     print[ P_Cartesian ] 0
| 10> end
| 11> *xyz 0 1
| 12>  C        1.0006070000    -0.0503400000    -0.2481600000
| 13>  C        2.1964030000    -0.0110980000    -0.1476600000
| 14>  C        3.6475030000     0.0313840000    -0.0248970000
| 15>  C        4.2506790000    -1.2373490000     0.6380170000
| 16>  O        4.9498210000    -0.8118330000     1.8164830000
| 17>  C        4.8402580000     0.5347010000     1.8843510000
| 18>  C        4.1461040000     1.1082050000     0.9122300000
| 19>  H       -0.0597320000    -0.0820320000    -0.3338570000
| 20>  H        4.0630160000     0.1658330000    -1.0306380000
| 21>  H        4.9671070000    -1.7350430000    -0.0178330000
| 22>  H        3.4784200000    -1.9475230000     0.9346730000
| 23>  H        5.3355080000     0.9859970000     2.7332040000
| 24>  H        3.9389150000     2.1601870000     0.8010880000
| 25> *
| 26>
| 27>                          ****END OF INPUT****
 Total Charge           Charge          ....    0
 Multiplicity           Mult            ....    1
 Number of Electrons    NEL             ....   50
 Basis Dimension        Dim             ....  128

MULLIKEN ATOMIC CHARGES
-----------------------
   0 C :   -0.495791
   1 C :    0.420232
   2 C :   -0.124656
   3 C :    0.282496
   4 O :   -0.287357
   5 C :    0.132994
   6 C :   -0.058633
   7 H :   -0.002709
   8 H :    0.047126
   9 H :    0.028303
  10 H :    0.034218
  11 H :    0.015313
  12 H :    0.008463
Sum of atomic charges:    0.0000000

LOEWDIN ATOMIC CHARGES
----------------------
   0 C :   -0.083966
   1 C :   -0.017989
   2 C :   -0.053121
   3 C :    0.103180
   4 O :   -0.086470
   5 C :    0.045340
   6 C :   -0.103381
   7 H :    0.034576
   8 H :    0.051188
   9 H :    0.024541
  10 H :    0.028257
  11 H :    0.026156
  12 H :    0.031689

  Mayer bond orders larger than 0.1
B(  0-C ,  1-C ) :   2.3240 B(  0-C ,  7-H ) :   1.1088 B(  1-C ,  2-C ) :   0.9700
B(  1-C ,  7-H ) :  -0.1180 B(  2-C ,  3-C ) :   1.0546 B(  2-C ,  6-C ) :   1.0203
B(  2-C ,  8-H ) :   0.8638 B(  3-C ,  4-O ) :   0.9646 B(  3-C ,  9-H ) :   0.9352
B(  3-C , 10-H ) :   0.9454 B(  4-O ,  5-C ) :   1.1196 B(  4-O ,  6-C ) :   0.1261
B(  5-C ,  6-C ) :   1.7398 B(  5-C , 11-H ) :   0.9872 B(  6-C , 12-H ) :   0.9926

FINAL SINGLE POINT ENERGY      -306.752189798478

DIPOLE MOMENT
-------------
                                X             Y             Z
Electronic contribution:      0.12885      -0.04711       0.94684
Nuclear contribution   :     -0.07323       0.09919      -1.17757
                        -----------------------------------------
Total Dipole Moment    :      0.05562       0.05208      -0.23073
                        -----------------------------------------
Magnitude (a.u.)       :      0.24298
Magnitude (Debye)      :      0.61762

                             ****ORCA TERMINATED NORMALLY****
TOTAL RUN TIME: 0 days 0 hours 0 minutes 6 seconds 311 msec
