                         Program Version 3.0.3 - RELEASE   -
|  1> ! RI PBE def2-SVP def2-SVP/J NBO PAL2
|  2> % maxcore 2000
|  3> % output
|  4>     # printlevel mini
|  5>     print[ P_Basis ] 0
|  6>     print[ P_SCFInfo ] 1
|  7>     print[ P_SCFIterInfo ] 1
|  8>     print[ P_OrbEn ] 0
|  9>     print[ P_Cartesian ] 0
| 10> end
| 11> *xyz 0 1
| 12>  C        1.0150240000    -0.0706930000     0.0884800000
| 13>  C        2.5001830000     0.0804550000    -0.0239360000
| 14>  C        3.1054620000     1.0055350000    -0.7740750000
| 15>  C        4.5961600000     1.2038350000    -0.9249420000
| 16>  O        4.7601630000     2.3120570000    -1.8276050000
| 17>  C        3.5232170000     2.7220510000    -2.1710750000
| 18>  C        2.5201620000     2.0320970000    -1.6156730000
| 19>  H        0.7509430000    -0.8913830000     0.7564930000
| 20>  H        0.5509490000    -0.2785000000    -0.8815850000
| 21>  H        0.5408770000     0.8347460000     0.4820970000
| 22>  H        3.1178980000    -0.6098880000     0.5436660000
| 23>  H        5.1007180000     0.3380670000    -1.3620170000
| 24>  H        5.0906920000     1.4614650000     0.0153940000
| 25>  H        3.4962530000     3.5597640000    -2.8545390000
| 26>  H        1.4690100000     2.2147930000    -1.7723910000
| 27> *
| 28>
| 29>                          ****END OF INPUT****
 Total Charge           Charge          ....    0
 Multiplicity           Mult            ....    1
 Number of Electrons    NEL             ....   52
 Basis Dimension        Dim             ....  138

MULLIKEN ATOMIC CHARGES
-----------------------
   0 C :    0.028986
   1 C :   -0.165750
   2 C :   -0.107009
   3 C :    0.262541
   4 O :   -0.273592
   5 C :    0.139671
   6 C :   -0.033663
   7 H :    0.018625
   8 H :    0.034077
   9 H :    0.034565
  10 H :   -0.021412
  11 H :    0.043342
  12 H :    0.043904
  13 H :    0.011554
  14 H :   -0.015840
Sum of atomic charges:   -0.0000000

LOEWDIN ATOMIC CHARGES
----------------------
   0 C :   -0.070674
   1 C :   -0.082811
   2 C :   -0.059715
   3 C :    0.094156
   4 O :   -0.073316
   5 C :    0.057649
   6 C :   -0.105057
   7 H :    0.031147
   8 H :    0.034171
   9 H :    0.034263
  10 H :    0.019454
  11 H :    0.033323
  12 H :    0.033307
  13 H :    0.023610
  14 H :    0.030492

  Mayer bond orders larger than 0.1
B(  0-C ,  1-C ) :   1.0871 B(  0-C ,  7-H ) :   0.9564 B(  0-C ,  8-H ) :   0.9509
B(  0-C ,  9-H ) :   0.9510 B(  1-C ,  2-C ) :   1.8157 B(  1-C ,  5-C ) :   0.1003
B(  1-C , 10-H ) :   0.9446 B(  2-C ,  3-C ) :   1.0275 B(  2-C ,  6-C ) :   1.1337
B(  3-C ,  4-O ) :   0.9553 B(  3-C , 11-H ) :   0.9292 B(  3-C , 12-H ) :   0.9297
B(  4-O ,  5-C ) :   1.1508 B(  5-C ,  6-C ) :   1.5925 B(  5-C , 13-H ) :   0.9815
B(  6-C , 14-H ) :   0.9920

FINAL SINGLE POINT ENERGY      -308.015466232032

DIPOLE MOMENT
-------------
                                X             Y             Z
Electronic contribution:      4.71290       3.66742      -2.95555
Nuclear contribution   :     -4.81832      -3.71537       2.99509
                        -----------------------------------------
Total Dipole Moment    :     -0.10543      -0.04795       0.03954
                        -----------------------------------------
Magnitude (a.u.)       :      0.12238
Magnitude (Debye)      :      0.31107

                             ****ORCA TERMINATED NORMALLY****
TOTAL RUN TIME: 0 days 0 hours 0 minutes 7 seconds 228 msec
