                         Program Version 3.0.3 - RELEASE   -
|  1> ! RI PBE def2-SVP def2-SVP/J NBO PAL2
|  2> % maxcore 2000
|  3> % output
|  4>     # printlevel mini
|  5>     print[ P_Basis ] 0
|  6>     print[ P_SCFInfo ] 1
|  7>     print[ P_SCFIterInfo ] 1
|  8>     print[ P_OrbEn ] 0
|  9>     print[ P_Cartesian ] 0
| 10> end
| 11> *xyz 0 1
| 12>  C        1.2093180000    -0.5482050000     0.9456680000
| 13>  C        2.4923020000    -0.0920830000     0.2564390000
| 14>  C        2.9875480000     1.2320310000     0.7209990000
| 15>  C        4.1531750000     1.5098780000     1.2961370000
| 16>  O        4.3747430000     2.8193210000     1.5879310000
| 17>  C        3.1297970000     3.4961260000     1.3490400000
| 18>  C        2.2610750000     2.5406530000     0.5253820000
| 19>  H        0.8864550000    -1.5210790000     0.5674180000
| 20>  H        0.3928370000     0.1583030000     0.7770410000
| 21>  H        1.3573910000    -0.6343630000     2.0246430000
| 22>  H        2.3161240000    -0.0537900000    -0.8269990000
| 23>  H        3.2760080000    -0.8399600000     0.4114510000
| 24>  H        4.9681410000     0.8435300000     1.5471630000
| 25>  H        3.3498780000     4.4411040000     0.8518730000
| 26>  H        2.6738220000     3.7068660000     2.3221070000
| 27>  H        2.2257110000     2.8110590000    -0.5379700000
| 28>  H        1.2295850000     2.5243890000     0.8862760000
| 29> *
| 30>
| 31>                          ****END OF INPUT****
 Total Charge           Charge          ....    0
 Multiplicity           Mult            ....    1
 Number of Electrons    NEL             ....   54
 Basis Dimension        Dim             ....  148

MULLIKEN ATOMIC CHARGES
-----------------------
   0 C :   -0.029802
   1 C :    0.057317
   2 C :   -0.221988
   3 C :    0.107062
   4 O :   -0.291755
   5 C :    0.192830
   6 C :    0.036355
   7 H :    0.015363
   8 H :    0.023463
   9 H :    0.023538
  10 H :    0.015772
  11 H :    0.002962
  12 H :   -0.008837
  13 H :    0.020227
  14 H :    0.017858
  15 H :    0.021677
  16 H :    0.017958
Sum of atomic charges:   -0.0000000

LOEWDIN ATOMIC CHARGES
----------------------
   0 C :   -0.066300
   1 C :   -0.039413
   2 C :   -0.109331
   3 C :    0.024513
   4 O :   -0.099928
   5 C :    0.085202
   6 C :   -0.044088
   7 H :    0.025810
   8 H :    0.023101
   9 H :    0.026173
  10 H :    0.029362
  11 H :    0.030974
  12 H :    0.019236
  13 H :    0.020767
  14 H :    0.017187
  15 H :    0.027845
  16 H :    0.028889

  Mayer bond orders larger than 0.1
B(  0-C ,  1-C ) :   1.1053 B(  0-C ,  7-H ) :   0.9557 B(  0-C ,  8-H ) :   0.9691
B(  0-C ,  9-H ) :   0.9652 B(  1-C ,  2-C ) :   1.1084 B(  1-C , 10-H ) :   0.9146
B(  1-C , 11-H ) :   0.9171 B(  2-C ,  3-C ) :   1.7464 B(  2-C ,  4-O ) :   0.1170
B(  2-C ,  6-C ) :   1.0636 B(  3-C ,  4-O ) :   1.1066 B(  3-C , 12-H ) :   0.9863
B(  4-O ,  5-C ) :   0.9666 B(  5-C ,  6-C ) :   1.1093 B(  5-C , 13-H ) :   0.9478
B(  5-C , 14-H ) :   0.9396 B(  6-C , 15-H ) :   0.9046 B(  6-C , 16-H ) :   0.9167

FINAL SINGLE POINT ENERGY      -309.225596616481

DIPOLE MOMENT
-------------
                                X             Y             Z
Electronic contribution:      5.79175       3.96103       1.35326
Nuclear contribution   :     -6.21816      -4.01024      -1.51361
                        -----------------------------------------
Total Dipole Moment    :     -0.42642      -0.04922      -0.16036
                        -----------------------------------------
Magnitude (a.u.)       :      0.45822
Magnitude (Debye)      :      1.16472

                             ****ORCA TERMINATED NORMALLY****
TOTAL RUN TIME: 0 days 0 hours 0 minutes 7 seconds 783 msec
