                         Program Version 3.0.3 - RELEASE   -
|  1> ! RI PBE def2-SVP def2-SVP/J NBO PAL2
|  2> % maxcore 2000
|  3> % output
|  4>     # printlevel mini
|  5>     print[ P_Basis ] 0
|  6>     print[ P_SCFInfo ] 1
|  7>     print[ P_SCFIterInfo ] 1
|  8>     print[ P_OrbEn ] 0
|  9>     print[ P_Cartesian ] 0
| 10> end
| 11> *xyz 0 1
| 12>  C        3.0453430000    -0.8961040000     1.0682200000
| 13>  C        2.8343660000     0.2453910000     0.0852870000
| 14>  C        3.3483010000    -0.0442190000    -1.3073760000
| 15>  C        4.8400170000    -0.2011750000    -1.4473310000
| 16>  O        5.5553700000     0.9563200000    -1.0675050000
| 17>  C        2.4946710000    -0.8751500000    -2.2148660000
| 18>  C        2.6392020000     0.5964730000    -2.4684670000
| 19>  H        2.6037410000    -0.6611820000     2.0392990000
| 20>  H        4.1066750000    -1.0942920000     1.2336910000
| 21>  H        2.5851710000    -1.8190330000     0.7049750000
| 22>  H        3.3239810000     1.1495170000     0.4613030000
| 23>  H        1.7657810000     0.4759130000     0.0185920000
| 24>  H        5.0763380000    -0.4879100000    -2.4824800000
| 25>  H        5.2087280000    -1.0004960000    -0.7992830000
| 26>  H        5.1990310000     1.6955830000    -1.5686070000
| 27>  H        1.5487820000    -1.2325270000    -1.8251300000
| 28>  H        2.9816220000    -1.5582400000    -2.9012650000
| 29>  H        1.7903470000     1.2355900000    -2.2560650000
| 30>  H        3.2247340000     0.9017310000    -3.3292040000
| 31> *
| 32>
| 33>                          ****END OF INPUT****
 Total Charge           Charge          ....    0
 Multiplicity           Mult            ....    1
 Number of Electrons    NEL             ....   56
 Basis Dimension        Dim             ....  158

MULLIKEN ATOMIC CHARGES
-----------------------
   0 C :   -0.005638
   1 C :    0.098853
   2 C :   -0.383748
   3 C :    0.309885
   4 O :   -0.283278
   5 C :    0.000525
   6 C :   -0.013519
   7 H :    0.016709
   8 H :    0.025404
   9 H :    0.010572
  10 H :    0.001387
  11 H :   -0.010449
  12 H :   -0.028109
  13 H :    0.005748
  14 H :    0.152903
  15 H :    0.026028
  16 H :    0.027914
  17 H :    0.027529
  18 H :    0.021285
Sum of atomic charges:   -0.0000000

LOEWDIN ATOMIC CHARGES
----------------------
   0 C :   -0.064120
   1 C :   -0.029336
   2 C :   -0.083277
   3 C :    0.070052
   4 O :   -0.119423
   5 C :   -0.036926
   6 C :   -0.046726
   7 H :    0.027556
   8 H :    0.026169
   9 H :    0.023702
  10 H :    0.023466
  11 H :    0.022877
  12 H :    0.002340
  13 H :    0.020308
  14 H :    0.067006
  15 H :    0.025740
  16 H :    0.024603
  17 H :    0.025158
  18 H :    0.020830

  Mayer bond orders larger than 0.1
B(  0-C ,  1-C ) :   1.1274 B(  0-C ,  7-H ) :   0.9566 B(  0-C ,  8-H ) :   0.9632
B(  0-C ,  9-H ) :   0.9625 B(  1-C ,  2-C ) :   1.0593 B(  1-C , 10-H ) :   0.9167
B(  1-C , 11-H ) :   0.9115 B(  2-C ,  3-C ) :   1.0528 B(  2-C ,  5-C ) :   0.9543
B(  2-C ,  6-C ) :   0.9615 B(  3-C ,  4-O ) :   1.0696 B(  3-C , 12-H ) :   0.9075
B(  3-C , 13-H ) :   0.9256 B(  4-O , 14-H ) :   0.9803 B(  5-C ,  6-C ) :   1.0430
B(  5-C , 15-H ) :   0.9384 B(  5-C , 16-H ) :   0.9411 B(  6-C , 17-H ) :   0.9390
B(  6-C , 18-H ) :   0.9426

FINAL SINGLE POINT ENERGY      -310.413341442634

DIPOLE MOMENT
-------------
                                X             Y             Z
Electronic contribution:      2.92748       2.13995      -1.88559
Nuclear contribution   :     -3.37190      -2.09528       1.57389
                        -----------------------------------------
Total Dipole Moment    :     -0.44442       0.04467      -0.31169
                        -----------------------------------------
Magnitude (a.u.)       :      0.54466
Magnitude (Debye)      :      1.38442

                             ****ORCA TERMINATED NORMALLY****
TOTAL RUN TIME: 0 days 0 hours 0 minutes 8 seconds 469 msec
