                         Program Version 3.0.3 - RELEASE   -
|  1> ! RI PBE def2-SVP def2-SVP/J NBO PAL2
|  2> % maxcore 2000
|  3> % output
|  4>     # printlevel mini
|  5>     print[ P_Basis ] 0
|  6>     print[ P_SCFInfo ] 1
|  7>     print[ P_SCFIterInfo ] 1
|  8>     print[ P_OrbEn ] 0
|  9>     print[ P_Cartesian ] 0
| 10> end
| 11> *xyz 0 1
| 12>  C        0.8785880000    -0.2626120000    -0.1973030000
| 13>  C        2.3834920000    -0.1095060000    -0.0636260000
| 14>  C        2.9751860000     0.9560580000    -0.9865650000
| 15>  C        4.5097460000     1.0671090000    -0.8652460000
| 16>  O        4.8260560000     2.4245420000    -0.5043790000
| 17>  C        3.6493630000     3.0848750000    -0.4026230000
| 18>  C        2.5640300000     2.3672750000    -0.6603650000
| 19>  H        0.5026790000    -1.0545590000     0.4541770000
| 20>  H        0.5978110000    -0.5162630000    -1.2236300000
| 21>  H        0.3569170000     0.6590220000     0.0714870000
| 22>  H        2.8670540000    -1.0687250000    -0.2837030000
| 23>  H        2.6451840000     0.1419050000     0.9701960000
| 24>  H        2.6921740000     0.7015360000    -2.0165630000
| 25>  H        5.0297280000     0.8424390000    -1.7985670000
| 26>  H        4.9019080000     0.4143930000    -0.0797790000
| 27>  H        3.7368830000     4.1267120000    -0.1250100000
| 28>  H        1.5507200000     2.7373110000    -0.6414020000
| 29> *
| 30>
| 31>                          ****END OF INPUT****
 Total Charge           Charge          ....    0
 Multiplicity           Mult            ....    1
 Number of Electrons    NEL             ....   54
 Basis Dimension        Dim             ....  148

MULLIKEN ATOMIC CHARGES
-----------------------
   0 C :   -0.011130
   1 C :   -0.000414
   2 C :   -0.152694
   3 C :    0.283846
   4 O :   -0.290029
   5 C :    0.126717
   6 C :   -0.084845
   7 H :    0.021455
   8 H :    0.015262
   9 H :    0.022899
  10 H :    0.010151
  11 H :    0.013480
  12 H :    0.011911
  13 H :    0.018451
  14 H :    0.012885
  15 H :    0.007363
  16 H :   -0.005310
Sum of atomic charges:   -0.0000000

LOEWDIN ATOMIC CHARGES
----------------------
   0 C :   -0.065668
   1 C :   -0.042246
   2 C :   -0.048085
   3 C :    0.092409
   4 O :   -0.092324
   5 C :    0.039505
   6 C :   -0.118950
   7 H :    0.028221
   8 H :    0.024494
   9 H :    0.025187
  10 H :    0.021799
  11 H :    0.023548
  12 H :    0.025909
  13 H :    0.021016
  14 H :    0.019385
  15 H :    0.021910
  16 H :    0.023890

  Mayer bond orders larger than 0.1
B(  0-C ,  1-C ) :   1.1224 B(  0-C ,  7-H ) :   0.9602 B(  0-C ,  8-H ) :   0.9636
B(  0-C ,  9-H ) :   0.9637 B(  1-C ,  2-C ) :   1.0425 B(  1-C , 10-H ) :   0.9326
B(  1-C , 11-H ) :   0.9321 B(  2-C ,  3-C ) :   1.0609 B(  2-C ,  6-C ) :   1.0266
B(  2-C , 12-H ) :   0.8943 B(  3-C ,  4-O ) :   0.9652 B(  3-C , 13-H ) :   0.9354
B(  3-C , 14-H ) :   0.9381 B(  4-O ,  5-C ) :   1.1238 B(  4-O ,  6-C ) :   0.1244
B(  5-C ,  6-C ) :   1.7371 B(  5-C , 15-H ) :   0.9858 B(  6-C , 16-H ) :   0.9915

FINAL SINGLE POINT ENERGY      -309.221965897403

DIPOLE MOMENT
-------------
                                X             Y             Z
Electronic contribution:      5.61536       5.66077      -0.56031
Nuclear contribution   :     -5.88306      -5.96829       0.48412
                        -----------------------------------------
Total Dipole Moment    :     -0.26770      -0.30753      -0.07619
                        -----------------------------------------
Magnitude (a.u.)       :      0.41478
Magnitude (Debye)      :      1.05428

                             ****ORCA TERMINATED NORMALLY****
TOTAL RUN TIME: 0 days 0 hours 0 minutes 7 seconds 630 msec
