                         Program Version 3.0.3 - RELEASE   -
|  1> ! RI PBE def2-SVP def2-SVP/J NBO PAL2
|  2> % maxcore 2000
|  3> % output
|  4>     # printlevel mini
|  5>     print[ P_Basis ] 0
|  6>     print[ P_SCFInfo ] 1
|  7>     print[ P_SCFIterInfo ] 1
|  8>     print[ P_OrbEn ] 0
|  9>     print[ P_Cartesian ] 0
| 10> end
| 11> *xyz 0 1
| 12>  C        3.1128850000     0.5472340000    -1.1410530000
| 13>  C        2.5533970000    -0.0596980000     0.1339540000
| 14>  C        3.0920000000    -1.4388470000     0.4232870000
| 15>  C        2.5547500000    -2.1010200000     1.6942090000
| 16>  O        2.4028670000    -3.4674940000     1.3493200000
| 17>  C        2.8179240000    -3.6029400000     0.0117440000
| 18>  O        2.6848010000    -2.3518330000    -0.5847400000
| 19>  H        2.6958160000     1.5404920000    -1.3193180000
| 20>  H        2.8780750000    -0.0786550000    -2.0037020000
| 21>  H        4.2004090000     0.6476180000    -1.0862550000
| 22>  H        1.4619110000    -0.1274280000     0.0777480000
| 23>  H        2.7872840000     0.5811260000     0.9913790000
| 24>  H        4.1936180000    -1.4132590000     0.4550590000
| 25>  H        1.5779810000    -1.6921630000     1.9758030000
| 26>  H        3.2419610000    -1.9957040000     2.5393480000
| 27>  H        2.1739100000    -4.3184770000    -0.5034020000
| 28>  H        3.8687010000    -3.9391510000    -0.0212690000
| 29> *
| 30>
| 31>                          ****END OF INPUT****
 Total Charge           Charge          ....    0
 Multiplicity           Mult            ....    1
 Number of Electrons    NEL             ....   56
 Basis Dimension        Dim             ....  148

MULLIKEN ATOMIC CHARGES
-----------------------
   0 C :   -0.008553
   1 C :   -0.007937
   2 C :   -0.034132
   3 C :    0.271926
   4 O :   -0.367598
   5 C :    0.348124
   6 O :   -0.330461
   7 H :    0.020674
   8 H :    0.034119
   9 H :    0.018829
  10 H :    0.021791
  11 H :    0.020000
  12 H :   -0.000402
  13 H :   -0.001787
  14 H :    0.007864
  15 H :    0.022843
  16 H :   -0.015301
Sum of atomic charges:   -0.0000000

LOEWDIN ATOMIC CHARGES
----------------------
   0 C :   -0.065144
   1 C :   -0.051254
   2 C :    0.034962
   3 C :    0.058693
   4 O :   -0.162316
   5 C :    0.137398
   6 O :   -0.136855
   7 H :    0.028094
   8 H :    0.030893
   9 H :    0.026335
  10 H :    0.030108
  11 H :    0.031592
  12 H :    0.008432
  13 H :    0.012970
  14 H :    0.014835
  15 H :    0.014002
  16 H :   -0.012744

  Mayer bond orders larger than 0.1
B(  0-C ,  1-C ) :   1.1263 B(  0-C ,  7-H ) :   0.9593 B(  0-C ,  8-H ) :   0.9643
B(  0-C ,  9-H ) :   0.9625 B(  1-C ,  2-C ) :   1.0666 B(  1-C , 10-H ) :   0.9160
B(  1-C , 11-H ) :   0.9279 B(  2-C ,  3-C ) :   1.0635 B(  2-C ,  6-O ) :   1.0002
B(  2-C , 12-H ) :   0.9019 B(  3-C ,  4-O ) :   1.0140 B(  3-C , 13-H ) :   0.9268
B(  3-C , 14-H ) :   0.9245 B(  4-O ,  5-C ) :   1.0301 B(  5-C ,  6-O ) :   1.0565
B(  5-C , 15-H ) :   0.9504 B(  5-C , 16-H ) :   0.9291

FINAL SINGLE POINT ENERGY      -346.292382781229

DIPOLE MOMENT
-------------
                                X             Y             Z
Electronic contribution:     -1.24457      -6.27921       1.51417
Nuclear contribution   :      1.51543       6.73377      -1.42349
                        -----------------------------------------
Total Dipole Moment    :      0.27087       0.45456       0.09068
                        -----------------------------------------
Magnitude (a.u.)       :      0.53686
Magnitude (Debye)      :      1.36459

                             ****ORCA TERMINATED NORMALLY****
TOTAL RUN TIME: 0 days 0 hours 0 minutes 7 seconds 12 msec
