                         Program Version 3.0.3 - RELEASE   -
|  1> ! RI PBE def2-SVP def2-SVP/J NBO PAL2
|  2> % maxcore 2000
|  3> % output
|  4>     # printlevel mini
|  5>     print[ P_Basis ] 0
|  6>     print[ P_SCFInfo ] 1
|  7>     print[ P_SCFIterInfo ] 1
|  8>     print[ P_OrbEn ] 0
|  9>     print[ P_Cartesian ] 0
| 10> end
| 11> *xyz 0 1
| 12>  C        2.4800510000    -0.6962920000    -0.9239220000
| 13>  C        2.0995780000     0.1677760000     0.0051880000
| 14>  C        2.9972030000     1.1923360000     0.6057530000
| 15>  C        2.5665770000     2.6357520000     0.3346520000
| 16>  O        2.9872980000     3.3165920000     1.4946490000
| 17>  C        2.7242530000     2.4172710000     2.5288490000
| 18>  O        2.9738040000     1.1229060000     2.0305760000
| 19>  H        1.7881210000    -1.4093260000    -1.3561330000
| 20>  H        3.5035480000    -0.7212070000    -1.2854340000
| 21>  H        1.0744170000     0.1700000000     0.3695570000
| 22>  H        4.0268340000     1.0330250000     0.2635610000
| 23>  H        1.4752500000     2.7002910000     0.2145320000
| 24>  H        3.0526010000     3.0780260000    -0.5338770000
| 25>  H        1.6727170000     2.4905680000     2.8517470000
| 26>  H        3.3937260000     2.6321820000     3.3650210000
| 27> *
| 28>
| 29>                          ****END OF INPUT****
 Total Charge           Charge          ....    0
 Multiplicity           Mult            ....    1
 Number of Electrons    NEL             ....   54
 Basis Dimension        Dim             ....  138

MULLIKEN ATOMIC CHARGES
-----------------------
   0 C :   -0.029857
   1 C :   -0.012180
   2 C :    0.071821
   3 C :    0.215413
   4 O :   -0.340645
   5 C :    0.356613
   6 O :   -0.352487
   7 H :    0.031297
   8 H :    0.023718
   9 H :   -0.001742
  10 H :    0.000881
  11 H :    0.000072
  12 H :    0.025796
  13 H :   -0.012171
  14 H :    0.023470
Sum of atomic charges:   -0.0000000

LOEWDIN ATOMIC CHARGES
----------------------
   0 C :   -0.049230
   1 C :   -0.036850
   2 C :    0.039685
   3 C :    0.059706
   4 O :   -0.136532
   5 C :    0.142242
   6 O :   -0.156458
   7 H :    0.028337
   8 H :    0.024355
   9 H :    0.026601
  10 H :    0.017597
  11 H :    0.009230
  12 H :    0.028324
  13 H :   -0.010390
  14 H :    0.013381

  Mayer bond orders larger than 0.1
B(  0-C ,  1-C ) :   1.9818 B(  0-C ,  7-H ) :   0.9414 B(  0-C ,  8-H ) :   0.9492
B(  1-C ,  2-C ) :   1.0172 B(  1-C ,  9-H ) :   0.9414 B(  2-C ,  3-C ) :   1.0565
B(  2-C ,  6-O ) :   0.9895 B(  2-C , 10-H ) :   0.9112 B(  3-C ,  4-O ) :   1.0089
B(  3-C , 11-H ) :   0.9219 B(  3-C , 12-H ) :   0.9377 B(  4-O ,  5-C ) :   1.0508
B(  5-C ,  6-O ) :   1.0184 B(  5-C , 13-H ) :   0.9303 B(  5-C , 14-H ) :   0.9495

FINAL SINGLE POINT ENERGY      -345.065555299711

DIPOLE MOMENT
-------------
                                X             Y             Z
Electronic contribution:      1.24664       1.84896       2.75343
Nuclear contribution   :     -1.48644      -1.84754      -3.14472
                        -----------------------------------------
Total Dipole Moment    :     -0.23980       0.00143      -0.39129
                        -----------------------------------------
Magnitude (a.u.)       :      0.45893
Magnitude (Debye)      :      1.16651

                             ****ORCA TERMINATED NORMALLY****
TOTAL RUN TIME: 0 days 0 hours 0 minutes 6 seconds 302 msec
