                         Program Version 3.0.3 - RELEASE   -
|  1> ! RI PBE def2-SVP def2-SVP/J NBO PAL2
|  2> % maxcore 2000
|  3> % output
|  4>     # printlevel mini
|  5>     print[ P_Basis ] 0
|  6>     print[ P_SCFInfo ] 1
|  7>     print[ P_SCFIterInfo ] 1
|  8>     print[ P_OrbEn ] 0
|  9>     print[ P_Cartesian ] 0
| 10> end
| 11> *xyz 0 1
| 12>  C        2.1325510000     0.5031800000    -0.9970340000
| 13>  C        2.6508830000    -0.1195520000     0.0623380000
| 14>  C        3.2882910000     0.5382020000     1.1632290000
| 15>  C        3.8434630000     0.0492210000     2.2726400000
| 16>  O        4.3399860000     1.0454750000     3.0615610000
| 17>  C        4.0612450000     2.2546100000     2.3680880000
| 18>  O        3.3953090000     1.9132940000     1.1687150000
| 19>  H        1.6635330000    -0.0556630000    -1.7964880000
| 20>  H        2.1659600000     1.5819760000    -1.0874070000
| 21>  H        2.6100000000    -1.2017120000     0.1391820000
| 22>  H        3.9546030000    -0.9622190000     2.6242580000
| 23>  H        5.0023170000     2.7691780000     2.1397600000
| 24>  H        3.4153590000     2.8891210000     2.9867680000
| 25> *
| 26>
| 27>                          ****END OF INPUT****
 Total Charge           Charge          ....    0
 Multiplicity           Mult            ....    1
 Number of Electrons    NEL             ....   52
 Basis Dimension        Dim             ....  128

MULLIKEN ATOMIC CHARGES
-----------------------
   0 C :   -0.033491
   1 C :   -0.017908
   2 C :    0.101149
   3 C :    0.058250
   4 O :   -0.280926
   5 C :    0.349390
   6 O :   -0.297263
   7 H :    0.021700
   8 H :    0.030428
   9 H :   -0.004495
  10 H :    0.016796
  11 H :    0.027770
  12 H :    0.028601
Sum of atomic charges:    0.0000000

LOEWDIN ATOMIC CHARGES
----------------------
   0 C :   -0.060384
   1 C :   -0.052657
   2 C :   -0.014935
   3 C :    0.000419
   4 O :   -0.086383
   5 C :    0.178123
   6 O :   -0.100076
   7 H :    0.025425
   8 H :    0.026548
   9 H :    0.037179
  10 H :    0.029588
  11 H :    0.008574
  12 H :    0.008579

  Mayer bond orders larger than 0.1
B(  0-C ,  1-C ) :   1.8598 B(  0-C ,  3-C ) :   0.1384 B(  0-C ,  7-H ) :   0.9355
B(  0-C ,  8-H ) :   0.9496 B(  1-C ,  2-C ) :   1.1790 B(  1-C ,  9-H ) :   0.9474
B(  2-C ,  3-C ) :   1.5988 B(  2-C ,  6-O ) :   1.0665 B(  3-C ,  4-O ) :   1.0671
B(  3-C , 10-H ) :   0.9835 B(  4-O ,  5-C ) :   0.9981 B(  5-C ,  6-O ) :   1.0153
B(  5-C , 11-H ) :   0.9445 B(  5-C , 12-H ) :   0.9448

FINAL SINGLE POINT ENERGY      -343.862397047900

DIPOLE MOMENT
-------------
                                X             Y             Z
Electronic contribution:      1.63457       0.42404       2.99487
Nuclear contribution   :     -1.53786      -0.50316      -2.80934
                        -----------------------------------------
Total Dipole Moment    :      0.09672      -0.07913       0.18553
                        -----------------------------------------
Magnitude (a.u.)       :      0.22369
Magnitude (Debye)      :      0.56858

                             ****ORCA TERMINATED NORMALLY****
TOTAL RUN TIME: 0 days 0 hours 0 minutes 6 seconds 280 msec
