                         Program Version 3.0.3 - RELEASE   -
|  1> ! RI PBE def2-SVP def2-SVP/J NBO PAL2
|  2> % maxcore 2000
|  3> % output
|  4>     # printlevel mini
|  5>     print[ P_Basis ] 0
|  6>     print[ P_SCFInfo ] 1
|  7>     print[ P_SCFIterInfo ] 1
|  8>     print[ P_OrbEn ] 0
|  9>     print[ P_Cartesian ] 0
| 10> end
| 11> *xyz 0 1
| 12>  C        1.0130090000    -0.1513870000     0.2807590000
| 13>  C        2.2011920000    -0.0664120000     0.1358880000
| 14>  C        3.6400470000     0.0688420000    -0.0446700000
| 15>  C        4.2644920000     1.1399780000     0.8826470000
| 16>  O        5.4590050000     0.5368700000     1.3180430000
| 17>  C        5.1318250000    -0.8162240000     1.4184580000
| 18>  O        4.3489830000    -1.1182580000     0.2908420000
| 19>  H       -0.0404760000    -0.2378590000     0.4073720000
| 20>  H        3.8495650000     0.2891930000    -1.0962080000
| 21>  H        3.5950640000     1.3486060000     1.7258060000
| 22>  H        4.5022590000     2.0675140000     0.3637500000
| 23>  H        4.5615010000    -1.0094920000     2.3420420000
| 24>  H        6.0435430000    -1.4139710000     1.3937800000
| 25> *
| 26>
| 27>                          ****END OF INPUT****
 Total Charge           Charge          ....    0
 Multiplicity           Mult            ....    1
 Number of Electrons    NEL             ....   52
 Basis Dimension        Dim             ....  128

MULLIKEN ATOMIC CHARGES
-----------------------
   0 C :   -0.490111
   1 C :    0.406253
   2 C :    0.077514
   3 C :    0.202282
   4 O :   -0.336164
   5 C :    0.347591
   6 O :   -0.331093
   7 H :    0.006594
   8 H :    0.037880
   9 H :    0.022054
  10 H :    0.031387
  11 H :   -0.007273
  12 H :    0.033087
Sum of atomic charges:   -0.0000000

LOEWDIN ATOMIC CHARGES
----------------------
   0 C :   -0.062510
   1 C :   -0.034399
   2 C :    0.031048
   3 C :    0.065850
   4 O :   -0.132500
   5 C :    0.140171
   6 O :   -0.140200
   7 H :    0.037534
   8 H :    0.039352
   9 H :    0.015847
  10 H :    0.029466
  11 H :   -0.008765
  12 H :    0.019106

  Mayer bond orders larger than 0.1
B(  0-C ,  1-C ) :   2.3390 B(  0-C ,  7-H ) :   1.1002 B(  1-C ,  2-C ) :   0.9207
B(  1-C ,  7-H ) :  -0.1104 B(  2-C ,  3-C ) :   1.0526 B(  2-C ,  6-O ) :   1.0523
B(  2-C ,  8-H ) :   0.8842 B(  3-C ,  4-O ) :   1.0221 B(  3-C ,  9-H ) :   0.9395
B(  3-C , 10-H ) :   0.9357 B(  4-O ,  5-C ) :   1.0499 B(  5-C ,  6-O ) :   1.0239
B(  5-C , 11-H ) :   0.9280 B(  5-C , 12-H ) :   0.9522

FINAL SINGLE POINT ENERGY      -343.818029830760

DIPOLE MOMENT
-------------
                                X             Y             Z
Electronic contribution:      0.08710      -0.99322      -1.08450
Nuclear contribution   :     -0.35406       1.32558       1.20741
                        -----------------------------------------
Total Dipole Moment    :     -0.26697       0.33236       0.12291
                        -----------------------------------------
Magnitude (a.u.)       :      0.44367
Magnitude (Debye)      :      1.12772

                             ****ORCA TERMINATED NORMALLY****
TOTAL RUN TIME: 0 days 0 hours 0 minutes 5 seconds 889 msec
