                         Program Version 3.0.3 - RELEASE   -
|  1> ! RI PBE def2-SVP def2-SVP/J NBO PAL2
|  2> % maxcore 2000
|  3> % output
|  4>     # printlevel mini
|  5>     print[ P_Basis ] 0
|  6>     print[ P_SCFInfo ] 1
|  7>     print[ P_SCFIterInfo ] 1
|  8>     print[ P_OrbEn ] 0
|  9>     print[ P_Cartesian ] 0
| 10> end
| 11> *xyz 0 1
| 12>  C        1.0543370000     0.0941590000     0.0076060000
| 13>  C        2.2543750000     0.0321600000    -0.0497530000
| 14>  C        3.6535510000    -0.0312100000    -0.1173600000
| 15>  C        4.4849560000    -1.0715180000    -0.0752090000
| 16>  O        5.7797740000    -0.6704690000    -0.1754760000
| 17>  C        5.7385240000     0.7490430000    -0.2900460000
| 18>  O        4.3801900000     1.1402210000    -0.2513050000
| 19>  H       -0.0074250000     0.1458110000     0.0586230000
| 20>  H        4.2907290000    -2.1256880000     0.0214570000
| 21>  H        6.1877570000     1.0488950000    -1.2441170000
| 22>  H        6.2814440000     1.1964860000     0.5507800000
| 23> *
| 24>
| 25>                          ****END OF INPUT****
 Total Charge           Charge          ....    0
 Multiplicity           Mult            ....    1
 Number of Electrons    NEL             ....   50
 Basis Dimension        Dim             ....  118

MULLIKEN ATOMIC CHARGES
-----------------------
   0 C :   -0.458821
   1 C :    0.452249
   2 C :    0.035296
   3 C :    0.089424
   4 O :   -0.272054
   5 C :    0.348894
   6 O :   -0.291083
   7 H :    0.010634
   8 H :    0.024508
   9 H :    0.028929
  10 H :    0.032025
Sum of atomic charges:   -0.0000000

LOEWDIN ATOMIC CHARGES
----------------------
   0 C :   -0.046248
   1 C :   -0.030699
   2 C :   -0.034350
   3 C :    0.018784
   4 O :   -0.080586
   5 C :    0.180340
   6 O :   -0.098712
   7 H :    0.037829
   8 H :    0.034345
   9 H :    0.009322
  10 H :    0.009975

  Mayer bond orders larger than 0.1
B(  0-C ,  1-C ) :   2.2016 B(  0-C ,  3-C ) :   0.1179 B(  0-C ,  7-H ) :   1.0922
B(  1-C ,  2-C ) :   0.9693 B(  1-C ,  7-H ) :  -0.1027 B(  2-C ,  3-C ) :   1.6386
B(  2-C ,  4-O ) :   0.1065 B(  2-C ,  6-O ) :   1.0624 B(  3-C ,  4-O ) :   1.0788
B(  3-C ,  8-H ) :   0.9895 B(  4-O ,  5-C ) :   0.9906 B(  5-C ,  6-O ) :   1.0146
B(  5-C ,  9-H ) :   0.9446 B(  5-C , 10-H ) :   0.9452

FINAL SINGLE POINT ENERGY      -342.610814445480

DIPOLE MOMENT
-------------
                                X             Y             Z
Electronic contribution:     -0.52542      -0.21488       0.05008
Nuclear contribution   :      0.67834       0.05716      -0.04043
                        -----------------------------------------
Total Dipole Moment    :      0.15292      -0.15772       0.00964
                        -----------------------------------------
Magnitude (a.u.)       :      0.21990
Magnitude (Debye)      :      0.55894

                             ****ORCA TERMINATED NORMALLY****
TOTAL RUN TIME: 0 days 0 hours 0 minutes 5 seconds 746 msec
