                         Program Version 3.0.3 - RELEASE   -
|  1> ! RI PBE def2-SVP def2-SVP/J NBO PAL2
|  2> % maxcore 2000
|  3> % output
|  4>     # printlevel mini
|  5>     print[ P_Basis ] 0
|  6>     print[ P_SCFInfo ] 1
|  7>     print[ P_SCFIterInfo ] 1
|  8>     print[ P_OrbEn ] 0
|  9>     print[ P_Cartesian ] 0
| 10> end
| 11> *xyz 0 1
| 12>  C        1.0834380000     0.0671610000     0.1060600000
| 13>  C        2.5671220000    -0.0878600000    -0.0358630000
| 14>  C        3.2087810000     0.1479320000    -1.1727360000
| 15>  C        2.6430040000     0.5921040000    -2.4862620000
| 16>  O        3.7585090000     0.6876730000    -3.3460630000
| 17>  C        4.9166780000     0.3369290000    -2.6422310000
| 18>  O        4.5542680000     0.0129810000    -1.3212190000
| 19>  H        0.7651890000    -0.1764510000     1.1199760000
| 20>  H        0.5281610000    -0.5918470000    -0.5703400000
| 21>  H        0.7492490000     1.0905570000    -0.0967160000
| 22>  H        3.1493830000    -0.4057230000     0.8213110000
| 23>  H        2.1436960000     1.5652370000    -2.4078840000
| 24>  H        1.9209230000    -0.1302780000    -2.8852750000
| 25>  H        5.6172220000     1.1811600000    -2.6246240000
| 26>  H        5.3908880000    -0.5360770000    -3.1078540000
| 27> *
| 28>
| 29>                          ****END OF INPUT****
 Total Charge           Charge          ....    0
 Multiplicity           Mult            ....    1
 Number of Electrons    NEL             ....   54
 Basis Dimension        Dim             ....  138

MULLIKEN ATOMIC CHARGES
-----------------------
   0 C :    0.027915
   1 C :   -0.153536
   2 C :   -0.038526
   3 C :    0.263064
   4 O :   -0.357781
   5 C :    0.352410
   6 O :   -0.269829
   7 H :    0.021270
   8 H :    0.031575
   9 H :    0.028539
  10 H :   -0.007357
  11 H :    0.029290
  12 H :    0.032286
  13 H :    0.022130
  14 H :    0.018550
Sum of atomic charges:   -0.0000000

LOEWDIN ATOMIC CHARGES
----------------------
   0 C :   -0.065816
   1 C :   -0.118958
   2 C :    0.000238
   3 C :    0.063141
   4 O :   -0.150979
   5 C :    0.160663
   6 O :   -0.076062
   7 H :    0.034548
   8 H :    0.030904
   9 H :    0.030145
  10 H :    0.029379
  11 H :    0.025828
  12 H :    0.026288
  13 H :    0.005667
  14 H :    0.005014

  Mayer bond orders larger than 0.1
B(  0-C ,  1-C ) :   1.0817 B(  0-C ,  7-H ) :   0.9552 B(  0-C ,  8-H ) :   0.9531
B(  0-C ,  9-H ) :   0.9529 B(  1-C ,  2-C ) :   1.8476 B(  1-C , 10-H ) :   0.9366
B(  2-C ,  3-C ) :   1.0377 B(  2-C ,  6-O ) :   1.1130 B(  3-C ,  4-O ) :   1.0022
B(  3-C , 11-H ) :   0.9145 B(  3-C , 12-H ) :   0.9154 B(  4-O ,  5-C ) :   1.0359
B(  5-C ,  6-O ) :   0.9993 B(  5-C , 13-H ) :   0.9429 B(  5-C , 14-H ) :   0.9420

FINAL SINGLE POINT ENERGY      -345.075994010040

DIPOLE MOMENT
-------------
                                X             Y             Z
Electronic contribution:      5.25094       0.10730      -2.83354
Nuclear contribution   :     -5.44644      -0.06646       2.77482
                        -----------------------------------------
Total Dipole Moment    :     -0.19550       0.04083      -0.05872
                        -----------------------------------------
Magnitude (a.u.)       :      0.20818
Magnitude (Debye)      :      0.52914

                             ****ORCA TERMINATED NORMALLY****
TOTAL RUN TIME: 0 days 0 hours 0 minutes 7 seconds 5 msec
