                         Program Version 3.0.3 - RELEASE   -
|  1> ! RI PBE def2-SVP def2-SVP/J NBO PAL2
|  2> % maxcore 2000
|  3> % output
|  4>     # printlevel mini
|  5>     print[ P_Basis ] 0
|  6>     print[ P_SCFInfo ] 1
|  7>     print[ P_SCFIterInfo ] 1
|  8>     print[ P_OrbEn ] 0
|  9>     print[ P_Cartesian ] 0
| 10> end
| 11> *xyz 0 1
| 12>  C        1.6114710000     0.8258770000     1.0509160000
| 13>  C        2.3907310000    -0.0983090000     0.1205000000
| 14>  C        3.0014170000    -1.2521820000     0.8112810000
| 15>  C        2.8698240000    -2.5666360000     0.6807630000
| 16>  O        3.7364300000    -3.2310370000     1.5247930000
| 17>  C        4.1438610000    -2.2248920000     2.4268280000
| 18>  O        3.9662060000    -0.9876290000     1.7682670000
| 19>  H        1.2037460000     1.6750830000     0.4985360000
| 20>  H        2.2562450000     1.2135630000     1.8413550000
| 21>  H        0.7819910000     0.2942410000     1.5221500000
| 22>  H        3.1880190000     0.4702860000    -0.3733610000
| 23>  H        1.7419130000    -0.4824030000    -0.6706510000
| 24>  H        2.2686730000    -3.1606080000     0.0139870000
| 25>  H        5.1934840000    -2.3610730000     2.6889160000
| 26>  H        3.4996080000    -2.2543740000     3.3224300000
| 27> *
| 28>
| 29>                          ****END OF INPUT****
 Total Charge           Charge          ....    0
 Multiplicity           Mult            ....    1
 Number of Electrons    NEL             ....   54
 Basis Dimension        Dim             ....  138

MULLIKEN ATOMIC CHARGES
-----------------------
   0 C :   -0.027210
   1 C :    0.077608
   2 C :   -0.004948
   3 C :    0.042182
   4 O :   -0.289971
   5 C :    0.352284
   6 O :   -0.298173
   7 H :    0.021301
   8 H :    0.036728
   9 H :    0.019350
  10 H :    0.027243
  11 H :    0.009812
  12 H :    0.007928
  13 H :    0.030321
  14 H :   -0.004455
Sum of atomic charges:   -0.0000000

LOEWDIN ATOMIC CHARGES
----------------------
   0 C :   -0.061613
   1 C :   -0.044932
   2 C :   -0.015654
   3 C :   -0.023971
   4 O :   -0.105729
   5 C :    0.165434
   6 O :   -0.107065
   7 H :    0.027358
   8 H :    0.029723
   9 H :    0.026176
  10 H :    0.039499
  11 H :    0.038553
  12 H :    0.024615
  13 H :    0.015152
  14 H :   -0.007546

  Mayer bond orders larger than 0.1
B(  0-C ,  1-C ) :   1.1001 B(  0-C ,  7-H ) :   0.9599 B(  0-C ,  8-H ) :   0.9686
B(  0-C ,  9-H ) :   0.9665 B(  1-C ,  2-C ) :   1.0926 B(  1-C , 10-H ) :   0.9002
B(  1-C , 11-H ) :   0.9193 B(  2-C ,  3-C ) :   1.7139 B(  2-C ,  4-O ) :   0.1007
B(  2-C ,  6-O ) :   1.0480 B(  3-C ,  4-O ) :   1.0352 B(  3-C , 12-H ) :   0.9875
B(  4-O ,  5-C ) :   1.0276 B(  5-C ,  6-O ) :   1.0192 B(  5-C , 13-H ) :   0.9561
B(  5-C , 14-H ) :   0.9231

FINAL SINGLE POINT ENERGY      -345.078647480719

DIPOLE MOMENT
-------------
                                X             Y             Z
Electronic contribution:      4.20750      -5.65532       0.81272
Nuclear contribution   :     -4.47064       5.85180      -0.89224
                        -----------------------------------------
Total Dipole Moment    :     -0.26314       0.19649      -0.07952
                        -----------------------------------------
Magnitude (a.u.)       :      0.33790
Magnitude (Debye)      :      0.85886

                             ****ORCA TERMINATED NORMALLY****
TOTAL RUN TIME: 0 days 0 hours 0 minutes 6 seconds 716 msec
