                         Program Version 3.0.3 - RELEASE   -
|  1> ! RI PBE def2-SVP def2-SVP/J NBO PAL2
|  2> % maxcore 2000
|  3> % output
|  4>     # printlevel mini
|  5>     print[ P_Basis ] 0
|  6>     print[ P_SCFInfo ] 1
|  7>     print[ P_SCFIterInfo ] 1
|  8>     print[ P_OrbEn ] 0
|  9>     print[ P_Cartesian ] 0
| 10> end
| 11> *xyz 0 1
| 12>  C        1.1207620000     0.7158980000    -0.0360600000
| 13>  C        2.5576700000     0.2449820000     0.1311070000
| 14>  C        2.7268080000    -0.7832630000     1.2182890000
| 15>  C        2.5520290000    -0.3248340000     2.6425230000
| 16>  O        3.5143800000     0.6409630000     3.0000520000
| 17>  C        2.5748810000    -2.2040870000     0.9151280000
| 18>  O        3.8671430000    -1.6387090000     1.0666440000
| 19>  H        1.0416650000     1.4252590000    -0.8622270000
| 20>  H        0.7524750000     1.2196860000     0.8604930000
| 21>  H        0.4499930000    -0.1206280000    -0.2495970000
| 22>  H        3.2056950000     1.0962800000     0.3603430000
| 23>  H        2.9247130000    -0.1934760000    -0.8007540000
| 24>  H        2.5998460000    -1.1983340000     3.3054790000
| 25>  H        1.5760280000     0.1471520000     2.7787270000
| 26>  H        4.3798780000     0.2368720000     2.8832620000
| 27>  H        2.3181280000    -2.5032110000    -0.0988230000
| 28>  H        2.2765960000    -2.8998380000     1.6965050000
| 29> *
| 30>
| 31>                          ****END OF INPUT****
 Total Charge           Charge          ....    0
 Multiplicity           Mult            ....    1
 Number of Electrons    NEL             ....   56
 Basis Dimension        Dim             ....  148

MULLIKEN ATOMIC CHARGES
-----------------------
   0 C :   -0.035811
   1 C :    0.113023
   2 C :   -0.288089
   3 C :    0.334783
   4 O :   -0.286775
   5 C :    0.189031
   6 O :   -0.300675
   7 H :    0.029326
   8 H :    0.030732
   9 H :    0.015863
  10 H :    0.015033
  11 H :   -0.001303
  12 H :   -0.017621
  13 H :    0.002626
  14 H :    0.160682
  15 H :    0.019627
  16 H :    0.019549
Sum of atomic charges:   -0.0000000

LOEWDIN ATOMIC CHARGES
----------------------
   0 C :   -0.065517
   1 C :   -0.040462
   2 C :   -0.013883
   3 C :    0.059019
   4 O :   -0.114859
   5 C :    0.061271
   6 O :   -0.161665
   7 H :    0.031729
   8 H :    0.026548
   9 H :    0.024712
  10 H :    0.030197
  11 H :    0.029621
  12 H :    0.009962
  13 H :    0.022972
  14 H :    0.072549
  15 H :    0.014786
  16 H :    0.013021

  Mayer bond orders larger than 0.1
B(  0-C ,  1-C ) :   1.1153 B(  0-C ,  7-H ) :   0.9570 B(  0-C ,  8-H ) :   0.9644
B(  0-C ,  9-H ) :   0.9630 B(  1-C ,  2-C ) :   1.0465 B(  1-C , 10-H ) :   0.9115
B(  1-C , 11-H ) :   0.9073 B(  2-C ,  3-C ) :   1.0311 B(  2-C ,  5-C ) :   1.0777
B(  2-C ,  6-O ) :   0.9171 B(  3-C ,  4-O ) :   1.0560 B(  3-C , 12-H ) :   0.9009
B(  3-C , 13-H ) :   0.9218 B(  4-O , 14-H ) :   0.9766 B(  5-C ,  6-O ) :   1.0157
B(  5-C , 15-H ) :   0.9243 B(  5-C , 16-H ) :   0.9170

FINAL SINGLE POINT ENERGY      -346.269360959282

DIPOLE MOMENT
-------------
                                X             Y             Z
Electronic contribution:      4.86027      -2.01310       2.76933
Nuclear contribution   :     -5.34197       1.70003      -2.98053
                        -----------------------------------------
Total Dipole Moment    :     -0.48169      -0.31307      -0.21120
                        -----------------------------------------
Magnitude (a.u.)       :      0.61208
Magnitude (Debye)      :      1.55579

                             ****ORCA TERMINATED NORMALLY****
TOTAL RUN TIME: 0 days 0 hours 0 minutes 7 seconds 560 msec
