                         Program Version 3.0.3 - RELEASE   -
|  1> ! RI PBE def2-SVP def2-SVP/J NBO PAL2
|  2> % maxcore 2000
|  3> % output
|  4>     # printlevel mini
|  5>     print[ P_Basis ] 0
|  6>     print[ P_SCFInfo ] 1
|  7>     print[ P_SCFIterInfo ] 1
|  8>     print[ P_OrbEn ] 0
|  9>     print[ P_Cartesian ] 0
| 10> end
| 11> *xyz 0 1
| 12>  C        1.2323320000    -0.1670090000    -0.3823000000
| 13>  C        2.7000050000     0.2219070000    -0.4682630000
| 14>  C        3.1452320000     1.0140750000     0.7245330000
| 15>  O        4.3809170000     1.7090190000     0.6182610000
| 16>  C        3.1888620000     2.4746030000     0.7367700000
| 17>  C        3.0164310000     3.2847430000     1.9867540000
| 18>  C        1.5828010000     3.7580780000     2.1694200000
| 19>  H        0.9302290000    -0.7581630000    -1.2490010000
| 20>  H        0.5905910000     0.7168630000    -0.3396860000
| 21>  H        1.0313700000    -0.7652180000     0.5107060000
| 22>  H        2.8921590000     0.8108960000    -1.3700320000
| 23>  H        3.3216900000    -0.6769240000    -0.5447730000
| 24>  H        3.0064700000     0.5198310000     1.6886560000
| 25>  H        2.9043160000     2.9811630000    -0.1881590000
| 26>  H        3.6923690000     4.1458170000     1.9431190000
| 27>  H        3.3364730000     2.6808500000     2.8411000000
| 28>  H        1.2562550000     4.3716340000     1.3252540000
| 29>  H        1.4794130000     4.3610310000     3.0736640000
| 30>  H        0.8942640000     2.9129120000     2.2499760000
| 31> *
| 32>
| 33>                          ****END OF INPUT****
 Total Charge           Charge          ....    0
 Multiplicity           Mult            ....    1
 Number of Electrons    NEL             ....   56
 Basis Dimension        Dim             ....  158

MULLIKEN ATOMIC CHARGES
-----------------------
   0 C :   -0.047293
   1 C :    0.078552
   2 C :    0.004041
   3 O :   -0.276396
   4 C :    0.008782
   5 C :    0.073658
   6 C :   -0.047462
   7 H :    0.028027
   8 H :    0.025776
   9 H :    0.024241
  10 H :    0.001600
  11 H :    0.019974
  12 H :    0.002571
  13 H :    0.001127
  14 H :    0.022180
  15 H :    0.002032
  16 H :    0.024055
  17 H :    0.028197
  18 H :    0.026338
Sum of atomic charges:   -0.0000000

LOEWDIN ATOMIC CHARGES
----------------------
   0 C :   -0.066315
   1 C :   -0.050190
   2 C :    0.038087
   3 O :   -0.152951
   4 C :    0.038612
   5 C :   -0.050908
   6 C :   -0.066528
   7 H :    0.029908
   8 H :    0.026142
   9 H :    0.026165
  10 H :    0.029268
  11 H :    0.032137
  12 H :    0.011132
  13 H :    0.010980
  14 H :    0.032757
  15 H :    0.029352
  16 H :    0.025984
  17 H :    0.030032
  18 H :    0.026336

  Mayer bond orders larger than 0.1
B(  0-C ,  1-C ) :   1.1010 B(  0-C ,  7-H ) :   0.9598 B(  0-C ,  8-H ) :   0.9669
B(  0-C ,  9-H ) :   0.9680 B(  1-C ,  2-C ) :   1.0488 B(  1-C , 10-H ) :   0.9172
B(  1-C , 11-H ) :   0.9184 B(  2-C ,  3-O ) :   0.9957 B(  2-C ,  4-C ) :   1.0504
B(  2-C , 12-H ) :   0.9234 B(  3-O ,  4-C ) :   0.9955 B(  4-C ,  5-C ) :   1.0526
B(  4-C , 13-H ) :   0.9218 B(  5-C ,  6-C ) :   1.1016 B(  5-C , 14-H ) :   0.9178
B(  5-C , 15-H ) :   0.9174 B(  6-C , 16-H ) :   0.9675 B(  6-C , 17-H ) :   0.9593
B(  6-C , 18-H ) :   0.9669

FINAL SINGLE POINT ENERGY      -310.416437117603

DIPOLE MOMENT
-------------
                                X             Y             Z
Electronic contribution:      6.32909      -0.18441      -0.58521
Nuclear contribution   :     -7.02433       0.20438       0.65037
                        -----------------------------------------
Total Dipole Moment    :     -0.69523       0.01997       0.06517
                        -----------------------------------------
Magnitude (a.u.)       :      0.69857
Magnitude (Debye)      :      1.77562

                             ****ORCA TERMINATED NORMALLY****
TOTAL RUN TIME: 0 days 0 hours 0 minutes 8 seconds 118 msec
