                         Program Version 3.0.3 - RELEASE   -
|  1> ! RI PBE def2-SVP def2-SVP/J NBO PAL2
|  2> % maxcore 2000
|  3> % output
|  4>     # printlevel mini
|  5>     print[ P_Basis ] 0
|  6>     print[ P_SCFInfo ] 1
|  7>     print[ P_SCFIterInfo ] 1
|  8>     print[ P_OrbEn ] 0
|  9>     print[ P_Cartesian ] 0
| 10> end
| 11> *xyz 0 1
| 12>  C        1.3399120000     1.1412370000     0.3675470000
| 13>  C        1.5517440000     0.1172220000    -0.4482720000
| 14>  C        2.7230110000     0.0115780000    -1.3292880000
| 15>  O        3.2873660000    -1.2917220000    -1.4881150000
| 16>  C        2.6635340000    -0.6919230000    -2.6142930000
| 17>  C        3.5375760000    -0.3401120000    -3.7569540000
| 18>  C        3.7915890000     0.8978120000    -4.1537540000
| 19>  H        0.4577100000     1.1958860000     0.9935550000
| 20>  H        2.0444980000     1.9642960000     0.4348990000
| 21>  H        0.8454730000    -0.7079000000    -0.4963570000
| 22>  H        3.4631170000     0.8037600000    -1.2306390000
| 23>  H        1.7167920000    -1.1650000000    -2.8813500000
| 24>  H        3.9649230000    -1.1835940000    -4.2950970000
| 25>  H        3.3701340000     1.7558620000    -3.6403670000
| 26>  H        4.4255010000     1.0978960000    -5.0098050000
| 27> *
| 28>
| 29>                          ****END OF INPUT****
 Total Charge           Charge          ....    0
 Multiplicity           Mult            ....    1
 Number of Electrons    NEL             ....   52
 Basis Dimension        Dim             ....  138

MULLIKEN ATOMIC CHARGES
-----------------------
   0 C :   -0.029842
   1 C :    0.035054
   2 C :    0.038460
   3 O :   -0.274370
   4 C :    0.108451
   5 C :   -0.017205
   6 C :   -0.030732
   7 H :    0.028160
   8 H :    0.022600
   9 H :    0.000042
  10 H :    0.009826
  11 H :    0.025990
  12 H :    0.021351
  13 H :    0.027447
  14 H :    0.034768
Sum of atomic charges:   -0.0000000

LOEWDIN ATOMIC CHARGES
----------------------
   0 C :   -0.051433
   1 C :   -0.035710
   2 C :    0.044720
   3 O :   -0.142173
   4 C :    0.045145
   5 C :   -0.036557
   6 C :   -0.039669
   7 H :    0.028806
   8 H :    0.024899
   9 H :    0.032482
  10 H :    0.021272
  11 H :    0.020779
  12 H :    0.034011
  13 H :    0.024971
  14 H :    0.028460

  Mayer bond orders larger than 0.1
B(  0-C ,  1-C ) :   1.9549 B(  0-C ,  7-H ) :   0.9342 B(  0-C ,  8-H ) :   0.9528
B(  1-C ,  2-C ) :   1.0591 B(  1-C ,  9-H ) :   0.9408 B(  2-C ,  3-O ) :   0.9657
B(  2-C ,  4-C ) :   1.0108 B(  2-C , 10-H ) :   0.9381 B(  3-O ,  4-C ) :   0.9581
B(  4-C ,  5-C ) :   1.0250 B(  4-C , 11-H ) :   0.9057 B(  5-C ,  6-C ) :   2.0090
B(  5-C , 12-H ) :   0.9478 B(  6-C , 13-H ) :   0.9496 B(  6-C , 14-H ) :   0.9449

FINAL SINGLE POINT ENERGY      -307.964262768153

DIPOLE MOMENT
-------------
                                X             Y             Z
Electronic contribution:      0.98655      -3.29142       0.45823
Nuclear contribution   :     -1.29691       3.76247      -0.80172
                        -----------------------------------------
Total Dipole Moment    :     -0.31036       0.47104      -0.34349
                        -----------------------------------------
Magnitude (a.u.)       :      0.66045
Magnitude (Debye)      :      1.67872

                             ****ORCA TERMINATED NORMALLY****
TOTAL RUN TIME: 0 days 0 hours 0 minutes 6 seconds 389 msec
