                         Program Version 3.0.3 - RELEASE   -
|  1> ! RI PBE def2-SVP def2-SVP/J NBO PAL2
|  2> % maxcore 2000
|  3> % output
|  4>     # printlevel mini
|  5>     print[ P_Basis ] 0
|  6>     print[ P_SCFInfo ] 1
|  7>     print[ P_SCFIterInfo ] 1
|  8>     print[ P_OrbEn ] 0
|  9>     print[ P_Cartesian ] 0
| 10> end
| 11> *xyz 0 1
| 12>  C        2.1173780000    -0.6665060000    -0.5916850000
| 13>  C        2.0584200000     0.1662800000     0.4377820000
| 14>  C        3.1008700000     1.1624870000     0.7500130000
| 15>  O        4.2009890000     1.2638120000    -0.1273580000
| 16>  C        3.3003070000     2.3633910000    -0.0906060000
| 17>  C        3.7800470000     3.5997000000     0.4584480000
| 18>  C        4.1578120000     4.6482700000     0.9040940000
| 19>  H        1.3259680000    -1.3806190000    -0.7829340000
| 20>  H        2.9668760000    -0.6573630000    -1.2653630000
| 21>  H        1.2154270000     0.1433710000     1.1236090000
| 22>  H        3.3578960000     1.2738280000     1.8027930000
| 23>  H        2.6712180000     2.4529010000    -0.9735850000
| 24>  H        4.5010240000     5.5741480000     1.3018020000
| 25> *
| 26>
| 27>                          ****END OF INPUT****
 Total Charge           Charge          ....    0
 Multiplicity           Mult            ....    1
 Number of Electrons    NEL             ....   50
 Basis Dimension        Dim             ....  128

MULLIKEN ATOMIC CHARGES
-----------------------
   0 C :   -0.028006
   1 C :   -0.042369
   2 C :    0.109805
   3 O :   -0.244707
   4 C :    0.025720
   5 C :    0.435945
   6 C :   -0.434577
   7 H :    0.032400
   8 H :    0.039813
   9 H :    0.013939
  10 H :    0.031366
  11 H :    0.048897
  12 H :    0.011775
Sum of atomic charges:    0.0000000

LOEWDIN ATOMIC CHARGES
----------------------
   0 C :   -0.042081
   1 C :   -0.050910
   2 C :    0.057209
   3 O :   -0.119783
   4 C :    0.043491
   5 C :   -0.031017
   6 C :   -0.050377
   7 H :    0.028640
   8 H :    0.028361
   9 H :    0.033971
  10 H :    0.027577
  11 H :    0.035839
  12 H :    0.039080

  Mayer bond orders larger than 0.1
B(  0-C ,  1-C ) :   1.9792 B(  0-C ,  7-H ) :   0.9438 B(  0-C ,  8-H ) :   0.9426
B(  1-C ,  2-C ) :   1.0415 B(  1-C ,  9-H ) :   0.9497 B(  2-C ,  3-O ) :   0.9942
B(  2-C ,  4-C ) :   1.0041 B(  2-C , 10-H ) :   0.9195 B(  3-O ,  4-C ) :   1.0112
B(  4-C ,  5-C ) :   0.9493 B(  4-C , 11-H ) :   0.9178 B(  5-C ,  6-C ) :   2.3250
B(  6-C , 12-H ) :   1.0856

FINAL SINGLE POINT ENERGY      -306.720548070362

DIPOLE MOMENT
-------------
                                X             Y             Z
Electronic contribution:      2.67544       2.98476       0.41134
Nuclear contribution   :     -3.22709      -2.81341      -0.16640
                        -----------------------------------------
Total Dipole Moment    :     -0.55165       0.17136       0.24495
                        -----------------------------------------
Magnitude (a.u.)       :      0.62744
Magnitude (Debye)      :      1.59483

                             ****ORCA TERMINATED NORMALLY****
TOTAL RUN TIME: 0 days 0 hours 0 minutes 6 seconds 332 msec
