                         Program Version 3.0.3 - RELEASE   -
|  1> ! RI PBE def2-SVP def2-SVP/J NBO PAL2
|  2> % maxcore 2000
|  3> % output
|  4>     # printlevel mini
|  5>     print[ P_Basis ] 0
|  6>     print[ P_SCFInfo ] 1
|  7>     print[ P_SCFIterInfo ] 1
|  8>     print[ P_OrbEn ] 0
|  9>     print[ P_Cartesian ] 0
| 10> end
| 11> *xyz 0 1
| 12>  C        0.9780290000    -0.0206750000     0.0293850000
| 13>  C        2.1767540000     0.0281840000     0.0502150000
| 14>  C        3.6093950000     0.0925920000     0.1099450000
| 15>  O        4.3459960000    -0.5892420000    -0.8925200000
| 16>  C        4.3820650000     0.8287480000    -0.9127640000
| 17>  C        5.6212780000     1.4729310000    -0.5817550000
| 18>  C        6.6487820000     2.0350170000    -0.3208770000
| 19>  H       -0.0852700000    -0.0680590000     0.0033670000
| 20>  H        4.0430230000     0.0293320000     1.1052020000
| 21>  H        3.8192330000     1.2794040000    -1.7268260000
| 22>  H        7.5640050000     2.5262590000    -0.0872620000
| 23> *
| 24>
| 25>                          ****END OF INPUT****
 Total Charge           Charge          ....    0
 Multiplicity           Mult            ....    1
 Number of Electrons    NEL             ....   48
 Basis Dimension        Dim             ....  118

MULLIKEN ATOMIC CHARGES
-----------------------
   0 C :   -0.430233
   1 C :    0.437514
   2 C :    0.039084
   3 O :   -0.232189
   4 C :    0.040735
   5 C :    0.436839
   6 C :   -0.432150
   7 H :    0.013493
   8 H :    0.056219
   9 H :    0.055931
  10 H :    0.014757
Sum of atomic charges:   -0.0000000

LOEWDIN ATOMIC CHARGES
----------------------
   0 C :   -0.042441
   1 C :   -0.031105
   2 C :    0.050388
   3 O :   -0.112996
   4 C :    0.050597
   5 C :   -0.031191
   6 C :   -0.043472
   7 H :    0.039735
   8 H :    0.040058
   9 H :    0.040020
  10 H :    0.040407

  Mayer bond orders larger than 0.1
B(  0-C ,  1-C ) :   2.3271 B(  0-C ,  7-H ) :   1.0901 B(  1-C ,  2-C ) :   0.9451
B(  2-C ,  3-O ) :   1.0064 B(  2-C ,  4-C ) :   0.9983 B(  2-C ,  8-H ) :   0.9232
B(  3-O ,  4-C ) :   1.0079 B(  4-C ,  5-C ) :   0.9414 B(  4-C ,  9-H ) :   0.9245
B(  5-C ,  6-C ) :   2.3264 B(  6-C , 10-H ) :   1.0863

FINAL SINGLE POINT ENERGY      -305.471402911331

DIPOLE MOMENT
-------------
                                X             Y             Z
Electronic contribution:      0.34284      -1.03128      -0.48003
Nuclear contribution   :     -0.52563       1.57566       0.73699
                        -----------------------------------------
Total Dipole Moment    :     -0.18279       0.54438       0.25695
                        -----------------------------------------
Magnitude (a.u.)       :      0.62911
Magnitude (Debye)      :      1.59907

                             ****ORCA TERMINATED NORMALLY****
TOTAL RUN TIME: 0 days 0 hours 0 minutes 5 seconds 285 msec
