                         Program Version 3.0.3 - RELEASE   -
|  1> ! RI PBE def2-SVP def2-SVP/J NBO PAL2
|  2> % maxcore 2000
|  3> % output
|  4>     # printlevel mini
|  5>     print[ P_Basis ] 0
|  6>     print[ P_SCFInfo ] 1
|  7>     print[ P_SCFIterInfo ] 1
|  8>     print[ P_OrbEn ] 0
|  9>     print[ P_Cartesian ] 0
| 10> end
| 11> *xyz 0 1
| 12>  C        2.1284580000     1.1167560000    -0.5694140000
| 13>  C        2.3245710000    -0.2084410000     0.1520570000
| 14>  C        2.9216640000    -1.2509160000    -0.7462990000
| 15>  O        2.8864080000    -2.6057230000    -0.3167040000
| 16>  C        2.1750540000    -2.2601340000    -1.5082230000
| 17>  C        0.6797900000    -2.3813390000    -1.4252170000
| 18>  C        2.7823190000    -2.8111080000    -2.7689800000
| 19>  H        1.7393350000     1.8801350000     0.1071360000
| 20>  H        1.4250890000     1.0153270000    -1.3998160000
| 21>  H        3.0716390000     1.4885770000    -0.9789980000
| 22>  H        1.3787930000    -0.5662270000     0.5635330000
| 23>  H        2.9970510000    -0.0718410000     1.0061630000
| 24>  H        3.8864200000    -0.9585980000    -1.1693330000
| 25>  H        0.2919270000    -2.0082190000    -0.4787430000
| 26>  H        0.3886760000    -3.4314990000    -1.5164090000
| 27>  H        0.2028300000    -1.8322730000    -2.2415580000
| 28>  H        3.8688010000    -2.7166540000    -2.7475310000
| 29>  H        2.4022780000    -2.2826460000    -3.6473690000
| 30>  H        2.5325960000    -3.8700780000    -2.8799250000
| 31> *
| 32>
| 33>                          ****END OF INPUT****
 Total Charge           Charge          ....    0
 Multiplicity           Mult            ....    1
 Number of Electrons    NEL             ....   56
 Basis Dimension        Dim             ....  158

MULLIKEN ATOMIC CHARGES
-----------------------
   0 C :   -0.045618
   1 C :    0.080261
   2 C :    0.038324
   3 O :   -0.285381
   4 C :   -0.175969
   5 C :    0.110802
   6 C :    0.090754
   7 H :    0.027572
   8 H :    0.027219
   9 H :    0.022092
  10 H :   -0.007732
  11 H :    0.021681
  12 H :   -0.007754
  13 H :    0.005758
  14 H :    0.020115
  15 H :    0.020644
  16 H :    0.017877
  17 H :    0.017880
  18 H :    0.021474
Sum of atomic charges:   -0.0000000

LOEWDIN ATOMIC CHARGES
----------------------
   0 C :   -0.065090
   1 C :   -0.051635
   2 C :    0.042210
   3 O :   -0.157419
   4 C :    0.008660
   5 C :   -0.058401
   6 C :   -0.059285
   7 H :    0.029712
   8 H :    0.026215
   9 H :    0.026061
  10 H :    0.025624
  11 H :    0.033502
  12 H :    0.009460
  13 H :    0.028633
  14 H :    0.033518
  15 H :    0.032564
  16 H :    0.032206
  17 H :    0.031576
  18 H :    0.031887

  Mayer bond orders larger than 0.1
B(  0-C ,  1-C ) :   1.1020 B(  0-C ,  7-H ) :   0.9588 B(  0-C ,  8-H ) :   0.9690
B(  0-C ,  9-H ) :   0.9655 B(  1-C ,  2-C ) :   1.0664 B(  1-C , 10-H ) :   0.9098
B(  1-C , 11-H ) :   0.9145 B(  2-C ,  3-O ) :   0.9802 B(  2-C ,  4-C ) :   1.0328
B(  2-C , 12-H ) :   0.9174 B(  3-O ,  4-C ) :   0.9674 B(  4-C ,  5-C ) :   1.0852
B(  4-C ,  6-C ) :   1.0724 B(  5-C , 13-H ) :   0.9348 B(  5-C , 14-H ) :   0.9456
B(  5-C , 15-H ) :   0.9502 B(  6-C , 16-H ) :   0.9404 B(  6-C , 17-H ) :   0.9515
B(  6-C , 18-H ) :   0.9468

FINAL SINGLE POINT ENERGY      -310.420991641431

DIPOLE MOMENT
-------------
                                X             Y             Z
Electronic contribution:      2.52343      -3.69844       2.40830
Nuclear contribution   :     -2.79791       4.17767      -2.83943
                        -----------------------------------------
Total Dipole Moment    :     -0.27448       0.47923      -0.43113
                        -----------------------------------------
Magnitude (a.u.)       :      0.70062
Magnitude (Debye)      :      1.78085

                             ****ORCA TERMINATED NORMALLY****
TOTAL RUN TIME: 0 days 0 hours 0 minutes 8 seconds 302 msec
