                         Program Version 3.0.3 - RELEASE   -
|  1> ! RI PBE def2-SVP def2-SVP/J NBO PAL2
|  2> % maxcore 2000
|  3> % output
|  4>     # printlevel mini
|  5>     print[ P_Basis ] 0
|  6>     print[ P_SCFInfo ] 1
|  7>     print[ P_SCFIterInfo ] 1
|  8>     print[ P_OrbEn ] 0
|  9>     print[ P_Cartesian ] 0
| 10> end
| 11> *xyz 0 1
| 12>  C        3.3028850000    -1.1350350000     0.4734250000
| 13>  C        2.3782440000     0.0129850000     0.0990500000
| 14>  C        3.1173720000     1.1480280000    -0.5446780000
| 15>  O        2.4465860000     2.3896010000    -0.6446640000
| 16>  C        3.5819060000     2.3110460000     0.2202080000
| 17>  C        4.7651440000     3.0846390000    -0.1774770000
| 18>  C        5.5586110000     3.7106870000     0.6816530000
| 19>  H        2.7445250000    -1.9578110000     0.9239030000
| 20>  H        4.0634830000    -0.8138980000     1.1894410000
| 21>  H        3.8210960000    -1.5300440000    -0.4045260000
| 22>  H        1.8541830000     0.3926940000     0.9810630000
| 23>  H        1.6067670000    -0.3375920000    -0.5953430000
| 24>  H        3.6902860000     0.8859490000    -1.4364890000
| 25>  H        3.3337740000     2.3391880000     1.2812150000
| 26>  H        4.9682350000     3.1208410000    -1.2450520000
| 27>  H        5.3599830000     3.6952320000     1.7487940000
| 28>  H        6.4334100000     4.2577000000     0.3519580000
| 29> *
| 30>
| 31>                          ****END OF INPUT****
 Total Charge           Charge          ....    0
 Multiplicity           Mult            ....    1
 Number of Electrons    NEL             ....   54
 Basis Dimension        Dim             ....  148

MULLIKEN ATOMIC CHARGES
-----------------------
   0 C :   -0.040892
   1 C :    0.060951
   2 C :    0.025895
   3 O :   -0.272774
   4 C :    0.056651
   5 C :    0.037667
   6 C :   -0.026323
   7 H :    0.029030
   8 H :    0.028548
   9 H :    0.023901
  10 H :    0.003414
  11 H :    0.026258
  12 H :    0.005556
  13 H :   -0.000359
  14 H :   -0.003530
  15 H :    0.022078
  16 H :    0.023931
Sum of atomic charges:   -0.0000000

LOEWDIN ATOMIC CHARGES
----------------------
   0 C :   -0.064773
   1 C :   -0.050625
   2 C :    0.045897
   3 O :   -0.144929
   4 C :    0.040433
   5 C :   -0.035244
   6 C :   -0.053493
   7 H :    0.030616
   8 H :    0.027663
   9 H :    0.027191
  10 H :    0.030204
  11 H :    0.033567
  12 H :    0.012477
  13 H :    0.017656
  14 H :    0.031809
  15 H :    0.024069
  16 H :    0.027483

  Mayer bond orders larger than 0.1
B(  0-C ,  1-C ) :   1.1017 B(  0-C ,  7-H ) :   0.9593 B(  0-C ,  8-H ) :   0.9698
B(  0-C ,  9-H ) :   0.9657 B(  1-C ,  2-C ) :   1.0545 B(  1-C , 10-H ) :   0.9151
B(  1-C , 11-H ) :   0.9222 B(  2-C ,  3-O ) :   0.9835 B(  2-C ,  4-C ) :   1.0003
B(  2-C , 12-H ) :   0.9253 B(  3-O ,  4-C ) :   0.9680 B(  4-C ,  5-C ) :   1.0671
B(  4-C , 13-H ) :   0.9303 B(  5-C ,  6-C ) :   1.9536 B(  5-C , 14-H ) :   0.9419
B(  6-C , 15-H ) :   0.9524 B(  6-C , 16-H ) :   0.9330

FINAL SINGLE POINT ENERGY      -309.193182725465

DIPOLE MOMENT
-------------
                                X             Y             Z
Electronic contribution:     -1.66110       5.14929      -2.22185
Nuclear contribution   :      2.05873      -5.66606       2.46540
                        -----------------------------------------
Total Dipole Moment    :      0.39763      -0.51677       0.24356
                        -----------------------------------------
Magnitude (a.u.)       :      0.69605
Magnitude (Debye)      :      1.76921

                             ****ORCA TERMINATED NORMALLY****
TOTAL RUN TIME: 0 days 0 hours 0 minutes 7 seconds 150 msec
