                         Program Version 3.0.3 - RELEASE   -
|  1> ! RI PBE def2-SVP def2-SVP/J NBO PAL2
|  2> % maxcore 2000
|  3> % output
|  4>     # printlevel mini
|  5>     print[ P_Basis ] 0
|  6>     print[ P_SCFInfo ] 1
|  7>     print[ P_SCFIterInfo ] 1
|  8>     print[ P_OrbEn ] 0
|  9>     print[ P_Cartesian ] 0
| 10> end
| 11> *xyz 0 1
| 12>  C        2.2326810000     1.3742810000    -0.2535270000
| 13>  C        2.4139660000    -0.0935260000     0.1008890000
| 14>  C        2.9099980000    -0.8990440000    -1.0615550000
| 15>  O        2.7900090000    -2.3065320000    -0.9815620000
| 16>  C        1.9917200000    -1.6283140000    -1.9477970000
| 17>  C        2.2909150000    -1.8559290000    -3.3340970000
| 18>  C        2.5125520000    -2.0386490000    -4.4995980000
| 19>  H        1.8947530000     1.9462690000     0.6124370000
| 20>  H        1.4943290000     1.5021120000    -1.0488910000
| 21>  H        3.1702780000     1.8185730000    -0.5977200000
| 22>  H        1.4737120000    -0.5282400000     0.4526070000
| 23>  H        3.1319200000    -0.1963380000     0.9217770000
| 24>  H        3.8463260000    -0.5650460000    -1.5094610000
| 25>  H        0.9307150000    -1.5987180000    -1.7052420000
| 26>  H        2.7178460000    -2.2047870000    -5.5307310000
| 27> *
| 28>
| 29>                          ****END OF INPUT****
 Total Charge           Charge          ....    0
 Multiplicity           Mult            ....    1
 Number of Electrons    NEL             ....   52
 Basis Dimension        Dim             ....  138

MULLIKEN ATOMIC CHARGES
-----------------------
   0 C :   -0.035851
   1 C :    0.050095
   2 C :    0.034575
   3 O :   -0.253169
   4 C :    0.010593
   5 C :    0.451994
   6 C :   -0.451842
   7 H :    0.030894
   8 H :    0.029602
   9 H :    0.027235
  10 H :    0.004524
  11 H :    0.032016
  12 H :    0.018671
  13 H :    0.041726
  14 H :    0.008938
Sum of atomic charges:    0.0000000

LOEWDIN ATOMIC CHARGES
----------------------
   0 C :   -0.063263
   1 C :   -0.051545
   2 C :    0.058421
   3 O :   -0.131675
   4 C :    0.029722
   5 C :   -0.028443
   6 C :   -0.058083
   7 H :    0.031527
   8 H :    0.028367
   9 H :    0.028353
  10 H :    0.030766
  11 H :    0.036059
  12 H :    0.019773
  13 H :    0.032454
  14 H :    0.037567

  Mayer bond orders larger than 0.1
B(  0-C ,  1-C ) :   1.1033 B(  0-C ,  7-H ) :   0.9581 B(  0-C ,  8-H ) :   0.9688
B(  0-C ,  9-H ) :   0.9660 B(  1-C ,  2-C ) :   1.0497 B(  1-C , 10-H ) :   0.9135
B(  1-C , 11-H ) :   0.9217 B(  2-C ,  3-O ) :   0.9799 B(  2-C ,  4-C ) :   1.0229
B(  2-C , 12-H ) :   0.9304 B(  3-O ,  4-C ) :   1.0210 B(  4-C ,  5-C ) :   0.9403
B(  4-C , 13-H ) :   0.9172 B(  5-C ,  6-C ) :   2.3151 B(  6-C , 14-H ) :   1.0895

FINAL SINGLE POINT ENERGY      -307.944711366670

DIPOLE MOMENT
-------------
                                X             Y             Z
Electronic contribution:      0.73848      -7.11345      -4.34537
Nuclear contribution   :     -0.90125       7.83291       4.32304
                        -----------------------------------------
Total Dipole Moment    :     -0.16276       0.71946      -0.02233
                        -----------------------------------------
Magnitude (a.u.)       :      0.73798
Magnitude (Debye)      :      1.87579

                             ****ORCA TERMINATED NORMALLY****
TOTAL RUN TIME: 0 days 0 hours 0 minutes 6 seconds 590 msec
