                         Program Version 3.0.3 - RELEASE   -
|  1> ! RI PBE def2-SVP def2-SVP/J NBO PAL2
|  2> % maxcore 2000
|  3> % output
|  4>     # printlevel mini
|  5>     print[ P_Basis ] 0
|  6>     print[ P_SCFInfo ] 1
|  7>     print[ P_SCFIterInfo ] 1
|  8>     print[ P_OrbEn ] 0
|  9>     print[ P_Cartesian ] 0
| 10> end
| 11> *xyz 0 1
| 12>  C        2.1910860000     0.9875900000     0.0538670000
| 13>  C        2.2975310000    -0.5185070000     0.2378620000
| 14>  C        3.1007290000    -1.1641190000    -0.8513130000
| 15>  O        3.0012300000    -2.5760430000    -0.9807450000
| 16>  C        2.4820770000    -1.7601820000    -2.0319960000
| 17>  C        3.2014240000    -1.8893720000    -3.3380430000
| 18>  O        2.9084810000    -3.1117910000    -3.9760140000
| 19>  H        1.6197540000     1.4421880000     0.8652750000
| 20>  H        1.6936710000     1.2378680000    -0.8865950000
| 21>  H        3.1781380000     1.4576610000     0.0423700000
| 22>  H        1.3049390000    -0.9773280000     0.2593820000
| 23>  H        2.7688320000    -0.7458040000     1.2000560000
| 24>  H        4.1196150000    -0.7885180000    -0.9624180000
| 25>  H        1.3937080000    -1.7675610000    -2.0925120000
| 26>  H        4.2807930000    -1.7758560000    -3.1679470000
| 27>  H        2.8808080000    -1.0990780000    -4.0221740000
| 28>  H        3.1472930000    -3.8170570000    -3.3667640000
| 29> *
| 30>
| 31>                          ****END OF INPUT****
 Total Charge           Charge          ....    0
 Multiplicity           Mult            ....    1
 Number of Electrons    NEL             ....   56
 Basis Dimension        Dim             ....  148

MULLIKEN ATOMIC CHARGES
-----------------------
   0 C :   -0.035417
   1 C :    0.068038
   2 C :    0.021612
   3 O :   -0.288702
   4 C :   -0.051692
   5 C :    0.288449
   6 O :   -0.292651
   7 H :    0.029877
   8 H :    0.023855
   9 H :    0.023256
  10 H :    0.004429
  11 H :    0.020224
  12 H :    0.006428
  13 H :    0.019772
  14 H :   -0.011029
  15 H :    0.013799
  16 H :    0.159751
Sum of atomic charges:   -0.0000000

LOEWDIN ATOMIC CHARGES
----------------------
   0 C :   -0.063265
   1 C :   -0.049353
   2 C :    0.044550
   3 O :   -0.161847
   4 C :    0.016499
   5 C :    0.047003
   6 O :   -0.119661
   7 H :    0.030958
   8 H :    0.026496
   9 H :    0.026507
  10 H :    0.030610
  11 H :    0.032407
  12 H :    0.012590
  13 H :    0.016861
  14 H :    0.009960
  15 H :    0.027450
  16 H :    0.072234

  Mayer bond orders larger than 0.1
B(  0-C ,  1-C ) :   1.1025 B(  0-C ,  7-H ) :   0.9600 B(  0-C ,  8-H ) :   0.9687
B(  0-C ,  9-H ) :   0.9664 B(  1-C ,  2-C ) :   1.0515 B(  1-C , 10-H ) :   0.9168
B(  1-C , 11-H ) :   0.9209 B(  2-C ,  3-O ) :   0.9876 B(  2-C ,  4-C ) :   1.0210
B(  2-C , 12-H ) :   0.9181 B(  3-O ,  4-C ) :   0.9660 B(  4-C ,  5-C ) :   1.0522
B(  4-C , 13-H ) :   0.9232 B(  5-C ,  6-O ) :   1.0494 B(  5-C , 14-H ) :   0.9101
B(  5-C , 15-H ) :   0.9241 B(  6-O , 16-H ) :   0.9822

FINAL SINGLE POINT ENERGY      -346.269979784825

DIPOLE MOMENT
-------------
                                X             Y             Z
Electronic contribution:      1.07572      -6.66798      -3.15364
Nuclear contribution   :     -1.01020       7.33357       3.54265
                        -----------------------------------------
Total Dipole Moment    :      0.06552       0.66558       0.38901
                        -----------------------------------------
Magnitude (a.u.)       :      0.77371
Magnitude (Debye)      :      1.96661

                             ****ORCA TERMINATED NORMALLY****
TOTAL RUN TIME: 0 days 0 hours 0 minutes 7 seconds 147 msec
