                         Program Version 3.0.3 - RELEASE   -
|  1> ! RI PBE def2-SVP def2-SVP/J NBO PAL2
|  2> % maxcore 2000
|  3> % output
|  4>     # printlevel mini
|  5>     print[ P_Basis ] 0
|  6>     print[ P_SCFInfo ] 1
|  7>     print[ P_SCFIterInfo ] 1
|  8>     print[ P_OrbEn ] 0
|  9>     print[ P_Cartesian ] 0
| 10> end
| 11> *xyz 0 1
| 12>  C        2.1372170000     1.2401340000     0.7073790000
| 13>  C        1.8865250000     0.3743670000    -0.2649580000
| 14>  C        2.8743190000     0.0120350000    -1.2897380000
| 15>  O        2.8670160000    -1.3214060000    -1.7636270000
| 16>  C        2.4418700000    -0.3172430000    -2.6660590000
| 17>  C        3.3762290000    -0.0164320000    -3.7794710000
| 18>  O        3.0388180000     0.4870020000    -4.8143480000
| 19>  H        1.3853480000     1.4986980000     1.4425830000
| 20>  H        3.1044810000     1.7236960000     0.7996320000
| 21>  H        0.9187280000    -0.1132670000    -0.3447660000
| 22>  H        3.8702270000     0.4365290000    -1.1642960000
| 23>  H        1.3816890000    -0.2959280000    -2.9065520000
| 24>  H        4.4324420000    -0.2917870000    -3.5688990000
| 25> *
| 26>
| 27>                          ****END OF INPUT****
 Total Charge           Charge          ....    0
 Multiplicity           Mult            ....    1
 Number of Electrons    NEL             ....   52
 Basis Dimension        Dim             ....  128

MULLIKEN ATOMIC CHARGES
-----------------------
   0 C :   -0.021477
   1 C :    0.040696
   2 C :    0.065727
   3 O :   -0.249948
   4 C :    0.044623
   5 C :    0.165088
   6 O :   -0.145031
   7 H :    0.036788
   8 H :    0.028223
   9 H :    0.004270
  10 H :    0.014718
  11 H :    0.029205
  12 H :   -0.012882
Sum of atomic charges:   -0.0000000

LOEWDIN ATOMIC CHARGES
----------------------
   0 C :   -0.038258
   1 C :   -0.035294
   2 C :    0.059343
   3 O :   -0.117972
   4 C :    0.015022
   5 C :    0.075073
   6 O :   -0.095935
   7 H :    0.032806
   8 H :    0.027770
   9 H :    0.035677
  10 H :    0.021970
  11 H :    0.027006
  12 H :   -0.007207

  Mayer bond orders larger than 0.1
B(  0-C ,  1-C ) :   1.9515 B(  0-C ,  7-H ) :   0.9344 B(  0-C ,  8-H ) :   0.9531
B(  1-C ,  2-C ) :   1.0754 B(  1-C ,  9-H ) :   0.9398 B(  2-C ,  3-O ) :   0.9546
B(  2-C ,  4-C ) :   0.9249 B(  2-C , 10-H ) :   0.9363 B(  3-O ,  4-C ) :   0.9678
B(  4-C ,  5-C ) :   0.9667 B(  4-C , 11-H ) :   0.9320 B(  5-C ,  6-O ) :   2.1680
B(  5-C , 12-H ) :   0.9119

FINAL SINGLE POINT ENERGY      -343.848394610537

DIPOLE MOMENT
-------------
                                X             Y             Z
Electronic contribution:      0.80630      -2.16560      -5.05849
Nuclear contribution   :     -0.89054       2.46506       5.97239
                        -----------------------------------------
Total Dipole Moment    :     -0.08424       0.29946       0.91389
                        -----------------------------------------
Magnitude (a.u.)       :      0.96539
Magnitude (Debye)      :      2.45383

                             ****ORCA TERMINATED NORMALLY****
TOTAL RUN TIME: 0 days 0 hours 0 minutes 5 seconds 920 msec
