                         Program Version 3.0.3 - RELEASE   -
|  1> ! RI PBE def2-SVP def2-SVP/J NBO PAL2
|  2> % maxcore 2000
|  3> % output
|  4>     # printlevel mini
|  5>     print[ P_Basis ] 0
|  6>     print[ P_SCFInfo ] 1
|  7>     print[ P_SCFIterInfo ] 1
|  8>     print[ P_OrbEn ] 0
|  9>     print[ P_Cartesian ] 0
| 10> end
| 11> *xyz 0 1
| 12>  C        1.5573920000    -0.6726690000     0.0955500000
| 13>  C        2.6931310000     0.2489610000    -0.3210090000
| 14>  C        3.2251800000     1.0447170000     0.8329960000
| 15>  O        3.9987050000     2.1880070000     0.5509280000
| 16>  C        2.7157800000     2.3947100000     1.1286070000
| 17>  C        2.7216650000     2.8682710000     2.5337600000
| 18>  O        1.8122260000     3.4643850000     3.0412430000
| 19>  H        1.2010970000    -1.2586100000    -0.7533310000
| 20>  H        0.7111120000    -0.1057100000     0.4908140000
| 21>  H        1.8779240000    -1.3749360000     0.8694760000
| 22>  H        2.3675020000     0.9406750000    -1.1027050000
| 23>  H        3.5175700000    -0.3364450000    -0.7420460000
| 24>  H        3.5991010000     0.4609200000     1.6763950000
| 25>  H        1.9578970000     2.8273690000     0.4797570000
| 26>  H        3.6486180000     2.6144530000     3.0925660000
| 27> *
| 28>
| 29>                          ****END OF INPUT****
 Total Charge           Charge          ....    0
 Multiplicity           Mult            ....    1
 Number of Electrons    NEL             ....   54
 Basis Dimension        Dim             ....  138

MULLIKEN ATOMIC CHARGES
-----------------------
   0 C :   -0.032957
   1 C :    0.052291
   2 C :    0.018899
   3 O :   -0.254033
   4 C :    0.031394
   5 C :    0.165552
   6 O :   -0.150236
   7 H :    0.032199
   8 H :    0.031462
   9 H :    0.027707
  10 H :    0.013366
  11 H :    0.033443
  12 H :    0.019615
  13 H :    0.024987
  14 H :   -0.013689
Sum of atomic charges:   -0.0000000

LOEWDIN ATOMIC CHARGES
----------------------
   0 C :   -0.061860
   1 C :   -0.048525
   2 C :    0.058182
   3 O :   -0.124819
   4 C :    0.007258
   5 C :    0.074420
   6 O :   -0.100536
   7 H :    0.033065
   8 H :    0.029652
   9 H :    0.028391
  10 H :    0.033601
  11 H :    0.037209
  12 H :    0.016218
  13 H :    0.025635
  14 H :   -0.007891

  Mayer bond orders larger than 0.1
B(  0-C ,  1-C ) :   1.1020 B(  0-C ,  7-H ) :   0.9580 B(  0-C ,  8-H ) :   0.9693
B(  0-C ,  9-H ) :   0.9663 B(  1-C ,  2-C ) :   1.0560 B(  1-C , 10-H ) :   0.9175
B(  1-C , 11-H ) :   0.9229 B(  2-C ,  3-O ) :   0.9834 B(  2-C ,  4-C ) :   0.9654
B(  2-C , 12-H ) :   0.9292 B(  3-O ,  4-C ) :   0.9727 B(  4-C ,  5-C ) :   0.9706
B(  4-C , 13-H ) :   0.9304 B(  5-C ,  6-O ) :   2.1648 B(  5-C , 14-H ) :   0.9110

FINAL SINGLE POINT ENERGY      -345.072444256156

DIPOLE MOMENT
-------------
                                X             Y             Z
Electronic contribution:      2.31255       7.81417       4.16645
Nuclear contribution   :     -2.30302      -8.79253      -4.67345
                        -----------------------------------------
Total Dipole Moment    :      0.00954      -0.97836      -0.50700
                        -----------------------------------------
Magnitude (a.u.)       :      1.10197
Magnitude (Debye)      :      2.80099

                             ****ORCA TERMINATED NORMALLY****
TOTAL RUN TIME: 0 days 0 hours 0 minutes 6 seconds 653 msec
