                         Program Version 3.0.3 - RELEASE   -
|  1> ! RI PBE def2-SVP def2-SVP/J NBO PAL2
|  2> % maxcore 2000
|  3> % output
|  4>     # printlevel mini
|  5>     print[ P_Basis ] 0
|  6>     print[ P_SCFInfo ] 1
|  7>     print[ P_SCFIterInfo ] 1
|  8>     print[ P_OrbEn ] 0
|  9>     print[ P_Cartesian ] 0
| 10> end
| 11> *xyz 0 1
| 12>  C        2.1115360000    -1.4106300000     0.4659590000
| 13>  C        2.4635430000     0.0075080000     0.0477530000
| 14>  C        2.9304730000     0.0827500000    -1.3830820000
| 15>  O        3.2992140000     1.4154770000    -1.7821340000
| 16>  C        4.5297020000     0.9441100000    -2.3439000000
| 17>  C        4.3261140000    -0.4527720000    -1.7491340000
| 18>  C        4.4339350000    -1.6475010000    -2.6654710000
| 19>  H        1.7691320000    -1.4426610000     1.5020010000
| 20>  H        2.9752470000    -2.0765400000     0.3848240000
| 21>  H        1.3151020000    -1.8239020000    -0.1590140000
| 22>  H        3.2488870000     0.4155130000     0.6926880000
| 23>  H        1.5940800000     0.6638510000     0.1602270000
| 24>  H        2.1506240000    -0.3130260000    -2.0528370000
| 25>  H        5.3896420000     1.5223980000    -1.9934060000
| 26>  H        4.5075380000     0.9637300000    -3.4415340000
| 27>  H        4.9326250000    -0.5992280000    -0.8504510000
| 28>  H        3.8219280000    -1.5096030000    -3.5611440000
| 29>  H        4.0988690000    -2.5621740000    -2.1692570000
| 30>  H        5.4664170000    -1.8072300000    -2.9882890000
| 31> *
| 32>
| 33>                          ****END OF INPUT****
 Total Charge           Charge          ....    0
 Multiplicity           Mult            ....    1
 Number of Electrons    NEL             ....   56
 Basis Dimension        Dim             ....  158

MULLIKEN ATOMIC CHARGES
-----------------------
   0 C :   -0.037263
   1 C :    0.041750
   2 C :    0.105379
   3 O :   -0.347656
   4 C :    0.251947
   5 C :   -0.233664
   6 C :    0.076578
   7 H :    0.025309
   8 H :    0.025303
   9 H :    0.021127
  10 H :    0.000722
  11 H :    0.021740
  12 H :   -0.016882
  13 H :    0.008157
  14 H :   -0.001220
  15 H :    0.006723
  16 H :    0.014167
  17 H :    0.017389
  18 H :    0.020392
Sum of atomic charges:   -0.0000000

LOEWDIN ATOMIC CHARGES
----------------------
   0 C :   -0.066268
   1 C :   -0.054587
   2 C :    0.069569
   3 O :   -0.178801
   4 C :    0.086823
   5 C :   -0.059182
   6 C :   -0.060258
   7 H :    0.030444
   8 H :    0.024839
   9 H :    0.026053
  10 H :    0.023353
  11 H :    0.031537
  12 H :    0.005059
  13 H :    0.009001
  14 H :    0.005707
  15 H :    0.025186
  16 H :    0.024839
  17 H :    0.027612
  18 H :    0.029074

  Mayer bond orders larger than 0.1
B(  0-C ,  1-C ) :   1.1053 B(  0-C ,  7-H ) :   0.9570 B(  0-C ,  8-H ) :   0.9655
B(  0-C ,  9-H ) :   0.9626 B(  1-C ,  2-C ) :   1.0713 B(  1-C , 10-H ) :   0.9145
B(  1-C , 11-H ) :   0.9230 B(  2-C ,  3-O ) :   1.0454 B(  2-C ,  5-C ) :   1.0457
B(  2-C , 12-H ) :   0.9041 B(  3-O ,  4-C ) :   1.0322 B(  4-C ,  5-C ) :   1.0820
B(  4-C , 13-H ) :   0.9360 B(  4-C , 14-H ) :   0.9270 B(  5-C ,  6-C ) :   1.0816
B(  5-C , 15-H ) :   0.9001 B(  6-C , 16-H ) :   0.9483 B(  6-C , 17-H ) :   0.9583
B(  6-C , 18-H ) :   0.9541

FINAL SINGLE POINT ENERGY      -310.414966243281

DIPOLE MOMENT
-------------
                                X             Y             Z
Electronic contribution:      0.23546       5.60706      -1.49825
Nuclear contribution   :      0.03331      -6.24703       1.55518
                        -----------------------------------------
Total Dipole Moment    :      0.26878      -0.63996       0.05693
                        -----------------------------------------
Magnitude (a.u.)       :      0.69645
Magnitude (Debye)      :      1.77022

                             ****ORCA TERMINATED NORMALLY****
TOTAL RUN TIME: 0 days 0 hours 0 minutes 8 seconds 105 msec
