                         Program Version 3.0.3 - RELEASE   -
|  1> ! RI PBE def2-SVP def2-SVP/J NBO PAL2
|  2> % maxcore 2000
|  3> % output
|  4>     # printlevel mini
|  5>     print[ P_Basis ] 0
|  6>     print[ P_SCFInfo ] 1
|  7>     print[ P_SCFIterInfo ] 1
|  8>     print[ P_OrbEn ] 0
|  9>     print[ P_Cartesian ] 0
| 10> end
| 11> *xyz 0 1
| 12>  C        1.2916230000     0.7078730000     0.9828740000
| 13>  C        2.4261080000     0.1834920000     0.1200290000
| 14>  C        3.0528650000     1.1546880000    -0.8536050000
| 15>  O        4.1208070000     0.5792730000    -1.5561510000
| 16>  C        2.2451910000     2.1836260000    -1.5894720000
| 17>  C        3.2404550000     2.6015290000    -0.5331770000
| 18>  C        4.4975230000     3.3317760000    -0.9100550000
| 19>  H        0.9062400000    -0.0883720000     1.6230390000
| 20>  H        0.4561700000     1.0748000000     0.3820850000
| 21>  H        1.6184140000     1.5187520000     1.6374100000
| 22>  H        2.0644250000    -0.6770460000    -0.4588880000
| 23>  H        3.2308230000    -0.1984850000     0.7575370000
| 24>  H        3.7577390000    -0.0716900000    -2.1635670000
| 25>  H        1.1870590000     2.2862410000    -1.3817220000
| 26>  H        2.5294060000     2.3639470000    -2.6201060000
| 27>  H        2.7976770000     2.9222080000     0.4044090000
| 28>  H        4.9162420000     2.9345900000    -1.8348150000
| 29>  H        5.2596620000     3.2321860000    -0.1326220000
| 30>  H        4.2979720000     4.3976120000    -1.0500020000
| 31> *
| 32>
| 33>                          ****END OF INPUT****
 Total Charge           Charge          ....    0
 Multiplicity           Mult            ....    1
 Number of Electrons    NEL             ....   56
 Basis Dimension        Dim             ....  158

MULLIKEN ATOMIC CHARGES
-----------------------
   0 C :   -0.055354
   1 C :    0.087595
   2 C :   -0.066467
   3 O :   -0.236304
   4 C :    0.007648
   5 C :   -0.163452
   6 C :    0.081195
   7 H :    0.021169
   8 H :    0.024267
   9 H :    0.031128
  10 H :   -0.008551
  11 H :    0.015510
  12 H :    0.154964
  13 H :    0.023150
  14 H :    0.014886
  15 H :    0.012953
  16 H :    0.010252
  17 H :    0.026704
  18 H :    0.018707
Sum of atomic charges:    0.0000000

LOEWDIN ATOMIC CHARGES
----------------------
   0 C :   -0.067982
   1 C :   -0.047310
   2 C :    0.010223
   3 O :   -0.088519
   4 C :   -0.063708
   5 C :   -0.044999
   6 C :   -0.056458
   7 H :    0.031433
   8 H :    0.025144
   9 H :    0.026225
  10 H :    0.020581
  11 H :    0.029330
  12 H :    0.070691
  13 H :    0.021119
  14 H :    0.025635
  15 H :    0.023217
  16 H :    0.026840
  17 H :    0.030738
  18 H :    0.027801

  Mayer bond orders larger than 0.1
B(  0-C ,  1-C ) :   1.1087 B(  0-C ,  7-H ) :   0.9526 B(  0-C ,  8-H ) :   0.9614
B(  0-C ,  9-H ) :   0.9595 B(  1-C ,  2-C ) :   1.0428 B(  1-C , 10-H ) :   0.9149
B(  1-C , 11-H ) :   0.9246 B(  2-C ,  3-O ) :   1.0846 B(  2-C ,  4-C ) :   0.9838
B(  2-C ,  5-C ) :   0.9189 B(  3-O , 12-H ) :   0.9794 B(  4-C ,  5-C ) :   0.9657
B(  4-C , 13-H ) :   0.9304 B(  4-C , 14-H ) :   0.9278 B(  5-C ,  6-C ) :   1.1096
B(  5-C , 15-H ) :   0.9342 B(  6-C , 16-H ) :   0.9415 B(  6-C , 17-H ) :   0.9615
B(  6-C , 18-H ) :   0.9554

FINAL SINGLE POINT ENERGY      -310.417158950802

DIPOLE MOMENT
-------------
                                X             Y             Z
Electronic contribution:      2.32172      -1.70595      -2.61330
Nuclear contribution   :     -2.77311       1.46986       2.55231
                        -----------------------------------------
Total Dipole Moment    :     -0.45139      -0.23609      -0.06100
                        -----------------------------------------
Magnitude (a.u.)       :      0.51305
Magnitude (Debye)      :      1.30406

                             ****ORCA TERMINATED NORMALLY****
TOTAL RUN TIME: 0 days 0 hours 0 minutes 7 seconds 603 msec
