                         Program Version 3.0.3 - RELEASE   -
|  1> ! RI PBE def2-SVP def2-SVP/J NBO PAL2
|  2> % maxcore 2000
|  3> % output
|  4>     # printlevel mini
|  5>     print[ P_Basis ] 0
|  6>     print[ P_SCFInfo ] 1
|  7>     print[ P_SCFIterInfo ] 1
|  8>     print[ P_OrbEn ] 0
|  9>     print[ P_Cartesian ] 0
| 10> end
| 11> *xyz 0 1
| 12>  C        1.1231290000     0.3212000000     0.0839490000
| 13>  C        2.6059020000    -0.0144870000     0.1008260000
| 14>  C        2.9796060000    -0.9677680000    -1.0022290000
| 15>  O        4.3723470000    -1.3315710000    -1.0055680000
| 16>  C        4.0540580000    -2.7061720000    -1.2515700000
| 17>  C        2.5838350000    -2.4509390000    -0.9083980000
| 18>  O        1.5736340000    -2.9655000000    -1.7184180000
| 19>  H        0.8636850000     0.9913380000     0.9055100000
| 20>  H        0.5095930000    -0.5783140000     0.1800310000
| 21>  H        0.8385460000     0.8147530000    -0.8491740000
| 22>  H        2.8894760000    -0.4630920000     1.0586110000
| 23>  H        3.2050550000     0.8956430000    -0.0071170000
| 24>  H        2.6911410000    -0.5496030000    -1.9820940000
| 25>  H        4.6287500000    -3.3875990000    -0.6194640000
| 26>  H        4.1995570000    -2.9788090000    -2.3069260000
| 27>  H        2.3358480000    -2.7407710000     0.1146940000
| 28>  H        1.7562500000    -2.7206970000    -2.6304730000
| 29> *
| 30>
| 31>                          ****END OF INPUT****
 Total Charge           Charge          ....    0
 Multiplicity           Mult            ....    1
 Number of Electrons    NEL             ....   56
 Basis Dimension        Dim             ....  148

MULLIKEN ATOMIC CHARGES
-----------------------
   0 C :   -0.042768
   1 C :    0.050229
   2 C :    0.078020
   3 O :   -0.345370
   4 C :    0.237071
   5 C :    0.017945
   6 O :   -0.239016
   7 H :    0.028642
   8 H :    0.032505
   9 H :    0.020750
  10 H :    0.000694
  11 H :    0.021188
  12 H :   -0.026182
  13 H :    0.019655
  14 H :   -0.014904
  15 H :    0.007711
  16 H :    0.153828
Sum of atomic charges:   -0.0000000

LOEWDIN ATOMIC CHARGES
----------------------
   0 C :   -0.065102
   1 C :   -0.051732
   2 C :    0.046209
   3 O :   -0.174906
   4 C :    0.065861
   5 C :    0.024420
   6 O :   -0.094051
   7 H :    0.030469
   8 H :    0.029146
   9 H :    0.026127
  10 H :    0.024174
  11 H :    0.031921
  12 H :    0.001873
  13 H :    0.013655
  14 H :    0.002974
  15 H :    0.023603
  16 H :    0.065359

  Mayer bond orders larger than 0.1
B(  0-C ,  1-C ) :   1.1011 B(  0-C ,  7-H ) :   0.9607 B(  0-C ,  8-H ) :   0.9663
B(  0-C ,  9-H ) :   0.9651 B(  1-C ,  2-C ) :   1.0767 B(  1-C , 10-H ) :   0.9179
B(  1-C , 11-H ) :   0.9227 B(  2-C ,  3-O ) :   1.0383 B(  2-C ,  5-C ) :   1.0053
B(  2-C , 12-H ) :   0.8883 B(  3-O ,  4-C ) :   1.0270 B(  4-C ,  5-C ) :   1.0582
B(  4-C , 13-H ) :   0.9373 B(  4-C , 14-H ) :   0.9118 B(  5-C ,  6-O ) :   1.1103
B(  5-C , 15-H ) :   0.9006 B(  6-O , 16-H ) :   0.9738

FINAL SINGLE POINT ENERGY      -346.271460250612

DIPOLE MOMENT
-------------
                                X             Y             Z
Electronic contribution:      3.02013      -3.61359      -2.29055
Nuclear contribution   :     -3.23226       3.65188       2.08395
                        -----------------------------------------
Total Dipole Moment    :     -0.21214       0.03828      -0.20660
                        -----------------------------------------
Magnitude (a.u.)       :      0.29858
Magnitude (Debye)      :      0.75893

                             ****ORCA TERMINATED NORMALLY****
TOTAL RUN TIME: 0 days 0 hours 0 minutes 7 seconds 549 msec
