                         Program Version 3.0.3 - RELEASE   -
|  1> ! RI PBE def2-SVP def2-SVP/J NBO PAL2
|  2> % maxcore 2000
|  3> % output
|  4>     # printlevel mini
|  5>     print[ P_Basis ] 0
|  6>     print[ P_SCFInfo ] 1
|  7>     print[ P_SCFIterInfo ] 1
|  8>     print[ P_OrbEn ] 0
|  9>     print[ P_Cartesian ] 0
| 10> end
| 11> *xyz 0 1
| 12>  C        1.4635740000    -0.6630030000    -0.2926940000
| 13>  C        2.1354210000     0.3310450000     0.2702420000
| 14>  C        3.0155070000     1.2540660000    -0.4845420000
| 15>  O        2.8774090000     2.6440150000    -0.1168270000
| 16>  C        4.2576950000     2.8067920000     0.2313200000
| 17>  C        4.4963320000     1.3392930000    -0.0730860000
| 18>  O        5.4091990000     0.5838300000    -0.0155890000
| 19>  H        0.8627390000    -1.3455490000     0.2963010000
| 20>  H        1.4960380000    -0.8328670000    -1.3641480000
| 21>  H        2.0855490000     0.4954430000     1.3435310000
| 22>  H        2.9034300000     1.1097910000    -1.5672400000
| 23>  H        4.4049820000     3.0992550000     1.2765380000
| 24>  H        4.7896240000     3.5051790000    -0.4246070000
| 25> *
| 26>
| 27>                          ****END OF INPUT****
 Total Charge           Charge          ....    0
 Multiplicity           Mult            ....    1
 Number of Electrons    NEL             ....   52
 Basis Dimension        Dim             ....  128

MULLIKEN ATOMIC CHARGES
-----------------------
   0 C :   -0.024995
   1 C :    0.039872
   2 C :    0.045714
   3 O :   -0.331699
   4 C :    0.182275
   5 C :   -0.018765
   6 O :   -0.088412
   7 H :    0.034422
   8 H :    0.029343
   9 H :    0.003300
  10 H :    0.033323
  11 H :    0.044792
  12 H :    0.050830
Sum of atomic charges:    0.0000000

LOEWDIN ATOMIC CHARGES
----------------------
   0 C :   -0.034932
   1 C :   -0.035703
   2 C :    0.027766
   3 O :   -0.169571
   4 C :    0.048306
   5 C :    0.047977
   6 O :   -0.069179
   7 H :    0.031079
   8 H :    0.026766
   9 H :    0.031802
  10 H :    0.033278
  11 H :    0.030840
  12 H :    0.031572

  Mayer bond orders larger than 0.1
B(  0-C ,  1-C ) :   1.9633 B(  0-C ,  7-H ) :   0.9364 B(  0-C ,  8-H ) :   0.9538
B(  1-C ,  2-C ) :   1.0444 B(  1-C ,  9-H ) :   0.9463 B(  2-C ,  3-O ) :   1.0250
B(  2-C ,  5-C ) :   0.9155 B(  2-C , 10-H ) :   0.8875 B(  3-O ,  4-C ) :   1.0319
B(  4-C ,  5-C ) :   0.9747 B(  4-C , 11-H ) :   0.9205 B(  4-C , 12-H ) :   0.9167
B(  5-C ,  6-O ) :   2.2741

FINAL SINGLE POINT ENERGY      -343.853231401391

DIPOLE MOMENT
-------------
                                X             Y             Z
Electronic contribution:      3.39972       1.24891       0.01616
Nuclear contribution   :     -3.61447      -1.13470      -0.02502
                        -----------------------------------------
Total Dipole Moment    :     -0.21475       0.11421      -0.00886
                        -----------------------------------------
Magnitude (a.u.)       :      0.24339
Magnitude (Debye)      :      0.61864

                             ****ORCA TERMINATED NORMALLY****
TOTAL RUN TIME: 0 days 0 hours 0 minutes 6 seconds 25 msec
