                         Program Version 3.0.3 - RELEASE   -
|  1> ! RI PBE def2-SVP def2-SVP/J NBO PAL2
|  2> % maxcore 2000
|  3> % output
|  4>     # printlevel mini
|  5>     print[ P_Basis ] 0
|  6>     print[ P_SCFInfo ] 1
|  7>     print[ P_SCFIterInfo ] 1
|  8>     print[ P_OrbEn ] 0
|  9>     print[ P_Cartesian ] 0
| 10> end
| 11> *xyz 0 1
| 12>  C        0.9936380000    -0.5355450000     0.3051960000
| 13>  C        2.3476360000     0.0383200000    -0.0745000000
| 14>  C        2.9742210000    -0.5161520000    -1.3284480000
| 15>  O        4.1624840000     0.1473590000    -1.6812710000
| 16>  C        2.8938230000    -1.9689360000    -1.7198290000
| 17>  C        2.2007350000    -0.9142520000    -2.5444290000
| 18>  O        2.6903650000    -0.5655550000    -3.7905960000
| 19>  H        0.6292890000    -0.0665700000     1.2211570000
| 20>  H        1.0422910000    -1.6115150000     0.4876790000
| 21>  H        0.2452860000    -0.3578210000    -0.4703550000
| 22>  H        3.0523950000    -0.1197150000     0.7520510000
| 23>  H        2.2681610000     1.1225650000    -0.2055310000
| 24>  H        4.8928210000    -0.2456440000    -1.1959810000
| 25>  H        2.2932990000    -2.6462500000    -1.1246840000
| 26>  H        3.7849740000    -2.4036500000    -2.1584760000
| 27>  H        1.1179760000    -0.8809060000    -2.5069400000
| 28>  H        3.5235950000    -0.1031120000    -3.6306520000
| 29> *
| 30>
| 31>                          ****END OF INPUT****
 Total Charge           Charge          ....    0
 Multiplicity           Mult            ....    1
 Number of Electrons    NEL             ....   56
 Basis Dimension        Dim             ....  148

MULLIKEN ATOMIC CHARGES
-----------------------
   0 C :   -0.061822
   1 C :    0.099546
   2 C :   -0.105559
   3 O :   -0.254493
   4 C :   -0.010343
   5 C :    0.070006
   6 O :   -0.225766
   7 H :    0.021274
   8 H :    0.027323
   9 H :    0.035300
  10 H :   -0.001345
  11 H :    0.022454
  12 H :    0.167741
  13 H :    0.027042
  14 H :    0.015680
  15 H :    0.023841
  16 H :    0.149121
Sum of atomic charges:    0.0000000

LOEWDIN ATOMIC CHARGES
----------------------
   0 C :   -0.068670
   1 C :   -0.047355
   2 C :   -0.009705
   3 O :   -0.083026
   4 C :   -0.080805
   5 C :    0.034291
   6 O :   -0.091926
   7 H :    0.032391
   8 H :    0.025999
   9 H :    0.027531
  10 H :    0.022863
  11 H :    0.032212
  12 H :    0.077063
  13 H :    0.025220
  14 H :    0.027898
  15 H :    0.017503
  16 H :    0.058515

  Mayer bond orders larger than 0.1
B(  0-C ,  1-C ) :   1.1135 B(  0-C ,  7-H ) :   0.9509 B(  0-C ,  8-H ) :   0.9599
B(  0-C ,  9-H ) :   0.9601 B(  1-C ,  2-C ) :   1.0319 B(  1-C , 10-H ) :   0.9150
B(  1-C , 11-H ) :   0.9205 B(  2-C ,  3-O ) :   1.0592 B(  2-C ,  4-C ) :   0.9752
B(  2-C ,  5-C ) :   0.9003 B(  3-O , 12-H ) :   0.9744 B(  4-C ,  5-C ) :   0.9257
B(  4-C , 13-H ) :   0.9241 B(  4-C , 14-H ) :   0.9186 B(  5-C ,  6-O ) :   1.1745
B(  5-C , 15-H ) :   0.9486 B(  6-O , 16-H ) :   0.9525

FINAL SINGLE POINT ENERGY      -346.273812095642

DIPOLE MOMENT
-------------
                                X             Y             Z
Electronic contribution:      3.70441       1.11127      -5.53518
Nuclear contribution   :     -3.31517      -1.25827       6.45533
                        -----------------------------------------
Total Dipole Moment    :      0.38924      -0.14700       0.92016
                        -----------------------------------------
Magnitude (a.u.)       :      1.00985
Magnitude (Debye)      :      2.56684

                             ****ORCA TERMINATED NORMALLY****
TOTAL RUN TIME: 0 days 0 hours 0 minutes 7 seconds 103 msec
