                         Program Version 3.0.3 - RELEASE   -
|  1> ! RI PBE def2-SVP def2-SVP/J NBO PAL2
|  2> % maxcore 2000
|  3> % output
|  4>     # printlevel mini
|  5>     print[ P_Basis ] 0
|  6>     print[ P_SCFInfo ] 1
|  7>     print[ P_SCFIterInfo ] 1
|  8>     print[ P_OrbEn ] 0
|  9>     print[ P_Cartesian ] 0
| 10> end
| 11> *xyz 0 1
| 12>  C        2.6841740000     0.7748930000    -1.1992910000
| 13>  C        2.3969440000    -0.0286330000     0.0589160000
| 14>  C        3.2653320000    -1.2628670000     0.1504120000
| 15>  O        3.0395110000    -2.0578490000     1.3330030000
| 16>  C        2.7053210000    -3.2422960000     0.5997610000
| 17>  C        2.8755000000    -2.4699250000    -0.6972160000
| 18>  O        2.7362010000    -2.6961890000    -1.8568560000
| 19>  H        2.0374780000     1.6523410000    -1.2533120000
| 20>  H        2.5174480000     0.1766860000    -2.0974950000
| 21>  H        3.7200740000     1.1237640000    -1.2179240000
| 22>  H        1.3451990000    -0.3295270000     0.0933720000
| 23>  H        2.5805120000     0.5737640000     0.9540390000
| 24>  H        4.3277450000    -1.0003600000     0.0475040000
| 25>  H        1.6932300000    -3.6061090000     0.8065560000
| 26>  H        3.4255400000    -4.0555820000     0.7442220000
| 27> *
| 28>
| 29>                          ****END OF INPUT****
 Total Charge           Charge          ....    0
 Multiplicity           Mult            ....    1
 Number of Electrons    NEL             ....   54
 Basis Dimension        Dim             ....  138

MULLIKEN ATOMIC CHARGES
-----------------------
   0 C :   -0.034462
   1 C :    0.039787
   2 C :    0.020514
   3 O :   -0.336247
   4 C :    0.187931
   5 C :   -0.030088
   6 O :   -0.105630
   7 H :    0.030888
   8 H :    0.038400
   9 H :    0.023134
  10 H :    0.008336
  11 H :    0.034629
  12 H :    0.032120
  13 H :    0.042206
  14 H :    0.048483
Sum of atomic charges:   -0.0000000

LOEWDIN ATOMIC CHARGES
----------------------
   0 C :   -0.063257
   1 C :   -0.045873
   2 C :    0.029598
   3 O :   -0.172766
   4 C :    0.050433
   5 C :    0.042746
   6 O :   -0.082004
   7 H :    0.032504
   8 H :    0.030953
   9 H :    0.027406
  10 H :    0.028030
  11 H :    0.035431
  12 H :    0.026549
  13 H :    0.029390
  14 H :    0.030860

  Mayer bond orders larger than 0.1
B(  0-C ,  1-C ) :   1.1028 B(  0-C ,  7-H ) :   0.9568 B(  0-C ,  8-H ) :   0.9655
B(  0-C ,  9-H ) :   0.9638 B(  1-C ,  2-C ) :   1.0521 B(  1-C , 10-H ) :   0.9216
B(  1-C , 11-H ) :   0.9289 B(  2-C ,  3-O ) :   1.0429 B(  2-C ,  5-C ) :   0.9381
B(  2-C , 12-H ) :   0.8907 B(  3-O ,  4-C ) :   1.0313 B(  4-C ,  5-C ) :   0.9959
B(  4-C , 13-H ) :   0.9220 B(  4-C , 14-H ) :   0.9166 B(  5-C ,  6-O ) :   2.2357

FINAL SINGLE POINT ENERGY      -345.080105123740

DIPOLE MOMENT
-------------
                                X             Y             Z
Electronic contribution:      0.79833      -6.36936       0.29116
Nuclear contribution   :     -0.79236       6.57221      -0.05223
                        -----------------------------------------
Total Dipole Moment    :      0.00597       0.20285       0.23892
                        -----------------------------------------
Magnitude (a.u.)       :      0.31348
Magnitude (Debye)      :      0.79680

                             ****ORCA TERMINATED NORMALLY****
TOTAL RUN TIME: 0 days 0 hours 0 minutes 7 seconds 186 msec
