                         Program Version 3.0.3 - RELEASE   -
|  1> ! RI PBE def2-SVP def2-SVP/J NBO PAL2
|  2> % maxcore 2000
|  3> % output
|  4>     # printlevel mini
|  5>     print[ P_Basis ] 0
|  6>     print[ P_SCFInfo ] 1
|  7>     print[ P_SCFIterInfo ] 1
|  8>     print[ P_OrbEn ] 0
|  9>     print[ P_Cartesian ] 0
| 10> end
| 11> *xyz 0 1
| 12>  C        1.2180240000     0.2277120000    -0.7634450000
| 13>  C        2.2099400000     0.2710090000     0.1128020000
| 14>  C        3.3216430000     1.2811140000     0.1391020000
| 15>  O        3.3992980000     1.8774650000     1.4357410000
| 16>  C        3.2169590000     3.2791460000     1.3469560000
| 17>  C        3.1207500000     3.5683010000    -0.1129770000
| 18>  C        3.1843670000     2.4388340000    -0.7987570000
| 19>  H        0.4599500000    -0.5455460000    -0.7161990000
| 20>  H        1.1204440000     0.9607570000    -1.5571100000
| 21>  H        2.2710180000    -0.4750670000     0.9015510000
| 22>  H        4.2676000000     0.7436310000    -0.0387910000
| 23>  H        4.0680510000     3.7888380000     1.8186270000
| 24>  H        2.3102480000     3.5821060000     1.8904250000
| 25>  H        3.0165450000     4.5661310000    -0.5191210000
| 26>  H        3.1534520000     2.3349810000    -1.8748030000
| 27> *
| 28>
| 29>                          ****END OF INPUT****
 Total Charge           Charge          ....    0
 Multiplicity           Mult            ....    1
 Number of Electrons    NEL             ....   52
 Basis Dimension        Dim             ....  138

MULLIKEN ATOMIC CHARGES
-----------------------
   0 C :   -0.024144
   1 C :   -0.065931
   2 C :    0.239144
   3 O :   -0.365489
   4 C :    0.272471
   5 C :   -0.116362
   6 C :   -0.070965
   7 H :    0.026500
   8 H :    0.018249
   9 H :    0.014777
  10 H :    0.013836
  11 H :    0.023071
  12 H :    0.019368
  13 H :    0.004250
  14 H :    0.011227
Sum of atomic charges:   -0.0000000

LOEWDIN ATOMIC CHARGES
----------------------
   0 C :   -0.059470
   1 C :   -0.033940
   2 C :    0.057564
   3 O :   -0.156695
   4 C :    0.072264
   5 C :   -0.039882
   6 C :   -0.041080
   7 H :    0.027106
   8 H :    0.021091
   9 H :    0.030705
  10 H :    0.025110
  11 H :    0.020057
  12 H :    0.018759
  13 H :    0.028610
  14 H :    0.029800

  Mayer bond orders larger than 0.1
B(  0-C ,  1-C ) :   2.0248 B(  0-C ,  7-H ) :   0.9419 B(  0-C ,  8-H ) :   0.9288
B(  1-C ,  2-C ) :   1.0005 B(  1-C ,  9-H ) :   0.9551 B(  2-C ,  3-O ) :   0.9948
B(  2-C ,  6-C ) :   1.0169 B(  2-C , 10-H ) :   0.8684 B(  3-O ,  4-C ) :   1.0121
B(  4-C ,  5-C ) :   1.0307 B(  4-C , 11-H ) :   0.9237 B(  4-C , 12-H ) :   0.9154
B(  5-C ,  6-C ) :   1.8604 B(  5-C , 13-H ) :   0.9839 B(  6-C , 14-H ) :   0.9812

FINAL SINGLE POINT ENERGY      -307.989931951045

DIPOLE MOMENT
-------------
                                X             Y             Z
Electronic contribution:      1.68212       0.21600       1.35425
Nuclear contribution   :     -1.73374       0.13178      -1.78604
                        -----------------------------------------
Total Dipole Moment    :     -0.05162       0.34777      -0.43179
                        -----------------------------------------
Magnitude (a.u.)       :      0.55683
Magnitude (Debye)      :      1.41534

                             ****ORCA TERMINATED NORMALLY****
TOTAL RUN TIME: 0 days 0 hours 0 minutes 6 seconds 327 msec
