                         Program Version 3.0.3 - RELEASE   -
|  1> ! RI PBE def2-SVP def2-SVP/J NBO PAL2
|  2> % maxcore 2000
|  3> % output
|  4>     # printlevel mini
|  5>     print[ P_Basis ] 0
|  6>     print[ P_SCFInfo ] 1
|  7>     print[ P_SCFIterInfo ] 1
|  8>     print[ P_OrbEn ] 0
|  9>     print[ P_Cartesian ] 0
| 10> end
| 11> *xyz 0 1
| 12>  C        0.8675740000     0.0098190000    -0.2470080000
| 13>  C        2.0567180000    -0.0619830000    -0.1023120000
| 14>  C        3.5122000000    -0.1261070000     0.0559430000
| 15>  O        3.9203780000    -1.2949660000     0.7526700000
| 16>  C        4.5267190000    -0.9469650000     1.9869500000
| 17>  C        4.6195370000     0.5411170000     1.9698610000
| 18>  C        4.0505030000     1.0155020000     0.8752860000
| 19>  H       -0.1884920000     0.0641050000    -0.3690560000
| 20>  H        3.9600410000    -0.1485470000    -0.9480340000
| 21>  H        5.5083670000    -1.4327260000     2.0513660000
| 22>  H        3.9192260000    -1.3109200000     2.8277730000
| 23>  H        5.0781300000     1.1201850000     2.7605950000
| 24>  H        3.9376010000     2.0498750000     0.5825850000
| 25> *
| 26>
| 27>                          ****END OF INPUT****
 Total Charge           Charge          ....    0
 Multiplicity           Mult            ....    1
 Number of Electrons    NEL             ....   50
 Basis Dimension        Dim             ....  128

MULLIKEN ATOMIC CHARGES
-----------------------
   0 C :   -0.492957
   1 C :    0.411419
   2 C :    0.186367
   3 O :   -0.342891
   4 C :    0.281056
   5 C :   -0.111456
   6 C :   -0.040123
   7 H :    0.002383
   8 H :    0.035891
   9 H :    0.024678
  10 H :    0.022049
  11 H :    0.011712
  12 H :    0.011869
Sum of atomic charges:   -0.0000000

LOEWDIN ATOMIC CHARGES
----------------------
   0 C :   -0.068967
   1 C :   -0.028148
   2 C :    0.051323
   3 O :   -0.143478
   4 C :    0.075722
   5 C :   -0.039471
   6 C :   -0.029558
   7 H :    0.035645
   8 H :    0.038692
   9 H :    0.022376
  10 H :    0.020563
  11 H :    0.032031
  12 H :    0.033270

  Mayer bond orders larger than 0.1
B(  0-C ,  1-C ) :   2.3632 B(  0-C ,  7-H ) :   1.1014 B(  1-C ,  2-C ) :   0.9145
B(  1-C ,  7-H ) :  -0.1115 B(  2-C ,  3-O ) :   1.0642 B(  2-C ,  6-C ) :   1.0180
B(  2-C ,  8-H ) :   0.8747 B(  3-O ,  4-C ) :   1.0009 B(  4-C ,  5-C ) :   1.0282
B(  4-C ,  9-H ) :   0.9258 B(  4-C , 10-H ) :   0.9168 B(  5-C ,  6-C ) :   1.8662
B(  5-C , 11-H ) :   0.9786 B(  6-C , 12-H ) :   0.9893

FINAL SINGLE POINT ENERGY      -306.744124480283

DIPOLE MOMENT
-------------
                                X             Y             Z
Electronic contribution:     -1.39952      -0.67022      -1.77101
Nuclear contribution   :      1.65367       1.21273       2.08072
                        -----------------------------------------
Total Dipole Moment    :      0.25414       0.54251       0.30971
                        -----------------------------------------
Magnitude (a.u.)       :      0.67441
Magnitude (Debye)      :      1.71422

                             ****ORCA TERMINATED NORMALLY****
TOTAL RUN TIME: 0 days 0 hours 0 minutes 6 seconds 495 msec
