                         Program Version 3.0.3 - RELEASE   -
|  1> ! RI PBE def2-SVP def2-SVP/J NBO PAL2
|  2> % maxcore 2000
|  3> % output
|  4>     # printlevel mini
|  5>     print[ P_Basis ] 0
|  6>     print[ P_SCFInfo ] 1
|  7>     print[ P_SCFIterInfo ] 1
|  8>     print[ P_OrbEn ] 0
|  9>     print[ P_Cartesian ] 0
| 10> end
| 11> *xyz 0 1
| 12>  C        0.9927020000    -0.0338370000    -0.0924150000
| 13>  C        2.4665570000    -0.0849450000     0.1731060000
| 14>  C        3.0726520000     0.5943630000     1.1500630000
| 15>  O        4.4255260000     0.5217020000     1.3617960000
| 16>  C        4.7798810000     1.3455090000     2.4618830000
| 17>  C        3.4952280000     1.9455220000     2.9187570000
| 18>  C        2.5119070000     1.4953110000     2.1414140000
| 19>  H        0.7360710000    -0.6714740000    -0.9391020000
| 20>  H        0.6450500000     0.9749850000    -0.3377290000
| 21>  H        0.4002910000    -0.3833570000     0.7594300000
| 22>  H        3.0879370000    -0.7080220000    -0.4603440000
| 23>  H        5.5089210000     2.0983010000     2.1330250000
| 24>  H        5.2629310000     0.7327400000     3.2348850000
| 25>  H        3.4134700000     2.6314680000     3.7505810000
| 26>  H        1.4618740000     1.7395330000     2.2097600000
| 27> *
| 28>
| 29>                          ****END OF INPUT****
 Total Charge           Charge          ....    0
 Multiplicity           Mult            ....    1
 Number of Electrons    NEL             ....   52
 Basis Dimension        Dim             ....  138

MULLIKEN ATOMIC CHARGES
-----------------------
   0 C :    0.026285
   1 C :   -0.190240
   2 C :    0.147706
   3 O :   -0.283954
   4 C :    0.256919
   5 C :   -0.117746
   6 C :    0.010458
   7 H :    0.020988
   8 H :    0.031613
   9 H :    0.034603
  10 H :   -0.006379
  11 H :    0.036906
  12 H :    0.035675
  13 H :    0.005251
  14 H :   -0.008086
Sum of atomic charges:   -0.0000000

LOEWDIN ATOMIC CHARGES
----------------------
   0 C :   -0.068749
   1 C :   -0.111001
   2 C :    0.020979
   3 O :   -0.087809
   4 C :    0.079465
   5 C :   -0.040659
   6 C :   -0.034971
   7 H :    0.033920
   8 H :    0.031291
   9 H :    0.031949
  10 H :    0.027987
  11 H :    0.027546
  12 H :    0.027202
  13 H :    0.029546
  14 H :    0.033304

  Mayer bond orders larger than 0.1
B(  0-C ,  1-C ) :   1.0842 B(  0-C ,  7-H ) :   0.9568 B(  0-C ,  8-H ) :   0.9519
B(  0-C ,  9-H ) :   0.9524 B(  1-C ,  2-C ) :   1.7578 B(  1-C ,  5-C ) :   0.1038
B(  1-C , 10-H ) :   0.9334 B(  2-C ,  3-O ) :   1.0978 B(  2-C ,  6-C ) :   1.0690
B(  3-O ,  4-C ) :   0.9951 B(  4-C ,  5-C ) :   1.0414 B(  4-C , 11-H ) :   0.9188
B(  4-C , 12-H ) :   0.9192 B(  5-C ,  6-C ) :   1.7348 B(  5-C , 13-H ) :   0.9768
B(  6-C , 14-H ) :   0.9937

FINAL SINGLE POINT ENERGY      -308.016043150044

DIPOLE MOMENT
-------------
                                X             Y             Z
Electronic contribution:      3.99240       0.53260       1.54895
Nuclear contribution   :     -4.11657      -0.07765      -1.01424
                        -----------------------------------------
Total Dipole Moment    :     -0.12417       0.45495       0.53471
                        -----------------------------------------
Magnitude (a.u.)       :      0.71296
Magnitude (Debye)      :      1.81219

                             ****ORCA TERMINATED NORMALLY****
TOTAL RUN TIME: 0 days 0 hours 0 minutes 7 seconds 628 msec
