                         Program Version 3.0.3 - RELEASE   -
|  1> ! RI PBE def2-SVP def2-SVP/J NBO PAL2
|  2> % maxcore 2000
|  3> % output
|  4>     # printlevel mini
|  5>     print[ P_Basis ] 0
|  6>     print[ P_SCFInfo ] 1
|  7>     print[ P_SCFIterInfo ] 1
|  8>     print[ P_OrbEn ] 0
|  9>     print[ P_Cartesian ] 0
| 10> end
| 11> *xyz 0 1
| 12>  C        1.0099620000    -0.2102670000    -0.4548770000
| 13>  C        2.4085710000     0.0876520000     0.0576970000
| 14>  C        2.9447120000    -0.8307450000     1.1415420000
| 15>  O        4.2731700000    -0.4498730000     1.4688760000
| 16>  C        2.1146810000    -1.0776580000     2.4245550000
| 17>  C        2.5847010000    -2.5451870000     2.4005090000
| 18>  C        2.9751610000    -2.3543420000     0.9220650000
| 19>  H        0.7287980000     0.5011250000    -1.2343770000
| 20>  H        0.2598690000    -0.1389460000     0.3362140000
| 21>  H        0.9428250000    -1.2104700000    -0.8891440000
| 22>  H        2.4368530000     1.1147750000     0.4474130000
| 23>  H        3.1239900000     0.0581630000    -0.7713670000
| 24>  H        4.2495930000     0.4539130000     1.7975480000
| 25>  H        1.0410790000    -0.9926160000     2.2451170000
| 26>  H        2.3798200000    -0.4667760000     3.2903970000
| 27>  H        1.8407730000    -3.3095860000     2.6272530000
| 28>  H        3.4591780000    -2.7024830000     3.0314790000
| 29>  H        2.1860070000    -2.6856790000     0.2453380000
| 30>  H        3.9327500000    -2.7526000000     0.5853710000
| 31> *
| 32>
| 33>                          ****END OF INPUT****
 Total Charge           Charge          ....    0
 Multiplicity           Mult            ....    1
 Number of Electrons    NEL             ....   56
 Basis Dimension        Dim             ....  158

MULLIKEN ATOMIC CHARGES
-----------------------
   0 C :   -0.049395
   1 C :    0.065003
   2 C :   -0.217416
   3 O :   -0.252954
   4 C :    0.087884
   5 C :   -0.014681
   6 C :    0.106084
   7 H :    0.021105
   8 H :    0.026846
   9 H :    0.025820
  10 H :   -0.008764
  11 H :    0.017186
  12 H :    0.149001
  13 H :    0.004313
  14 H :   -0.005231
  15 H :    0.006627
  16 H :    0.023943
  17 H :    0.004338
  18 H :    0.010289
Sum of atomic charges:    0.0000000

LOEWDIN ATOMIC CHARGES
----------------------
   0 C :   -0.070111
   1 C :   -0.059327
   2 C :    0.022880
   3 O :   -0.103686
   4 C :   -0.044911
   5 C :   -0.032379
   6 C :   -0.029675
   7 H :    0.030214
   8 H :    0.024313
   9 H :    0.025036
  10 H :    0.020052
  11 H :    0.029257
  12 H :    0.063310
  13 H :    0.021850
  14 H :    0.014314
  15 H :    0.016424
  16 H :    0.027675
  17 H :    0.022851
  18 H :    0.021913

  Mayer bond orders larger than 0.1
B(  0-C ,  1-C ) :   1.1077 B(  0-C ,  7-H ) :   0.9519 B(  0-C ,  8-H ) :   0.9603
B(  0-C ,  9-H ) :   0.9622 B(  1-C ,  2-C ) :   1.0469 B(  1-C , 10-H ) :   0.9171
B(  1-C , 11-H ) :   0.9223 B(  2-C ,  3-O ) :   1.0219 B(  2-C ,  4-C ) :   1.0482
B(  2-C ,  6-C ) :   1.0457 B(  3-O , 12-H ) :   0.9817 B(  4-C ,  5-C ) :   1.1315
B(  4-C , 13-H ) :   0.9059 B(  4-C , 14-H ) :   0.9155 B(  5-C ,  6-C ) :   1.1354
B(  5-C , 15-H ) :   0.9295 B(  5-C , 16-H ) :   0.9271 B(  6-C , 17-H ) :   0.9135
B(  6-C , 18-H ) :   0.9118

FINAL SINGLE POINT ENERGY      -310.419298404171

DIPOLE MOMENT
-------------
                                X             Y             Z
Electronic contribution:      4.28160       0.20507       1.76270
Nuclear contribution   :     -4.68521       0.16729      -1.73990
                        -----------------------------------------
Total Dipole Moment    :     -0.40361       0.37235       0.02280
                        -----------------------------------------
Magnitude (a.u.)       :      0.54961
Magnitude (Debye)      :      1.39700

                             ****ORCA TERMINATED NORMALLY****
TOTAL RUN TIME: 0 days 0 hours 0 minutes 8 seconds 422 msec
