                         Program Version 3.0.3 - RELEASE   -
|  1> ! RI PBE def2-SVP def2-SVP/J NBO PAL2
|  2> % maxcore 2000
|  3> % output
|  4>     # printlevel mini
|  5>     print[ P_Basis ] 0
|  6>     print[ P_SCFInfo ] 1
|  7>     print[ P_SCFIterInfo ] 1
|  8>     print[ P_OrbEn ] 0
|  9>     print[ P_Cartesian ] 0
| 10> end
| 11> *xyz 0 1
| 12>  C        3.5783380000     0.0462030000    -1.1835810000
| 13>  C        2.4443650000    -0.0033430000    -0.1739130000
| 14>  C        2.7989520000     0.6438870000     1.1576420000
| 15>  O        1.7612270000     0.4051870000     2.1038050000
| 16>  C        1.3309060000     1.6164840000     2.6957420000
| 17>  C        2.0971490000     2.6851700000     1.9911720000
| 18>  C        2.9354460000     2.1348170000     1.1275870000
| 19>  H        3.3061840000    -0.4751120000    -2.1034340000
| 20>  H        4.4809420000    -0.4300400000    -0.7897530000
| 21>  H        3.8368450000     1.0729700000    -1.4550930000
| 22>  H        2.1708850000    -1.0425490000     0.0318070000
| 23>  H        1.5499770000     0.4867430000    -0.5713490000
| 24>  H        3.7300660000     0.1805170000     1.5270880000
| 25>  H        1.5384010000     1.6060680000     3.7763740000
| 26>  H        0.2445120000     1.7232720000     2.5735090000
| 27>  H        1.9709380000     3.7418370000     2.1887440000
| 28>  H        3.6329750000     2.6577800000     0.4869530000
| 29> *
| 30>
| 31>                          ****END OF INPUT****
 Total Charge           Charge          ....    0
 Multiplicity           Mult            ....    1
 Number of Electrons    NEL             ....   54
 Basis Dimension        Dim             ....  148

MULLIKEN ATOMIC CHARGES
-----------------------
   0 C :   -0.029928
   1 C :    0.023395
   2 C :    0.136630
   3 O :   -0.352709
   4 C :    0.258374
   5 C :   -0.123814
   6 C :   -0.047404
   7 H :    0.024008
   8 H :    0.019972
   9 H :    0.016623
  10 H :    0.022251
  11 H :    0.000626
  12 H :    0.004097
  13 H :    0.021170
  14 H :    0.022524
  15 H :    0.003359
  16 H :    0.000828
Sum of atomic charges:    0.0000000

LOEWDIN ATOMIC CHARGES
----------------------
   0 C :   -0.066185
   1 C :   -0.051925
   2 C :    0.057685
   3 O :   -0.155194
   4 C :    0.068813
   5 C :   -0.047622
   6 C :   -0.041583
   7 H :    0.030319
   8 H :    0.025329
   9 H :    0.022393
  10 H :    0.030517
  11 H :    0.023272
  12 H :    0.013604
  13 H :    0.016867
  14 H :    0.018884
  15 H :    0.027741
  16 H :    0.027084

  Mayer bond orders larger than 0.1
B(  0-C ,  1-C ) :   1.1012 B(  0-C ,  7-H ) :   0.9572 B(  0-C ,  8-H ) :   0.9643
B(  0-C ,  9-H ) :   0.9658 B(  1-C ,  2-C ) :   1.0422 B(  1-C , 10-H ) :   0.9273
B(  1-C , 11-H ) :   0.9243 B(  2-C ,  3-O ) :   1.0196 B(  2-C ,  6-C ) :   1.0049
B(  2-C , 12-H ) :   0.8929 B(  3-O ,  4-C ) :   1.0173 B(  4-C ,  5-C ) :   1.0294
B(  4-C , 13-H ) :   0.9183 B(  4-C , 14-H ) :   0.9221 B(  5-C ,  6-C ) :   1.8648
B(  5-C , 15-H ) :   0.9809 B(  6-C , 16-H ) :   0.9879

FINAL SINGLE POINT ENERGY      -309.218501796184

DIPOLE MOMENT
-------------
                                X             Y             Z
Electronic contribution:     -1.95872       1.26600       4.70883
Nuclear contribution   :      2.13807      -0.79208      -4.88008
                        -----------------------------------------
Total Dipole Moment    :      0.17935       0.47392      -0.17124
                        -----------------------------------------
Magnitude (a.u.)       :      0.53488
Magnitude (Debye)      :      1.35955

                             ****ORCA TERMINATED NORMALLY****
TOTAL RUN TIME: 0 days 0 hours 0 minutes 7 seconds 544 msec
