                         Program Version 3.0.3 - RELEASE   -
|  1> ! RI PBE def2-SVP def2-SVP/J NBO PAL2
|  2> % maxcore 2000
|  3> % output
|  4>     # printlevel mini
|  5>     print[ P_Basis ] 0
|  6>     print[ P_SCFInfo ] 1
|  7>     print[ P_SCFIterInfo ] 1
|  8>     print[ P_OrbEn ] 0
|  9>     print[ P_Cartesian ] 0
| 10> end
| 11> *xyz 0 1
| 12>  C        3.2096930000    -1.0452500000     0.8414210000
| 13>  C        2.6086420000     0.0605700000    -0.0080680000
| 14>  C        3.2891630000     1.3861050000     0.2048120000
| 15>  O        2.7268220000     2.3723530000    -0.6151630000
| 16>  C        3.0765210000     3.5878940000     0.0074450000
| 17>  C        2.9938570000     3.2501750000     1.4962780000
| 18>  O        3.1179280000     1.8391790000     1.5326710000
| 19>  H        2.7008020000    -1.9940470000     0.6614190000
| 20>  H        3.1244330000    -0.8105730000     1.9038820000
| 21>  H        4.2695760000    -1.1897220000     0.6139120000
| 22>  H        1.5473380000     0.1955940000     0.2183090000
| 23>  H        2.6884580000    -0.1826610000    -1.0716400000
| 24>  H        4.3733630000     1.3099910000    -0.0051550000
| 25>  H        2.3755420000     4.3597400000    -0.3098670000
| 26>  H        4.0944740000     3.8872740000    -0.2769840000
| 27>  H        2.0300960000     3.5313660000     1.9308760000
| 28>  H        3.7944920000     3.7211220000     2.0750430000
| 29> *
| 30>
| 31>                          ****END OF INPUT****
 Total Charge           Charge          ....    0
 Multiplicity           Mult            ....    1
 Number of Electrons    NEL             ....   56
 Basis Dimension        Dim             ....  148

MULLIKEN ATOMIC CHARGES
-----------------------
   0 C :   -0.033900
   1 C :    0.017078
   2 C :    0.240224
   3 O :   -0.325643
   4 C :    0.139030
   5 C :    0.170838
   6 O :   -0.352194
   7 H :    0.021465
   8 H :    0.037995
   9 H :    0.017375
  10 H :    0.013233
  11 H :    0.020469
  12 H :   -0.028932
  13 H :    0.028155
  14 H :    0.004159
  15 H :    0.015572
  16 H :    0.015078
Sum of atomic charges:    0.0000000

LOEWDIN ATOMIC CHARGES
----------------------
   0 C :   -0.064282
   1 C :   -0.056506
   2 C :    0.113137
   3 O :   -0.133892
   4 C :    0.049451
   5 C :    0.052172
   6 O :   -0.156609
   7 H :    0.028202
   8 H :    0.030279
   9 H :    0.025118
  10 H :    0.029883
  11 H :    0.032696
  12 H :   -0.012546
  13 H :    0.025751
  14 H :    0.008018
  15 H :    0.014871
  16 H :    0.014258

  Mayer bond orders larger than 0.1
B(  0-C ,  1-C ) :   1.1085 B(  0-C ,  7-H ) :   0.9617 B(  0-C ,  8-H ) :   0.9660
B(  0-C ,  9-H ) :   0.9628 B(  1-C ,  2-C ) :   1.0492 B(  1-C , 10-H ) :   0.9170
B(  1-C , 11-H ) :   0.9285 B(  2-C ,  3-O ) :   1.0655 B(  2-C ,  6-O ) :   1.0326
B(  2-C , 12-H ) :   0.9061 B(  3-O ,  4-C ) :   1.0147 B(  4-C ,  5-C ) :   1.0869
B(  4-C , 13-H ) :   0.9480 B(  4-C , 14-H ) :   0.9303 B(  5-C ,  6-O ) :   1.0168
B(  5-C , 15-H ) :   0.9392 B(  5-C , 16-H ) :   0.9377

FINAL SINGLE POINT ENERGY      -346.295828126909

DIPOLE MOMENT
-------------
                                X             Y             Z
Electronic contribution:     -0.71732       3.71620      -0.69167
Nuclear contribution   :      0.87380      -3.31579       0.69938
                        -----------------------------------------
Total Dipole Moment    :      0.15648       0.40041       0.00771
                        -----------------------------------------
Magnitude (a.u.)       :      0.42997
Magnitude (Debye)      :      1.09290

                             ****ORCA TERMINATED NORMALLY****
TOTAL RUN TIME: 0 days 0 hours 0 minutes 6 seconds 722 msec
