                         Program Version 3.0.3 - RELEASE   -
|  1> ! RI PBE def2-SVP def2-SVP/J NBO PAL2
|  2> % maxcore 2000
|  3> % output
|  4>     # printlevel mini
|  5>     print[ P_Basis ] 0
|  6>     print[ P_SCFInfo ] 1
|  7>     print[ P_SCFIterInfo ] 1
|  8>     print[ P_OrbEn ] 0
|  9>     print[ P_Cartesian ] 0
| 10> end
| 11> *xyz 0 1
| 12>  C        1.5245390000     0.7638830000     0.1781180000
| 13>  C        2.6517750000     0.0846560000     0.0463240000
| 14>  C        3.2693940000    -0.2128170000    -1.2752780000
| 15>  O        4.5839550000     0.2739670000    -1.3192280000
| 16>  C        5.2376250000    -0.5353490000    -2.2730660000
| 17>  C        4.6424840000    -1.9079110000    -2.0009050000
| 18>  O        3.3557350000    -1.6134570000    -1.4848310000
| 19>  H        1.0882930000     0.9627810000     1.1497460000
| 20>  H        0.9941910000     1.1463070000    -0.6885450000
| 21>  H        3.1884140000    -0.3057400000     0.9062830000
| 22>  H        2.6737230000     0.2296060000    -2.0920260000
| 23>  H        6.3126930000    -0.4738440000    -2.1058330000
| 24>  H        5.0080630000    -0.1940490000    -3.2918330000
| 25>  H        5.2210840000    -2.4599060000    -1.2525500000
| 26>  H        4.5490100000    -2.5192280000    -2.9023860000
| 27> *
| 28>
| 29>                          ****END OF INPUT****
 Total Charge           Charge          ....    0
 Multiplicity           Mult            ....    1
 Number of Electrons    NEL             ....   54
 Basis Dimension        Dim             ....  138

MULLIKEN ATOMIC CHARGES
-----------------------
   0 C :   -0.021293
   1 C :   -0.002748
   2 C :    0.292277
   3 O :   -0.330312
   4 C :    0.134057
   5 C :    0.167581
   6 O :   -0.350876
   7 H :    0.031083
   8 H :    0.026773
   9 H :   -0.000421
  10 H :   -0.025246
  11 H :    0.033824
  12 H :    0.008512
  13 H :    0.016863
  14 H :    0.019927
Sum of atomic charges:   -0.0000000

LOEWDIN ATOMIC CHARGES
----------------------
   0 C :   -0.035366
   1 C :   -0.038868
   2 C :    0.116832
   3 O :   -0.133697
   4 C :    0.049016
   5 C :    0.050674
   6 O :   -0.156298
   7 H :    0.028781
   8 H :    0.025244
   9 H :    0.030191
  10 H :   -0.005464
  11 H :    0.027617
  12 H :    0.009820
  13 H :    0.013232
  14 H :    0.018286

  Mayer bond orders larger than 0.1
B(  0-C ,  1-C ) :   1.9863 B(  0-C ,  7-H ) :   0.9426 B(  0-C ,  8-H ) :   0.9453
B(  1-C ,  2-C ) :   1.0133 B(  1-C ,  9-H ) :   0.9487 B(  2-C ,  3-O ) :   1.0412
B(  2-C ,  6-O ) :   1.0090 B(  2-C , 10-H ) :   0.9121 B(  3-O ,  4-C ) :   1.0001
B(  4-C ,  5-C ) :   1.1002 B(  4-C , 11-H ) :   0.9457 B(  4-C , 12-H ) :   0.9273
B(  5-C ,  6-O ) :   1.0105 B(  5-C , 13-H ) :   0.9342 B(  5-C , 14-H ) :   0.9363

FINAL SINGLE POINT ENERGY      -345.066797122022

DIPOLE MOMENT
-------------
                                X             Y             Z
Electronic contribution:      0.36447      -0.17707       0.39058
Nuclear contribution   :     -0.06724       0.11059      -0.71371
                        -----------------------------------------
Total Dipole Moment    :      0.29723      -0.06648      -0.32312
                        -----------------------------------------
Magnitude (a.u.)       :      0.44404
Magnitude (Debye)      :      1.12867

                             ****ORCA TERMINATED NORMALLY****
TOTAL RUN TIME: 0 days 0 hours 0 minutes 6 seconds 592 msec
