                         Program Version 3.0.3 - RELEASE   -
|  1> ! RI PBE def2-SVP def2-SVP/J NBO PAL2
|  2> % maxcore 2000
|  3> % output
|  4>     # printlevel mini
|  5>     print[ P_Basis ] 0
|  6>     print[ P_SCFInfo ] 1
|  7>     print[ P_SCFIterInfo ] 1
|  8>     print[ P_OrbEn ] 0
|  9>     print[ P_Cartesian ] 0
| 10> end
| 11> *xyz 0 1
| 12>  C        2.9906100000     0.9510610000     0.6628630000
| 13>  C        2.3190820000    -0.1042290000     0.2328930000
| 14>  C        2.8629340000    -1.0388280000    -0.7864730000
| 15>  O        2.9389290000    -2.3672180000    -0.2784750000
| 16>  C        2.5855100000    -3.1629170000    -1.3431800000
| 17>  C        2.0471870000    -2.4289280000    -2.3033210000
| 18>  O        2.0140360000    -1.1061490000    -1.9281140000
| 19>  H        2.5797630000     1.6229410000     1.4067940000
| 20>  H        3.9811450000     1.1805790000     0.2827860000
| 21>  H        1.3276290000    -0.3440830000     0.6055980000
| 22>  H        3.8707080000    -0.7319390000    -1.1169060000
| 23>  H        2.7406010000    -4.2238930000    -1.2487910000
| 24>  H        1.6161850000    -2.6907970000    -3.2542660000
| 25> *
| 26>
| 27>                          ****END OF INPUT****
 Total Charge           Charge          ....    0
 Multiplicity           Mult            ....    1
 Number of Electrons    NEL             ....   52
 Basis Dimension        Dim             ....  128

MULLIKEN ATOMIC CHARGES
-----------------------
   0 C :   -0.021664
   1 C :   -0.006556
   2 C :    0.309430
   3 O :   -0.280610
   4 C :    0.088460
   5 C :    0.091190
   6 O :   -0.280353
   7 H :    0.038189
   8 H :    0.031011
   9 H :    0.006578
  10 H :   -0.017063
  11 H :    0.022510
  12 H :    0.018877
Sum of atomic charges:   -0.0000000

LOEWDIN ATOMIC CHARGES
----------------------
   0 C :   -0.026180
   1 C :   -0.041194
   2 C :    0.145060
   3 O :   -0.098297
   4 C :   -0.013437
   5 C :   -0.012010
   6 O :   -0.098571
   7 H :    0.031347
   8 H :    0.027305
   9 H :    0.033018
  10 H :   -0.001505
  11 H :    0.027416
  12 H :    0.027049

  Mayer bond orders larger than 0.1
B(  0-C ,  1-C ) :   1.9774 B(  0-C ,  7-H ) :   0.9445 B(  0-C ,  8-H ) :   0.9476
B(  1-C ,  2-C ) :   1.0330 B(  1-C ,  9-H ) :   0.9500 B(  2-C ,  3-O ) :   1.0062
B(  2-C ,  6-O ) :   1.0087 B(  2-C , 10-H ) :   0.9018 B(  3-O ,  4-C ) :   1.0419
B(  4-C ,  5-C ) :   1.7319 B(  4-C , 11-H ) :   0.9828 B(  5-C ,  6-O ) :   1.0426
B(  5-C , 12-H ) :   0.9829

FINAL SINGLE POINT ENERGY      -343.850028599275

DIPOLE MOMENT
-------------
                                X             Y             Z
Electronic contribution:     -0.75528      -2.62229      -1.58269
Nuclear contribution   :      0.81332       2.59626       1.52844
                        -----------------------------------------
Total Dipole Moment    :      0.05805      -0.02603      -0.05426
                        -----------------------------------------
Magnitude (a.u.)       :      0.08361
Magnitude (Debye)      :      0.21252

                             ****ORCA TERMINATED NORMALLY****
TOTAL RUN TIME: 0 days 0 hours 0 minutes 5 seconds 971 msec
