                         Program Version 3.0.3 - RELEASE   -
|  1> ! RI PBE def2-SVP def2-SVP/J NBO PAL2
|  2> % maxcore 2000
|  3> % output
|  4>     # printlevel mini
|  5>     print[ P_Basis ] 0
|  6>     print[ P_SCFInfo ] 1
|  7>     print[ P_SCFIterInfo ] 1
|  8>     print[ P_OrbEn ] 0
|  9>     print[ P_Cartesian ] 0
| 10> end
| 11> *xyz 0 1
| 12>  C        1.3313940000     0.1386000000     0.6342620000
| 13>  C        2.4502410000     0.0394170000     0.2124490000
| 14>  C        3.8183670000    -0.0823270000    -0.3269370000
| 15>  O        4.6327250000     0.9783230000     0.0850510000
| 16>  C        5.1311020000     0.6075420000     1.3609930000
| 17>  C        4.9938730000    -0.9254540000     1.3892360000
| 18>  O        4.4484240000    -1.2487250000     0.1199570000
| 19>  H        0.3385660000     0.2266710000     1.0088240000
| 20>  H        3.7923050000    -0.0974310000    -1.4189000000
| 21>  H        4.5439330000     1.0780610000     2.1558440000
| 22>  H        6.1640660000     0.9508920000     1.4260360000
| 23>  H        4.3248940000    -1.2537070000     2.1910270000
| 24>  H        5.9482090000    -1.4445520000     1.4822470000
| 25> *
| 26>
| 27>                          ****END OF INPUT****
 Total Charge           Charge          ....    0
 Multiplicity           Mult            ....    1
 Number of Electrons    NEL             ....   52
 Basis Dimension        Dim             ....  128

MULLIKEN ATOMIC CHARGES
-----------------------
   0 C :   -0.508780
   1 C :    0.410877
   2 C :    0.248534
   3 O :   -0.309158
   4 C :    0.159220
   5 C :    0.154846
   6 O :   -0.309396
   7 H :    0.007790
   8 H :    0.041937
   9 H :    0.023963
  10 H :    0.026867
  11 H :    0.023206
  12 H :    0.030094
Sum of atomic charges:   -0.0000000

LOEWDIN ATOMIC CHARGES
----------------------
   0 C :   -0.060328
   1 C :   -0.052164
   2 C :    0.097654
   3 O :   -0.124407
   4 C :    0.054610
   5 C :    0.053748
   6 O :   -0.123875
   7 H :    0.037765
   8 H :    0.036884
   9 H :    0.015468
  10 H :    0.024332
  11 H :    0.014978
  12 H :    0.025334

  Mayer bond orders larger than 0.1
B(  0-C ,  1-C ) :   2.3607 B(  0-C ,  7-H ) :   1.0976 B(  1-C ,  2-C ) :   0.8876
B(  1-C ,  7-H ) :  -0.1090 B(  2-C ,  3-O ) :   1.0920 B(  2-C ,  6-O ) :   1.0902
B(  2-C ,  8-H ) :   0.8911 B(  3-O ,  4-C ) :   0.9979 B(  4-C ,  5-C ) :   1.0581
B(  4-C ,  9-H ) :   0.9423 B(  4-C , 10-H ) :   0.9474 B(  5-C ,  6-O ) :   0.9978
B(  5-C , 11-H ) :   0.9420 B(  5-C , 12-H ) :   0.9471

FINAL SINGLE POINT ENERGY      -343.817155579804

DIPOLE MOMENT
-------------
                                X             Y             Z
Electronic contribution:     -1.49507       0.07816      -2.96652
Nuclear contribution   :      1.57300      -0.07578       3.57223
                        -----------------------------------------
Total Dipole Moment    :      0.07793       0.00238       0.60571
                        -----------------------------------------
Magnitude (a.u.)       :      0.61070
Magnitude (Debye)      :      1.55228

                             ****ORCA TERMINATED NORMALLY****
TOTAL RUN TIME: 0 days 0 hours 0 minutes 6 seconds 132 msec
