                         Program Version 3.0.3 - RELEASE   -
|  1> ! RI PBE def2-SVP def2-SVP/J NBO PAL2
|  2> % maxcore 2000
|  3> % output
|  4>     # printlevel mini
|  5>     print[ P_Basis ] 0
|  6>     print[ P_SCFInfo ] 1
|  7>     print[ P_SCFIterInfo ] 1
|  8>     print[ P_OrbEn ] 0
|  9>     print[ P_Cartesian ] 0
| 10> end
| 11> *xyz 0 1
| 12>  C        1.0328090000    -0.0339560000    -0.0618780000
| 13>  C        2.2312240000    -0.0337820000    -0.0924670000
| 14>  C        3.7015420000    -0.0327260000    -0.0713000000
| 15>  O        4.2216220000    -1.1709770000    -0.7405430000
| 16>  C        4.6026260000    -0.6954190000    -1.9769910000
| 17>  C        4.6015910000     0.6262470000    -1.9787530000
| 18>  O        4.2198500000     1.1046210000    -0.7436710000
| 19>  H       -0.0319620000    -0.0340820000    -0.0462720000
| 20>  H        4.0639760000    -0.0309730000     0.9593500000
| 21>  H        4.8678420000    -1.4193750000    -2.7273990000
| 22>  H        4.8656690000     1.3485320000    -2.7311770000
| 23> *
| 24>
| 25>                          ****END OF INPUT****
 Total Charge           Charge          ....    0
 Multiplicity           Mult            ....    1
 Number of Electrons    NEL             ....   50
 Basis Dimension        Dim             ....  118

MULLIKEN ATOMIC CHARGES
-----------------------
   0 C :   -0.481002
   1 C :    0.429532
   2 C :    0.275464
   3 O :   -0.263644
   4 C :    0.097942
   5 C :    0.097958
   6 O :   -0.263682
   7 H :    0.011878
   8 H :    0.043952
   9 H :    0.025810
  10 H :    0.025792
Sum of atomic charges:   -0.0000000

LOEWDIN ATOMIC CHARGES
----------------------
   0 C :   -0.038489
   1 C :   -0.044119
   2 C :    0.134433
   3 O :   -0.085699
   4 C :   -0.007313
   5 C :   -0.007321
   6 O :   -0.085707
   7 H :    0.039204
   8 H :    0.035329
   9 H :    0.029843
  10 H :    0.029840

  Mayer bond orders larger than 0.1
B(  0-C ,  1-C ) :   2.3824 B(  0-C ,  7-H ) :   1.0958 B(  1-C ,  2-C ) :   0.8844
B(  1-C ,  7-H ) :  -0.1066 B(  2-C ,  3-O ) :   1.0606 B(  2-C ,  6-O ) :   1.0604
B(  2-C ,  8-H ) :   0.9070 B(  3-O ,  4-C ) :   1.0313 B(  4-C ,  5-C ) :   1.7330
B(  4-C ,  9-H ) :   0.9828 B(  5-C ,  6-O ) :   1.0314 B(  5-C , 10-H ) :   0.9828

FINAL SINGLE POINT ENERGY      -342.598495053576

DIPOLE MOMENT
-------------
                                X             Y             Z
Electronic contribution:      0.35743       0.00088       0.95220
Nuclear contribution   :     -0.46825      -0.00109      -1.19437
                        -----------------------------------------
Total Dipole Moment    :     -0.11082      -0.00021      -0.24218
                        -----------------------------------------
Magnitude (a.u.)       :      0.26632
Magnitude (Debye)      :      0.67694

                             ****ORCA TERMINATED NORMALLY****
TOTAL RUN TIME: 0 days 0 hours 0 minutes 5 seconds 417 msec
