                         Program Version 3.0.3 - RELEASE   -
|  1> ! RI PBE def2-SVP def2-SVP/J NBO PAL2
|  2> % maxcore 2000
|  3> % output
|  4>     # printlevel mini
|  5>     print[ P_Basis ] 0
|  6>     print[ P_SCFInfo ] 1
|  7>     print[ P_SCFIterInfo ] 1
|  8>     print[ P_OrbEn ] 0
|  9>     print[ P_Cartesian ] 0
| 10> end
| 11> *xyz 0 1
| 12>  C        3.5232170000    -0.8828820000     0.4996850000
| 13>  C        2.4016620000     0.0315740000     0.0384510000
| 14>  C        2.8830450000     1.4233140000    -0.2610060000
| 15>  O        1.8262310000     2.2469870000    -0.7359210000
| 16>  C        2.0867520000     3.4816690000    -0.1911470000
| 17>  C        2.9980810000     3.3767220000     0.7635570000
| 18>  O        3.3905770000     2.0668630000     0.9030310000
| 19>  H        3.1480080000    -1.8898500000     0.6899770000
| 20>  H        3.9775780000    -0.5116220000     1.4200080000
| 21>  H        4.3097040000    -0.9590240000    -0.2560690000
| 22>  H        1.6166320000     0.1045490000     0.7961240000
| 23>  H        1.9379000000    -0.3549280000    -0.8738070000
| 24>  H        3.6851700000     1.4226940000    -1.0227500000
| 25>  H        1.5189150000     4.3213490000    -0.5533570000
| 26>  H        3.4185380000     4.1023750000     1.4384050000
| 27> *
| 28>
| 29>                          ****END OF INPUT****
 Total Charge           Charge          ....    0
 Multiplicity           Mult            ....    1
 Number of Electrons    NEL             ....   54
 Basis Dimension        Dim             ....  138

MULLIKEN ATOMIC CHARGES
-----------------------
   0 C :   -0.036585
   1 C :    0.016421
   2 C :    0.242694
   3 O :   -0.274454
   4 C :    0.088371
   5 C :    0.086543
   6 O :   -0.281263
   7 H :    0.025700
   8 H :    0.034455
   9 H :    0.026530
  10 H :    0.018757
  11 H :    0.023886
  12 H :   -0.008498
  13 H :    0.018155
  14 H :    0.019290
Sum of atomic charges:    0.0000000

LOEWDIN ATOMIC CHARGES
----------------------
   0 C :   -0.063922
   1 C :   -0.058767
   2 C :    0.141282
   3 O :   -0.098087
   4 C :   -0.011953
   5 C :   -0.012907
   6 O :   -0.100398
   7 H :    0.030641
   8 H :    0.030655
   9 H :    0.027803
  10 H :    0.032047
  11 H :    0.036150
  12 H :   -0.004421
  13 H :    0.025939
  14 H :    0.025940

  Mayer bond orders larger than 0.1
B(  0-C ,  1-C ) :   1.1092 B(  0-C ,  7-H ) :   0.9600 B(  0-C ,  8-H ) :   0.9652
B(  0-C ,  9-H ) :   0.9654 B(  1-C ,  2-C ) :   1.0637 B(  1-C , 10-H ) :   0.9176
B(  1-C , 11-H ) :   0.9234 B(  2-C ,  3-O ) :   1.0289 B(  2-C ,  6-O ) :   1.0151
B(  2-C , 12-H ) :   0.9033 B(  3-O ,  4-C ) :   1.0470 B(  4-C ,  5-C ) :   1.7292
B(  4-C , 13-H ) :   0.9846 B(  5-C ,  6-O ) :   1.0489 B(  5-C , 14-H ) :   0.9844

FINAL SINGLE POINT ENERGY      -345.079270389711

DIPOLE MOMENT
-------------
                                X             Y             Z
Electronic contribution:     -1.54417       6.51437      -0.45686
Nuclear contribution   :      1.59819      -6.47044       0.44622
                        -----------------------------------------
Total Dipole Moment    :      0.05402       0.04393      -0.01064
                        -----------------------------------------
Magnitude (a.u.)       :      0.07044
Magnitude (Debye)      :      0.17903

                             ****ORCA TERMINATED NORMALLY****
TOTAL RUN TIME: 0 days 0 hours 0 minutes 6 seconds 784 msec
