                         Program Version 3.0.3 - RELEASE   -
|  1> ! RI PBE def2-SVP def2-SVP/J NBO PAL2
|  2> % maxcore 2000
|  3> % output
|  4>     # printlevel mini
|  5>     print[ P_Basis ] 0
|  6>     print[ P_SCFInfo ] 1
|  7>     print[ P_SCFIterInfo ] 1
|  8>     print[ P_OrbEn ] 0
|  9>     print[ P_Cartesian ] 0
| 10> end
| 11> *xyz 0 1
| 12>  C        3.0974730000     0.6819770000     1.3459070000
| 13>  C        2.4743940000     0.0474170000     0.1138220000
| 14>  C        2.9384800000     0.5897830000    -1.2276900000
| 15>  O        2.3302290000    -0.1104380000    -2.2834920000
| 16>  C        2.9730770000     2.1243910000    -1.3626160000
| 17>  O        4.4014790000     2.1303790000    -1.2495210000
| 18>  C        4.4525380000     0.7083500000    -1.4227790000
| 19>  H        2.7036040000     0.2154100000     2.2509590000
| 20>  H        2.8857820000     1.7509970000     1.4061800000
| 21>  H        4.1821400000     0.5604820000     1.3570850000
| 22>  H        1.3826560000     0.1668680000     0.1609300000
| 23>  H        2.6697000000    -1.0307560000     0.1110550000
| 24>  H        1.4166360000    -0.2931480000    -2.0464180000
| 25>  H        2.4941340000     2.7257110000    -0.5837350000
| 26>  H        2.6377170000     2.4565930000    -2.3514820000
| 27>  H        5.1031430000     0.2224020000    -0.6899060000
| 28>  H        4.7572190000     0.4266730000    -2.4364100000
| 29> *
| 30>
| 31>                          ****END OF INPUT****
 Total Charge           Charge          ....    0
 Multiplicity           Mult            ....    1
 Number of Electrons    NEL             ....   56
 Basis Dimension        Dim             ....  148

MULLIKEN ATOMIC CHARGES
-----------------------
   0 C :   -0.024775
   1 C :   -0.010330
   2 C :   -0.242980
   3 O :   -0.222492
   4 C :    0.293218
   5 O :   -0.367314
   6 C :    0.285763
   7 H :    0.020657
   8 H :    0.029338
   9 H :    0.034652
  10 H :    0.012234
  11 H :    0.027185
  12 H :    0.152557
  13 H :    0.005085
  14 H :   -0.006202
  15 H :    0.009109
  16 H :    0.004294
Sum of atomic charges:   -0.0000000

LOEWDIN ATOMIC CHARGES
----------------------
   0 C :   -0.065404
   1 C :   -0.057129
   2 C :   -0.003633
   3 O :   -0.093588
   4 C :    0.071623
   5 O :   -0.179428
   6 C :    0.084243
   7 H :    0.030782
   8 H :    0.029116
   9 H :    0.030911
  10 H :    0.023009
  11 H :    0.029251
  12 H :    0.067275
  13 H :    0.004253
  14 H :    0.008411
  15 H :    0.007259
  16 H :    0.013050

  Mayer bond orders larger than 0.1
B(  0-C ,  1-C ) :   1.1138 B(  0-C ,  7-H ) :   0.9522 B(  0-C ,  8-H ) :   0.9565
B(  0-C ,  9-H ) :   0.9597 B(  1-C ,  2-C ) :   1.0226 B(  1-C , 10-H ) :   0.9210
B(  1-C , 11-H ) :   0.9268 B(  2-C ,  3-O ) :   1.1201 B(  2-C ,  4-C ) :   1.0329
B(  2-C ,  6-C ) :   1.0392 B(  3-O , 12-H ) :   0.9766 B(  4-C ,  5-O ) :   1.0247
B(  4-C , 13-H ) :   0.9298 B(  4-C , 14-H ) :   0.9041 B(  5-O ,  6-C ) :   1.0218
B(  6-C , 15-H ) :   0.9319 B(  6-C , 16-H ) :   0.9079

FINAL SINGLE POINT ENERGY      -346.267804932768

DIPOLE MOMENT
-------------
                                X             Y             Z
Electronic contribution:      1.12119       1.02446      -5.12186
Nuclear contribution   :     -1.90710      -1.45623       5.59721
                        -----------------------------------------
Total Dipole Moment    :     -0.78592      -0.43177       0.47535
                        -----------------------------------------
Magnitude (a.u.)       :      1.01491
Magnitude (Debye)      :      2.57971

                             ****ORCA TERMINATED NORMALLY****
TOTAL RUN TIME: 0 days 0 hours 0 minutes 7 seconds 706 msec
