                         Program Version 3.0.3 - RELEASE   -
|  1> ! RI PBE def2-SVP def2-SVP/J NBO PAL2
|  2> % maxcore 2000
|  3> % output
|  4>     # printlevel mini
|  5>     print[ P_Basis ] 0
|  6>     print[ P_SCFInfo ] 1
|  7>     print[ P_SCFIterInfo ] 1
|  8>     print[ P_OrbEn ] 0
|  9>     print[ P_Cartesian ] 0
| 10> end
| 11> *xyz 0 1
| 12>  C        2.7516110000     0.7041980000    -1.3070460000
| 13>  C        2.4058430000     0.0191310000     0.0049100000
| 14>  C        3.0275630000    -1.3636830000     0.1720840000
| 15>  C        4.5326840000    -1.3652260000     0.1900670000
| 16>  C        5.2996380000    -2.6532370000     0.0346260000
| 17>  C        5.3320490000    -1.6372290000    -1.0480660000
| 18>  O        6.5504020000    -0.9931850000    -1.2498940000
| 19>  H        2.2532240000     1.6725860000    -1.3919710000
| 20>  H        2.4450780000     0.0965700000    -2.1635480000
| 21>  H        3.8265790000     0.8796710000    -1.3952530000
| 22>  H        1.3179890000    -0.0728660000     0.0890830000
| 23>  H        2.7200540000     0.6542280000     0.8414670000
| 24>  H        2.6794500000    -2.0219710000    -0.6341850000
| 25>  H        2.6576870000    -1.8085930000     1.1031740000
| 26>  H        4.9919510000    -0.6497240000     0.8678610000
| 27>  H        4.7425070000    -3.5677800000    -0.1323890000
| 28>  H        6.2084350000    -2.7654200000     0.6122370000
| 29>  H        4.7739250000    -1.8584600000    -1.9568700000
| 30>  H        6.3712430000    -0.0925090000    -1.5339970000
| 31> *
| 32>
| 33>                          ****END OF INPUT****
 Total Charge           Charge          ....    0
 Multiplicity           Mult            ....    1
 Number of Electrons    NEL             ....   56
 Basis Dimension        Dim             ....  158

MULLIKEN ATOMIC CHARGES
-----------------------
   0 C :   -0.023701
   1 C :   -0.043563
   2 C :    0.100655
   3 C :   -0.175201
   4 C :    0.015618
   5 C :    0.057802
   6 O :   -0.239130
   7 H :    0.020277
   8 H :    0.018173
   9 H :    0.011643
  10 H :    0.017039
  11 H :    0.010883
  12 H :   -0.012152
  13 H :    0.005623
  14 H :    0.014789
  15 H :    0.024708
  16 H :    0.034483
  17 H :    0.004231
  18 H :    0.157821
Sum of atomic charges:   -0.0000000

LOEWDIN ATOMIC CHARGES
----------------------
   0 C :   -0.068601
   1 C :   -0.047462
   2 C :   -0.034385
   3 C :   -0.065146
   4 C :   -0.048233
   5 C :    0.030984
   6 O :   -0.098423
   7 H :    0.027565
   8 H :    0.024484
   9 H :    0.018780
  10 H :    0.026040
  11 H :    0.023665
  12 H :    0.022092
  13 H :    0.026599
  14 H :    0.026060
  15 H :    0.026515
  16 H :    0.033339
  17 H :    0.004931
  18 H :    0.071196

  Mayer bond orders larger than 0.1
B(  0-C ,  1-C ) :   1.1203 B(  0-C ,  7-H ) :   0.9586 B(  0-C ,  8-H ) :   0.9650
B(  0-C ,  9-H ) :   0.9630 B(  1-C ,  2-C ) :   1.1040 B(  1-C , 10-H ) :   0.9344
B(  1-C , 11-H ) :   0.9347 B(  2-C ,  3-C ) :   1.0597 B(  2-C , 12-H ) :   0.9146
B(  2-C , 13-H ) :   0.9186 B(  3-C ,  4-C ) :   0.9835 B(  3-C ,  5-C ) :   0.9275
B(  3-C , 14-H ) :   0.9380 B(  4-C ,  5-C ) :   1.0081 B(  4-C , 15-H ) :   0.9368
B(  4-C , 16-H ) :   0.9313 B(  5-C ,  6-O ) :   1.1323 B(  5-C , 17-H ) :   0.9394
B(  6-O , 18-H ) :   0.9847

FINAL SINGLE POINT ENERGY      -310.411810059235

DIPOLE MOMENT
-------------
                                X             Y             Z
Electronic contribution:      5.67231      -2.05833      -0.23652
Nuclear contribution   :     -6.15915       2.42159       0.17648
                        -----------------------------------------
Total Dipole Moment    :     -0.48684       0.36325      -0.06004
                        -----------------------------------------
Magnitude (a.u.)       :      0.61038
Magnitude (Debye)      :      1.55147

                             ****ORCA TERMINATED NORMALLY****
TOTAL RUN TIME: 0 days 0 hours 0 minutes 8 seconds 304 msec
