                         Program Version 3.0.3 - RELEASE   -
|  1> ! RI PBE def2-SVP def2-SVP/J NBO PAL2
|  2> % maxcore 2000
|  3> % output
|  4>     # printlevel mini
|  5>     print[ P_Basis ] 0
|  6>     print[ P_SCFInfo ] 1
|  7>     print[ P_SCFIterInfo ] 1
|  8>     print[ P_OrbEn ] 0
|  9>     print[ P_Cartesian ] 0
| 10> end
| 11> *xyz 0 1
| 12>  C        1.0287400000    -0.3245590000    -0.4786420000
| 13>  C        2.5166310000    -0.2407020000    -0.4626060000
| 14>  C        3.3314620000    -1.2590460000    -0.2066630000
| 15>  C        4.8042420000    -1.2112390000    -0.1448180000
| 16>  C        5.5842050000     0.0755710000    -0.1172520000
| 17>  C        5.5104120000    -0.7532410000     1.1099930000
| 18>  O        6.6898840000    -1.3715290000     1.5093500000
| 19>  H        0.5843600000     0.3520070000     0.2587570000
| 20>  H        0.6830230000    -1.3371350000    -0.2609580000
| 21>  H        0.6274490000    -0.0290980000    -1.4534620000
| 22>  H        2.9463020000     0.7337490000    -0.6868490000
| 23>  H        2.8887610000    -2.2343650000    -0.0029700000
| 24>  H        5.3145710000    -2.0340350000    -0.6380090000
| 25>  H        5.0527800000     1.0182730000    -0.1336350000
| 26>  H        6.5349560000     0.0761310000    -0.6350210000
| 27>  H        4.8723440000    -0.3944310000     1.9154900000
| 28>  H        6.4650780000    -2.1936420000     1.9535650000
| 29> *
| 30>
| 31>                          ****END OF INPUT****
 Total Charge           Charge          ....    0
 Multiplicity           Mult            ....    1
 Number of Electrons    NEL             ....   54
 Basis Dimension        Dim             ....  148

MULLIKEN ATOMIC CHARGES
-----------------------
   0 C :    0.049073
   1 C :   -0.105974
   2 C :    0.005852
   3 C :   -0.079920
   4 C :    0.010376
   5 C :    0.048575
   6 O :   -0.230790
   7 H :    0.031127
   8 H :    0.014822
   9 H :    0.028887
  10 H :   -0.010358
  11 H :   -0.019928
  12 H :    0.017978
  13 H :    0.031776
  14 H :    0.036195
  15 H :    0.012336
  16 H :    0.159975
Sum of atomic charges:   -0.0000000

LOEWDIN ATOMIC CHARGES
----------------------
   0 C :   -0.063728
   1 C :   -0.049362
   2 C :   -0.046951
   3 C :   -0.062045
   4 C :   -0.042771
   5 C :    0.039987
   6 O :   -0.095222
   7 H :    0.035386
   8 H :    0.028961
   9 H :    0.035315
  10 H :    0.019761
  11 H :    0.022176
  12 H :    0.031902
  13 H :    0.026999
  14 H :    0.035691
  15 H :    0.008319
  16 H :    0.075582

  Mayer bond orders larger than 0.1
B(  0-C ,  1-C ) :   1.0814 B(  0-C ,  7-H ) :   0.9475 B(  0-C ,  8-H ) :   0.9613
B(  0-C ,  9-H ) :   0.9467 B(  1-C ,  2-C ) :   1.9088 B(  1-C , 10-H ) :   0.9406
B(  2-C ,  3-C ) :   1.0559 B(  2-C , 11-H ) :   0.9553 B(  3-C ,  4-C ) :   1.0042
B(  3-C ,  5-C ) :   0.8983 B(  3-C , 12-H ) :   0.9186 B(  4-C ,  5-C ) :   1.0111
B(  4-C , 13-H ) :   0.9297 B(  4-C , 14-H ) :   0.9235 B(  5-C ,  6-O ) :   1.1449
B(  5-C , 15-H ) :   0.9399 B(  6-O , 16-H ) :   0.9817

FINAL SINGLE POINT ENERGY      -309.195092307332

DIPOLE MOMENT
-------------
                                X             Y             Z
Electronic contribution:      5.64757      -1.54813       1.84925
Nuclear contribution   :     -6.06485       1.26478      -1.67795
                        -----------------------------------------
Total Dipole Moment    :     -0.41727      -0.28335       0.17130
                        -----------------------------------------
Magnitude (a.u.)       :      0.53268
Magnitude (Debye)      :      1.35396

                             ****ORCA TERMINATED NORMALLY****
TOTAL RUN TIME: 0 days 0 hours 0 minutes 7 seconds 319 msec
