                         Program Version 3.0.3 - RELEASE   -
|  1> ! RI PBE def2-SVP def2-SVP/J NBO PAL2
|  2> % maxcore 2000
|  3> % output
|  4>     # printlevel mini
|  5>     print[ P_Basis ] 0
|  6>     print[ P_SCFInfo ] 1
|  7>     print[ P_SCFIterInfo ] 1
|  8>     print[ P_OrbEn ] 0
|  9>     print[ P_Cartesian ] 0
| 10> end
| 11> *xyz 0 1
| 12>  C        2.1623180000     0.4490210000     1.7677830000
| 13>  C        2.8674360000     0.1531270000     0.4802420000
| 14>  C        2.8220120000     0.9852340000    -0.5564000000
| 15>  C        3.6031850000    -1.1363310000     0.4609720000
| 16>  C        2.9116860000    -2.4156130000     0.0307570000
| 17>  C        4.0140200000    -1.8477310000    -0.7865200000
| 18>  O        5.2060720000    -2.5689800000    -0.7952810000
| 19>  H        1.6254080000     1.3974650000     1.7265790000
| 20>  H        2.8757940000     0.4927830000     2.5974420000
| 21>  H        1.4507070000    -0.3465410000     2.0100780000
| 22>  H        2.2566680000     1.9092470000    -0.5085400000
| 23>  H        3.3436420000     0.7771060000    -1.4831470000
| 24>  H        4.2824700000    -1.2818170000     1.2977810000
| 25>  H        1.9033500000    -2.3382580000    -0.3571280000
| 26>  H        3.1334640000    -3.3153920000     0.5906900000
| 27>  H        3.7425720000    -1.4009050000    -1.7396970000
| 28>  H        5.9338070000    -1.9443140000    -0.8570120000
| 29> *
| 30>
| 31>                          ****END OF INPUT****
 Total Charge           Charge          ....    0
 Multiplicity           Mult            ....    1
 Number of Electrons    NEL             ....   54
 Basis Dimension        Dim             ....  148

MULLIKEN ATOMIC CHARGES
-----------------------
   0 C :    0.065147
   1 C :   -0.096527
   2 C :   -0.039668
   3 C :   -0.102517
   4 C :    0.022642
   5 C :    0.049771
   6 O :   -0.239836
   7 H :    0.012155
   8 H :    0.028364
   9 H :    0.030990
  10 H :    0.005455
  11 H :    0.003648
  12 H :    0.023680
  13 H :    0.031079
  14 H :    0.035993
  15 H :    0.010753
  16 H :    0.158872
Sum of atomic charges:   -0.0000000

LOEWDIN ATOMIC CHARGES
----------------------
   0 C :   -0.055094
   1 C :   -0.027612
   2 C :   -0.080518
   3 C :   -0.058939
   4 C :   -0.035365
   5 C :    0.037828
   6 O :   -0.098198
   7 H :    0.029640
   8 H :    0.036322
   9 H :    0.036528
  10 H :    0.019729
  11 H :    0.016584
  12 H :    0.033157
  13 H :    0.029144
  14 H :    0.032384
  15 H :    0.009228
  16 H :    0.075183

  Mayer bond orders larger than 0.1
B(  0-C ,  1-C ) :   1.0724 B(  0-C ,  7-H ) :   0.9471 B(  0-C ,  8-H ) :   0.9451
B(  0-C ,  9-H ) :   0.9470 B(  1-C ,  2-C ) :   1.9910 B(  1-C ,  3-C ) :   1.0234
B(  2-C , 10-H ) :   0.9265 B(  2-C , 11-H ) :   0.9273 B(  3-C ,  4-C ) :   0.9821
B(  3-C ,  5-C ) :   0.9195 B(  3-C , 12-H ) :   0.9232 B(  4-C ,  5-C ) :   1.0080
B(  4-C , 13-H ) :   0.9372 B(  4-C , 14-H ) :   0.9320 B(  5-C ,  6-O ) :   1.1204
B(  5-C , 15-H ) :   0.9387 B(  6-O , 16-H ) :   0.9839

FINAL SINGLE POINT ENERGY      -309.193069385456

DIPOLE MOMENT
-------------
                                X             Y             Z
Electronic contribution:      3.40965      -2.80012      -2.21803
Nuclear contribution   :     -3.32317       3.18842       2.35832
                        -----------------------------------------
Total Dipole Moment    :      0.08648       0.38830       0.14030
                        -----------------------------------------
Magnitude (a.u.)       :      0.42183
Magnitude (Debye)      :      1.07220

                             ****ORCA TERMINATED NORMALLY****
TOTAL RUN TIME: 0 days 0 hours 0 minutes 7 seconds 500 msec
