                         Program Version 3.0.3 - RELEASE   -
|  1> ! RI PBE def2-SVP def2-SVP/J NBO PAL2
|  2> % maxcore 2000
|  3> % output
|  4>     # printlevel mini
|  5>     print[ P_Basis ] 0
|  6>     print[ P_SCFInfo ] 1
|  7>     print[ P_SCFIterInfo ] 1
|  8>     print[ P_OrbEn ] 0
|  9>     print[ P_Cartesian ] 0
| 10> end
| 11> *xyz 0 1
| 12>  C        1.0160750000    -0.0763800000     0.1788910000
| 13>  C        2.5284710000    -0.1040090000    -0.0129960000
| 14>  C        3.1041190000     1.3025550000     0.0772470000
| 15>  C        3.1521370000    -1.0993800000     0.9442210000
| 16>  C        4.6036180000    -1.0997570000     1.3462060000
| 17>  C        3.5549740000    -0.7702320000     2.3481980000
| 18>  O        3.3521210000    -1.7050880000     3.3633080000
| 19>  H        0.5350030000     0.5761930000    -0.5542670000
| 20>  H        0.7598040000     0.2973490000     1.1753570000
| 21>  H        0.5827760000    -1.0745820000     0.0748180000
| 22>  H        2.7301140000    -0.4741290000    -1.0272480000
| 23>  H        2.9079160000     1.7562950000     1.0529900000
| 24>  H        2.6437290000     1.9454850000    -0.6767330000
| 25>  H        4.1825270000     1.3187630000    -0.0932400000
| 26>  H        2.7364390000    -2.0997890000     0.8516940000
| 27>  H        5.2512360000    -0.3010910000     1.0067310000
| 28>  H        5.0836040000    -2.0644000000     1.4528600000
| 29>  H        3.4892630000     0.2674660000     2.6682070000
| 30>  H        2.4146040000    -1.7208790000     3.5733460000
| 31> *
| 32>
| 33>                          ****END OF INPUT****
 Total Charge           Charge          ....    0
 Multiplicity           Mult            ....    1
 Number of Electrons    NEL             ....   56
 Basis Dimension        Dim             ....  158

MULLIKEN ATOMIC CHARGES
-----------------------
   0 C :    0.030586
   1 C :   -0.028146
   2 C :   -0.016061
   3 C :   -0.117975
   4 C :    0.010144
   5 C :    0.035826
   6 O :   -0.239263
   7 H :    0.015269
   8 H :    0.003328
   9 H :    0.009831
  10 H :    0.002730
  11 H :    0.019355
  12 H :    0.016895
  13 H :    0.024158
  14 H :    0.007415
  15 H :    0.029045
  16 H :    0.032677
  17 H :    0.008112
  18 H :    0.156074
Sum of atomic charges:   -0.0000000

LOEWDIN ATOMIC CHARGES
----------------------
   0 C :   -0.056022
   1 C :   -0.039962
   2 C :   -0.061809
   3 C :   -0.056028
   4 C :   -0.050341
   5 C :    0.030482
   6 O :   -0.100927
   7 H :    0.024436
   8 H :    0.020921
   9 H :    0.023184
  10 H :    0.027272
  11 H :    0.022358
  12 H :    0.028702
  13 H :    0.025449
  14 H :    0.026130
  15 H :    0.025213
  16 H :    0.032851
  17 H :    0.005490
  18 H :    0.072599

  Mayer bond orders larger than 0.1
B(  0-C ,  1-C ) :   1.0853 B(  0-C ,  7-H ) :   0.9587 B(  0-C ,  8-H ) :   0.9622
B(  0-C ,  9-H ) :   0.9594 B(  1-C ,  2-C ) :   1.0917 B(  1-C ,  3-C ) :   1.0212
B(  1-C , 10-H ) :   0.8979 B(  2-C , 11-H ) :   0.9556 B(  2-C , 12-H ) :   0.9540
B(  2-C , 13-H ) :   0.9560 B(  3-C ,  4-C ) :   0.9952 B(  3-C ,  5-C ) :   0.9283
B(  3-C , 14-H ) :   0.9310 B(  4-C ,  5-C ) :   1.0001 B(  4-C , 15-H ) :   0.9318
B(  4-C , 16-H ) :   0.9278 B(  5-C ,  6-O ) :   1.1304 B(  5-C , 17-H ) :   0.9432
B(  6-O , 18-H ) :   0.9843

FINAL SINGLE POINT ENERGY      -310.410566930898

DIPOLE MOMENT
-------------
                                X             Y             Z
Electronic contribution:      2.28201      -3.98816       4.52187
Nuclear contribution   :     -2.78668       4.24457      -4.76700
                        -----------------------------------------
Total Dipole Moment    :     -0.50467       0.25640      -0.24513
                        -----------------------------------------
Magnitude (a.u.)       :      0.61687
Magnitude (Debye)      :      1.56795

                             ****ORCA TERMINATED NORMALLY****
TOTAL RUN TIME: 0 days 0 hours 0 minutes 8 seconds 432 msec
