                         Program Version 3.0.3 - RELEASE   -
|  1> ! RI PBE def2-SVP def2-SVP/J NBO PAL2
|  2> % maxcore 2000
|  3> % output
|  4>     # printlevel mini
|  5>     print[ P_Basis ] 0
|  6>     print[ P_SCFInfo ] 1
|  7>     print[ P_SCFIterInfo ] 1
|  8>     print[ P_OrbEn ] 0
|  9>     print[ P_Cartesian ] 0
| 10> end
| 11> *xyz 0 1
| 12>  C        1.0137240000     0.0251280000    -0.0690630000
| 13>  C        2.4620160000    -0.0614040000    -0.0684550000
| 14>  C        3.6637560000    -0.1375810000    -0.0619380000
| 15>  C        5.0919020000    -0.2205610000    -0.0650860000
| 16>  C        5.8256410000    -0.9487530000    -1.1766730000
| 17>  C        5.9020090000     0.5252250000    -1.1028610000
| 18>  O        7.1302960000     1.0600880000    -0.7401910000
| 19>  H        0.5737760000    -0.7202980000    -0.7367350000
| 20>  H        0.6741410000     1.0112970000    -0.3966090000
| 21>  H        0.6136630000    -0.1490980000     0.9331780000
| 22>  H        5.5679100000    -0.2848230000     0.9082620000
| 23>  H        5.2308830000    -1.3981000000    -1.9606270000
| 24>  H        6.7148300000    -1.4931450000    -0.8854210000
| 25>  H        5.3339130000     1.0974950000    -1.8324640000
| 26>  H        6.9746300000     1.8869530000    -0.2751270000
| 27> *
| 28>
| 29>                          ****END OF INPUT****
 Total Charge           Charge          ....    0
 Multiplicity           Mult            ....    1
 Number of Electrons    NEL             ....   52
 Basis Dimension        Dim             ....  138

MULLIKEN ATOMIC CHARGES
-----------------------
   0 C :    0.058775
   1 C :   -0.220785
   2 C :    0.049430
   3 C :   -0.189021
   4 C :    0.029004
   5 C :    0.060436
   6 O :   -0.229808
   7 H :    0.045878
   8 H :    0.041465
   9 H :    0.044779
  10 H :    0.042520
  11 H :    0.040691
  12 H :    0.042178
  13 H :    0.021461
  14 H :    0.162997
Sum of atomic charges:    0.0000000

LOEWDIN ATOMIC CHARGES
----------------------
   0 C :   -0.068090
   1 C :   -0.074097
   2 C :   -0.064755
   3 C :   -0.070960
   4 C :   -0.029005
   5 C :    0.046698
   6 O :   -0.091368
   7 H :    0.048981
   8 H :    0.047209
   9 H :    0.050173
  10 H :    0.042260
  11 H :    0.034178
  12 H :    0.036656
  13 H :    0.013683
  14 H :    0.078438

  Mayer bond orders larger than 0.1
B(  0-C ,  1-C ) :   1.1320 B(  0-C ,  7-H ) :   0.9328 B(  0-C ,  8-H ) :   0.9322
B(  0-C ,  9-H ) :   0.9344 B(  1-C ,  2-C ) :   2.4802 B(  2-C ,  3-C ) :   1.0042
B(  3-C ,  4-C ) :   0.9622 B(  3-C ,  5-C ) :   0.8917 B(  3-C , 10-H ) :   0.9208
B(  4-C ,  5-C ) :   0.9995 B(  4-C , 11-H ) :   0.9411 B(  4-C , 12-H ) :   0.9295
B(  5-C ,  6-O ) :   1.1424 B(  5-C , 13-H ) :   0.9475 B(  6-O , 14-H ) :   0.9808

FINAL SINGLE POINT ENERGY      -307.959316279039

DIPOLE MOMENT
-------------
                                X             Y             Z
Electronic contribution:      3.71509       0.93111       0.44012
Nuclear contribution   :     -4.10489      -0.58530      -0.34232
                        -----------------------------------------
Total Dipole Moment    :     -0.38980       0.34581       0.09780
                        -----------------------------------------
Magnitude (a.u.)       :      0.53018
Magnitude (Debye)      :      1.34762

                             ****ORCA TERMINATED NORMALLY****
TOTAL RUN TIME: 0 days 0 hours 0 minutes 6 seconds 482 msec
