                         Program Version 3.0.3 - RELEASE   -
|  1> ! RI PBE def2-SVP def2-SVP/J NBO PAL2
|  2> % maxcore 2000
|  3> % output
|  4>     # printlevel mini
|  5>     print[ P_Basis ] 0
|  6>     print[ P_SCFInfo ] 1
|  7>     print[ P_SCFIterInfo ] 1
|  8>     print[ P_OrbEn ] 0
|  9>     print[ P_Cartesian ] 0
| 10> end
| 11> *xyz 0 1
| 12>  C        1.0772970000    -0.0414530000     0.0160200000
| 13>  C        2.5888230000     0.0031110000    -0.1286910000
| 14>  C        3.1339000000    -1.1269610000    -0.9882530000
| 15>  C        4.6259680000    -1.0587330000    -1.1798940000
| 16>  C        5.2775190000    -1.9932130000    -2.2062120000
| 17>  C        5.8353150000    -0.7035820000    -2.8090070000
| 18>  O        5.0450870000     0.1035650000    -1.9266760000
| 19>  H        0.7105440000     0.7779020000     0.6384480000
| 20>  H        0.7494110000    -0.9791580000     0.4743210000
| 21>  H        0.5863220000     0.0373570000    -0.9580560000
| 22>  H        3.0562330000    -0.0405810000     0.8619140000
| 23>  H        2.8932260000     0.9573910000    -0.5693740000
| 24>  H        2.6545240000    -1.1094970000    -1.9743990000
| 25>  H        2.8912370000    -2.0966280000    -0.5339040000
| 26>  H        5.1314640000    -1.0758190000    -0.2034330000
| 27>  H        4.5540590000    -2.5058750000    -2.8416370000
| 28>  H        6.0018590000    -2.7118830000    -1.8254580000
| 29>  H        5.6057950000    -0.5063170000    -3.8600020000
| 30>  H        6.9079080000    -0.5498370000    -2.6432980000
| 31> *
| 32>
| 33>                          ****END OF INPUT****
 Total Charge           Charge          ....    0
 Multiplicity           Mult            ....    1
 Number of Electrons    NEL             ....   56
 Basis Dimension        Dim             ....  158

MULLIKEN ATOMIC CHARGES
-----------------------
   0 C :    0.003993
   1 C :   -0.052460
   2 C :    0.058568
   3 C :    0.050523
   4 C :   -0.016782
   5 C :    0.183306
   6 O :   -0.357019
   7 H :    0.019954
   8 H :    0.012242
   9 H :    0.015435
  10 H :    0.006713
  11 H :    0.022793
  12 H :   -0.009705
  13 H :    0.003865
  14 H :   -0.008927
  15 H :    0.013373
  16 H :    0.023970
  17 H :    0.016565
  18 H :    0.013593
Sum of atomic charges:    0.0000000

LOEWDIN ATOMIC CHARGES
----------------------
   0 C :   -0.065695
   1 C :   -0.045181
   2 C :   -0.052422
   3 C :    0.069270
   4 C :   -0.053703
   5 C :    0.082998
   6 O :   -0.186037
   7 H :    0.026757
   8 H :    0.022471
   9 H :    0.024405
  10 H :    0.022561
  11 H :    0.028270
  12 H :    0.022163
  13 H :    0.027177
  14 H :    0.007297
  15 H :    0.026710
  16 H :    0.024329
  17 H :    0.010250
  18 H :    0.008379

  Mayer bond orders larger than 0.1
B(  0-C ,  1-C ) :   1.1176 B(  0-C ,  7-H ) :   0.9620 B(  0-C ,  8-H ) :   0.9648
B(  0-C ,  9-H ) :   0.9639 B(  1-C ,  2-C ) :   1.1003 B(  1-C , 10-H ) :   0.9354
B(  1-C , 11-H ) :   0.9378 B(  2-C ,  3-C ) :   1.0617 B(  2-C , 12-H ) :   0.9043
B(  2-C , 13-H ) :   0.9203 B(  3-C ,  4-C ) :   1.0827 B(  3-C ,  6-O ) :   1.0411
B(  3-C , 14-H ) :   0.9010 B(  4-C ,  5-C ) :   1.1238 B(  4-C , 15-H ) :   0.9205
B(  4-C , 16-H ) :   0.9393 B(  5-C ,  6-O ) :   1.0257 B(  5-C , 17-H ) :   0.9426
B(  5-C , 18-H ) :   0.9355

FINAL SINGLE POINT ENERGY      -310.412154553781

DIPOLE MOMENT
-------------
                                X             Y             Z
Electronic contribution:      5.09998       1.01102      -2.26487
Nuclear contribution   :     -5.05181      -1.61768       2.22353
                        -----------------------------------------
Total Dipole Moment    :      0.04816      -0.60666      -0.04134
                        -----------------------------------------
Magnitude (a.u.)       :      0.60997
Magnitude (Debye)      :      1.55042

                             ****ORCA TERMINATED NORMALLY****
TOTAL RUN TIME: 0 days 0 hours 0 minutes 8 seconds 166 msec
