                         Program Version 3.0.3 - RELEASE   -
|  1> ! RI PBE def2-SVP def2-SVP/J NBO PAL2
|  2> % maxcore 2000
|  3> % output
|  4>     # printlevel mini
|  5>     print[ P_Basis ] 0
|  6>     print[ P_SCFInfo ] 1
|  7>     print[ P_SCFIterInfo ] 1
|  8>     print[ P_OrbEn ] 0
|  9>     print[ P_Cartesian ] 0
| 10> end
| 11> *xyz 0 1
| 12>  C        1.5271040000     1.2562350000    -1.1401040000
| 13>  C        2.4240220000     0.4197810000    -1.6439700000
| 14>  C        3.1874310000    -0.5933510000    -0.8590730000
| 15>  C        4.6802370000    -0.3461620000    -0.9120280000
| 16>  C        5.2673650000     0.7863300000    -0.0615950000
| 17>  C        6.1544660000    -0.3140590000     0.5221570000
| 18>  O        5.4265720000    -1.3328850000    -0.1782020000
| 19>  H        1.0084590000     1.9756090000    -1.7632420000
| 20>  H        1.2715120000     1.2442690000    -0.0848660000
| 21>  H        2.6453650000     0.4671460000    -2.7093670000
| 22>  H        3.0063000000    -1.5971920000    -1.2630670000
| 23>  H        2.8603480000    -0.5992210000     0.1849680000
| 24>  H        5.0151730000    -0.3154980000    -1.9584560000
| 25>  H        4.5523940000     1.2102580000     0.6443460000
| 26>  H        5.7690660000     1.5918180000    -0.5952680000
| 27>  H        6.1191170000    -0.4590400000     1.6054920000
| 28>  H        7.2013680000    -0.2750580000     0.2006640000
| 29> *
| 30>
| 31>                          ****END OF INPUT****
 Total Charge           Charge          ....    0
 Multiplicity           Mult            ....    1
 Number of Electrons    NEL             ....   54
 Basis Dimension        Dim             ....  148

MULLIKEN ATOMIC CHARGES
-----------------------
   0 C :   -0.034427
   1 C :   -0.095805
   2 C :    0.148859
   3 C :    0.030518
   4 C :   -0.020818
   5 C :    0.180424
   6 O :   -0.350389
   7 H :    0.026194
   8 H :    0.017892
   9 H :    0.007658
  10 H :    0.026189
  11 H :   -0.008635
  12 H :    0.001900
  13 H :    0.013820
  14 H :    0.022872
  15 H :    0.020945
  16 H :    0.012802
Sum of atomic charges:   -0.0000000

LOEWDIN ATOMIC CHARGES
----------------------
   0 C :   -0.064527
   1 C :   -0.028945
   2 C :   -0.048016
   3 C :    0.069978
   4 C :   -0.051598
   5 C :    0.082641
   6 O :   -0.181477
   7 H :    0.025346
   8 H :    0.021606
   9 H :    0.026035
  10 H :    0.041765
  11 H :    0.027182
  12 H :    0.008053
  13 H :    0.027167
  14 H :    0.025183
  15 H :    0.011014
  16 H :    0.008594

  Mayer bond orders larger than 0.1
B(  0-C ,  1-C ) :   2.0097 B(  0-C ,  7-H ) :   0.9443 B(  0-C ,  8-H ) :   0.9493
B(  1-C ,  2-C ) :   1.0509 B(  1-C ,  9-H ) :   0.9511 B(  2-C ,  3-C ) :   1.0405
B(  2-C , 10-H ) :   0.8986 B(  2-C , 11-H ) :   0.9122 B(  3-C ,  4-C ) :   1.0844
B(  3-C ,  6-O ) :   1.0431 B(  3-C , 12-H ) :   0.9129 B(  4-C ,  5-C ) :   1.1165
B(  4-C , 13-H ) :   0.9214 B(  4-C , 14-H ) :   0.9404 B(  5-C ,  6-O ) :   1.0231
B(  5-C , 15-H ) :   0.9432 B(  5-C , 16-H ) :   0.9358

FINAL SINGLE POINT ENERGY      -309.187093045417

DIPOLE MOMENT
-------------
                                X             Y             Z
Electronic contribution:      1.76090      -2.78943      -0.15676
Nuclear contribution   :     -1.75451       3.36154       0.14877
                        -----------------------------------------
Total Dipole Moment    :      0.00639       0.57211      -0.00799
                        -----------------------------------------
Magnitude (a.u.)       :      0.57220
Magnitude (Debye)      :      1.45441

                             ****ORCA TERMINATED NORMALLY****
TOTAL RUN TIME: 0 days 0 hours 0 minutes 7 seconds 710 msec
