                         Program Version 3.0.3 - RELEASE   -
|  1> ! RI PBE def2-SVP def2-SVP/J NBO PAL2
|  2> % maxcore 2000
|  3> % output
|  4>     # printlevel mini
|  5>     print[ P_Basis ] 0
|  6>     print[ P_SCFInfo ] 1
|  7>     print[ P_SCFIterInfo ] 1
|  8>     print[ P_OrbEn ] 0
|  9>     print[ P_Cartesian ] 0
| 10> end
| 11> *xyz 0 1
| 12>  C        1.1769770000     0.5935310000    -0.7283260000
| 13>  C        2.2826280000     0.2973900000    -0.3679610000
| 14>  C        3.6258420000    -0.0646340000     0.0492550000
| 15>  C        4.2753750000    -1.1051230000    -0.8446200000
| 16>  C        5.6420890000    -1.6447040000    -0.4093010000
| 17>  C        4.9624650000    -3.0115250000    -0.5016550000
| 18>  O        3.6806680000    -2.4056490000    -0.7210700000
| 19>  H        0.1934850000     0.8489900000    -1.0442440000
| 20>  H        3.6059420000    -0.4456290000     1.0759040000
| 21>  H        4.2611140000     0.8294150000     0.0483480000
| 22>  H        4.2448790000    -0.7650620000    -1.8871180000
| 23>  H        5.9207020000    -1.3536290000     0.6044930000
| 24>  H        6.4770980000    -1.4610090000    -1.0834460000
| 25>  H        4.9724020000    -3.6329160000     0.3978420000
| 26>  H        5.2728440000    -3.6175360000    -1.3598910000
| 27> *
| 28>
| 29>                          ****END OF INPUT****
 Total Charge           Charge          ....    0
 Multiplicity           Mult            ....    1
 Number of Electrons    NEL             ....   52
 Basis Dimension        Dim             ....  138

MULLIKEN ATOMIC CHARGES
-----------------------
   0 C :   -0.485969
   1 C :    0.332967
   2 C :    0.157568
   3 C :    0.019135
   4 C :   -0.003953
   5 C :    0.180046
   6 O :   -0.341657
   7 H :   -0.001697
   8 H :    0.021496
   9 H :    0.036402
  10 H :    0.010245
  11 H :    0.010435
  12 H :    0.028491
  13 H :    0.020498
  14 H :    0.015994
Sum of atomic charges:   -0.0000000

LOEWDIN ATOMIC CHARGES
----------------------
   0 C :   -0.082221
   1 C :   -0.021467
   2 C :   -0.056222
   3 C :    0.076416
   4 C :   -0.050751
   5 C :    0.084913
   6 O :   -0.176047
   7 H :    0.034358
   8 H :    0.047963
   9 H :    0.053849
  10 H :    0.014080
  11 H :    0.026680
  12 H :    0.026613
  13 H :    0.011799
  14 H :    0.010037

  Mayer bond orders larger than 0.1
B(  0-C ,  1-C ) :   2.3433 B(  0-C ,  7-H ) :   1.0982 B(  1-C ,  2-C ) :   1.0767
B(  1-C ,  7-H ) :  -0.1072 B(  2-C ,  3-C ) :   1.0289 B(  2-C ,  8-H ) :   0.8686
B(  2-C ,  9-H ) :   0.8862 B(  3-C ,  4-C ) :   1.0879 B(  3-C ,  6-O ) :   1.0616
B(  3-C , 10-H ) :   0.9068 B(  4-C ,  5-C ) :   1.1206 B(  4-C , 11-H ) :   0.9186
B(  4-C , 12-H ) :   0.9393 B(  5-C ,  6-O ) :   1.0295 B(  5-C , 13-H ) :   0.9432
B(  5-C , 14-H ) :   0.9354

FINAL SINGLE POINT ENERGY      -307.942429603546

DIPOLE MOMENT
-------------
                                X             Y             Z
Electronic contribution:     -3.98146       0.77583      -0.60970
Nuclear contribution   :      4.84041      -0.63477       0.73406
                        -----------------------------------------
Total Dipole Moment    :      0.85896       0.14106       0.12436
                        -----------------------------------------
Magnitude (a.u.)       :      0.87930
Magnitude (Debye)      :      2.23501

                             ****ORCA TERMINATED NORMALLY****
TOTAL RUN TIME: 0 days 0 hours 0 minutes 6 seconds 726 msec
