                         Program Version 3.0.3 - RELEASE   -
|  1> ! RI PBE def2-SVP def2-SVP/J NBO PAL2
|  2> % maxcore 2000
|  3> % output
|  4>     # printlevel mini
|  5>     print[ P_Basis ] 0
|  6>     print[ P_SCFInfo ] 1
|  7>     print[ P_SCFIterInfo ] 1
|  8>     print[ P_OrbEn ] 0
|  9>     print[ P_Cartesian ] 0
| 10> end
| 11> *xyz 0 1
| 12>  C        0.7671170000    -0.1550970000    -0.4258730000
| 13>  C        2.2506780000    -0.2182170000    -0.3222480000
| 14>  C        3.1043380000     0.4422980000    -1.0962110000
| 15>  C        4.5771090000     0.3358100000    -0.9817580000
| 16>  C        5.3971200000     0.0472200000    -2.2521720000
| 17>  C        6.1860630000     1.2923720000    -1.8536170000
| 18>  O        5.2333950000     1.6160890000    -0.8318610000
| 19>  H        0.3241550000     0.1889460000     0.5141260000
| 20>  H        0.3439680000    -1.1447810000    -0.6259040000
| 21>  H        0.4492720000     0.5202510000    -1.2221160000
| 22>  H        2.6555490000    -0.8636990000     0.4567080000
| 23>  H        2.7337950000     1.1075260000    -1.8752530000
| 24>  H        4.8407690000    -0.3274130000    -0.1470670000
| 25>  H        4.8176230000     0.1678750000    -3.1678330000
| 26>  H        5.9322540000    -0.9008090000    -2.2817270000
| 27>  H        6.2739080000     2.0878130000    -2.5987250000
| 28>  H        7.1767070000     1.0877050000    -1.4305480000
| 29> *
| 30>
| 31>                          ****END OF INPUT****
 Total Charge           Charge          ....    0
 Multiplicity           Mult            ....    1
 Number of Electrons    NEL             ....   54
 Basis Dimension        Dim             ....  148

MULLIKEN ATOMIC CHARGES
-----------------------
   0 C :    0.039475
   1 C :   -0.114239
   2 C :    0.050005
   3 C :    0.075497
   4 C :   -0.009368
   5 C :    0.179094
   6 O :   -0.346971
   7 H :    0.036747
   8 H :    0.034363
   9 H :    0.024253
  10 H :   -0.001569
  11 H :   -0.021078
  12 H :   -0.008228
  13 H :    0.011512
  14 H :    0.023046
  15 H :    0.019444
  16 H :    0.008019
Sum of atomic charges:    0.0000000

LOEWDIN ATOMIC CHARGES
----------------------
   0 C :   -0.064183
   1 C :   -0.028479
   2 C :   -0.057071
   3 C :    0.065570
   4 C :   -0.046251
   5 C :    0.078663
   6 O :   -0.182455
   7 H :    0.039523
   8 H :    0.038380
   9 H :    0.032378
  10 H :    0.023014
  11 H :    0.021855
  12 H :    0.011749
  13 H :    0.026594
  14 H :    0.023465
  15 H :    0.010375
  16 H :    0.006873

  Mayer bond orders larger than 0.1
B(  0-C ,  1-C ) :   1.0828 B(  0-C ,  7-H ) :   0.9458 B(  0-C ,  8-H ) :   0.9455
B(  0-C ,  9-H ) :   0.9620 B(  1-C ,  2-C ) :   1.8704 B(  1-C , 10-H ) :   0.9587
B(  2-C ,  3-C ) :   1.0458 B(  2-C , 11-H ) :   0.9451 B(  3-C ,  4-C ) :   1.0708
B(  3-C ,  6-O ) :   1.0190 B(  3-C , 12-H ) :   0.9113 B(  4-C ,  5-C ) :   1.1097
B(  4-C , 13-H ) :   0.9228 B(  4-C , 14-H ) :   0.9426 B(  5-C ,  6-O ) :   1.0283
B(  5-C , 15-H ) :   0.9437 B(  5-C , 16-H ) :   0.9333

FINAL SINGLE POINT ENERGY      -309.191849803917

DIPOLE MOMENT
-------------
                                X             Y             Z
Electronic contribution:      3.48111       2.25952       0.83184
Nuclear contribution   :     -3.64302      -2.83866      -1.18522
                        -----------------------------------------
Total Dipole Moment    :     -0.16191      -0.57913      -0.35339
                        -----------------------------------------
Magnitude (a.u.)       :      0.69749
Magnitude (Debye)      :      1.77288

                             ****ORCA TERMINATED NORMALLY****
TOTAL RUN TIME: 0 days 0 hours 0 minutes 7 seconds 321 msec
