                         Program Version 3.0.3 - RELEASE   -
|  1> ! RI PBE def2-SVP def2-SVP/J NBO PAL2
|  2> % maxcore 2000
|  3> % output
|  4>     # printlevel mini
|  5>     print[ P_Basis ] 0
|  6>     print[ P_SCFInfo ] 1
|  7>     print[ P_SCFIterInfo ] 1
|  8>     print[ P_OrbEn ] 0
|  9>     print[ P_Cartesian ] 0
| 10> end
| 11> *xyz 0 1
| 12>  C        4.8103550000     0.3596600000    -1.8204800000
| 13>  C        3.8746700000     0.2783670000    -0.6565780000
| 14>  C        2.9168130000    -0.6334870000    -0.5422520000
| 15>  C        4.0964360000     1.3155630000     0.3939800000
| 16>  C        3.6285310000     2.7542740000     0.0913440000
| 17>  C        2.8584410000     2.6128190000     1.4039730000
| 18>  O        3.2219220000     1.2306640000     1.5252490000
| 19>  H        4.5852450000    -0.4053460000    -2.5639500000
| 20>  H        5.8493930000     0.2309620000    -1.4990080000
| 21>  H        4.7517630000     1.3384680000    -2.3089370000
| 22>  H        2.7647800000    -1.3854770000    -1.3085760000
| 23>  H        2.2710300000    -0.6500150000     0.3268450000
| 24>  H        5.1475480000     1.2785850000     0.7190670000
| 25>  H        2.9968600000     2.8265560000    -0.7936750000
| 26>  H        4.4013630000     3.5206150000     0.0586080000
| 27>  H        1.7742410000     2.7457960000     1.3542530000
| 28>  H        3.2553080000     3.2060060000     2.2350470000
| 29> *
| 30>
| 31>                          ****END OF INPUT****
 Total Charge           Charge          ....    0
 Multiplicity           Mult            ....    1
 Number of Electrons    NEL             ....   54
 Basis Dimension        Dim             ....  148

MULLIKEN ATOMIC CHARGES
-----------------------
   0 C :    0.061009
   1 C :   -0.166632
   2 C :   -0.024561
   3 C :    0.129268
   4 C :   -0.043774
   5 C :    0.195532
   6 O :   -0.344017
   7 H :    0.021895
   8 H :    0.029953
   9 H :    0.025775
  10 H :    0.006478
  11 H :    0.021848
  12 H :    0.004508
  13 H :    0.020047
  14 H :    0.028844
  15 H :    0.021596
  16 H :    0.012231
Sum of atomic charges:   -0.0000000

LOEWDIN ATOMIC CHARGES
----------------------
   0 C :   -0.055954
   1 C :   -0.054809
   2 C :   -0.069880
   3 C :    0.073181
   4 C :   -0.048530
   5 C :    0.086088
   6 O :   -0.169059
   7 H :    0.034441
   8 H :    0.036108
   9 H :    0.033832
  10 H :    0.019897
  11 H :    0.023480
  12 H :    0.015671
  13 H :    0.028278
  14 H :    0.025564
  15 H :    0.012378
  16 H :    0.009314

  Mayer bond orders larger than 0.1
B(  0-C ,  1-C ) :   1.0777 B(  0-C ,  7-H ) :   0.9475 B(  0-C ,  8-H ) :   0.9442
B(  0-C ,  9-H ) :   0.9444 B(  1-C ,  2-C ) :   1.9987 B(  1-C ,  3-C ) :   1.0047
B(  2-C , 10-H ) :   0.9294 B(  2-C , 11-H ) :   0.9200 B(  3-C ,  4-C ) :   1.0845
B(  3-C ,  6-O ) :   1.0602 B(  3-C , 12-H ) :   0.8902 B(  4-C ,  5-C ) :   1.1172
B(  4-C , 13-H ) :   0.9216 B(  4-C , 14-H ) :   0.9372 B(  5-C ,  6-O ) :   1.0152
B(  5-C , 15-H ) :   0.9423 B(  5-C , 16-H ) :   0.9342

FINAL SINGLE POINT ENERGY      -309.192329058372

DIPOLE MOMENT
-------------
                                X             Y             Z
Electronic contribution:     -1.16328      -0.53580       3.74544
Nuclear contribution   :      1.41346       1.13753      -4.19609
                        -----------------------------------------
Total Dipole Moment    :      0.25018       0.60173      -0.45065
                        -----------------------------------------
Magnitude (a.u.)       :      0.79231
Magnitude (Debye)      :      2.01389

                             ****ORCA TERMINATED NORMALLY****
TOTAL RUN TIME: 0 days 0 hours 0 minutes 7 seconds 545 msec
