                         Program Version 3.0.3 - RELEASE   -
|  1> ! RI PBE def2-SVP def2-SVP/J NBO PAL2
|  2> % maxcore 2000
|  3> % output
|  4>     # printlevel mini
|  5>     print[ P_Basis ] 0
|  6>     print[ P_SCFInfo ] 1
|  7>     print[ P_SCFIterInfo ] 1
|  8>     print[ P_OrbEn ] 0
|  9>     print[ P_Cartesian ] 0
| 10> end
| 11> *xyz 0 1
| 12>  C        1.0290140000    -0.1037460000    -0.0534140000
| 13>  C        2.5486240000     0.0046630000    -0.1050530000
| 14>  C        3.1811890000    -1.3688210000    -0.2777620000
| 15>  C        2.9519300000     0.9901120000    -1.1875670000
| 16>  C        4.4307610000     1.2028740000    -1.5389750000
| 17>  C        3.9981370000     0.8283650000    -2.9566150000
| 18>  O        2.6683830000     0.5188920000    -2.5218790000
| 19>  H        0.7101040000    -0.7815290000     0.7419090000
| 20>  H        0.6440380000    -0.4901910000    -1.0006680000
| 21>  H        0.5644890000     0.8695130000     0.1257780000
| 22>  H        2.8993390000     0.4397690000     0.8414150000
| 23>  H        2.8850100000    -1.8071390000    -1.2334800000
| 24>  H        2.8528950000    -2.0419010000     0.5176210000
| 25>  H        4.2723930000    -1.3326120000    -0.2436190000
| 26>  H        2.4252990000     1.9384780000    -1.0098560000
| 27>  H        5.1154330000     0.4954010000    -1.0728710000
| 28>  H        4.8091630000     2.2147290000    -1.4007890000
| 29>  H        4.4913850000    -0.0382520000    -3.4071950000
| 30>  H        4.0049240000     1.6563040000    -3.6742810000
| 31> *
| 32>
| 33>                          ****END OF INPUT****
 Total Charge           Charge          ....    0
 Multiplicity           Mult            ....    1
 Number of Electrons    NEL             ....   56
 Basis Dimension        Dim             ....  158

MULLIKEN ATOMIC CHARGES
-----------------------
   0 C :    0.027197
   1 C :   -0.072188
   2 C :   -0.014518
   3 C :    0.074417
   4 C :   -0.011757
   5 C :    0.185820
   6 O :   -0.356888
   7 H :    0.014169
   8 H :    0.028349
   9 H :    0.008817
  10 H :   -0.000820
  11 H :    0.030400
  12 H :    0.017759
  13 H :    0.016221
  14 H :   -0.007577
  15 H :    0.014946
  16 H :    0.017552
  17 H :    0.013243
  18 H :    0.014860
Sum of atomic charges:    0.0000000

LOEWDIN ATOMIC CHARGES
----------------------
   0 C :   -0.054958
   1 C :   -0.058881
   2 C :   -0.064018
   3 C :    0.073375
   4 C :   -0.052402
   5 C :    0.084067
   6 O :   -0.183012
   7 H :    0.024118
   8 H :    0.030084
   9 H :    0.023228
  10 H :    0.027126
  11 H :    0.028178
  12 H :    0.027404
  13 H :    0.021411
  14 H :    0.008199
  15 H :    0.024283
  16 H :    0.024091
  17 H :    0.008721
  18 H :    0.008985

  Mayer bond orders larger than 0.1
B(  0-C ,  1-C ) :   1.0891 B(  0-C ,  7-H ) :   0.9613 B(  0-C ,  8-H ) :   0.9619
B(  0-C ,  9-H ) :   0.9566 B(  1-C ,  2-C ) :   1.0682 B(  1-C ,  3-C ) :   1.0175
B(  1-C , 10-H ) :   0.8988 B(  2-C , 11-H ) :   0.9601 B(  2-C , 12-H ) :   0.9577
B(  2-C , 13-H ) :   0.9582 B(  3-C ,  4-C ) :   1.0780 B(  3-C ,  6-O ) :   1.0416
B(  3-C , 14-H ) :   0.9095 B(  4-C ,  5-C ) :   1.1176 B(  4-C , 15-H ) :   0.9217
B(  4-C , 16-H ) :   0.9375 B(  5-C ,  6-O ) :   1.0263 B(  5-C , 17-H ) :   0.9414
B(  5-C , 18-H ) :   0.9364

FINAL SINGLE POINT ENERGY      -310.411871407154

DIPOLE MOMENT
-------------
                                X             Y             Z
Electronic contribution:      0.35476       2.29578      -3.53337
Nuclear contribution   :      0.13496      -2.10082       3.85570
                        -----------------------------------------
Total Dipole Moment    :      0.48973       0.19496       0.32234
                        -----------------------------------------
Magnitude (a.u.)       :      0.61785
Magnitude (Debye)      :      1.57046

                             ****ORCA TERMINATED NORMALLY****
TOTAL RUN TIME: 0 days 0 hours 0 minutes 8 seconds 455 msec
