                         Program Version 3.0.3 - RELEASE   -
|  1> ! RI PBE def2-SVP def2-SVP/J NBO PAL2
|  2> % maxcore 2000
|  3> % output
|  4>     # printlevel mini
|  5>     print[ P_Basis ] 0
|  6>     print[ P_SCFInfo ] 1
|  7>     print[ P_SCFIterInfo ] 1
|  8>     print[ P_OrbEn ] 0
|  9>     print[ P_Cartesian ] 0
| 10> end
| 11> *xyz 0 1
| 12>  C        1.2999500000    -0.8330190000     0.2018670000
| 13>  C        2.6473980000    -0.4671080000    -0.4025290000
| 14>  C        2.4645550000     0.5871960000    -1.4919030000
| 15>  C        3.6697270000     0.0094650000     0.6198160000
| 16>  C        5.0955030000     0.0721890000     0.1411280000
| 17>  C        3.4387360000    -0.1052300000     2.0605220000
| 18>  O        3.2635310000     1.1370200000     1.3975150000
| 19>  H        0.5906050000    -1.0886340000    -0.5885040000
| 20>  H        0.8839280000     0.0101520000     0.7601370000
| 21>  H        1.3691080000    -1.6919130000     0.8725870000
| 22>  H        3.0712410000    -1.3682450000    -0.8639960000
| 23>  H        2.0764190000     1.5125210000    -1.0587620000
| 24>  H        1.7526250000     0.2404230000    -2.2442650000
| 25>  H        3.3987830000     0.8208900000    -2.0056110000
| 26>  H        5.1953980000     0.7261290000    -0.7275510000
| 27>  H        5.4493220000    -0.9227390000    -0.1420440000
| 28>  H        5.7427490000     0.4592270000     0.9290650000
| 29>  H        4.2972610000    -0.1569130000     2.7276500000
| 30>  H        2.5291610000    -0.5569020000     2.4439790000
| 31> *
| 32>
| 33>                          ****END OF INPUT****
 Total Charge           Charge          ....    0
 Multiplicity           Mult            ....    1
 Number of Electrons    NEL             ....   56
 Basis Dimension        Dim             ....  158

MULLIKEN ATOMIC CHARGES
-----------------------
   0 C :    0.009406
   1 C :   -0.054326
   2 C :    0.020364
   3 C :   -0.169503
   4 C :    0.112884
   5 C :    0.177276
   6 O :   -0.298859
   7 H :    0.013787
   8 H :    0.030312
   9 H :    0.019461
  10 H :    0.000953
  11 H :    0.027025
  12 H :    0.015232
  13 H :    0.012090
  14 H :    0.020935
  15 H :    0.020744
  16 H :    0.012439
  17 H :    0.014630
  18 H :    0.015151
Sum of atomic charges:   -0.0000000

LOEWDIN ATOMIC CHARGES
----------------------
   0 C :   -0.060438
   1 C :   -0.046632
   2 C :   -0.053581
   3 C :    0.014861
   4 C :   -0.058092
   5 C :    0.056516
   6 O :   -0.156855
   7 H :    0.027816
   8 H :    0.028701
   9 H :    0.023503
  10 H :    0.027736
  11 H :    0.030063
  12 H :    0.025168
  13 H :    0.022298
  14 H :    0.030288
  15 H :    0.033027
  16 H :    0.033140
  17 H :    0.010968
  18 H :    0.011512

  Mayer bond orders larger than 0.1
B(  0-C ,  1-C ) :   1.1059 B(  0-C ,  7-H ) :   0.9505 B(  0-C ,  8-H ) :   0.9482
B(  0-C ,  9-H ) :   0.9509 B(  1-C ,  2-C ) :   1.0842 B(  1-C ,  3-C ) :   0.9832
B(  1-C , 10-H ) :   0.9037 B(  2-C , 11-H ) :   0.9597 B(  2-C , 12-H ) :   0.9576
B(  2-C , 13-H ) :   0.9570 B(  3-C ,  4-C ) :   1.0846 B(  3-C ,  5-C ) :   1.1127
B(  3-C ,  6-O ) :   0.9273 B(  4-C , 14-H ) :   0.9460 B(  4-C , 15-H ) :   0.9470
B(  4-C , 16-H ) :   0.9331 B(  5-C ,  6-O ) :   1.0096 B(  5-C , 17-H ) :   0.9245
B(  5-C , 18-H ) :   0.9081

FINAL SINGLE POINT ENERGY      -310.412874901605

DIPOLE MOMENT
-------------
                                X             Y             Z
Electronic contribution:      1.17568       2.07173       3.78332
Nuclear contribution   :     -1.00907      -2.69760      -3.93715
                        -----------------------------------------
Total Dipole Moment    :      0.16661      -0.62587      -0.15382
                        -----------------------------------------
Magnitude (a.u.)       :      0.66568
Magnitude (Debye)      :      1.69203

                             ****ORCA TERMINATED NORMALLY****
TOTAL RUN TIME: 0 days 0 hours 0 minutes 8 seconds 587 msec
