                         Program Version 3.0.3 - RELEASE   -
|  1> ! RI PBE def2-SVP def2-SVP/J NBO PAL2
|  2> % maxcore 2000
|  3> % output
|  4>     # printlevel mini
|  5>     print[ P_Basis ] 0
|  6>     print[ P_SCFInfo ] 1
|  7>     print[ P_SCFIterInfo ] 1
|  8>     print[ P_OrbEn ] 0
|  9>     print[ P_Cartesian ] 0
| 10> end
| 11> *xyz 0 1
| 12>  C        1.0729750000    -0.0760510000     0.0019320000
| 13>  C        2.5202680000    -0.0047360000    -0.0375300000
| 14>  C        3.7218910000     0.0418040000    -0.0671790000
| 15>  C        5.1676200000     0.1153950000    -0.1085940000
| 16>  C        5.8784690000     1.0860200000     0.8543390000
| 17>  C        6.6719680000    -0.1489370000     1.2784490000
| 18>  O        5.8345570000    -1.0127000000     0.4958550000
| 19>  H        0.6515260000    -0.1152460000    -1.0055060000
| 20>  H        0.6502720000     0.7927370000     0.5127230000
| 21>  H        0.7469630000    -0.9708080000     0.5382220000
| 22>  H        5.4968350000     0.2335950000    -1.1492570000
| 23>  H        5.2186270000     1.4801770000     1.6249140000
| 24>  H        6.4332900000     1.8987140000     0.3885890000
| 25>  H        6.6459540000    -0.4101210000     2.3395900000
| 26>  H        7.7099880000    -0.1696520000     0.9280620000
| 27> *
| 28>
| 29>                          ****END OF INPUT****
 Total Charge           Charge          ....    0
 Multiplicity           Mult            ....    1
 Number of Electrons    NEL             ....   52
 Basis Dimension        Dim             ....  138

MULLIKEN ATOMIC CHARGES
-----------------------
   0 C :    0.053541
   1 C :   -0.249441
   2 C :    0.044709
   3 C :    0.055946
   4 C :   -0.014824
   5 C :    0.188357
   6 O :   -0.335062
   7 H :    0.048344
   8 H :    0.049529
   9 H :    0.053064
  10 H :    0.022193
  11 H :    0.025428
  12 H :    0.025938
  13 H :    0.020708
  14 H :    0.011569
Sum of atomic charges:   -0.0000000

LOEWDIN ATOMIC CHARGES
----------------------
   0 C :   -0.067113
   1 C :   -0.046729
   2 C :   -0.076105
   3 C :    0.058370
   4 C :   -0.038020
   5 C :    0.082088
   6 O :   -0.174869
   7 H :    0.050684
   8 H :    0.051475
   9 H :    0.054798
  10 H :    0.027062
  11 H :    0.031974
  12 H :    0.025485
  13 H :    0.012344
  14 H :    0.008557

  Mayer bond orders larger than 0.1
B(  0-C ,  1-C ) :   1.1286 B(  0-C ,  7-H ) :   0.9344 B(  0-C ,  8-H ) :   0.9333
B(  0-C ,  9-H ) :   0.9288 B(  1-C ,  2-C ) :   2.5816 B(  2-C ,  3-C ) :   0.9391
B(  3-C ,  4-C ) :   1.0924 B(  3-C ,  6-O ) :   1.0952 B(  3-C , 10-H ) :   0.8852
B(  4-C ,  5-C ) :   1.1109 B(  4-C , 11-H ) :   0.9284 B(  4-C , 12-H ) :   0.9399
B(  5-C ,  6-O ) :   1.0200 B(  5-C , 13-H ) :   0.9440 B(  5-C , 14-H ) :   0.9355

FINAL SINGLE POINT ENERGY      -307.951106969961

DIPOLE MOMENT
-------------
                                X             Y             Z
Electronic contribution:      1.65479      -1.98232      -1.05431
Nuclear contribution   :     -1.90491       2.65424       1.17098
                        -----------------------------------------
Total Dipole Moment    :     -0.25011       0.67192       0.11666
                        -----------------------------------------
Magnitude (a.u.)       :      0.72639
Magnitude (Debye)      :      1.84633

                             ****ORCA TERMINATED NORMALLY****
TOTAL RUN TIME: 0 days 0 hours 0 minutes 6 seconds 467 msec
