                         Program Version 3.0.3 - RELEASE   -
|  1> ! RI PBE def2-SVP def2-SVP/J NBO PAL2
|  2> % maxcore 2000
|  3> % output
|  4>     # printlevel mini
|  5>     print[ P_Basis ] 0
|  6>     print[ P_SCFInfo ] 1
|  7>     print[ P_SCFIterInfo ] 1
|  8>     print[ P_OrbEn ] 0
|  9>     print[ P_Cartesian ] 0
| 10> end
| 11> *xyz 0 1
| 12>  C        0.9865850000    -0.2414350000     0.1800590000
| 13>  C        2.4546060000    -0.2272570000    -0.2124140000
| 14>  C        3.3550560000     0.2341750000     0.9257880000
| 15>  C        4.8158210000     0.3246080000     0.5643210000
| 16>  C        5.5165830000    -0.9606930000     0.2268690000
| 17>  C        5.3437580000     1.5885050000     0.0518200000
| 18>  O        5.5712980000     1.2035750000     1.3980640000
| 19>  H        0.3548000000    -0.5765790000    -0.6455220000
| 20>  H        0.6476940000     0.7553850000     0.4754320000
| 21>  H        0.8118030000    -0.9118730000     1.0260990000
| 22>  H        2.5994870000     0.4310860000    -1.0765340000
| 23>  H        2.7515590000    -1.2292350000    -0.5389880000
| 24>  H        3.2472420000    -0.4474870000     1.7788030000
| 25>  H        3.0334330000     1.2203170000     1.2755590000
| 26>  H        5.0885830000    -1.4224710000    -0.6658730000
| 27>  H        5.4247120000    -1.6721350000     1.0524500000
| 28>  H        6.5771280000    -0.7794160000     0.0480580000
| 29>  H        4.6744970000     2.4362480000    -0.0821530000
| 30>  H        6.2239770000     1.5861800000    -0.5878580000
| 31> *
| 32>
| 33>                          ****END OF INPUT****
 Total Charge           Charge          ....    0
 Multiplicity           Mult            ....    1
 Number of Electrons    NEL             ....   56
 Basis Dimension        Dim             ....  158

MULLIKEN ATOMIC CHARGES
-----------------------
   0 C :   -0.008863
   1 C :   -0.054904
   2 C :    0.108130
   3 C :   -0.211985
   4 C :    0.105589
   5 C :    0.170695
   6 O :   -0.289140
   7 H :    0.021617
   8 H :    0.018931
   9 H :    0.019666
  10 H :    0.010599
  11 H :    0.014271
  12 H :    0.010118
  13 H :   -0.010442
  14 H :    0.020796
  15 H :    0.028027
  16 H :    0.013723
  17 H :    0.015373
  18 H :    0.017797
Sum of atomic charges:   -0.0000000

LOEWDIN ATOMIC CHARGES
----------------------
   0 C :   -0.065560
   1 C :   -0.045809
   2 C :   -0.038124
   3 C :    0.008486
   4 C :   -0.059846
   5 C :    0.053650
   6 O :   -0.155977
   7 H :    0.027486
   8 H :    0.025167
   9 H :    0.025704
  10 H :    0.023460
  11 H :    0.022268
  12 H :    0.028114
  13 H :    0.028535
  14 H :    0.031145
  15 H :    0.034117
  16 H :    0.033986
  17 H :    0.011451
  18 H :    0.011749

  Mayer bond orders larger than 0.1
B(  0-C ,  1-C ) :   1.1191 B(  0-C ,  7-H ) :   0.9600 B(  0-C ,  8-H ) :   0.9648
B(  0-C ,  9-H ) :   0.9653 B(  1-C ,  2-C ) :   1.0878 B(  1-C , 10-H ) :   0.9384
B(  1-C , 11-H ) :   0.9318 B(  2-C ,  3-C ) :   1.0473 B(  2-C , 12-H ) :   0.9180
B(  2-C , 13-H ) :   0.8990 B(  3-C ,  4-C ) :   1.0710 B(  3-C ,  5-C ) :   1.0878
B(  3-C ,  6-O ) :   0.9599 B(  4-C , 14-H ) :   0.9471 B(  4-C , 15-H ) :   0.9490
B(  4-C , 16-H ) :   0.9329 B(  5-C ,  6-O ) :   1.0088 B(  5-C , 17-H ) :   0.9226
B(  5-C , 18-H ) :   0.9288

FINAL SINGLE POINT ENERGY      -310.413970569519

DIPOLE MOMENT
-------------
                                X             Y             Z
Electronic contribution:      5.80585       3.36760       2.55772
Nuclear contribution   :     -6.15552      -3.62296      -3.14559
                        -----------------------------------------
Total Dipole Moment    :     -0.34967      -0.25536      -0.58787
                        -----------------------------------------
Magnitude (a.u.)       :      0.73012
Magnitude (Debye)      :      1.85581

                             ****ORCA TERMINATED NORMALLY****
TOTAL RUN TIME: 0 days 0 hours 0 minutes 8 seconds 313 msec
