                         Program Version 3.0.3 - RELEASE   -
|  1> ! RI PBE def2-SVP def2-SVP/J NBO PAL2
|  2> % maxcore 2000
|  3> % output
|  4>     # printlevel mini
|  5>     print[ P_Basis ] 0
|  6>     print[ P_SCFInfo ] 1
|  7>     print[ P_SCFIterInfo ] 1
|  8>     print[ P_OrbEn ] 0
|  9>     print[ P_Cartesian ] 0
| 10> end
| 11> *xyz 0 1
| 12>  C        1.2424010000     0.3197400000    -0.3511510000
| 13>  C        2.7489700000     0.3617590000    -0.5414400000
| 14>  C        3.4871060000    -0.6500600000     0.3222900000
| 15>  C        4.9890210000    -0.5935580000     0.1593130000
| 16>  C        5.7346600000     0.5964610000     0.7803040000
| 17>  O        6.5647680000    -0.2687980000     1.5655330000
| 18>  C        5.8461530000    -1.4266450000     1.1205360000
| 19>  H        0.7372650000     1.0529590000    -0.9838440000
| 20>  H        0.9700500000     0.5326400000     0.6863500000
| 21>  H        0.8409010000    -0.6666060000    -0.6002480000
| 22>  H        3.1186090000     1.3687670000    -0.3145750000
| 23>  H        2.9931910000     0.1809750000    -1.5946440000
| 24>  H        3.1338500000    -1.6604710000     0.0806580000
| 25>  H        3.2352850000    -0.4835900000     1.3776110000
| 26>  H        5.2618010000    -0.7530950000    -0.8871110000
| 27>  H        5.1114520000     1.2433030000     1.4112860000
| 28>  H        6.3239280000     1.2208840000     0.1017800000
| 29>  H        5.2840450000    -1.8951110000     1.9381520000
| 30>  H        6.5100510000    -2.1710430000     0.6701200000
| 31> *
| 32>
| 33>                          ****END OF INPUT****
 Total Charge           Charge          ....    0
 Multiplicity           Mult            ....    1
 Number of Electrons    NEL             ....   56
 Basis Dimension        Dim             ....  158

MULLIKEN ATOMIC CHARGES
-----------------------
   0 C :    0.003217
   1 C :   -0.055103
   2 C :    0.063132
   3 C :   -0.287313
   4 C :    0.256285
   5 O :   -0.368060
   6 C :    0.281939
   7 H :    0.021077
   8 H :    0.017418
   9 H :    0.016061
  10 H :    0.008512
  11 H :    0.011819
  12 H :    0.006736
  13 H :    0.000067
  14 H :    0.013857
  15 H :   -0.001221
  16 H :    0.010056
  17 H :   -0.005097
  18 H :    0.006617
Sum of atomic charges:   -0.0000000

LOEWDIN ATOMIC CHARGES
----------------------
   0 C :   -0.064398
   1 C :   -0.046942
   2 C :   -0.039664
   3 C :   -0.059529
   4 C :    0.084911
   5 O :   -0.187253
   6 C :    0.089037
   7 H :    0.027533
   8 H :    0.025190
   9 H :    0.024480
  10 H :    0.022114
  11 H :    0.023510
  12 H :    0.024609
  13 H :    0.021469
  14 H :    0.025632
  15 H :    0.005196
  16 H :    0.009292
  17 H :    0.006087
  18 H :    0.008727

  Mayer bond orders larger than 0.1
B(  0-C ,  1-C ) :   1.1181 B(  0-C ,  7-H ) :   0.9607 B(  0-C ,  8-H ) :   0.9654
B(  0-C ,  9-H ) :   0.9656 B(  1-C ,  2-C ) :   1.0909 B(  1-C , 10-H ) :   0.9383
B(  1-C , 11-H ) :   0.9374 B(  2-C ,  3-C ) :   1.0420 B(  2-C , 12-H ) :   0.9261
B(  2-C , 13-H ) :   0.9209 B(  3-C ,  4-C ) :   1.0881 B(  3-C ,  6-C ) :   1.0791
B(  3-C , 14-H ) :   0.9103 B(  4-C ,  5-O ) :   1.0430 B(  4-C , 15-H ) :   0.9230
B(  4-C , 16-H ) :   0.9329 B(  5-O ,  6-C ) :   1.0409 B(  6-C , 17-H ) :   0.9242
B(  6-C , 18-H ) :   0.9328

FINAL SINGLE POINT ENERGY      -310.406301509262

DIPOLE MOMENT
-------------
                                X             Y             Z
Electronic contribution:      7.73815      -0.78026       2.76253
Nuclear contribution   :     -8.34006       0.68765      -3.25478
                        -----------------------------------------
Total Dipole Moment    :     -0.60192      -0.09261      -0.49225
                        -----------------------------------------
Magnitude (a.u.)       :      0.78306
Magnitude (Debye)      :      1.99039

                             ****ORCA TERMINATED NORMALLY****
TOTAL RUN TIME: 0 days 0 hours 0 minutes 8 seconds 210 msec
