                         Program Version 3.0.3 - RELEASE   -
|  1> ! RI PBE def2-SVP def2-SVP/J NBO PAL2
|  2> % maxcore 2000
|  3> % output
|  4>     # printlevel mini
|  5>     print[ P_Basis ] 0
|  6>     print[ P_SCFInfo ] 1
|  7>     print[ P_SCFIterInfo ] 1
|  8>     print[ P_OrbEn ] 0
|  9>     print[ P_Cartesian ] 0
| 10> end
| 11> *xyz 0 1
| 12>  C        1.8685200000    -2.6294780000    -1.3197460000
| 13>  C        2.6277980000    -1.6830660000    -1.8541470000
| 14>  C        3.0291290000    -0.4165900000    -1.1736750000
| 15>  C        4.5350630000    -0.2958910000    -1.0088540000
| 16>  C        5.0327840000     0.8670880000    -0.1409300000
| 17>  O        5.5544760000    -0.0274130000     0.8486460000
| 18>  C        5.1758600000    -1.1739560000     0.0734140000
| 19>  H        1.6190690000    -3.5329020000    -1.8641350000
| 20>  H        1.4621350000    -2.5305520000    -0.3176540000
| 21>  H        3.0139020000    -1.8250430000    -2.8628730000
| 22>  H        2.5487040000    -0.3532550000    -0.1913290000
| 23>  H        2.6732070000     0.4414970000    -1.7587380000
| 24>  H        5.0284300000    -0.3642230000    -1.9808470000
| 25>  H        4.2492650000     1.5169000000     0.2660570000
| 26>  H        5.8189750000     1.4884470000    -0.5832700000
| 27>  H        4.4838480000    -1.8276270000     0.6156380000
| 28>  H        6.0478250000    -1.7576160000    -0.2394470000
| 29> *
| 30>
| 31>                          ****END OF INPUT****
 Total Charge           Charge          ....    0
 Multiplicity           Mult            ....    1
 Number of Electrons    NEL             ....   54
 Basis Dimension        Dim             ....  148

MULLIKEN ATOMIC CHARGES
-----------------------
   0 C :   -0.030144
   1 C :   -0.085837
   2 C :    0.138117
   3 C :   -0.309809
   4 C :    0.279452
   5 O :   -0.367720
   6 C :    0.267350
   7 H :    0.025551
   8 H :    0.019426
   9 H :    0.005077
  10 H :    0.000129
  11 H :    0.024075
  12 H :    0.016017
  13 H :   -0.002215
  14 H :    0.006892
  15 H :    0.005421
  16 H :    0.008217
Sum of atomic charges:   -0.0000000

LOEWDIN ATOMIC CHARGES
----------------------
   0 C :   -0.063214
   1 C :   -0.029500
   2 C :   -0.036802
   3 C :   -0.056399
   4 C :    0.088939
   5 O :   -0.187583
   6 C :    0.088616
   7 H :    0.025415
   8 H :    0.022150
   9 H :    0.025587
  10 H :    0.028772
  11 H :    0.036616
  12 H :    0.023707
  13 H :    0.006818
  14 H :    0.008620
  15 H :    0.008677
  16 H :    0.009581

  Mayer bond orders larger than 0.1
B(  0-C ,  1-C ) :   2.0160 B(  0-C ,  7-H ) :   0.9433 B(  0-C ,  8-H ) :   0.9469
B(  1-C ,  2-C ) :   1.0609 B(  1-C ,  9-H ) :   0.9513 B(  2-C ,  3-C ) :   1.0270
B(  2-C , 10-H ) :   0.9177 B(  2-C , 11-H ) :   0.9047 B(  3-C ,  4-C ) :   1.0749
B(  3-C ,  6-C ) :   1.0792 B(  3-C , 12-H ) :   0.9221 B(  4-C ,  5-O ) :   1.0446
B(  4-C , 13-H ) :   0.9246 B(  4-C , 14-H ) :   0.9297 B(  5-O ,  6-C ) :   1.0386
B(  6-C , 15-H ) :   0.9292 B(  6-C , 16-H ) :   0.9307

FINAL SINGLE POINT ENERGY      -309.181879396796

DIPOLE MOMENT
-------------
                                X             Y             Z
Electronic contribution:      2.64161       1.17105       1.90407
Nuclear contribution   :     -2.93871      -1.18686      -2.55494
                        -----------------------------------------
Total Dipole Moment    :     -0.29710      -0.01581      -0.65087
                        -----------------------------------------
Magnitude (a.u.)       :      0.71565
Magnitude (Debye)      :      1.81903

                             ****ORCA TERMINATED NORMALLY****
TOTAL RUN TIME: 0 days 0 hours 0 minutes 7 seconds 343 msec
