                         Program Version 3.0.3 - RELEASE   -
|  1> ! RI PBE def2-SVP def2-SVP/J NBO PAL2
|  2> % maxcore 2000
|  3> % output
|  4>     # printlevel mini
|  5>     print[ P_Basis ] 0
|  6>     print[ P_SCFInfo ] 1
|  7>     print[ P_SCFIterInfo ] 1
|  8>     print[ P_OrbEn ] 0
|  9>     print[ P_Cartesian ] 0
| 10> end
| 11> *xyz 0 1
| 12>  C        5.1895460000     0.5651650000    -2.0916400000
| 13>  C        4.4582720000     0.2899630000    -1.1801300000
| 14>  C        3.5956300000    -0.0659680000    -0.0656840000
| 15>  C        4.2359360000    -1.0787810000     0.8729410000
| 16>  C        3.2856860000    -1.7022840000     1.9020280000
| 17>  O        3.3393940000    -2.9766350000     1.2510490000
| 18>  C        4.3408060000    -2.5101500000     0.3344650000
| 19>  H        5.8319390000     0.8145010000    -2.9027110000
| 20>  H        2.6551440000    -0.4754060000    -0.4527960000
| 21>  H        3.3341020000     0.8398250000     0.4930500000
| 22>  H        5.1626240000    -0.6762130000     1.2826750000
| 23>  H        2.2689130000    -1.2938200000     1.9241510000
| 24>  H        3.6747420000    -1.7507810000     2.9249610000
| 25>  H        4.0435630000    -2.6502340000    -0.7097550000
| 26>  H        5.3043950000    -3.0016730000     0.5034050000
| 27> *
| 28>
| 29>                          ****END OF INPUT****
 Total Charge           Charge          ....    0
 Multiplicity           Mult            ....    1
 Number of Electrons    NEL             ....   52
 Basis Dimension        Dim             ....  138

MULLIKEN ATOMIC CHARGES
-----------------------
   0 C :   -0.489237
   1 C :    0.328798
   2 C :    0.155651
   3 C :   -0.307024
   4 C :    0.278610
   5 O :   -0.366811
   6 C :    0.268336
   7 H :    0.000020
   8 H :    0.032426
   9 H :    0.038235
  10 H :    0.024393
  11 H :    0.002488
  12 H :    0.009770
  13 H :    0.013130
  14 H :    0.011215
Sum of atomic charges:    0.0000000

LOEWDIN ATOMIC CHARGES
----------------------
   0 C :   -0.085173
   1 C :   -0.024313
   2 C :   -0.040977
   3 C :   -0.048544
   4 C :    0.087900
   5 O :   -0.186290
   6 C :    0.092250
   7 H :    0.035073
   8 H :    0.049773
   9 H :    0.050463
  10 H :    0.027704
  11 H :    0.008330
  12 H :    0.010281
  13 H :    0.012199
  14 H :    0.011324

  Mayer bond orders larger than 0.1
B(  0-C ,  1-C ) :   2.3376 B(  0-C ,  7-H ) :   1.1020 B(  1-C ,  2-C ) :   1.0657
B(  1-C ,  7-H ) :  -0.1110 B(  2-C ,  3-C ) :   1.0161 B(  2-C ,  8-H ) :   0.8883
B(  2-C ,  9-H ) :   0.8853 B(  3-C ,  4-C ) :   1.0655 B(  3-C ,  6-C ) :   1.0728
B(  3-C , 10-H ) :   0.9273 B(  4-C ,  5-O ) :   1.0434 B(  4-C , 11-H ) :   0.9242
B(  4-C , 12-H ) :   0.9280 B(  5-O ,  6-C ) :   1.0321 B(  6-C , 13-H ) :   0.9327
B(  6-C , 14-H ) :   0.9310

FINAL SINGLE POINT ENERGY      -307.938727619040

DIPOLE MOMENT
-------------
                                X             Y             Z
Electronic contribution:      0.17331      -0.33676      -1.22111
Nuclear contribution   :      0.01462       0.87069       1.29901
                        -----------------------------------------
Total Dipole Moment    :      0.18793       0.53393       0.07790
                        -----------------------------------------
Magnitude (a.u.)       :      0.57138
Magnitude (Debye)      :      1.45233

                             ****ORCA TERMINATED NORMALLY****
TOTAL RUN TIME: 0 days 0 hours 0 minutes 6 seconds 803 msec
