                         Program Version 3.0.3 - RELEASE   -
|  1> ! RI PBE def2-SVP def2-SVP/J NBO PAL2
|  2> % maxcore 2000
|  3> % output
|  4>     # printlevel mini
|  5>     print[ P_Basis ] 0
|  6>     print[ P_SCFInfo ] 1
|  7>     print[ P_SCFIterInfo ] 1
|  8>     print[ P_OrbEn ] 0
|  9>     print[ P_Cartesian ] 0
| 10> end
| 11> *xyz 0 1
| 12>  C        0.7142200000     0.2386000000     1.9257740000
| 13>  C        2.1939780000     0.4071160000     1.9308010000
| 14>  C        3.0604300000    -0.4068820000     1.3372460000
| 15>  C        4.5319640000    -0.2338140000     1.3458460000
| 16>  C        5.4141760000    -1.4398270000     1.7188480000
| 17>  O        6.2050400000    -1.2943980000     0.5339290000
| 18>  C        5.2928660000    -0.3228760000     0.0098200000
| 19>  H        0.2199670000     1.1068740000     1.4782350000
| 20>  H        0.3240520000     0.1489960000     2.9446990000
| 21>  H        0.4147190000    -0.6498830000     1.3666720000
| 22>  H        2.5815680000     1.2719880000     2.4685240000
| 23>  H        2.6825250000    -1.2755720000     0.7963630000
| 24>  H        4.8079440000     0.6592580000     1.9099120000
| 25>  H        4.8749800000    -2.3951840000     1.7330450000
| 26>  H        6.0121450000    -1.3494950000     2.6300660000
| 27>  H        4.6942010000    -0.7302950000    -0.8143480000
| 28>  H        5.8021470000     0.5839930000    -0.3282310000
| 29> *
| 30>
| 31>                          ****END OF INPUT****
 Total Charge           Charge          ....    0
 Multiplicity           Mult            ....    1
 Number of Electrons    NEL             ....   54
 Basis Dimension        Dim             ....  148

MULLIKEN ATOMIC CHARGES
-----------------------
   0 C :    0.036819
   1 C :   -0.108664
   2 C :    0.046176
   3 C :   -0.243739
   4 C :    0.271866
   5 O :   -0.367912
   6 C :    0.269878
   7 H :    0.035278
   8 H :    0.033942
   9 H :    0.021719
  10 H :   -0.006348
  11 H :   -0.019902
  12 H :    0.009824
  13 H :   -0.002588
  14 H :    0.012778
  15 H :   -0.001545
  16 H :    0.012417
Sum of atomic charges:    0.0000000

LOEWDIN ATOMIC CHARGES
----------------------
   0 C :   -0.064884
   1 C :   -0.040012
   2 C :   -0.048415
   3 C :   -0.059410
   4 C :    0.092632
   5 O :   -0.187197
   6 C :    0.092292
   7 H :    0.037926
   8 H :    0.037558
   9 H :    0.031663
  10 H :    0.022127
  11 H :    0.019994
  12 H :    0.031454
  13 H :    0.005973
  14 H :    0.011056
  15 H :    0.006199
  16 H :    0.011042

  Mayer bond orders larger than 0.1
B(  0-C ,  1-C ) :   1.0812 B(  0-C ,  7-H ) :   0.9466 B(  0-C ,  8-H ) :   0.9467
B(  0-C ,  9-H ) :   0.9615 B(  1-C ,  2-C ) :   1.8971 B(  1-C , 10-H ) :   0.9585
B(  2-C ,  3-C ) :   1.0306 B(  2-C , 11-H ) :   0.9458 B(  3-C ,  4-C ) :   1.0600
B(  3-C ,  6-C ) :   1.0595 B(  3-C , 12-H ) :   0.9122 B(  4-C ,  5-O ) :   1.0368
B(  4-C , 13-H ) :   0.9277 B(  4-C , 14-H ) :   0.9346 B(  5-O ,  6-C ) :   1.0347
B(  6-C , 15-H ) :   0.9275 B(  6-C , 16-H ) :   0.9354

FINAL SINGLE POINT ENERGY      -309.188448348745

DIPOLE MOMENT
-------------
                                X             Y             Z
Electronic contribution:      5.82595      -1.40097      -1.32859
Nuclear contribution   :     -6.51861       1.77181       1.62088
                        -----------------------------------------
Total Dipole Moment    :     -0.69265       0.37084       0.29229
                        -----------------------------------------
Magnitude (a.u.)       :      0.83829
Magnitude (Debye)      :      2.13075

                             ****ORCA TERMINATED NORMALLY****
TOTAL RUN TIME: 0 days 0 hours 0 minutes 7 seconds 73 msec
