                         Program Version 3.0.3 - RELEASE   -
|  1> ! RI PBE def2-SVP def2-SVP/J NBO PAL2
|  2> % maxcore 2000
|  3> % output
|  4>     # printlevel mini
|  5>     print[ P_Basis ] 0
|  6>     print[ P_SCFInfo ] 1
|  7>     print[ P_SCFIterInfo ] 1
|  8>     print[ P_OrbEn ] 0
|  9>     print[ P_Cartesian ] 0
| 10> end
| 11> *xyz 0 1
| 12>  C        4.5262720000     1.6257040000    -0.8307970000
| 13>  C        3.6612490000     0.5568760000    -0.2382100000
| 14>  C        2.8499470000     0.7919260000     0.7880570000
| 15>  C        3.7757460000    -0.7743620000    -0.9037480000
| 16>  C        5.1154960000    -1.5317520000    -0.8204710000
| 17>  O        4.4440140000    -2.7471530000    -0.4747340000
| 18>  C        3.2064700000    -2.0494800000    -0.2758680000
| 19>  H        4.4100720000     2.5746030000    -0.3063850000
| 20>  H        4.2814050000     1.7830070000    -1.8866280000
| 21>  H        5.5831860000     1.3409020000    -0.7940140000
| 22>  H        2.7888140000     1.7763410000     1.2386790000
| 23>  H        2.2170650000     0.0212500000     1.2116180000
| 24>  H        3.4643420000    -0.6788620000    -1.9493620000
| 25>  H        5.7663250000    -1.1843200000    -0.0081030000
| 26>  H        5.6992510000    -1.6299090000    -1.7399080000
| 27>  H        2.9672000000    -1.9609530000     0.7896280000
| 28>  H        2.3748450000    -2.5317170000    -0.7961420000
| 29> *
| 30>
| 31>                          ****END OF INPUT****
 Total Charge           Charge          ....    0
 Multiplicity           Mult            ....    1
 Number of Electrons    NEL             ....   54
 Basis Dimension        Dim             ....  148

MULLIKEN ATOMIC CHARGES
-----------------------
   0 C :    0.061991
   1 C :   -0.113402
   2 C :   -0.040733
   3 C :   -0.213795
   4 C :    0.240558
   5 O :   -0.365856
   6 C :    0.266197
   7 H :    0.017606
   8 H :    0.029235
   9 H :    0.032622
  10 H :    0.008972
  11 H :    0.009650
  12 H :    0.027835
  13 H :    0.007738
  14 H :    0.014218
  15 H :    0.005069
  16 H :    0.012093
Sum of atomic charges:   -0.0000000

LOEWDIN ATOMIC CHARGES
----------------------
   0 C :   -0.055371
   1 C :   -0.033138
   2 C :   -0.077533
   3 C :   -0.052610
   4 C :    0.089404
   5 O :   -0.182614
   6 C :    0.090612
   7 H :    0.032629
   8 H :    0.036925
   9 H :    0.035386
  10 H :    0.021697
  11 H :    0.017942
  12 H :    0.037760
  13 H :    0.008027
  14 H :    0.010278
  15 H :    0.008775
  16 H :    0.011831

  Mayer bond orders larger than 0.1
B(  0-C ,  1-C ) :   1.0793 B(  0-C ,  7-H ) :   0.9475 B(  0-C ,  8-H ) :   0.9429
B(  0-C ,  9-H ) :   0.9457 B(  1-C ,  2-C ) :   1.9937 B(  1-C ,  3-C ) :   0.9868
B(  2-C , 10-H ) :   0.9285 B(  2-C , 11-H ) :   0.9306 B(  3-C ,  4-C ) :   1.0834
B(  3-C ,  6-C ) :   1.1023 B(  3-C , 12-H ) :   0.8845 B(  4-C ,  5-O ) :   1.0369
B(  4-C , 13-H ) :   0.9249 B(  4-C , 14-H ) :   0.9355 B(  5-O ,  6-C ) :   1.0259
B(  6-C , 15-H ) :   0.9183 B(  6-C , 16-H ) :   0.9338

FINAL SINGLE POINT ENERGY      -309.185920552569

DIPOLE MOMENT
-------------
                                X             Y             Z
Electronic contribution:     -0.02712      -4.68247      -0.02680
Nuclear contribution   :     -0.05570       5.34343      -0.22595
                        -----------------------------------------
Total Dipole Moment    :     -0.08282       0.66096      -0.25275
                        -----------------------------------------
Magnitude (a.u.)       :      0.71247
Magnitude (Debye)      :      1.81096

                             ****ORCA TERMINATED NORMALLY****
TOTAL RUN TIME: 0 days 0 hours 0 minutes 7 seconds 563 msec
