                         Program Version 3.0.3 - RELEASE   -
|  1> ! RI PBE def2-SVP def2-SVP/J NBO PAL2
|  2> % maxcore 2000
|  3> % output
|  4>     # printlevel mini
|  5>     print[ P_Basis ] 0
|  6>     print[ P_SCFInfo ] 1
|  7>     print[ P_SCFIterInfo ] 1
|  8>     print[ P_OrbEn ] 0
|  9>     print[ P_Cartesian ] 0
| 10> end
| 11> *xyz 0 1
| 12>  C        0.8626950000    -0.1948460000    -0.0376680000
| 13>  C        2.3827300000    -0.0892940000    -0.0296750000
| 14>  C        3.0162920000    -1.4498670000    -0.2898820000
| 15>  C        2.8386490000     1.0035110000    -0.9918440000
| 16>  C        4.3459110000     1.1976920000    -1.1984160000
| 17>  O        4.2680470000     0.7562220000    -2.5596690000
| 18>  C        2.8374260000     0.6911710000    -2.4961420000
| 19>  H        0.5143260000    -0.9419710000     0.6796530000
| 20>  H        0.4982220000    -0.4945510000    -1.0255650000
| 21>  H        0.3928190000     0.7593360000     0.2151350000
| 22>  H        2.6919710000     0.2352890000     0.9733650000
| 23>  H        2.6931840000    -1.8658290000    -1.2477710000
| 24>  H        2.7204010000    -2.1580190000     0.4877810000
| 25>  H        4.1071850000    -1.4060520000    -0.2988730000
| 26>  H        2.3139530000     1.9287110000    -0.7428170000
| 27>  H        5.0066610000     0.5638460000    -0.5977890000
| 28>  H        4.6915600000     2.2353400000    -1.1292830000
| 29>  H        2.4602280000    -0.2919510000    -2.7951590000
| 30>  H        2.3701280000     1.4560520000    -3.1263010000
| 31> *
| 32>
| 33>                          ****END OF INPUT****
 Total Charge           Charge          ....    0
 Multiplicity           Mult            ....    1
 Number of Electrons    NEL             ....   56
 Basis Dimension        Dim             ....  158

MULLIKEN ATOMIC CHARGES
-----------------------
   0 C :    0.034763
   1 C :   -0.079682
   2 C :   -0.001207
   3 C :   -0.247454
   4 C :    0.273931
   5 O :   -0.368486
   6 C :    0.256517
   7 H :    0.018103
   8 H :    0.009301
   9 H :    0.012665
  10 H :    0.003472
  11 H :    0.015661
  12 H :    0.023177
  13 H :    0.028764
  14 H :    0.008274
  15 H :    0.003911
  16 H :   -0.000566
  17 H :    0.002114
  18 H :    0.006744
Sum of atomic charges:   -0.0000000

LOEWDIN ATOMIC CHARGES
----------------------
   0 C :   -0.055544
   1 C :   -0.044268
   2 C :   -0.062168
   3 C :   -0.054188
   4 C :    0.086107
   5 O :   -0.184426
   6 C :    0.085435
   7 H :    0.026335
   8 H :    0.023258
   9 H :    0.024107
  10 H :    0.026045
  11 H :    0.024821
  12 H :    0.028970
  13 H :    0.027715
  14 H :    0.022646
  15 H :    0.005325
  16 H :    0.007274
  17 H :    0.004009
  18 H :    0.008545

  Mayer bond orders larger than 0.1
B(  0-C ,  1-C ) :   1.0886 B(  0-C ,  7-H ) :   0.9608 B(  0-C ,  8-H ) :   0.9599
B(  0-C ,  9-H ) :   0.9577 B(  1-C ,  2-C ) :   1.0863 B(  1-C ,  3-C ) :   1.0171
B(  1-C , 10-H ) :   0.9029 B(  2-C , 11-H ) :   0.9531 B(  2-C , 12-H ) :   0.9581
B(  2-C , 13-H ) :   0.9541 B(  3-C ,  4-C ) :   1.0751 B(  3-C ,  6-C ) :   1.0815
B(  3-C , 14-H ) :   0.9223 B(  4-C ,  5-O ) :   1.0372 B(  4-C , 15-H ) :   0.9272
B(  4-C , 16-H ) :   0.9263 B(  5-O ,  6-C ) :   1.0325 B(  6-C , 17-H ) :   0.9281
B(  6-C , 18-H ) :   0.9274

FINAL SINGLE POINT ENERGY      -310.405041435358

DIPOLE MOMENT
-------------
                                X             Y             Z
Electronic contribution:      4.01847       2.96727      -3.72623
Nuclear contribution   :     -4.51292      -2.89974       4.29031
                        -----------------------------------------
Total Dipole Moment    :     -0.49445       0.06752       0.56408
                        -----------------------------------------
Magnitude (a.u.)       :      0.75314
Magnitude (Debye)      :      1.91433

                             ****ORCA TERMINATED NORMALLY****
TOTAL RUN TIME: 0 days 0 hours 0 minutes 8 seconds 569 msec
