                         Program Version 3.0.3 - RELEASE   -
|  1> ! RI PBE def2-SVP def2-SVP/J NBO PAL2
|  2> % maxcore 2000
|  3> % output
|  4>     # printlevel mini
|  5>     print[ P_Basis ] 0
|  6>     print[ P_SCFInfo ] 1
|  7>     print[ P_SCFIterInfo ] 1
|  8>     print[ P_OrbEn ] 0
|  9>     print[ P_Cartesian ] 0
| 10> end
| 11> *xyz 0 1
| 12>  C        1.0182880000     0.0925450000    -0.0164620000
| 13>  C        2.4687720000     0.1123020000    -0.0060870000
| 14>  C        3.6718530000     0.1289720000    -0.0008450000
| 15>  C        5.1151820000     0.1468800000     0.0239260000
| 16>  C        5.8388440000     1.0735570000     1.0214590000
| 17>  O        6.6786650000     0.0028750000     1.4651270000
| 18>  C        5.8681980000    -0.9618830000     0.7862390000
| 19>  H        0.6111000000     0.8467080000     0.6617010000
| 20>  H        0.6376260000    -0.8819080000     0.2998200000
| 21>  H        0.6295630000     0.2959390000    -1.0174100000
| 22>  H        5.5132410000     0.2693370000    -0.9860910000
| 23>  H        5.1870020000     1.4417050000     1.8210320000
| 24>  H        6.4118710000     1.9019940000     0.5976070000
| 25>  H        5.2297110000    -1.5210370000     1.4786460000
| 26>  H        6.4631830000    -1.6551850000     0.1865370000
| 27> *
| 28>
| 29>                          ****END OF INPUT****
 Total Charge           Charge          ....    0
 Multiplicity           Mult            ....    1
 Number of Electrons    NEL             ....   52
 Basis Dimension        Dim             ....  138

MULLIKEN ATOMIC CHARGES
-----------------------
   0 C :    0.056103
   1 C :   -0.231791
   2 C :    0.052548
   3 C :   -0.310107
   4 C :    0.283852
   5 O :   -0.366541
   6 C :    0.281249
   7 H :    0.049191
   8 H :    0.047040
   9 H :    0.046898
  10 H :    0.042877
  11 H :    0.006655
  12 H :    0.016631
  13 H :    0.007514
  14 H :    0.017882
Sum of atomic charges:    0.0000000

LOEWDIN ATOMIC CHARGES
----------------------
   0 C :   -0.067303
   1 C :   -0.061103
   2 C :   -0.071256
   3 C :   -0.067176
   4 C :    0.101091
   5 O :   -0.183185
   6 C :    0.100330
   7 H :    0.051433
   8 H :    0.051141
   9 H :    0.050344
  10 H :    0.047374
  11 H :    0.011314
  12 H :    0.012568
  13 H :    0.011502
  14 H :    0.012928

  Mayer bond orders larger than 0.1
B(  0-C ,  1-C ) :   1.1356 B(  0-C ,  7-H ) :   0.9315 B(  0-C ,  8-H ) :   0.9311
B(  0-C ,  9-H ) :   0.9345 B(  1-C ,  2-C ) :   2.5278 B(  2-C ,  3-C ) :   0.9399
B(  3-C ,  4-C ) :   1.0718 B(  3-C ,  6-C ) :   1.0757 B(  3-C , 10-H ) :   0.8747
B(  4-C ,  5-O ) :   1.0300 B(  4-C , 11-H ) :   0.9289 B(  4-C , 12-H ) :   0.9363
B(  5-O ,  6-C ) :   1.0304 B(  6-C , 13-H ) :   0.9288 B(  6-C , 14-H ) :   0.9355

FINAL SINGLE POINT ENERGY      -307.950485744371

DIPOLE MOMENT
-------------
                                X             Y             Z
Electronic contribution:      3.74307      -0.00220       0.50177
Nuclear contribution   :     -4.42676       0.03926      -0.89723
                        -----------------------------------------
Total Dipole Moment    :     -0.68370       0.03706      -0.39546
                        -----------------------------------------
Magnitude (a.u.)       :      0.79070
Magnitude (Debye)      :      2.00980

                             ****ORCA TERMINATED NORMALLY****
TOTAL RUN TIME: 0 days 0 hours 0 minutes 6 seconds 700 msec
