                         Program Version 3.0.3 - RELEASE   -
|  1> ! RI PBE def2-SVP def2-SVP/J NBO PAL2
|  2> % maxcore 2000
|  3> % output
|  4>     # printlevel mini
|  5>     print[ P_Basis ] 0
|  6>     print[ P_SCFInfo ] 1
|  7>     print[ P_SCFIterInfo ] 1
|  8>     print[ P_OrbEn ] 0
|  9>     print[ P_Cartesian ] 0
| 10> end
| 11> *xyz 0 1
| 12>  C        3.4789780000     1.8068300000    -0.7870020000
| 13>  C        3.2240680000     0.5074080000    -0.0397080000
| 14>  C        3.4348780000    -0.7437800000    -0.8852930000
| 15>  C        4.8577750000    -0.9302060000    -1.3238390000
| 16>  O        5.1018440000    -1.9478430000    -2.2870390000
| 17>  C        5.3394680000    -0.5971410000    -2.6626320000
| 18>  C        6.7582360000    -0.2173620000    -2.9460020000
| 19>  H        3.2842490000     2.6733940000    -0.1510990000
| 20>  H        2.8321870000     1.8880550000    -1.6654570000
| 21>  H        4.5133120000     1.8766900000    -1.1324090000
| 22>  H        2.1982810000     0.5021030000     0.3412780000
| 23>  H        3.8718800000     0.4587170000     0.8434180000
| 24>  H        2.7924290000    -0.7182500000    -1.7720510000
| 25>  H        3.1377340000    -1.6276380000    -0.3100050000
| 26>  H        5.5959470000    -0.9095760000    -0.5187920000
| 27>  H        4.5996270000    -0.2088460000    -3.3639260000
| 28>  H        7.4264610000    -0.6319580000    -2.1890760000
| 29>  H        6.8705320000     0.8703390000    -2.9549140000
| 30>  H        7.0710260000    -0.5953470000    -3.9226410000
| 31> *
| 32>
| 33>                          ****END OF INPUT****
 Total Charge           Charge          ....    0
 Multiplicity           Mult            ....    1
 Number of Electrons    NEL             ....   56
 Basis Dimension        Dim             ....  158

MULLIKEN ATOMIC CHARGES
-----------------------
   0 C :   -0.029107
   1 C :   -0.050741
   2 C :    0.101064
   3 C :   -0.005325
   4 O :   -0.280128
   5 C :    0.004207
   6 C :    0.068481
   7 H :    0.023166
   8 H :    0.017749
   9 H :    0.023187
  10 H :    0.013670
  11 H :    0.016722
  12 H :   -0.005090
  13 H :    0.016782
  14 H :    0.002690
  15 H :    0.007530
  16 H :    0.016784
  17 H :    0.029367
  18 H :    0.028993
Sum of atomic charges:   -0.0000000

LOEWDIN ATOMIC CHARGES
----------------------
   0 C :   -0.069524
   1 C :   -0.044173
   2 C :   -0.048125
   3 C :    0.037132
   4 O :   -0.155478
   5 C :    0.035674
   6 C :   -0.070228
   7 H :    0.027899
   8 H :    0.024929
   9 H :    0.023419
  10 H :    0.026845
  11 H :    0.024392
  12 H :    0.027797
  13 H :    0.032931
  14 H :    0.011249
  15 H :    0.012083
  16 H :    0.033551
  17 H :    0.034551
  18 H :    0.035077

  Mayer bond orders larger than 0.1
B(  0-C ,  1-C ) :   1.1137 B(  0-C ,  7-H ) :   0.9610 B(  0-C ,  8-H ) :   0.9650
B(  0-C ,  9-H ) :   0.9650 B(  1-C ,  2-C ) :   1.0930 B(  1-C , 10-H ) :   0.9316
B(  1-C , 11-H ) :   0.9382 B(  2-C ,  3-C ) :   1.0479 B(  2-C , 12-H ) :   0.9096
B(  2-C , 13-H ) :   0.9132 B(  3-C ,  4-O ) :   0.9783 B(  3-C ,  5-C ) :   1.0463
B(  3-C , 14-H ) :   0.9249 B(  4-O ,  5-C ) :   0.9980 B(  5-C ,  6-C ) :   1.0887
B(  5-C , 15-H ) :   0.9183 B(  6-C , 16-H ) :   0.9434 B(  6-C , 17-H ) :   0.9529
B(  6-C , 18-H ) :   0.9475

FINAL SINGLE POINT ENERGY      -310.415817133801

DIPOLE MOMENT
-------------
                                X             Y             Z
Electronic contribution:      1.02887      -5.97629      -1.73233
Nuclear contribution   :     -1.04135       6.66475       1.91818
                        -----------------------------------------
Total Dipole Moment    :     -0.01249       0.68846       0.18585
                        -----------------------------------------
Magnitude (a.u.)       :      0.71321
Magnitude (Debye)      :      1.81284

                             ****ORCA TERMINATED NORMALLY****
TOTAL RUN TIME: 0 days 0 hours 0 minutes 8 seconds 216 msec
