                         Program Version 3.0.3 - RELEASE   -
|  1> ! RI PBE def2-SVP def2-SVP/J NBO PAL2
|  2> % maxcore 2000
|  3> % output
|  4>     # printlevel mini
|  5>     print[ P_Basis ] 0
|  6>     print[ P_SCFInfo ] 1
|  7>     print[ P_SCFIterInfo ] 1
|  8>     print[ P_OrbEn ] 0
|  9>     print[ P_Cartesian ] 0
| 10> end
| 11> *xyz 0 1
| 12>  C        0.8630470000     0.1220230000     1.8357580000
| 13>  C        2.3453220000     0.0012550000     1.7645950000
| 14>  C        3.0632410000     0.0849150000     0.6509040000
| 15>  C        4.5326550000    -0.0432330000     0.5984100000
| 16>  O        5.2157570000    -0.3012150000     1.8144630000
| 17>  C        5.2320930000    -1.3164590000     0.8209500000
| 18>  C        6.5565340000    -1.6334930000     0.2043430000
| 19>  H        0.5679020000     0.9534760000     2.4838290000
| 20>  H        0.4155250000    -0.7799320000     2.2656820000
| 21>  H        0.4226760000     0.2843660000     0.8499430000
| 22>  H        2.8777520000    -0.1626390000     2.6989670000
| 23>  H        2.5731980000     0.2683250000    -0.3038180000
| 24>  H        5.0396890000     0.6761090000    -0.0470120000
| 25>  H        4.5998750000    -2.1694160000     1.0677360000
| 26>  H        7.1005750000    -0.7178500000    -0.0340240000
| 27>  H        6.4238290000    -2.2127690000    -0.7131620000
| 28>  H        7.1672600000    -2.2257520000     0.8907250000
| 29> *
| 30>
| 31>                          ****END OF INPUT****
 Total Charge           Charge          ....    0
 Multiplicity           Mult            ....    1
 Number of Electrons    NEL             ....   54
 Basis Dimension        Dim             ....  148

MULLIKEN ATOMIC CHARGES
-----------------------
   0 C :    0.043291
   1 C :   -0.108640
   2 C :   -0.010895
   3 C :    0.090800
   4 O :   -0.276162
   5 C :    0.006185
   6 C :    0.058293
   7 H :    0.036111
   8 H :    0.033824
   9 H :    0.014339
  10 H :    0.010778
  11 H :   -0.012411
  12 H :    0.012314
  13 H :    0.014468
  14 H :    0.018449
  15 H :    0.031620
  16 H :    0.037634
Sum of atomic charges:    0.0000000

LOEWDIN ATOMIC CHARGES
----------------------
   0 C :   -0.064134
   1 C :   -0.032539
   2 C :   -0.067348
   3 C :    0.039711
   4 O :   -0.146551
   5 C :    0.046926
   6 C :   -0.071882
   7 H :    0.037955
   8 H :    0.037378
   9 H :    0.029117
  10 H :    0.025623
  11 H :    0.025185
  12 H :    0.017564
  13 H :    0.015043
  14 H :    0.034102
  15 H :    0.036728
  16 H :    0.037121

  Mayer bond orders larger than 0.1
B(  0-C ,  1-C ) :   1.0855 B(  0-C ,  7-H ) :   0.9480 B(  0-C ,  8-H ) :   0.9465
B(  0-C ,  9-H ) :   0.9591 B(  1-C ,  2-C ) :   1.8948 B(  1-C , 10-H ) :   0.9477
B(  2-C ,  3-C ) :   1.0385 B(  2-C , 11-H ) :   0.9476 B(  3-C ,  4-O ) :   0.9945
B(  3-C ,  5-C ) :   1.0312 B(  3-C , 12-H ) :   0.9157 B(  4-O ,  5-C ) :   0.9856
B(  5-C ,  6-C ) :   1.0911 B(  5-C , 13-H ) :   0.9251 B(  6-C , 14-H ) :   0.9430
B(  6-C , 15-H ) :   0.9515 B(  6-C , 16-H ) :   0.9480

FINAL SINGLE POINT ENERGY      -309.198924623757

DIPOLE MOMENT
-------------
                                X             Y             Z
Electronic contribution:      2.41330       1.19554       1.27918
Nuclear contribution   :     -2.59271      -1.46292      -1.79969
                        -----------------------------------------
Total Dipole Moment    :     -0.17941      -0.26738      -0.52051
                        -----------------------------------------
Magnitude (a.u.)       :      0.61205
Magnitude (Debye)      :      1.55572

                             ****ORCA TERMINATED NORMALLY****
TOTAL RUN TIME: 0 days 0 hours 0 minutes 7 seconds 497 msec
