                         Program Version 3.0.3 - RELEASE   -
|  1> ! RI PBE def2-SVP def2-SVP/J NBO PAL2
|  2> % maxcore 2000
|  3> % output
|  4>     # printlevel mini
|  5>     print[ P_Basis ] 0
|  6>     print[ P_SCFInfo ] 1
|  7>     print[ P_SCFIterInfo ] 1
|  8>     print[ P_OrbEn ] 0
|  9>     print[ P_Cartesian ] 0
| 10> end
| 11> *xyz 0 1
| 12>  C        1.0931510000     0.0091430000     0.1121330000
| 13>  C        2.6043020000     0.1182240000    -0.0492170000
| 14>  C        3.0941210000     1.5390370000     0.1802130000
| 15>  C        3.2832850000    -0.9032780000     0.8307510000
| 16>  O        4.6961330000    -0.8385830000     0.9661680000
| 17>  C        3.8988460000    -0.6237030000     2.1266350000
| 18>  C        3.9982320000    -1.6528220000     3.2082400000
| 19>  H        0.5788570000     0.6848770000    -0.5750560000
| 20>  H        0.7900330000     0.2746110000     1.1293740000
| 21>  H        0.7377170000    -1.0049780000    -0.0892000000
| 22>  H        2.8560310000    -0.1616890000    -1.0812070000
| 23>  H        2.7488550000     1.9280240000     1.1423810000
| 24>  H        2.7092290000     2.2033260000    -0.5967780000
| 25>  H        4.1845430000     1.5871640000     0.1596810000
| 26>  H        2.9139970000    -1.9207810000     0.6846290000
| 27>  H        3.9076210000     0.4116200000     2.4645500000
| 28>  H        3.9671920000    -2.6594270000     2.7874190000
| 29>  H        3.1734160000    -1.5446620000     3.9177050000
| 30>  H        4.9343700000    -1.5412820000     3.7612910000
| 31> *
| 32>
| 33>                          ****END OF INPUT****
 Total Charge           Charge          ....    0
 Multiplicity           Mult            ....    1
 Number of Electrons    NEL             ....   56
 Basis Dimension        Dim             ....  158

MULLIKEN ATOMIC CHARGES
-----------------------
   0 C :    0.014663
   1 C :   -0.051099
   2 C :    0.000962
   3 C :    0.051051
   4 O :   -0.283104
   5 C :   -0.019943
   6 C :    0.081878
   7 H :    0.019801
   8 H :    0.012679
   9 H :    0.015480
  10 H :    0.009094
  11 H :    0.012732
  12 H :    0.017975
  13 H :    0.036570
  14 H :   -0.002068
  15 H :    0.009661
  16 H :    0.014928
  17 H :    0.028744
  18 H :    0.029996
Sum of atomic charges:    0.0000000

LOEWDIN ATOMIC CHARGES
----------------------
   0 C :   -0.053951
   1 C :   -0.055245
   2 C :   -0.061110
   3 C :    0.043190
   4 O :   -0.154785
   5 C :    0.035667
   6 C :   -0.068331
   7 H :    0.027603
   8 H :    0.023545
   9 H :    0.024407
  10 H :    0.032276
  11 H :    0.021944
  12 H :    0.028524
  13 H :    0.029792
  14 H :    0.011037
  15 H :    0.012549
  16 H :    0.032387
  17 H :    0.035530
  18 H :    0.034970

  Mayer bond orders larger than 0.1
B(  0-C ,  1-C ) :   1.0779 B(  0-C ,  7-H ) :   0.9586 B(  0-C ,  8-H ) :   0.9628
B(  0-C ,  9-H ) :   0.9602 B(  1-C ,  2-C ) :   1.1006 B(  1-C ,  3-C ) :   1.0028
B(  1-C , 10-H ) :   0.8910 B(  2-C , 11-H ) :   0.9523 B(  2-C , 12-H ) :   0.9543
B(  2-C , 13-H ) :   0.9492 B(  3-C ,  4-O ) :   0.9875 B(  3-C ,  5-C ) :   1.0571
B(  3-C , 14-H ) :   0.9278 B(  4-O ,  5-C ) :   0.9856 B(  5-C ,  6-C ) :   1.0789
B(  5-C , 15-H ) :   0.9185 B(  6-C , 16-H ) :   0.9456 B(  6-C , 17-H ) :   0.9527
B(  6-C , 18-H ) :   0.9480

FINAL SINGLE POINT ENERGY      -310.416836712920

DIPOLE MOMENT
-------------
                                X             Y             Z
Electronic contribution:      4.44480      -2.05522      -0.65215
Nuclear contribution   :     -5.05141       2.10576       0.91385
                        -----------------------------------------
Total Dipole Moment    :     -0.60661       0.05054       0.26170
                        -----------------------------------------
Magnitude (a.u.)       :      0.66259
Magnitude (Debye)      :      1.68416

                             ****ORCA TERMINATED NORMALLY****
TOTAL RUN TIME: 0 days 0 hours 0 minutes 8 seconds 260 msec
