                         Program Version 3.0.3 - RELEASE   -
|  1> ! RI PBE def2-SVP def2-SVP/J NBO PAL2
|  2> % maxcore 2000
|  3> % output
|  4>     # printlevel mini
|  5>     print[ P_Basis ] 0
|  6>     print[ P_SCFInfo ] 1
|  7>     print[ P_SCFIterInfo ] 1
|  8>     print[ P_OrbEn ] 0
|  9>     print[ P_Cartesian ] 0
| 10> end
| 11> *xyz 0 1
| 12>  C        0.9935200000    -0.0991550000     0.0962190000
| 13>  C        2.4411840000    -0.0736820000     0.0321690000
| 14>  C        3.6421300000    -0.0567640000    -0.0327910000
| 15>  C        5.0773340000    -0.0453660000    -0.0734490000
| 16>  O        5.7129780000    -0.4848220000    -1.2743850000
| 17>  C        5.8321440000     0.8828210000    -0.9259360000
| 18>  C        7.1947580000     1.3734550000    -0.5544590000
| 19>  H        0.5742970000     0.9021220000    -0.0303320000
| 20>  H        0.6517410000    -0.4902580000     1.0576550000
| 21>  H        0.5837730000    -0.7377420000    -0.6904120000
| 22>  H        5.5679900000    -0.3952890000     0.8335800000
| 23>  H        5.2388080000     1.5439640000    -1.5565130000
| 24>  H        7.6974090000     0.6593540000     0.1000590000
| 25>  H        7.1286710000     2.3362520000    -0.0415310000
| 26>  H        7.8076630000     1.5085990000    -1.4491630000
| 27> *
| 28>
| 29>                          ****END OF INPUT****
 Total Charge           Charge          ....    0
 Multiplicity           Mult            ....    1
 Number of Electrons    NEL             ....   52
 Basis Dimension        Dim             ....  138

MULLIKEN ATOMIC CHARGES
-----------------------
   0 C :    0.056496
   1 C :   -0.222966
   2 C :    0.056858
   3 C :    0.002713
   4 O :   -0.261006
   5 C :    0.010737
   6 C :    0.058797
   7 H :    0.048414
   8 H :    0.049004
   9 H :    0.054832
  10 H :    0.032018
  11 H :    0.021846
  12 H :    0.020748
  13 H :    0.033651
  14 H :    0.037857
Sum of atomic charges:   -0.0000000

LOEWDIN ATOMIC CHARGES
----------------------
   0 C :   -0.066490
   1 C :   -0.044115
   2 C :   -0.074840
   3 C :    0.031443
   4 O :   -0.142870
   5 C :    0.051285
   6 C :   -0.070309
   7 H :    0.050971
   8 H :    0.052117
   9 H :    0.054807
  10 H :    0.028628
  11 H :    0.019073
  12 H :    0.034460
  13 H :    0.037919
  14 H :    0.037920

  Mayer bond orders larger than 0.1
B(  0-C ,  1-C ) :   1.1265 B(  0-C ,  7-H ) :   0.9325 B(  0-C ,  8-H ) :   0.9339
B(  0-C ,  9-H ) :   0.9302 B(  1-C ,  2-C ) :   2.5460 B(  2-C ,  3-C ) :   0.9319
B(  3-C ,  4-O ) :   1.0176 B(  3-C ,  5-C ) :   1.0276 B(  3-C , 10-H ) :   0.9176
B(  4-O ,  5-C ) :   0.9832 B(  5-C ,  6-C ) :   1.0876 B(  5-C , 11-H ) :   0.9306
B(  6-C , 12-H ) :   0.9429 B(  6-C , 13-H ) :   0.9503 B(  6-C , 14-H ) :   0.9474

FINAL SINGLE POINT ENERGY      -307.957951879274

DIPOLE MOMENT
-------------
                                X             Y             Z
Electronic contribution:      0.12414      -2.75562      -1.01746
Nuclear contribution   :     -0.43531       3.31555       1.41967
                        -----------------------------------------
Total Dipole Moment    :     -0.31117       0.55993       0.40220
                        -----------------------------------------
Magnitude (a.u.)       :      0.75638
Magnitude (Debye)      :      1.92258

                             ****ORCA TERMINATED NORMALLY****
TOTAL RUN TIME: 0 days 0 hours 0 minutes 6 seconds 779 msec
