                         Program Version 3.0.3 - RELEASE   -
|  1> ! RI PBE def2-SVP def2-SVP/J NBO PAL2
|  2> % maxcore 2000
|  3> % output
|  4>     # printlevel mini
|  5>     print[ P_Basis ] 0
|  6>     print[ P_SCFInfo ] 1
|  7>     print[ P_SCFIterInfo ] 1
|  8>     print[ P_OrbEn ] 0
|  9>     print[ P_Cartesian ] 0
| 10> end
| 11> *xyz 0 1
| 12>  C        0.9562170000    -0.0783410000    -0.1889020000
| 13>  C        2.4641880000    -0.0336730000     0.0099300000
| 14>  C        2.9417950000     1.4124240000     0.1015750000
| 15>  C        2.9644240000    -0.8366850000     1.1984460000
| 16>  O        4.3614960000    -0.9655620000     1.2261600000
| 17>  C        2.2866240000    -0.7852360000     2.5344200000
| 18>  C        2.2686560000    -2.0478100000     1.7093710000
| 19>  H        0.6786650000     0.5108910000    -1.0659200000
| 20>  H        0.4226730000     0.3451120000     0.6670090000
| 21>  H        0.5919050000    -1.0942760000    -0.3501070000
| 22>  H        2.9358100000    -0.4913370000    -0.8688430000
| 23>  H        2.5207380000     1.9060700000     0.9829720000
| 24>  H        2.6315660000     1.9805020000    -0.7786500000
| 25>  H        4.0310920000     1.4814860000     0.1576970000
| 26>  H        4.7339470000    -0.1225310000     1.4989400000
| 27>  H        1.3618440000    -0.2305790000     2.6368700000
| 28>  H        2.9270000000    -0.7709870000     3.4076930000
| 29>  H        1.3313860000    -2.3513200000     1.2628160000
| 30>  H        2.9102630000    -2.8581460000     2.0304420000
| 31> *
| 32>
| 33>                          ****END OF INPUT****
 Total Charge           Charge          ....    0
 Multiplicity           Mult            ....    1
 Number of Electrons    NEL             ....   56
 Basis Dimension        Dim             ....  158

MULLIKEN ATOMIC CHARGES
-----------------------
   0 C :   -0.006810
   1 C :   -0.012597
   2 C :   -0.000677
   3 C :   -0.061964
   4 O :   -0.239962
   5 C :   -0.042268
   6 C :   -0.006023
   7 H :    0.014052
   8 H :    0.017333
   9 H :    0.023574
  10 H :    0.005142
  11 H :    0.011786
  12 H :    0.020528
  13 H :    0.006612
  14 H :    0.155109
  15 H :    0.027903
  16 H :    0.025879
  17 H :    0.027103
  18 H :    0.035279
Sum of atomic charges:    0.0000000

LOEWDIN ATOMIC CHARGES
----------------------
   0 C :   -0.057585
   1 C :   -0.046805
   2 C :   -0.063381
   3 C :    0.014054
   4 O :   -0.089135
   5 C :   -0.061697
   6 C :   -0.044180
   7 H :    0.028612
   8 H :    0.023767
   9 H :    0.025491
  10 H :    0.029556
  11 H :    0.024103
  12 H :    0.027979
  13 H :    0.018178
  14 H :    0.065993
  15 H :    0.021639
  16 H :    0.026872
  17 H :    0.024205
  18 H :    0.032334

  Mayer bond orders larger than 0.1
B(  0-C ,  1-C ) :   1.0807 B(  0-C ,  7-H ) :   0.9517 B(  0-C ,  8-H ) :   0.9575
B(  0-C ,  9-H ) :   0.9548 B(  1-C ,  2-C ) :   1.0725 B(  1-C ,  3-C ) :   0.9837
B(  1-C , 10-H ) :   0.8945 B(  2-C , 11-H ) :   0.9612 B(  2-C , 12-H ) :   0.9583
B(  2-C , 13-H ) :   0.9534 B(  3-C ,  4-O ) :   1.0871 B(  3-C ,  5-C ) :   0.9753
B(  3-C ,  6-C ) :   0.9901 B(  4-O , 14-H ) :   0.9794 B(  5-C ,  6-C ) :   1.0280
B(  5-C , 15-H ) :   0.9376 B(  5-C , 16-H ) :   0.9339 B(  6-C , 17-H ) :   0.9358
B(  6-C , 18-H ) :   0.9317

FINAL SINGLE POINT ENERGY      -310.414163439419

DIPOLE MOMENT
-------------
                                X             Y             Z
Electronic contribution:      4.01578      -3.03933       1.59272
Nuclear contribution   :     -4.22369       3.52923      -1.54036
                        -----------------------------------------
Total Dipole Moment    :     -0.20792       0.48990       0.05236
                        -----------------------------------------
Magnitude (a.u.)       :      0.53477
Magnitude (Debye)      :      1.35926

                             ****ORCA TERMINATED NORMALLY****
TOTAL RUN TIME: 0 days 0 hours 0 minutes 7 seconds 654 msec
