                         Program Version 3.0.3 - RELEASE   -
|  1> ! RI PBE def2-SVP def2-SVP/J NBO PAL2
|  2> % maxcore 2000
|  3> % output
|  4>     # printlevel mini
|  5>     print[ P_Basis ] 0
|  6>     print[ P_SCFInfo ] 1
|  7>     print[ P_SCFIterInfo ] 1
|  8>     print[ P_OrbEn ] 0
|  9>     print[ P_Cartesian ] 0
| 10> end
| 11> *xyz 0 1
| 12>  C        1.6101040000     0.6782790000    -0.2015900000
| 13>  C        1.8315390000    -0.1098120000     1.0790290000
| 14>  C        2.9683250000    -1.1232820000     1.0045400000
| 15>  C        4.3378450000    -0.5190450000     0.8163220000
| 16>  O        4.6743120000     0.4680280000     1.7524430000
| 17>  C        5.4574120000    -1.3733310000     0.3042590000
| 18>  C        4.8857830000    -0.2667490000    -0.5445020000
| 19>  H        2.4826040000     1.2844720000    -0.4521930000
| 20>  H        0.7555240000     1.3518050000    -0.1030040000
| 21>  H        1.4109310000     0.0136660000    -1.0478830000
| 22>  H        2.0332660000     0.5835240000     1.9010840000
| 23>  H        0.9122430000    -0.6428670000     1.3434120000
| 24>  H        2.9779410000    -1.7173100000     1.9283420000
| 25>  H        2.7865570000    -1.8332240000     0.1899430000
| 26>  H        4.7882690000     0.0397330000     2.6063710000
| 27>  H        5.2426460000    -2.3996660000     0.0302350000
| 28>  H        6.4376270000    -1.2063150000     0.7333480000
| 29>  H        4.2810850000    -0.5341040000    -1.4018890000
| 30>  H        5.4880860000     0.6247180000    -0.6649580000
| 31> *
| 32>
| 33>                          ****END OF INPUT****
 Total Charge           Charge          ....    0
 Multiplicity           Mult            ....    1
 Number of Electrons    NEL             ....   56
 Basis Dimension        Dim             ....  158

MULLIKEN ATOMIC CHARGES
-----------------------
   0 C :   -0.037359
   1 C :   -0.003720
   2 C :    0.084140
   3 C :   -0.112427
   4 O :   -0.236752
   5 C :   -0.014535
   6 C :   -0.004088
   7 H :    0.037966
   8 H :    0.019265
   9 H :    0.011576
  10 H :    0.004375
  11 H :    0.003324
  12 H :   -0.005506
  13 H :   -0.013344
  14 H :    0.155502
  15 H :    0.021039
  16 H :    0.026084
  17 H :    0.028150
  18 H :    0.036311
Sum of atomic charges:   -0.0000000

LOEWDIN ATOMIC CHARGES
----------------------
   0 C :   -0.068887
   1 C :   -0.044898
   2 C :   -0.044793
   3 C :    0.005354
   4 O :   -0.091067
   5 C :   -0.059528
   6 C :   -0.045010
   7 H :    0.028775
   8 H :    0.026778
   9 H :    0.021455
  10 H :    0.021843
  11 H :    0.022358
  12 H :    0.021820
  13 H :    0.025961
  14 H :    0.071721
  15 H :    0.023420
  16 H :    0.027385
  17 H :    0.025193
  18 H :    0.032120

  Mayer bond orders larger than 0.1
B(  0-C ,  1-C ) :   1.1223 B(  0-C ,  7-H ) :   0.9646 B(  0-C ,  8-H ) :   0.9599
B(  0-C ,  9-H ) :   0.9640 B(  1-C ,  2-C ) :   1.1046 B(  1-C , 10-H ) :   0.9239
B(  1-C , 11-H ) :   0.9338 B(  2-C ,  3-C ) :   1.0458 B(  2-C , 12-H ) :   0.9125
B(  2-C , 13-H ) :   0.9015 B(  3-C ,  4-O ) :   1.0812 B(  3-C ,  5-C ) :   0.9726
B(  3-C ,  6-C ) :   0.9754 B(  4-O , 14-H ) :   0.9789 B(  5-C ,  6-C ) :   1.0406
B(  5-C , 15-H ) :   0.9359 B(  5-C , 16-H ) :   0.9328 B(  6-C , 17-H ) :   0.9395
B(  6-C , 18-H ) :   0.9352

FINAL SINGLE POINT ENERGY      -310.415331694043

DIPOLE MOMENT
-------------
                                X             Y             Z
Electronic contribution:      4.16121       0.37022       2.50804
Nuclear contribution   :     -4.20219      -0.82523      -2.27702
                        -----------------------------------------
Total Dipole Moment    :     -0.04098      -0.45502       0.23102
                        -----------------------------------------
Magnitude (a.u.)       :      0.51195
Magnitude (Debye)      :      1.30126

                             ****ORCA TERMINATED NORMALLY****
TOTAL RUN TIME: 0 days 0 hours 0 minutes 8 seconds 281 msec
