                         Program Version 3.0.3 - RELEASE   -
|  1> ! RI PBE def2-SVP def2-SVP/J NBO PAL2
|  2> % maxcore 2000
|  3> % output
|  4>     # printlevel mini
|  5>     print[ P_Basis ] 0
|  6>     print[ P_SCFInfo ] 1
|  7>     print[ P_SCFIterInfo ] 1
|  8>     print[ P_OrbEn ] 0
|  9>     print[ P_Cartesian ] 0
| 10> end
| 11> *xyz 0 1
| 12>  C        0.9738080000    -0.1114400000    -0.1247380000
| 13>  C        2.4906270000    -0.1095500000    -0.0405010000
| 14>  C        2.9986000000     0.3280980000     1.3258530000
| 15>  C        4.5163930000     0.3171330000     1.4683490000
| 16>  C        5.2165770000     1.3221050000     0.6025010000
| 17>  C        6.5899480000     1.1350930000     0.1474600000
| 18>  O        5.5012760000     0.9533570000    -0.7419130000
| 19>  H        0.6279840000    -0.4364070000    -1.1086500000
| 20>  H        0.5666240000     0.8877190000     0.0555560000
| 21>  H        0.5362290000    -0.7831730000     0.6197200000
| 22>  H        2.9055120000     0.5420100000    -0.8151390000
| 23>  H        2.8746830000    -1.1123700000    -0.2597790000
| 24>  H        2.5680040000    -0.3250390000     2.0937720000
| 25>  H        2.6239140000     1.3360470000     1.5465200000
| 26>  H        4.9112090000    -0.6775000000     1.2342100000
| 27>  H        4.7835960000     0.5282050000     2.5105690000
| 28>  H        4.8611770000     2.3492510000     0.7004790000
| 29>  H        7.1187500000     0.2255380000     0.4245810000
| 30>  H        7.2188890000     1.9988030000    -0.0547510000
| 31> *
| 32>
| 33>                          ****END OF INPUT****
 Total Charge           Charge          ....    0
 Multiplicity           Mult            ....    1
 Number of Electrons    NEL             ....   56
 Basis Dimension        Dim             ....  158

MULLIKEN ATOMIC CHARGES
-----------------------
   0 C :   -0.004879
   1 C :   -0.045611
   2 C :   -0.036701
   3 C :    0.116352
   4 C :   -0.036024
   5 C :    0.138628
   6 O :   -0.293485
   7 H :    0.017641
   8 H :    0.012669
   9 H :    0.013510
  10 H :    0.030882
  11 H :    0.007214
  12 H :    0.005535
  13 H :    0.000673
  14 H :   -0.005430
  15 H :    0.013242
  16 H :    0.011933
  17 H :    0.023819
  18 H :    0.030032
Sum of atomic charges:   -0.0000000

LOEWDIN ATOMIC CHARGES
----------------------
   0 C :   -0.066011
   1 C :   -0.047518
   2 C :   -0.041392
   3 C :   -0.047445
   4 C :    0.039083
   5 C :    0.051041
   6 O :   -0.160447
   7 H :    0.026439
   8 H :    0.022922
   9 H :    0.022511
  10 H :    0.027785
  11 H :    0.023499
  12 H :    0.023255
  13 H :    0.020468
  14 H :    0.029480
  15 H :    0.033320
  16 H :    0.013872
  17 H :    0.013621
  18 H :    0.015517

  Mayer bond orders larger than 0.1
B(  0-C ,  1-C ) :   1.1144 B(  0-C ,  7-H ) :   0.9622 B(  0-C ,  8-H ) :   0.9659
B(  0-C ,  9-H ) :   0.9657 B(  1-C ,  2-C ) :   1.0961 B(  1-C , 10-H ) :   0.9361
B(  1-C , 11-H ) :   0.9360 B(  2-C ,  3-C ) :   1.1039 B(  2-C , 12-H ) :   0.9308
B(  2-C , 13-H ) :   0.9316 B(  3-C ,  4-C ) :   1.0446 B(  3-C , 14-H ) :   0.9038
B(  3-C , 15-H ) :   0.9171 B(  4-C ,  5-C ) :   1.0837 B(  4-C ,  6-O ) :   0.9567
B(  4-C , 16-H ) :   0.9348 B(  5-C ,  6-O ) :   1.0069 B(  5-C , 17-H ) :   0.9307
B(  5-C , 18-H ) :   0.9361

FINAL SINGLE POINT ENERGY      -310.407789138038

DIPOLE MOMENT
-------------
                                X             Y             Z
Electronic contribution:      6.47061       1.95080      -1.87510
Nuclear contribution   :     -6.32100      -1.85917       2.48674
                        -----------------------------------------
Total Dipole Moment    :      0.14961       0.09163       0.61164
                        -----------------------------------------
Magnitude (a.u.)       :      0.63631
Magnitude (Debye)      :      1.61737

                             ****ORCA TERMINATED NORMALLY****
TOTAL RUN TIME: 0 days 0 hours 0 minutes 7 seconds 304 msec
