                         Program Version 3.0.3 - RELEASE   -
|  1> ! RI PBE def2-SVP def2-SVP/J NBO PAL2
|  2> % maxcore 2000
|  3> % output
|  4>     # printlevel mini
|  5>     print[ P_Basis ] 0
|  6>     print[ P_SCFInfo ] 1
|  7>     print[ P_SCFIterInfo ] 1
|  8>     print[ P_OrbEn ] 0
|  9>     print[ P_Cartesian ] 0
| 10> end
| 11> *xyz 0 1
| 12>  C        2.1624010000     2.6010990000     2.4691240000
| 13>  C        2.8843540000     1.9805320000     1.5466190000
| 14>  C        3.0453420000     0.5003600000     1.4240940000
| 15>  C        4.5039390000     0.0405950000     1.4698220000
| 16>  C        5.1537400000     0.2905380000     2.7979420000
| 17>  C        5.2192090000    -0.7410130000     3.8286360000
| 18>  O        6.3617440000    -0.4092660000     3.0565530000
| 19>  H        2.0813520000     3.6816080000     2.4953210000
| 20>  H        1.6209190000     2.0481550000     3.2309480000
| 21>  H        3.4123940000     2.5770750000     0.8030150000
| 22>  H        2.6185400000     0.1771400000     0.4672500000
| 23>  H        2.4707730000     0.0003310000     2.2104480000
| 24>  H        5.0766790000     0.5579970000     0.6913470000
| 25>  H        4.5663100000    -1.0284650000     1.2473780000
| 26>  H        5.1673770000     1.3279990000     3.1295120000
| 27>  H        4.7917940000    -1.7209310000     3.6252960000
| 28>  H        5.2686230000    -0.4603450000     4.8778960000
| 29> *
| 30>
| 31>                          ****END OF INPUT****
 Total Charge           Charge          ....    0
 Multiplicity           Mult            ....    1
 Number of Electrons    NEL             ....   54
 Basis Dimension        Dim             ....  148

MULLIKEN ATOMIC CHARGES
-----------------------
   0 C :   -0.038028
   1 C :   -0.090122
   2 C :    0.058071
   3 C :    0.073700
   4 C :   -0.029401
   5 C :    0.139860
   6 O :   -0.291274
   7 H :    0.028385
   8 H :    0.017576
   9 H :    0.003270
  10 H :    0.024659
  11 H :    0.007264
  12 H :    0.020476
  13 H :    0.001849
  14 H :    0.022909
  15 H :    0.019690
  16 H :    0.031117
Sum of atomic charges:    0.0000000

LOEWDIN ATOMIC CHARGES
----------------------
   0 C :   -0.067918
   1 C :   -0.031388
   2 C :   -0.038334
   3 C :   -0.043444
   4 C :    0.038353
   5 C :    0.052417
   6 O :   -0.156351
   7 H :    0.025886
   8 H :    0.021755
   9 H :    0.025545
  10 H :    0.038574
  11 H :    0.028391
  12 H :    0.031678
  13 H :    0.031098
  14 H :    0.016164
  15 H :    0.012065
  16 H :    0.015511

  Mayer bond orders larger than 0.1
B(  0-C ,  1-C ) :   2.0036 B(  0-C ,  7-H ) :   0.9441 B(  0-C ,  8-H ) :   0.9482
B(  1-C ,  2-C ) :   1.0701 B(  1-C ,  9-H ) :   0.9522 B(  2-C ,  3-C ) :   1.0690
B(  2-C , 10-H ) :   0.9073 B(  2-C , 11-H ) :   0.9308 B(  3-C ,  4-C ) :   1.0500
B(  3-C , 12-H ) :   0.9198 B(  3-C , 13-H ) :   0.9083 B(  4-C ,  5-C ) :   1.0925
B(  4-C ,  6-O ) :   0.9714 B(  4-C , 14-H ) :   0.9371 B(  5-C ,  6-O ) :   1.0093
B(  5-C , 15-H ) :   0.9251 B(  5-C , 16-H ) :   0.9402

FINAL SINGLE POINT ENERGY      -309.182973855173

DIPOLE MOMENT
-------------
                                X             Y             Z
Electronic contribution:      4.20992      -1.24171       1.00376
Nuclear contribution   :     -4.85918       1.27497      -1.03087
                        -----------------------------------------
Total Dipole Moment    :     -0.64927       0.03326      -0.02711
                        -----------------------------------------
Magnitude (a.u.)       :      0.65068
Magnitude (Debye)      :      1.65391

                             ****ORCA TERMINATED NORMALLY****
TOTAL RUN TIME: 0 days 0 hours 0 minutes 7 seconds 421 msec
