                         Program Version 3.0.3 - RELEASE   -
|  1> ! RI PBE def2-SVP def2-SVP/J NBO PAL2
|  2> % maxcore 2000
|  3> % output
|  4>     # printlevel mini
|  5>     print[ P_Basis ] 0
|  6>     print[ P_SCFInfo ] 1
|  7>     print[ P_SCFIterInfo ] 1
|  8>     print[ P_OrbEn ] 0
|  9>     print[ P_Cartesian ] 0
| 10> end
| 11> *xyz 0 1
| 12>  C        0.9530850000     0.1773820000     0.0109640000
| 13>  C        2.2760630000     0.0056230000     0.0371480000
| 14>  C        2.9688150000    -0.3252710000     1.2370000000
| 15>  C        3.5915610000    -0.6121210000     2.2249160000
| 16>  C        3.1244910000     0.1060640000    -1.1873020000
| 17>  C        2.8485500000     1.0587610000    -2.2547970000
| 18>  O        3.9031390000     1.2838060000    -1.3344750000
| 19>  H        0.3574980000     0.0847950000     0.9105560000
| 20>  H        0.4400310000     0.4074560000    -0.9145990000
| 21>  H        4.1356750000    -0.8595580000     3.1055760000
| 22>  H        3.6667620000    -0.8059750000    -1.4350740000
| 23>  H        2.0047390000     1.7372370000    -2.1630430000
| 24>  H        3.1570810000     0.8252100000    -3.2708810000
| 25> *
| 26>
| 27>                          ****END OF INPUT****
 Total Charge           Charge          ....    0
 Multiplicity           Mult            ....    1
 Number of Electrons    NEL             ....   50
 Basis Dimension        Dim             ....  128

MULLIKEN ATOMIC CHARGES
-----------------------
   0 C :    0.018972
   1 C :   -0.102942
   2 C :    0.427259
   3 C :   -0.436750
   4 C :    0.073357
   5 C :    0.127350
   6 O :   -0.275415
   7 H :    0.033205
   8 H :    0.024234
   9 H :    0.009363
  10 H :    0.034192
  11 H :    0.035737
  12 H :    0.031439
Sum of atomic charges:    0.0000000

LOEWDIN ATOMIC CHARGES
----------------------
   0 C :   -0.010797
   1 C :   -0.058807
   2 C :   -0.007484
   3 C :   -0.052125
   4 C :    0.054850
   5 C :    0.058662
   6 O :   -0.142469
   7 H :    0.033487
   8 H :    0.026360
   9 H :    0.038223
  10 H :    0.024565
  11 H :    0.017520
  12 H :    0.018015

  Mayer bond orders larger than 0.1
B(  0-C ,  1-C ) :   1.9176 B(  0-C ,  3-C ) :   0.1271 B(  0-C ,  7-H ) :   0.9350
B(  0-C ,  8-H ) :   0.9302 B(  1-C ,  2-C ) :   1.0024 B(  1-C ,  4-C ) :   0.9887
B(  2-C ,  3-C ) :   2.2806 B(  3-C ,  9-H ) :   1.0894 B(  4-C ,  5-C ) :   1.1014
B(  4-C ,  6-O ) :   0.9985 B(  4-C , 10-H ) :   0.9194 B(  5-C ,  6-O ) :   0.9951
B(  5-C , 11-H ) :   0.9355 B(  5-C , 12-H ) :   0.9292

FINAL SINGLE POINT ENERGY      -306.719320995292

DIPOLE MOMENT
-------------
                                X             Y             Z
Electronic contribution:      2.42860      -0.05608       1.83501
Nuclear contribution   :     -2.96156      -0.28907      -2.09512
                        -----------------------------------------
Total Dipole Moment    :     -0.53296      -0.34515      -0.26012
                        -----------------------------------------
Magnitude (a.u.)       :      0.68618
Magnitude (Debye)      :      1.74412

                             ****ORCA TERMINATED NORMALLY****
TOTAL RUN TIME: 0 days 0 hours 0 minutes 6 seconds 373 msec
