                         Program Version 3.0.3 - RELEASE   -
|  1> ! RI PBE def2-SVP def2-SVP/J NBO PAL2
|  2> % maxcore 2000
|  3> % output
|  4>     # printlevel mini
|  5>     print[ P_Basis ] 0
|  6>     print[ P_SCFInfo ] 1
|  7>     print[ P_SCFIterInfo ] 1
|  8>     print[ P_OrbEn ] 0
|  9>     print[ P_Cartesian ] 0
| 10> end
| 11> *xyz 0 1
| 12>  C        1.9700110000    -0.9544030000    -0.6771550000
| 13>  C        3.1430200000    -0.6224900000    -0.1378880000
| 14>  C        3.3030640000     0.3402130000     0.9290500000
| 15>  C        4.4782630000     0.6678150000     1.4735270000
| 16>  C        4.6272160000     1.6301230000     2.5676730000
| 17>  C        5.7139500000     1.5183200000     3.5455240000
| 18>  O        5.7721280000     2.4832290000     2.5174600000
| 19>  H        1.8985200000    -1.6798820000    -1.4779640000
| 20>  H        1.0435440000    -0.5070770000    -0.3314670000
| 21>  H        4.0526300000    -1.0906550000    -0.5080230000
| 22>  H        2.3963890000     0.8163610000     1.2992780000
| 23>  H        5.3964300000     0.2131870000     1.1074110000
| 24>  H        3.7150710000     2.1318360000     2.8868040000
| 25>  H        6.4227950000     0.6978010000     3.4580040000
| 26>  H        5.5658810000     1.9076120000     4.5503650000
| 27> *
| 28>
| 29>                          ****END OF INPUT****
 Total Charge           Charge          ....    0
 Multiplicity           Mult            ....    1
 Number of Electrons    NEL             ....   52
 Basis Dimension        Dim             ....  138

MULLIKEN ATOMIC CHARGES
-----------------------
   0 C :   -0.031386
   1 C :   -0.004512
   2 C :    0.008816
   3 C :    0.053738
   4 C :    0.021572
   5 C :    0.152532
   6 O :   -0.285369
   7 H :    0.031172
   8 H :    0.018080
   9 H :   -0.006803
  10 H :   -0.016569
  11 H :   -0.011523
  12 H :    0.007252
  13 H :    0.029040
  14 H :    0.033960
Sum of atomic charges:   -0.0000000

LOEWDIN ATOMIC CHARGES
----------------------
   0 C :   -0.048061
   1 C :   -0.030709
   2 C :   -0.030838
   3 C :   -0.034212
   4 C :    0.040630
   5 C :    0.060455
   6 O :   -0.148367
   7 H :    0.027149
   8 H :    0.023455
   9 H :    0.030053
  10 H :    0.027700
  11 H :    0.030248
  12 H :    0.019878
  13 H :    0.015029
  14 H :    0.017590

  Mayer bond orders larger than 0.1
B(  0-C ,  1-C ) :   1.8752 B(  0-C ,  3-C ) :   0.1307 B(  0-C ,  7-H ) :   0.9452
B(  0-C ,  8-H ) :   0.9475 B(  1-C ,  2-C ) :   1.1257 B(  1-C ,  9-H ) :   0.9646
B(  2-C ,  3-C ) :   1.7230 B(  2-C , 10-H ) :   0.9710 B(  3-C ,  4-C ) :   1.0597
B(  3-C , 11-H ) :   0.9462 B(  4-C ,  5-C ) :   1.0450 B(  4-C ,  6-O ) :   0.9422
B(  4-C , 12-H ) :   0.9443 B(  5-C ,  6-O ) :   0.9995 B(  5-C , 13-H ) :   0.9322
B(  5-C , 14-H ) :   0.9334

FINAL SINGLE POINT ENERGY      -307.974866339537

DIPOLE MOMENT
-------------
                                X             Y             Z
Electronic contribution:      2.49231       2.86775       1.21612
Nuclear contribution   :     -2.76997      -3.35613      -0.91031
                        -----------------------------------------
Total Dipole Moment    :     -0.27766      -0.48838       0.30581
                        -----------------------------------------
Magnitude (a.u.)       :      0.63963
Magnitude (Debye)      :      1.62581

                             ****ORCA TERMINATED NORMALLY****
TOTAL RUN TIME: 0 days 0 hours 0 minutes 6 seconds 868 msec
