                         Program Version 3.0.3 - RELEASE   -
|  1> ! RI PBE def2-SVP def2-SVP/J NBO PAL2
|  2> % maxcore 2000
|  3> % output
|  4>     # printlevel mini
|  5>     print[ P_Basis ] 0
|  6>     print[ P_SCFInfo ] 1
|  7>     print[ P_SCFIterInfo ] 1
|  8>     print[ P_OrbEn ] 0
|  9>     print[ P_Cartesian ] 0
| 10> end
| 11> *xyz 0 1
| 12>  C        1.7090460000    -1.0180840000    -0.2952650000
| 13>  C        2.8864620000    -0.6561420000     0.2046540000
| 14>  C        3.4359400000     0.7039320000     0.1938590000
| 15>  C        2.6983910000     1.8050650000     0.3306110000
| 16>  C        4.9135670000     0.7833240000     0.0468010000
| 17>  C        5.5463590000     1.2888160000    -1.1744380000
| 18>  O        5.5102400000     2.0617430000     0.0130140000
| 19>  H        1.3646020000    -2.0433440000    -0.2334000000
| 20>  H        1.0578510000    -0.3046880000    -0.7888710000
| 21>  H        3.5245390000    -1.4221250000     0.6427910000
| 22>  H        1.6275190000     1.7468380000     0.4823580000
| 23>  H        3.1643430000     2.7826450000     0.3151200000
| 24>  H        5.4710940000     0.0442320000     0.6237940000
| 25>  H        4.9063920000     1.6454140000    -1.9774730000
| 26>  H        6.5295650000     0.9276750000    -1.4664660000
| 27> *
| 28>
| 29>                          ****END OF INPUT****
 Total Charge           Charge          ....    0
 Multiplicity           Mult            ....    1
 Number of Electrons    NEL             ....   52
 Basis Dimension        Dim             ....  138

MULLIKEN ATOMIC CHARGES
-----------------------
   0 C :   -0.030740
   1 C :   -0.017963
   2 C :   -0.031654
   3 C :   -0.028179
   4 C :    0.027298
   5 C :    0.160180
   6 O :   -0.276181
   7 H :    0.028520
   8 H :    0.026519
   9 H :    0.003725
  10 H :    0.022161
  11 H :    0.028976
  12 H :    0.025095
  13 H :    0.029658
  14 H :    0.032585
Sum of atomic charges:   -0.0000000

LOEWDIN ATOMIC CHARGES
----------------------
   0 C :   -0.040788
   1 C :   -0.027624
   2 C :   -0.054384
   3 C :   -0.038567
   4 C :    0.043400
   5 C :    0.069238
   6 O :   -0.138881
   7 H :    0.026989
   8 H :    0.025328
   9 H :    0.029243
  10 H :    0.024875
  11 H :    0.026646
  12 H :    0.020904
  13 H :    0.017387
  14 H :    0.016235

  Mayer bond orders larger than 0.1
B(  0-C ,  1-C ) :   1.9611 B(  0-C ,  7-H ) :   0.9421 B(  0-C ,  8-H ) :   0.9469
B(  1-C ,  2-C ) :   1.0395 B(  1-C ,  9-H ) :   0.9486 B(  2-C ,  3-C ) :   1.9303
B(  2-C ,  4-C ) :   1.0006 B(  3-C , 10-H ) :   0.9349 B(  3-C , 11-H ) :   0.9216
B(  4-C ,  5-C ) :   1.0788 B(  4-C ,  6-O ) :   0.9942 B(  4-C , 12-H ) :   0.9260
B(  5-C ,  6-O ) :   0.9952 B(  5-C , 13-H ) :   0.9271 B(  5-C , 14-H ) :   0.9417

FINAL SINGLE POINT ENERGY      -307.966369363203

DIPOLE MOMENT
-------------
                                X             Y             Z
Electronic contribution:      2.88941       1.82860       1.09590
Nuclear contribution   :     -2.96889      -2.37978      -1.42842
                        -----------------------------------------
Total Dipole Moment    :     -0.07948      -0.55119      -0.33252
                        -----------------------------------------
Magnitude (a.u.)       :      0.64861
Magnitude (Debye)      :      1.64863

                             ****ORCA TERMINATED NORMALLY****
TOTAL RUN TIME: 0 days 0 hours 0 minutes 6 seconds 471 msec
