                         Program Version 3.0.3 - RELEASE   -
|  1> ! RI PBE def2-SVP def2-SVP/J NBO PAL2
|  2> % maxcore 2000
|  3> % output
|  4>     # printlevel mini
|  5>     print[ P_Basis ] 0
|  6>     print[ P_SCFInfo ] 1
|  7>     print[ P_SCFIterInfo ] 1
|  8>     print[ P_OrbEn ] 0
|  9>     print[ P_Cartesian ] 0
| 10> end
| 11> *xyz 0 1
| 12>  C        0.8915420000     0.1403710000     0.0050290000
| 13>  C        2.2125060000    -0.0193830000     0.0855600000
| 14>  C        2.9119920000    -0.3433550000     1.2730820000
| 15>  C        3.5482790000    -0.6202950000     2.2598970000
| 16>  C        4.2629590000    -0.9394260000     3.4609010000
| 17>  C        5.2595620000    -2.0169950000     3.4992480000
| 18>  O        5.6609540000    -0.6647980000     3.4921150000
| 19>  H        0.4210860000     0.3856670000    -0.9388320000
| 20>  H        0.2531120000     0.0295760000     0.8732420000
| 21>  H        2.8238180000     0.0989310000    -0.8058160000
| 22>  H        3.7450980000    -0.6986390000     4.3869870000
| 23>  H        5.4628560000    -2.5704860000     2.5867280000
| 24>  H        5.4188340000    -2.5517780000     4.4326480000
| 25> *
| 26>
| 27>                          ****END OF INPUT****
 Total Charge           Charge          ....    0
 Multiplicity           Mult            ....    1
 Number of Electrons    NEL             ....   50
 Basis Dimension        Dim             ....  128

MULLIKEN ATOMIC CHARGES
-----------------------
   0 C :   -0.012438
   1 C :   -0.084536
   2 C :   -0.066107
   3 C :    0.072922
   4 C :   -0.039742
   5 C :    0.165149
   6 O :   -0.267367
   7 H :    0.034584
   8 H :    0.036725
   9 H :    0.036085
  10 H :    0.047903
  11 H :    0.039287
  12 H :    0.037534
Sum of atomic charges:   -0.0000000

LOEWDIN ATOMIC CHARGES
----------------------
   0 C :   -0.023962
   1 C :   -0.046120
   2 C :   -0.030117
   3 C :   -0.048156
   4 C :    0.030866
   5 C :    0.074336
   6 O :   -0.137853
   7 H :    0.029417
   8 H :    0.030627
   9 H :    0.046939
  10 H :    0.034047
  11 H :    0.021053
  12 H :    0.018923

  Mayer bond orders larger than 0.1
B(  0-C ,  1-C ) :   1.9104 B(  0-C ,  3-C ) :   0.1260 B(  0-C ,  7-H ) :   0.9416
B(  0-C ,  8-H ) :   0.9544 B(  1-C ,  2-C ) :   1.0616 B(  1-C ,  9-H ) :   0.9447
B(  2-C ,  3-C ) :   2.4330 B(  3-C ,  4-C ) :   0.9455 B(  4-C ,  5-C ) :   1.0684
B(  4-C ,  6-O ) :   1.0042 B(  4-C , 10-H ) :   0.9278 B(  5-C ,  6-O ) :   0.9917
B(  5-C , 11-H ) :   0.9340 B(  5-C , 12-H ) :   0.9332

FINAL SINGLE POINT ENERGY      -306.728333105081

DIPOLE MOMENT
-------------
                                X             Y             Z
Electronic contribution:      2.71837       0.82413       1.64252
Nuclear contribution   :     -3.18697      -1.29344      -1.67531
                        -----------------------------------------
Total Dipole Moment    :     -0.46859      -0.46930      -0.03279
                        -----------------------------------------
Magnitude (a.u.)       :      0.66400
Magnitude (Debye)      :      1.68776

                             ****ORCA TERMINATED NORMALLY****
TOTAL RUN TIME: 0 days 0 hours 0 minutes 5 seconds 932 msec
