                         Program Version 3.0.3 - RELEASE   -
|  1> ! RI PBE def2-SVP def2-SVP/J NBO PAL2
|  2> % maxcore 2000
|  3> % output
|  4>     # printlevel mini
|  5>     print[ P_Basis ] 0
|  6>     print[ P_SCFInfo ] 1
|  7>     print[ P_SCFIterInfo ] 1
|  8>     print[ P_OrbEn ] 0
|  9>     print[ P_Cartesian ] 0
| 10> end
| 11> *xyz 0 1
| 12>  C        4.3949540000     2.6083500000    -0.8106300000
| 13>  C        4.0872750000     1.5244840000    -0.3957890000
| 14>  C        3.7181120000     0.2039480000     0.0896080000
| 15>  C        4.3054280000    -0.9394850000    -0.7434980000
| 16>  C        5.8040870000    -0.9704180000    -0.7094590000
| 17>  C        6.5339190000    -1.8082900000     0.2371560000
| 18>  O        6.4196100000    -2.1781770000    -1.1273360000
| 19>  H        4.6641770000     3.5716890000    -1.1741790000
| 20>  H        2.6266460000     0.1233060000     0.0942590000
| 21>  H        4.0403400000     0.1041400000     1.1320120000
| 22>  H        3.9708160000    -0.8417500000    -1.7806260000
| 23>  H        3.9240920000    -1.8924990000    -0.3669240000
| 24>  H        6.2993880000    -0.0713210000    -1.0731670000
| 25>  H        5.9768680000    -2.4319860000     0.9335670000
| 26>  H        7.5314890000    -1.5213030000     0.5600870000
| 27> *
| 28>
| 29>                          ****END OF INPUT****
 Total Charge           Charge          ....    0
 Multiplicity           Mult            ....    1
 Number of Electrons    NEL             ....   52
 Basis Dimension        Dim             ....  138

MULLIKEN ATOMIC CHARGES
-----------------------
   0 C :   -0.479934
   1 C :    0.309021
   2 C :    0.057829
   3 C :    0.087374
   4 C :   -0.028397
   5 C :    0.138218
   6 O :   -0.290182
   7 H :   -0.000369
   8 H :    0.048928
   9 H :    0.038466
  10 H :    0.032879
  11 H :    0.001284
  12 H :    0.031061
  13 H :    0.023749
  14 H :    0.030072
Sum of atomic charges:    0.0000000

LOEWDIN ATOMIC CHARGES
----------------------
   0 C :   -0.088223
   1 C :   -0.026445
   2 C :   -0.045122
   3 C :   -0.034255
   4 C :    0.039382
   5 C :    0.052637
   6 O :   -0.154281
   7 H :    0.035216
   8 H :    0.053836
   9 H :    0.048819
  10 H :    0.037125
  11 H :    0.032072
  12 H :    0.020227
  13 H :    0.012619
  14 H :    0.016394

  Mayer bond orders larger than 0.1
B(  0-C ,  1-C ) :   2.3422 B(  0-C ,  7-H ) :   1.1003 B(  1-C ,  2-C ) :   1.0753
B(  1-C ,  7-H ) :  -0.1092 B(  2-C ,  3-C ) :   1.0711 B(  2-C ,  8-H ) :   0.8923
B(  2-C ,  9-H ) :   0.8981 B(  3-C ,  4-C ) :   1.0550 B(  3-C , 10-H ) :   0.9217
B(  3-C , 11-H ) :   0.9059 B(  4-C ,  5-C ) :   1.0944 B(  4-C ,  6-O ) :   0.9726
B(  4-C , 12-H ) :   0.9350 B(  5-C ,  6-O ) :   1.0087 B(  5-C , 13-H ) :   0.9276
B(  5-C , 14-H ) :   0.9382

FINAL SINGLE POINT ENERGY      -307.940090635348

DIPOLE MOMENT
-------------
                                X             Y             Z
Electronic contribution:      1.22378       0.65154      -1.61890
Nuclear contribution   :     -1.49964      -0.43059       2.14675
                        -----------------------------------------
Total Dipole Moment    :     -0.27587       0.22095       0.52785
                        -----------------------------------------
Magnitude (a.u.)       :      0.63526
Magnitude (Debye)      :      1.61469

                             ****ORCA TERMINATED NORMALLY****
TOTAL RUN TIME: 0 days 0 hours 0 minutes 6 seconds 870 msec
