                         Program Version 3.0.3 - RELEASE   -
|  1> ! RI PBE def2-SVP def2-SVP/J NBO PAL2
|  2> % maxcore 2000
|  3> % output
|  4>     # printlevel mini
|  5>     print[ P_Basis ] 0
|  6>     print[ P_SCFInfo ] 1
|  7>     print[ P_SCFIterInfo ] 1
|  8>     print[ P_OrbEn ] 0
|  9>     print[ P_Cartesian ] 0
| 10> end
| 11> *xyz 0 1
| 12>  C        0.9723730000    -0.1259040000    -0.0542010000
| 13>  C        2.1636190000     0.0345840000    -0.1060210000
| 14>  C        3.5672530000     0.1998960000    -0.2022820000
| 15>  C        4.2981140000     0.9172350000     0.6533120000
| 16>  C        5.7646350000     1.0679030000     0.5585190000
| 17>  C        6.4631580000     1.2367140000    -0.7107560000
| 18>  O        6.2520960000     2.3429960000     0.1504080000
| 19>  H       -0.0818700000    -0.2615290000     0.0001010000
| 20>  H        4.0552540000    -0.3067380000    -1.0315720000
| 21>  H        3.8132630000     1.4127350000     1.4900900000
| 22>  H        6.3264290000     0.6452940000     1.3924720000
| 23>  H        5.8922770000     1.2573320000    -1.6352830000
| 24>  H        7.4954990000     0.9081820000    -0.8014960000
| 25> *
| 26>
| 27>                          ****END OF INPUT****
 Total Charge           Charge          ....    0
 Multiplicity           Mult            ....    1
 Number of Electrons    NEL             ....   50
 Basis Dimension        Dim             ....  128

MULLIKEN ATOMIC CHARGES
-----------------------
   0 C :   -0.398522
   1 C :    0.389483
   2 C :   -0.073692
   3 C :    0.030883
   4 C :    0.040553
   5 C :    0.132934
   6 O :   -0.287529
   7 H :    0.009675
   8 H :    0.030641
   9 H :    0.023070
  10 H :    0.036447
  11 H :    0.034862
  12 H :    0.031195
Sum of atomic charges:   -0.0000000

LOEWDIN ATOMIC CHARGES
----------------------
   0 C :   -0.054692
   1 C :   -0.018868
   2 C :   -0.040613
   3 C :   -0.008646
   4 C :    0.035947
   5 C :    0.058959
   6 O :   -0.149743
   7 H :    0.037464
   8 H :    0.042893
   9 H :    0.038189
  10 H :    0.024194
  11 H :    0.017109
  12 H :    0.017807

  Mayer bond orders larger than 0.1
B(  0-C ,  1-C ) :   2.2802 B(  0-C ,  3-C ) :   0.1301 B(  0-C ,  7-H ) :   1.0868
B(  1-C ,  2-C ) :   1.0402 B(  2-C ,  3-C ) :   1.8186 B(  2-C ,  8-H ) :   0.9407
B(  3-C ,  4-C ) :   1.0251 B(  3-C ,  9-H ) :   0.9547 B(  4-C ,  5-C ) :   1.1107
B(  4-C ,  6-O ) :   0.9518 B(  4-C , 10-H ) :   0.9123 B(  5-C ,  6-O ) :   1.0004
B(  5-C , 11-H ) :   0.9326 B(  5-C , 12-H ) :   0.9319

FINAL SINGLE POINT ENERGY      -306.721960755636

DIPOLE MOMENT
-------------
                                X             Y             Z
Electronic contribution:     -1.47252       0.79413       0.66289
Nuclear contribution   :      1.50058      -1.40384      -0.75597
                        -----------------------------------------
Total Dipole Moment    :      0.02806      -0.60970      -0.09308
                        -----------------------------------------
Magnitude (a.u.)       :      0.61741
Magnitude (Debye)      :      1.56932

                             ****ORCA TERMINATED NORMALLY****
TOTAL RUN TIME: 0 days 0 hours 0 minutes 6 seconds 113 msec
