                         Program Version 3.0.3 - RELEASE   -
|  1> ! RI PBE def2-SVP def2-SVP/J NBO PAL2
|  2> % maxcore 2000
|  3> % output
|  4>     # printlevel mini
|  5>     print[ P_Basis ] 0
|  6>     print[ P_SCFInfo ] 1
|  7>     print[ P_SCFIterInfo ] 1
|  8>     print[ P_OrbEn ] 0
|  9>     print[ P_Cartesian ] 0
| 10> end
| 11> *xyz 0 1
| 12>  C        0.9796780000    -0.0234200000     0.0667190000
| 13>  C        2.1846530000    -0.0571220000     0.0546350000
| 14>  C        3.5459710000    -0.0952980000     0.0418660000
| 15>  C        4.7535880000    -0.1298700000     0.0228710000
| 16>  C        6.1849390000    -0.1751640000     0.0430960000
| 17>  C        6.9426770000    -0.8549760000    -1.0153730000
| 18>  O        6.8812190000     0.5531850000    -0.9623760000
| 19>  H       -0.0841490000     0.0074640000     0.0769830000
| 20>  H        6.6344990000    -0.1128040000     1.0320270000
| 21>  H        6.3964610000    -1.3168100000    -1.8328720000
| 22>  H        7.9051540000    -1.2951850000    -0.7668760000
| 23> *
| 24>
| 25>                          ****END OF INPUT****
 Total Charge           Charge          ....    0
 Multiplicity           Mult            ....    1
 Number of Electrons    NEL             ....   48
 Basis Dimension        Dim             ....  118

MULLIKEN ATOMIC CHARGES
-----------------------
   0 C :   -0.405801
   1 C :    0.356930
   2 C :   -0.024744
   3 C :    0.060789
   4 C :   -0.053052
   5 C :    0.170062
   6 O :   -0.261595
   7 H :    0.016806
   8 H :    0.055819
   9 H :    0.044370
  10 H :    0.040417
Sum of atomic charges:   -0.0000000

LOEWDIN ATOMIC CHARGES
----------------------
   0 C :   -0.017636
   1 C :   -0.029697
   2 C :   -0.043231
   3 C :   -0.009583
   4 C :    0.029859
   5 C :    0.078748
   6 O :   -0.131631
   7 H :    0.041404
   8 H :    0.037679
   9 H :    0.023152
  10 H :    0.020935

  Mayer bond orders larger than 0.1
B(  0-C ,  1-C ) :   2.1484 B(  0-C ,  3-C ) :   0.2530 B(  0-C ,  7-H ) :   1.0940
B(  1-C ,  2-C ) :   0.9492 B(  1-C ,  7-H ) :  -0.1046 B(  2-C ,  3-C ) :   2.3317
B(  3-C ,  4-C ) :   0.9411 B(  4-C ,  5-C ) :   1.0673 B(  4-C ,  6-O ) :   1.0133
B(  4-C ,  8-H ) :   0.9276 B(  5-C ,  6-O ) :   0.9857 B(  5-C ,  9-H ) :   0.9362
B(  5-C , 10-H ) :   0.9333

FINAL SINGLE POINT ENERGY      -305.489197872747

DIPOLE MOMENT
-------------
                                X             Y             Z
Electronic contribution:     -2.19281       1.51939       0.52733
Nuclear contribution   :      2.21819      -2.13480      -0.33519
                        -----------------------------------------
Total Dipole Moment    :      0.02538      -0.61540       0.19214
                        -----------------------------------------
Magnitude (a.u.)       :      0.64520
Magnitude (Debye)      :      1.63997

                             ****ORCA TERMINATED NORMALLY****
TOTAL RUN TIME: 0 days 0 hours 0 minutes 5 seconds 516 msec
