                         Program Version 3.0.3 - RELEASE   -
|  1> ! RI PBE def2-SVP def2-SVP/J NBO PAL2
|  2> % maxcore 2000
|  3> % output
|  4>     # printlevel mini
|  5>     print[ P_Basis ] 0
|  6>     print[ P_SCFInfo ] 1
|  7>     print[ P_SCFIterInfo ] 1
|  8>     print[ P_OrbEn ] 0
|  9>     print[ P_Cartesian ] 0
| 10> end
| 11> *xyz 0 1
| 12>  C        0.5265170000     0.5879970000    -0.6364860000
| 13>  C        1.9125450000     1.1114740000    -0.7939330000
| 14>  C        2.9414020000     0.4215690000    -1.2710060000
| 15>  C        4.3302260000     0.9516280000    -1.4240940000
| 16>  C        4.8038220000     0.9090230000    -2.8521520000
| 17>  C        4.7375880000     2.0750340000    -3.7235320000
| 18>  O        5.9707500000     1.6535030000    -3.1586920000
| 19>  H       -0.1888020000     1.1868990000    -1.2092330000
| 20>  H        0.2040230000     0.6321170000     0.4087360000
| 21>  H        0.4495880000    -0.4478840000    -0.9726910000
| 22>  H        2.0790130000     2.1424710000    -0.4828510000
| 23>  H        2.7794940000    -0.6108420000    -1.5813530000
| 24>  H        5.0260330000     0.3548080000    -0.8202910000
| 25>  H        4.3919760000     1.9805980000    -1.0593750000
| 26>  H        4.7728130000    -0.0731670000    -3.3251340000
| 27>  H        4.3404600000     3.0072290000    -3.3276330000
| 28>  H        4.6515430000     1.9481320000    -4.7998800000
| 29> *
| 30>
| 31>                          ****END OF INPUT****
 Total Charge           Charge          ....    0
 Multiplicity           Mult            ....    1
 Number of Electrons    NEL             ....   54
 Basis Dimension        Dim             ....  148

MULLIKEN ATOMIC CHARGES
-----------------------
   0 C :    0.036145
   1 C :   -0.099452
   2 C :   -0.077137
   3 C :    0.163674
   4 C :   -0.039339
   5 C :    0.145588
   6 O :   -0.289722
   7 H :    0.035127
   8 H :    0.033357
   9 H :    0.017420
  10 H :   -0.007655
  11 H :   -0.009494
  12 H :    0.030016
  13 H :   -0.005168
  14 H :    0.016171
  15 H :    0.018415
  16 H :    0.032053
Sum of atomic charges:    0.0000000

LOEWDIN ATOMIC CHARGES
----------------------
   0 C :   -0.065572
   1 C :   -0.042668
   2 C :   -0.047507
   3 C :   -0.045143
   4 C :    0.039482
   5 C :    0.055011
   6 O :   -0.156971
   7 H :    0.037235
   8 H :    0.036744
   9 H :    0.030642
  10 H :    0.021611
  11 H :    0.020578
  12 H :    0.041254
  13 H :    0.032853
  14 H :    0.013669
  15 H :    0.012968
  16 H :    0.015815

  Mayer bond orders larger than 0.1
B(  0-C ,  1-C ) :   1.0909 B(  0-C ,  7-H ) :   0.9468 B(  0-C ,  8-H ) :   0.9475
B(  0-C ,  9-H ) :   0.9589 B(  1-C ,  2-C ) :   1.9408 B(  1-C , 10-H ) :   0.9505
B(  2-C ,  3-C ) :   1.0342 B(  2-C , 11-H ) :   0.9457 B(  3-C ,  4-C ) :   1.0391
B(  3-C , 12-H ) :   0.8976 B(  3-C , 13-H ) :   0.9124 B(  4-C ,  5-C ) :   1.1032
B(  4-C ,  6-O ) :   0.9750 B(  4-C , 14-H ) :   0.9343 B(  5-C ,  6-O ) :   1.0085
B(  5-C , 15-H ) :   0.9248 B(  5-C , 16-H ) :   0.9390

FINAL SINGLE POINT ENERGY      -309.188477012309

DIPOLE MOMENT
-------------
                                X             Y             Z
Electronic contribution:      6.43444       0.85550      -2.59492
Nuclear contribution   :     -7.20376      -0.95528       2.64633
                        -----------------------------------------
Total Dipole Moment    :     -0.76932      -0.09978       0.05141
                        -----------------------------------------
Magnitude (a.u.)       :      0.77746
Magnitude (Debye)      :      1.97616

                             ****ORCA TERMINATED NORMALLY****
TOTAL RUN TIME: 0 days 0 hours 0 minutes 7 seconds 217 msec
