                         Program Version 3.0.3 - RELEASE   -
|  1> ! RI PBE def2-SVP def2-SVP/J NBO PAL2
|  2> % maxcore 2000
|  3> % output
|  4>     # printlevel mini
|  5>     print[ P_Basis ] 0
|  6>     print[ P_SCFInfo ] 1
|  7>     print[ P_SCFIterInfo ] 1
|  8>     print[ P_OrbEn ] 0
|  9>     print[ P_Cartesian ] 0
| 10> end
| 11> *xyz 0 1
| 12>  C        0.7676390000    -0.2087820000     0.3927240000
| 13>  C        1.4751980000    -1.0537400000    -0.6121030000
| 14>  C        2.7655240000    -1.0449570000    -0.9589880000
| 15>  C        3.2923540000    -1.9786910000    -2.0053010000
| 16>  C        3.7404870000    -0.1151710000    -0.3450840000
| 17>  C        5.1506130000    -0.4580200000    -0.1332310000
| 18>  O        4.7730850000     0.4023220000    -1.1874380000
| 19>  H        0.3854030000    -0.8247640000     1.2137000000
| 20>  H       -0.1023440000     0.2753440000    -0.0616310000
| 21>  H        1.3913940000     0.5699610000     0.8297320000
| 22>  H        0.8412990000    -1.7788930000    -1.1194350000
| 23>  H        3.8428050000    -1.4306060000    -2.7734960000
| 24>  H        2.4770330000    -2.5246990000    -2.4803970000
| 25>  H        3.9823150000    -2.7139360000    -1.5788090000
| 26>  H        3.3287480000     0.6351650000     0.3229410000
| 27>  H        5.5220760000    -1.4328030000    -0.4375380000
| 28>  H        5.6899720000     0.0120010000     0.6862750000
| 29> *
| 30>
| 31>                          ****END OF INPUT****
 Total Charge           Charge          ....    0
 Multiplicity           Mult            ....    1
 Number of Electrons    NEL             ....   54
 Basis Dimension        Dim             ....  148

MULLIKEN ATOMIC CHARGES
-----------------------
   0 C :    0.056660
   1 C :   -0.147648
   2 C :   -0.033131
   3 C :    0.047149
   4 C :    0.010683
   5 C :    0.153328
   6 O :   -0.288633
   7 H :    0.033549
   8 H :    0.030027
   9 H :    0.015345
  10 H :   -0.015527
  11 H :    0.041231
  12 H :    0.012166
  13 H :    0.027891
  14 H :    0.003456
  15 H :    0.023377
  16 H :    0.030078
Sum of atomic charges:   -0.0000000

LOEWDIN ATOMIC CHARGES
----------------------
   0 C :   -0.066803
   1 C :   -0.047409
   2 C :   -0.057367
   3 C :   -0.054355
   4 C :    0.046404
   5 C :    0.059031
   6 O :   -0.151075
   7 H :    0.039165
   8 H :    0.038066
   9 H :    0.026525
  10 H :    0.022891
  11 H :    0.037381
  12 H :    0.031188
  13 H :    0.032501
  14 H :    0.016797
  15 H :    0.011690
  16 H :    0.015371

  Mayer bond orders larger than 0.1
B(  0-C ,  1-C ) :   1.1031 B(  0-C ,  7-H ) :   0.9407 B(  0-C ,  8-H ) :   0.9428
B(  0-C ,  9-H ) :   0.9502 B(  1-C ,  2-C ) :   1.8716 B(  1-C , 10-H ) :   0.9227
B(  2-C ,  3-C ) :   1.0800 B(  2-C ,  4-C ) :   1.0378 B(  3-C , 11-H ) :   0.9424
B(  3-C , 12-H ) :   0.9468 B(  3-C , 13-H ) :   0.9361 B(  4-C ,  5-C ) :   1.0643
B(  4-C ,  6-O ) :   0.9669 B(  4-C , 14-H ) :   0.9376 B(  5-C ,  6-O ) :   0.9921
B(  5-C , 15-H ) :   0.9269 B(  5-C , 16-H ) :   0.9354

FINAL SINGLE POINT ENERGY      -309.192517319133

DIPOLE MOMENT
-------------
                                X             Y             Z
Electronic contribution:      3.73048       2.39221      -0.96242
Nuclear contribution   :     -3.98346      -2.77677       1.46854
                        -----------------------------------------
Total Dipole Moment    :     -0.25298      -0.38456       0.50612
                        -----------------------------------------
Magnitude (a.u.)       :      0.68413
Magnitude (Debye)      :      1.73893

                             ****ORCA TERMINATED NORMALLY****
TOTAL RUN TIME: 0 days 0 hours 0 minutes 7 seconds 503 msec
