                         Program Version 3.0.3 - RELEASE   -
|  1> ! RI PBE def2-SVP def2-SVP/J NBO PAL2
|  2> % maxcore 2000
|  3> % output
|  4>     # printlevel mini
|  5>     print[ P_Basis ] 0
|  6>     print[ P_SCFInfo ] 1
|  7>     print[ P_SCFIterInfo ] 1
|  8>     print[ P_OrbEn ] 0
|  9>     print[ P_Cartesian ] 0
| 10> end
| 11> *xyz 0 1
| 12>  C        3.7424330000     2.3627980000    -0.2411830000
| 13>  C        3.2268250000     0.9580280000    -0.2025080000
| 14>  C        2.2072610000     0.5588250000    -0.9561170000
| 15>  C        3.9233080000     0.0119320000     0.7358700000
| 16>  C        5.3501100000    -0.2645040000     0.3413850000
| 17>  C        6.4812830000     0.4346610000     0.9436970000
| 18>  O        6.1630770000    -0.8946090000     1.3180520000
| 19>  H        3.1627750000     2.9826660000    -0.9259300000
| 20>  H        4.7899580000     2.3915480000    -0.5564100000
| 21>  H        3.7027260000     2.8180830000     0.7542390000
| 22>  H        1.7030630000     1.2395600000    -1.6335400000
| 23>  H        1.8393440000    -0.4607610000    -0.9166540000
| 24>  H        3.3822280000    -0.9379270000     0.7710380000
| 25>  H        3.9271810000     0.4214640000     1.7528840000
| 26>  H        5.4819450000    -0.6629570000    -0.6646780000
| 27>  H        6.2924020000     1.1878900000     1.7057960000
| 28>  H        7.4074600000     0.5533030000     0.3863490000
| 29> *
| 30>
| 31>                          ****END OF INPUT****
 Total Charge           Charge          ....    0
 Multiplicity           Mult            ....    1
 Number of Electrons    NEL             ....   54
 Basis Dimension        Dim             ....  148

MULLIKEN ATOMIC CHARGES
-----------------------
   0 C :    0.072613
   1 C :   -0.216157
   2 C :   -0.035273
   3 C :    0.190053
   4 C :   -0.052397
   5 C :    0.152846
   6 O :   -0.285224
   7 H :    0.016635
   8 H :    0.028196
   9 H :    0.026845
  10 H :    0.011368
  11 H :    0.010684
  12 H :    0.011541
  13 H :   -0.001232
  14 H :    0.018232
  15 H :    0.022717
  16 H :    0.028553
Sum of atomic charges:    0.0000000

LOEWDIN ATOMIC CHARGES
----------------------
   0 C :   -0.057461
   1 C :   -0.030936
   2 C :   -0.075188
   3 C :   -0.037133
   4 C :    0.041117
   5 C :    0.051405
   6 O :   -0.152725
   7 H :    0.032233
   8 H :    0.034522
   9 H :    0.035820
  10 H :    0.020563
  11 H :    0.020502
  12 H :    0.036858
  13 H :    0.035392
  14 H :    0.016933
  15 H :    0.012640
  16 H :    0.015460

  Mayer bond orders larger than 0.1
B(  0-C ,  1-C ) :   1.0853 B(  0-C ,  7-H ) :   0.9478 B(  0-C ,  8-H ) :   0.9391
B(  0-C ,  9-H ) :   0.9419 B(  1-C ,  2-C ) :   1.9785 B(  1-C ,  3-C ) :   1.0491
B(  2-C , 10-H ) :   0.9351 B(  2-C , 11-H ) :   0.9366 B(  3-C ,  4-C ) :   1.0404
B(  3-C , 12-H ) :   0.9024 B(  3-C , 13-H ) :   0.8881 B(  4-C ,  5-C ) :   1.0823
B(  4-C ,  6-O ) :   0.9732 B(  4-C , 14-H ) :   0.9347 B(  5-C ,  6-O ) :   1.0080
B(  5-C , 15-H ) :   0.9271 B(  5-C , 16-H ) :   0.9373

FINAL SINGLE POINT ENERGY      -309.188277065360

DIPOLE MOMENT
-------------
                                X             Y             Z
Electronic contribution:      2.85780      -4.09836       1.87374
Nuclear contribution   :     -2.93055       4.70982      -2.14722
                        -----------------------------------------
Total Dipole Moment    :     -0.07276       0.61146      -0.27348
                        -----------------------------------------
Magnitude (a.u.)       :      0.67378
Magnitude (Debye)      :      1.71260

                             ****ORCA TERMINATED NORMALLY****
TOTAL RUN TIME: 0 days 0 hours 0 minutes 7 seconds 476 msec
