                         Program Version 3.0.3 - RELEASE   -
|  1> ! RI PBE def2-SVP def2-SVP/J NBO PAL2
|  2> % maxcore 2000
|  3> % output
|  4>     # printlevel mini
|  5>     print[ P_Basis ] 0
|  6>     print[ P_SCFInfo ] 1
|  7>     print[ P_SCFIterInfo ] 1
|  8>     print[ P_OrbEn ] 0
|  9>     print[ P_Cartesian ] 0
| 10> end
| 11> *xyz 0 1
| 12>  C        0.6069170000     0.0004830000    -0.2976200000
| 13>  C        2.0825560000     0.2475090000     0.0108540000
| 14>  C        2.8513140000     0.5567490000    -1.2369170000
| 15>  C        3.8958750000    -0.1281830000    -1.6774230000
| 16>  C        2.2153550000     1.3733720000     1.0069600000
| 17>  C        2.2260060000     1.1307040000     2.4452980000
| 18>  O        3.4196420000     1.4480540000     1.7469810000
| 19>  H        0.4928910000    -0.8299650000    -0.9964840000
| 20>  H        0.1488350000     0.8833210000    -0.7530810000
| 21>  H        0.0501090000    -0.2341200000     0.6127950000
| 22>  H        2.5142530000    -0.6473570000     0.4725890000
| 23>  H        2.5003930000     1.4176140000    -1.8061310000
| 24>  H        4.2775940000    -0.9879180000    -1.1356240000
| 25>  H        4.4110870000     0.1467330000    -2.5904660000
| 26>  H        1.8496670000     2.3417720000     0.6607960000
| 27>  H        2.1609480000     0.1073020000     2.8092170000
| 28>  H        1.8681280000     1.8952500000     3.1306450000
| 29> *
| 30>
| 31>                          ****END OF INPUT****
 Total Charge           Charge          ....    0
 Multiplicity           Mult            ....    1
 Number of Electrons    NEL             ....   54
 Basis Dimension        Dim             ....  148

MULLIKEN ATOMIC CHARGES
-----------------------
   0 C :    0.022519
   1 C :   -0.002423
   2 C :   -0.035871
   3 C :   -0.024191
   4 C :    0.019076
   5 C :    0.142726
   6 O :   -0.283081
   7 H :    0.031367
   8 H :    0.018921
   9 H :    0.018632
  10 H :   -0.014268
  11 H :    0.002100
  12 H :    0.018075
  13 H :    0.023888
  14 H :    0.009316
  15 H :    0.023011
  16 H :    0.030205
Sum of atomic charges:    0.0000000

LOEWDIN ATOMIC CHARGES
----------------------
   0 C :   -0.050877
   1 C :   -0.051600
   2 C :   -0.021053
   3 C :   -0.056778
   4 C :    0.045269
   5 C :    0.053882
   6 O :   -0.150103
   7 H :    0.031328
   8 H :    0.025982
   9 H :    0.026763
  10 H :    0.031893
  11 H :    0.024580
  12 H :    0.023026
  13 H :    0.025251
  14 H :    0.013396
  15 H :    0.013205
  16 H :    0.015837

  Mayer bond orders larger than 0.1
B(  0-C ,  1-C ) :   1.0590 B(  0-C ,  7-H ) :   0.9587 B(  0-C ,  8-H ) :   0.9596
B(  0-C ,  9-H ) :   0.9582 B(  1-C ,  2-C ) :   1.0014 B(  1-C ,  4-C ) :   0.9979
B(  1-C , 10-H ) :   0.8930 B(  2-C ,  3-C ) :   2.0257 B(  2-C , 11-H ) :   0.9507
B(  3-C , 12-H ) :   0.9463 B(  3-C , 13-H ) :   0.9432 B(  4-C ,  5-C ) :   1.0929
B(  4-C ,  6-O ) :   0.9948 B(  4-C , 14-H ) :   0.9307 B(  5-C ,  6-O ) :   1.0072
B(  5-C , 15-H ) :   0.9308 B(  5-C , 16-H ) :   0.9343

FINAL SINGLE POINT ENERGY      -309.182761305484

DIPOLE MOMENT
-------------
                                X             Y             Z
Electronic contribution:      3.37055       2.26382       2.57851
Nuclear contribution   :     -4.08267      -2.40960      -2.59870
                        -----------------------------------------
Total Dipole Moment    :     -0.71211      -0.14579      -0.02019
                        -----------------------------------------
Magnitude (a.u.)       :      0.72716
Magnitude (Debye)      :      1.84830

                             ****ORCA TERMINATED NORMALLY****
TOTAL RUN TIME: 0 days 0 hours 0 minutes 7 seconds 504 msec
