                         Program Version 3.0.3 - RELEASE   -
|  1> ! RI PBE def2-SVP def2-SVP/J NBO PAL2
|  2> % maxcore 2000
|  3> % output
|  4>     # printlevel mini
|  5>     print[ P_Basis ] 0
|  6>     print[ P_SCFInfo ] 1
|  7>     print[ P_SCFIterInfo ] 1
|  8>     print[ P_OrbEn ] 0
|  9>     print[ P_Cartesian ] 0
| 10> end
| 11> *xyz 0 1
| 12>  C        0.9916150000     0.3246210000     0.3887970000
| 13>  C        2.4334590000    -0.1546680000     0.2989970000
| 14>  C        2.6436710000    -1.4022860000     1.1468790000
| 15>  C        2.8285000000    -0.3792380000    -1.1600890000
| 16>  C        4.2831830000    -0.6872230000    -1.3568150000
| 17>  C        4.7852830000    -2.0403370000    -1.5754270000
| 18>  O        4.6725810000    -1.1242760000    -2.6506900000
| 19>  H        0.7054410000     0.5267570000     1.4239730000
| 20>  H        0.3064300000    -0.4342030000    -0.0024130000
| 21>  H        0.8379960000     1.2400250000    -0.1884020000
| 22>  H        3.0777210000     0.6398760000     0.6996480000
| 23>  H        2.0285610000    -2.2285970000     0.7758700000
| 24>  H        2.3606870000    -1.2204420000     2.1867410000
| 25>  H        3.6848710000    -1.7316470000     1.1372070000
| 26>  H        2.5906600000     0.5209010000    -1.7389050000
| 27>  H        2.2314400000    -1.1924980000    -1.5889920000
| 28>  H        4.9745940000     0.0333840000    -0.9167340000
| 29>  H        4.0792430000    -2.8678220000    -1.5952620000
| 30>  H        5.8018640000    -2.2987270000    -1.2875900000
| 31> *
| 32>
| 33>                          ****END OF INPUT****
 Total Charge           Charge          ....    0
 Multiplicity           Mult            ....    1
 Number of Electrons    NEL             ....   56
 Basis Dimension        Dim             ....  158

MULLIKEN ATOMIC CHARGES
-----------------------
   0 C :    0.034026
   1 C :   -0.184514
   2 C :    0.023017
   3 C :    0.131128
   4 C :   -0.039223
   5 C :    0.149856
   6 O :   -0.287496
   7 H :    0.015379
   8 H :    0.013376
   9 H :    0.014479
  10 H :    0.011172
  11 H :    0.011249
  12 H :    0.018145
  13 H :    0.018212
  14 H :    0.015361
  15 H :   -0.008194
  16 H :    0.014510
  17 H :    0.023802
  18 H :    0.025715
Sum of atomic charges:   -0.0000000

LOEWDIN ATOMIC CHARGES
----------------------
   0 C :   -0.057818
   1 C :   -0.046203
   2 C :   -0.059835
   3 C :   -0.042929
   4 C :    0.037152
   5 C :    0.050518
   6 O :   -0.155006
   7 H :    0.025227
   8 H :    0.024745
   9 H :    0.025056
  10 H :    0.023955
  11 H :    0.023933
  12 H :    0.026238
  13 H :    0.023095
  14 H :    0.032275
  15 H :    0.027792
  16 H :    0.014269
  17 H :    0.013121
  18 H :    0.014417

  Mayer bond orders larger than 0.1
B(  0-C ,  1-C ) :   1.0874 B(  0-C ,  7-H ) :   0.9588 B(  0-C ,  8-H ) :   0.9590
B(  0-C ,  9-H ) :   0.9583 B(  1-C ,  2-C ) :   1.0779 B(  1-C ,  3-C ) :   1.0493
B(  1-C , 10-H ) :   0.9127 B(  2-C , 11-H ) :   0.9603 B(  2-C , 12-H ) :   0.9594
B(  2-C , 13-H ) :   0.9577 B(  3-C ,  4-C ) :   1.0535 B(  3-C , 14-H ) :   0.9148
B(  3-C , 15-H ) :   0.9049 B(  4-C ,  5-C ) :   1.0882 B(  4-C ,  6-O ) :   0.9757
B(  4-C , 16-H ) :   0.9313 B(  5-C ,  6-O ) :   1.0068 B(  5-C , 17-H ) :   0.9275
B(  5-C , 18-H ) :   0.9371

FINAL SINGLE POINT ENERGY      -310.407978705797

DIPOLE MOMENT
-------------
                                X             Y             Z
Electronic contribution:      5.51021      -0.49695      -6.18956
Nuclear contribution   :     -5.67915       0.44023       6.88274
                        -----------------------------------------
Total Dipole Moment    :     -0.16894      -0.05672       0.69318
                        -----------------------------------------
Magnitude (a.u.)       :      0.71572
Magnitude (Debye)      :      1.81922

                             ****ORCA TERMINATED NORMALLY****
TOTAL RUN TIME: 0 days 0 hours 0 minutes 7 seconds 451 msec
