                         Program Version 3.0.3 - RELEASE   -
|  1> ! RI PBE def2-SVP def2-SVP/J NBO PAL2
|  2> % maxcore 2000
|  3> % output
|  4>     # printlevel mini
|  5>     print[ P_Basis ] 0
|  6>     print[ P_SCFInfo ] 1
|  7>     print[ P_SCFIterInfo ] 1
|  8>     print[ P_OrbEn ] 0
|  9>     print[ P_Cartesian ] 0
| 10> end
| 11> *xyz 0 1
| 12>  C        0.9555210000    -0.1173960000    -0.1302250000
| 13>  C        2.4322490000    -0.3010970000     0.0293960000
| 14>  C        2.8258100000    -1.4624310000     0.8872490000
| 15>  C        3.2897620000     0.5272840000    -0.5710010000
| 16>  C        4.7560720000     0.4795300000    -0.5197170000
| 17>  C        5.5674420000     0.9683680000    -1.6377850000
| 18>  O        5.4218140000     1.7457460000    -0.4685030000
| 19>  H        0.4966420000    -1.0088490000    -0.5716960000
| 20>  H        0.7180370000     0.7391240000    -0.7621650000
| 21>  H        0.4761670000     0.0288800000     0.8437910000
| 22>  H        2.3367010000    -1.3931740000     1.8644000000
| 23>  H        3.8992530000    -1.5398030000     1.0516040000
| 24>  H        2.4861640000    -2.4015120000     0.4371530000
| 25>  H        2.8914600000     1.3448690000    -1.1682290000
| 26>  H        5.2117100000    -0.2696070000     0.1219620000
| 27>  H        5.0673230000     1.3567970000    -2.5226000000
| 28>  H        6.5573730000     0.5489610000    -1.8049450000
| 29> *
| 30>
| 31>                          ****END OF INPUT****
 Total Charge           Charge          ....    0
 Multiplicity           Mult            ....    1
 Number of Electrons    NEL             ....   54
 Basis Dimension        Dim             ....  148

MULLIKEN ATOMIC CHARGES
-----------------------
   0 C :    0.045163
   1 C :   -0.196082
   2 C :    0.064094
   3 C :    0.051972
   4 C :    0.001756
   5 C :    0.158005
   6 O :   -0.290313
   7 H :    0.027140
   8 H :    0.020269
   9 H :    0.028508
  10 H :    0.025107
  11 H :    0.015081
  12 H :    0.026202
  13 H :   -0.029483
  14 H :    0.005301
  15 H :    0.021092
  16 H :    0.026187
Sum of atomic charges:   -0.0000000

LOEWDIN ATOMIC CHARGES
----------------------
   0 C :   -0.054235
   1 C :   -0.035341
   2 C :   -0.057157
   3 C :   -0.068382
   4 C :    0.038929
   5 C :    0.058794
   6 O :   -0.154739
   7 H :    0.034251
   8 H :    0.030759
   9 H :    0.035107
  10 H :    0.036949
  11 H :    0.027095
  12 H :    0.037530
  13 H :    0.027146
  14 H :    0.016043
  15 H :    0.012696
  16 H :    0.014554

  Mayer bond orders larger than 0.1
B(  0-C ,  1-C ) :   1.0796 B(  0-C ,  7-H ) :   0.9462 B(  0-C ,  8-H ) :   0.9545
B(  0-C ,  9-H ) :   0.9441 B(  1-C ,  2-C ) :   1.1142 B(  1-C ,  3-C ) :   1.8143
B(  2-C , 10-H ) :   0.9386 B(  2-C , 11-H ) :   0.9440 B(  2-C , 12-H ) :   0.9402
B(  3-C ,  4-C ) :   1.0620 B(  3-C , 13-H ) :   0.9285 B(  4-C ,  5-C ) :   1.0575
B(  4-C ,  6-O ) :   0.9436 B(  4-C , 14-H ) :   0.9418 B(  5-C ,  6-O ) :   1.0010
B(  5-C , 15-H ) :   0.9300 B(  5-C , 16-H ) :   0.9328

FINAL SINGLE POINT ENERGY      -309.193830234484

DIPOLE MOMENT
-------------
                                X             Y             Z
Electronic contribution:      5.31052       4.22200      -1.04095
Nuclear contribution   :     -5.65611      -4.94021       0.83081
                        -----------------------------------------
Total Dipole Moment    :     -0.34559      -0.71820      -0.21014
                        -----------------------------------------
Magnitude (a.u.)       :      0.82426
Magnitude (Debye)      :      2.09511

                             ****ORCA TERMINATED NORMALLY****
TOTAL RUN TIME: 0 days 0 hours 0 minutes 7 seconds 382 msec
