                         Program Version 3.0.3 - RELEASE   -
|  1> ! RI PBE def2-SVP def2-SVP/J NBO PAL2
|  2> % maxcore 2000
|  3> % output
|  4>     # printlevel mini
|  5>     print[ P_Basis ] 0
|  6>     print[ P_SCFInfo ] 1
|  7>     print[ P_SCFIterInfo ] 1
|  8>     print[ P_OrbEn ] 0
|  9>     print[ P_Cartesian ] 0
| 10> end
| 11> *xyz 0 1
| 12>  C        0.9732120000     0.1455850000     0.0764530000
| 13>  C        2.4885510000     0.0107510000    -0.0777840000
| 14>  C        2.8137110000    -0.7725090000    -1.3476000000
| 15>  C        3.1193150000     1.3972900000    -0.1399320000
| 16>  C        2.9964570000    -0.7906850000     1.1049640000
| 17>  C        4.2597400000    -0.5627910000     1.7987020000
| 18>  O        3.0251630000    -0.1660350000     2.3779540000
| 19>  H        0.5455980000     0.6826740000    -0.7741920000
| 20>  H        0.7245430000     0.6937020000     0.9881430000
| 21>  H        0.4932170000    -0.8358290000     0.1297410000
| 22>  H        2.4276260000    -0.2515520000    -2.2276060000
| 23>  H        2.3627940000    -1.7689060000    -1.3267410000
| 24>  H        3.8932520000    -0.8921240000    -1.4732620000
| 25>  H        2.6358050000     1.9942060000    -0.9170860000
| 26>  H        4.1839370000     1.3462720000    -0.3812940000
| 27>  H        3.0035830000     1.9219360000     0.8111160000
| 28>  H        2.5988460000    -1.8074600000     1.1365650000
| 29>  H        4.9073960000     0.2541440000     1.4939340000
| 30>  H        4.7577540000    -1.3937700000     2.2928140000
| 31> *
| 32>
| 33>                          ****END OF INPUT****
 Total Charge           Charge          ....    0
 Multiplicity           Mult            ....    1
 Number of Electrons    NEL             ....   56
 Basis Dimension        Dim             ....  158

MULLIKEN ATOMIC CHARGES
-----------------------
   0 C :    0.063681
   1 C :   -0.290367
   2 C :    0.065162
   3 C :    0.048590
   4 C :    0.061135
   5 C :    0.147817
   6 O :   -0.289814
   7 H :    0.012282
   8 H :    0.028422
   9 H :    0.007514
  10 H :    0.013658
  11 H :    0.008748
  12 H :    0.015433
  13 H :    0.011634
  14 H :    0.012647
  15 H :    0.030650
  16 H :    0.002652
  17 H :    0.024570
  18 H :    0.025587
Sum of atomic charges:   -0.0000000

LOEWDIN ATOMIC CHARGES
----------------------
   0 C :   -0.043995
   1 C :   -0.077504
   2 C :   -0.045501
   3 C :   -0.050518
   4 C :    0.048474
   5 C :    0.053129
   6 O :   -0.153094
   7 H :    0.023658
   8 H :    0.029980
   9 H :    0.022924
  10 H :    0.026427
  11 H :    0.023175
  12 H :    0.024522
  13 H :    0.027301
  14 H :    0.021854
  15 H :    0.028177
  16 H :    0.012452
  17 H :    0.013493
  18 H :    0.015046

  Mayer bond orders larger than 0.1
B(  0-C ,  1-C ) :   1.0452 B(  0-C ,  7-H ) :   0.9584 B(  0-C ,  8-H ) :   0.9606
B(  0-C ,  9-H ) :   0.9561 B(  1-C ,  2-C ) :   1.0459 B(  1-C ,  3-C ) :   1.0686
B(  1-C ,  4-C ) :   0.9616 B(  2-C , 10-H ) :   0.9554 B(  2-C , 11-H ) :   0.9540
B(  2-C , 12-H ) :   0.9592 B(  3-C , 13-H ) :   0.9524 B(  3-C , 14-H ) :   0.9499
B(  3-C , 15-H ) :   0.9472 B(  4-C ,  5-C ) :   1.1063 B(  4-C ,  6-O ) :   0.9788
B(  4-C , 16-H ) :   0.9323 B(  5-C ,  6-O ) :   1.0032 B(  5-C , 17-H ) :   0.9186
B(  5-C , 18-H ) :   0.9346

FINAL SINGLE POINT ENERGY      -310.409199395064

DIPOLE MOMENT
-------------
                                X             Y             Z
Electronic contribution:      1.33054      -1.22883       5.81267
Nuclear contribution   :     -1.07954       1.02347      -6.36367
                        -----------------------------------------
Total Dipole Moment    :      0.25100      -0.20536      -0.55100
                        -----------------------------------------
Magnitude (a.u.)       :      0.63936
Magnitude (Debye)      :      1.62512

                             ****ORCA TERMINATED NORMALLY****
TOTAL RUN TIME: 0 days 0 hours 0 minutes 8 seconds 566 msec
