                         Program Version 3.0.3 - RELEASE   -
|  1> ! RI PBE def2-SVP def2-SVP/J NBO PAL2
|  2> % maxcore 2000
|  3> % output
|  4>     # printlevel mini
|  5>     print[ P_Basis ] 0
|  6>     print[ P_SCFInfo ] 1
|  7>     print[ P_SCFIterInfo ] 1
|  8>     print[ P_OrbEn ] 0
|  9>     print[ P_Cartesian ] 0
| 10> end
| 11> *xyz 0 1
| 12>  C        1.1056240000     0.3000120000     0.1540510000
| 13>  C        2.6126410000     0.0468210000     0.0575290000
| 14>  C        3.0892080000     0.2122850000    -1.3088240000
| 15>  C        3.4621430000     0.3409710000    -2.4425120000
| 16>  C        3.3511980000     0.9184630000     1.0537140000
| 17>  C        4.6382040000     1.5496720000     0.7959870000
| 18>  O        3.4323480000     2.3014910000     0.7758050000
| 19>  H        0.5579380000    -0.3561620000    -0.5229890000
| 20>  H        0.8829460000     1.3348160000    -0.1095500000
| 21>  H        0.7569060000     0.1175020000     1.1732850000
| 22>  H        2.8111750000    -0.9926330000     0.3520850000
| 23>  H        3.7907980000     0.4570300000    -3.4481370000
| 24>  H        3.0927630000     0.6911030000     2.0885660000
| 25>  H        5.1075520000     1.4116790000    -0.1738720000
| 26>  H        5.3042550000     1.7647520000     1.6280620000
| 27> *
| 28>
| 29>                          ****END OF INPUT****
 Total Charge           Charge          ....    0
 Multiplicity           Mult            ....    1
 Number of Electrons    NEL             ....   52
 Basis Dimension        Dim             ....  138

MULLIKEN ATOMIC CHARGES
-----------------------
   0 C :    0.018779
   1 C :    0.055775
   2 C :    0.365811
   3 C :   -0.511820
   4 C :   -0.012045
   5 C :    0.160822
   6 O :   -0.290404
   7 H :    0.035330
   8 H :    0.042476
   9 H :    0.017964
  10 H :    0.034378
  11 H :   -0.001856
  12 H :    0.015633
  13 H :    0.037952
  14 H :    0.031205
Sum of atomic charges:   -0.0000000

LOEWDIN ATOMIC CHARGES
----------------------
   0 C :   -0.039740
   1 C :   -0.059208
   2 C :   -0.009388
   3 C :   -0.083822
   4 C :    0.047616
   5 C :    0.058063
   6 O :   -0.150007
   7 H :    0.032684
   8 H :    0.036069
   9 H :    0.027408
  10 H :    0.053029
  11 H :    0.035328
  12 H :    0.015565
  13 H :    0.020102
  14 H :    0.016301

  Mayer bond orders larger than 0.1
B(  0-C ,  1-C ) :   1.0772 B(  0-C ,  7-H ) :   0.9632 B(  0-C ,  8-H ) :   0.9617
B(  0-C ,  9-H ) :   0.9573 B(  1-C ,  2-C ) :   0.9836 B(  1-C ,  4-C ) :   0.9512
B(  1-C , 10-H ) :   0.8688 B(  2-C ,  3-C ) :   2.3188 B(  2-C , 11-H ) :  -0.1176
B(  3-C , 11-H ) :   1.1077 B(  4-C ,  5-C ) :   1.1113 B(  4-C ,  6-O ) :   0.9817
B(  4-C , 12-H ) :   0.9348 B(  5-C ,  6-O ) :   0.9953 B(  5-C , 13-H ) :   0.9102
B(  5-C , 14-H ) :   0.9374

FINAL SINGLE POINT ENERGY      -307.938750026886

DIPOLE MOMENT
-------------
                                X             Y             Z
Electronic contribution:      2.38249       1.59992      -1.26080
Nuclear contribution   :     -2.23524      -2.20624       1.47702
                        -----------------------------------------
Total Dipole Moment    :      0.14726      -0.60632       0.21623
                        -----------------------------------------
Magnitude (a.u.)       :      0.66035
Magnitude (Debye)      :      1.67848

                             ****ORCA TERMINATED NORMALLY****
TOTAL RUN TIME: 0 days 0 hours 0 minutes 6 seconds 634 msec
