                         Program Version 3.0.3 - RELEASE   -
|  1> ! RI PBE def2-SVP def2-SVP/J NBO PAL2
|  2> % maxcore 2000
|  3> % output
|  4>     # printlevel mini
|  5>     print[ P_Basis ] 0
|  6>     print[ P_SCFInfo ] 1
|  7>     print[ P_SCFIterInfo ] 1
|  8>     print[ P_OrbEn ] 0
|  9>     print[ P_Cartesian ] 0
| 10> end
| 11> *xyz 0 1
| 12>  C        0.8485610000     0.0004180000    -0.0876430000
| 13>  C        2.2989290000     0.0118430000    -0.0515220000
| 14>  C        3.5005400000     0.0280640000    -0.0265740000
| 15>  C        4.9547060000     0.0537350000     0.0255270000
| 16>  C        5.4881350000     0.8249420000     1.2062470000
| 17>  C        6.7868200000     1.4852680000     1.1544340000
| 18>  O        5.5823970000     2.2293140000     1.0622050000
| 19>  H        0.4334660000     0.6189200000     0.7120640000
| 20>  H        0.4585010000    -1.0131720000     0.0346960000
| 21>  H        0.4775990000     0.3907940000    -1.0386550000
| 22>  H        5.3560580000     0.4983710000    -0.8910980000
| 23>  H        5.3377480000    -0.9726350000     0.0766020000
| 24>  H        5.1113990000     0.5030470000     2.1758240000
| 25>  H        7.3724860000     1.4358460000     0.2388320000
| 26>  H        7.3576640000     1.6304470000     2.0681610000
| 27> *
| 28>
| 29>                          ****END OF INPUT****
 Total Charge           Charge          ....    0
 Multiplicity           Mult            ....    1
 Number of Electrons    NEL             ....   52
 Basis Dimension        Dim             ....  138

MULLIKEN ATOMIC CHARGES
-----------------------
   0 C :    0.054927
   1 C :   -0.220078
   2 C :   -0.109054
   3 C :    0.177295
   4 C :   -0.037722
   5 C :    0.145735
   6 O :   -0.283019
   7 H :    0.049343
   8 H :    0.043392
   9 H :    0.045923
  10 H :    0.018123
  11 H :    0.035936
  12 H :    0.023255
  13 H :    0.024250
  14 H :    0.031693
Sum of atomic charges:   -0.0000000

LOEWDIN ATOMIC CHARGES
----------------------
   0 C :   -0.067454
   1 C :   -0.063856
   2 C :   -0.069388
   3 C :   -0.050557
   4 C :    0.047709
   5 C :    0.053066
   6 O :   -0.151373
   7 H :    0.051284
   8 H :    0.048599
   9 H :    0.050302
  10 H :    0.050639
  11 H :    0.052246
  12 H :    0.018378
  13 H :    0.013822
  14 H :    0.016582

  Mayer bond orders larger than 0.1
B(  0-C ,  1-C ) :   1.1349 B(  0-C ,  7-H ) :   0.9322 B(  0-C ,  8-H ) :   0.9341
B(  0-C ,  9-H ) :   0.9327 B(  1-C ,  2-C ) :   2.6176 B(  2-C ,  3-C ) :   1.0658
B(  3-C ,  4-C ) :   1.0230 B(  3-C , 10-H ) :   0.8765 B(  3-C , 11-H ) :   0.8902
B(  4-C ,  5-C ) :   1.0886 B(  4-C ,  6-O ) :   0.9922 B(  4-C , 12-H ) :   0.9364
B(  5-C ,  6-O ) :   0.9988 B(  5-C , 13-H ) :   0.9304 B(  5-C , 14-H ) :   0.9342

FINAL SINGLE POINT ENERGY      -307.950459370739

DIPOLE MOMENT
-------------
                                X             Y             Z
Electronic contribution:      2.07093       1.75983       0.52645
Nuclear contribution   :     -1.92391      -2.35967      -0.49873
                        -----------------------------------------
Total Dipole Moment    :      0.14701      -0.59984       0.02772
                        -----------------------------------------
Magnitude (a.u.)       :      0.61822
Magnitude (Debye)      :      1.57138

                             ****ORCA TERMINATED NORMALLY****
TOTAL RUN TIME: 0 days 0 hours 0 minutes 6 seconds 551 msec
