                         Program Version 3.0.3 - RELEASE   -
|  1> ! RI PBE def2-SVP def2-SVP/J NBO PAL2
|  2> % maxcore 2000
|  3> % output
|  4>     # printlevel mini
|  5>     print[ P_Basis ] 0
|  6>     print[ P_SCFInfo ] 1
|  7>     print[ P_SCFIterInfo ] 1
|  8>     print[ P_OrbEn ] 0
|  9>     print[ P_Cartesian ] 0
| 10> end
| 11> *xyz 0 1
| 12>  C        2.2846470000     0.1415190000    -1.3139170000
| 13>  C        3.3449760000    -0.2132840000    -0.2766960000
| 14>  C        3.4128360000     0.7781170000     0.8359460000
| 15>  C        4.4847530000     1.4888810000     1.1651240000
| 16>  C        4.5323700000     2.4859340000     2.2555560000
| 17>  C        3.8476970000     2.3013310000     3.5300420000
| 18>  O        5.2501710000     2.1243600000     3.4357320000
| 19>  H        2.2329590000    -0.6172970000    -2.0977530000
| 20>  H        2.5049150000     1.1021370000    -1.7850680000
| 21>  H        1.2945860000     0.2157150000    -0.8561440000
| 22>  H        4.3261480000    -0.2969040000    -0.7531370000
| 23>  H        3.1149220000    -1.2009440000     0.1416040000
| 24>  H        2.4929430000     0.9268200000     1.4012060000
| 25>  H        5.4064890000     1.3645540000     0.5985330000
| 26>  H        4.7344430000     3.5109280000     1.9420710000
| 27>  H        3.2781280000     1.3914550000     3.7010780000
| 28>  H        3.5249080000     3.1708780000     4.0979130000
| 29> *
| 30>
| 31>                          ****END OF INPUT****
 Total Charge           Charge          ....    0
 Multiplicity           Mult            ....    1
 Number of Electrons    NEL             ....   54
 Basis Dimension        Dim             ....  148

MULLIKEN ATOMIC CHARGES
-----------------------
   0 C :   -0.045731
   1 C :    0.039701
   2 C :   -0.077986
   3 C :    0.006688
   4 C :    0.045811
   5 C :    0.131367
   6 O :   -0.296578
   7 H :    0.030182
   8 H :    0.026365
   9 H :    0.023118
  10 H :    0.009628
  11 H :    0.025081
  12 H :   -0.003711
  13 H :    0.003091
  14 H :    0.025577
  15 H :    0.031284
  16 H :    0.026115
Sum of atomic charges:    0.0000000

LOEWDIN ATOMIC CHARGES
----------------------
   0 C :   -0.062831
   1 C :   -0.043785
   2 C :   -0.019934
   3 C :   -0.054755
   4 C :    0.037332
   5 C :    0.054978
   6 O :   -0.156851
   7 H :    0.029176
   8 H :    0.027242
   9 H :    0.025441
  10 H :    0.028623
  11 H :    0.035955
  12 H :    0.021898
  13 H :    0.028193
  14 H :    0.019269
  15 H :    0.015076
  16 H :    0.014974

  Mayer bond orders larger than 0.1
B(  0-C ,  1-C ) :   1.0959 B(  0-C ,  7-H ) :   0.9619 B(  0-C ,  8-H ) :   0.9685
B(  0-C ,  9-H ) :   0.9701 B(  1-C ,  2-C ) :   1.0567 B(  1-C , 10-H ) :   0.9363
B(  1-C , 11-H ) :   0.9173 B(  2-C ,  3-C ) :   1.9143 B(  2-C , 12-H ) :   0.9520
B(  3-C ,  4-C ) :   1.0199 B(  3-C , 13-H ) :   0.9477 B(  4-C ,  5-C ) :   1.1113
B(  4-C ,  6-O ) :   0.9451 B(  4-C , 14-H ) :   0.9172 B(  5-C ,  6-O ) :   1.0035
B(  5-C , 15-H ) :   0.9306 B(  5-C , 16-H ) :   0.9319

FINAL SINGLE POINT ENERGY      -309.185332753925

DIPOLE MOMENT
-------------
                                X             Y             Z
Electronic contribution:      4.79784       3.18562       6.47984
Nuclear contribution   :     -5.45702      -3.19961      -6.95858
                        -----------------------------------------
Total Dipole Moment    :     -0.65918      -0.01399      -0.47874
                        -----------------------------------------
Magnitude (a.u.)       :      0.81481
Magnitude (Debye)      :      2.07107

                             ****ORCA TERMINATED NORMALLY****
TOTAL RUN TIME: 0 days 0 hours 0 minutes 7 seconds 241 msec
