                         Program Version 3.0.3 - RELEASE   -
|  1> ! RI PBE def2-SVP def2-SVP/J NBO PAL2
|  2> % maxcore 2000
|  3> % output
|  4>     # printlevel mini
|  5>     print[ P_Basis ] 0
|  6>     print[ P_SCFInfo ] 1
|  7>     print[ P_SCFIterInfo ] 1
|  8>     print[ P_OrbEn ] 0
|  9>     print[ P_Cartesian ] 0
| 10> end
| 11> *xyz 0 1
| 12>  C        2.7000360000     0.4677860000     1.2724850000
| 13>  C        2.8268370000     0.0245620000    -0.1823360000
| 14>  C        3.2557600000    -1.4049550000    -0.3379750000
| 15>  C        2.4965200000    -2.3405210000    -0.8976270000
| 16>  C        4.6142120000    -1.7232880000     0.1704260000
| 17>  C        4.8346960000    -2.5521950000     1.3604730000
| 18>  O        5.0740750000    -3.0553650000     0.0600920000
| 19>  H        2.3872690000     1.5124870000     1.3339640000
| 20>  H        3.6486990000     0.3740070000     1.8063200000
| 21>  H        1.9602130000    -0.1389750000     1.7999100000
| 22>  H        3.5545460000     0.6711940000    -0.6891910000
| 23>  H        1.8739160000     0.1662000000    -0.6980130000
| 24>  H        1.5045430000    -2.1080690000    -1.2683730000
| 25>  H        2.8547210000    -3.3575980000    -1.0032490000
| 26>  H        5.3750710000    -0.9728950000    -0.0517510000
| 27>  H        3.9679140000    -2.9710160000     1.8656960000
| 28>  H        5.7204710000    -2.3982600000     1.9728300000
| 29> *
| 30>
| 31>                          ****END OF INPUT****
 Total Charge           Charge          ....    0
 Multiplicity           Mult            ....    1
 Number of Electrons    NEL             ....   54
 Basis Dimension        Dim             ....  148

MULLIKEN ATOMIC CHARGES
-----------------------
   0 C :   -0.029350
   1 C :    0.036773
   2 C :   -0.121778
   3 C :   -0.019397
   4 C :    0.034687
   5 C :    0.154008
   6 O :   -0.274672
   7 H :    0.025894
   8 H :    0.024340
   9 H :    0.025784
  10 H :    0.025563
  11 H :    0.002810
  12 H :    0.008150
  13 H :    0.023317
  14 H :    0.020221
  15 H :    0.028811
  16 H :    0.034839
Sum of atomic charges:   -0.0000000

LOEWDIN ATOMIC CHARGES
----------------------
   0 C :   -0.063089
   1 C :   -0.036061
   2 C :   -0.049230
   3 C :   -0.060010
   4 C :    0.042116
   5 C :    0.063864
   6 O :   -0.138262
   7 H :    0.028880
   8 H :    0.023883
   9 H :    0.027935
  10 H :    0.032645
  11 H :    0.030073
  12 H :    0.021101
  13 H :    0.024337
  14 H :    0.019588
  15 H :    0.016409
  16 H :    0.015821

  Mayer bond orders larger than 0.1
B(  0-C ,  1-C ) :   1.1023 B(  0-C ,  7-H ) :   0.9599 B(  0-C ,  8-H ) :   0.9652
B(  0-C ,  9-H ) :   0.9652 B(  1-C ,  2-C ) :   1.0578 B(  1-C , 10-H ) :   0.9208
B(  1-C , 11-H ) :   0.9163 B(  2-C ,  3-C ) :   1.9901 B(  2-C ,  4-C ) :   1.0039
B(  3-C , 12-H ) :   0.9276 B(  3-C , 13-H ) :   0.9215 B(  4-C ,  5-C ) :   1.0764
B(  4-C ,  6-O ) :   0.9917 B(  4-C , 14-H ) :   0.9221 B(  5-C ,  6-O ) :   0.9991
B(  5-C , 15-H ) :   0.9270 B(  5-C , 16-H ) :   0.9399

FINAL SINGLE POINT ENERGY      -309.188487030151

DIPOLE MOMENT
-------------
                                X             Y             Z
Electronic contribution:      3.73336      -4.92081      -2.13614
Nuclear contribution   :     -3.88693       5.52982       2.58134
                        -----------------------------------------
Total Dipole Moment    :     -0.15357       0.60900       0.44521
                        -----------------------------------------
Magnitude (a.u.)       :      0.76986
Magnitude (Debye)      :      1.95682

                             ****ORCA TERMINATED NORMALLY****
TOTAL RUN TIME: 0 days 0 hours 0 minutes 7 seconds 496 msec
