                         Program Version 3.0.3 - RELEASE   -
|  1> ! RI PBE def2-SVP def2-SVP/J NBO PAL2
|  2> % maxcore 2000
|  3> % output
|  4>     # printlevel mini
|  5>     print[ P_Basis ] 0
|  6>     print[ P_SCFInfo ] 1
|  7>     print[ P_SCFIterInfo ] 1
|  8>     print[ P_OrbEn ] 0
|  9>     print[ P_Cartesian ] 0
| 10> end
| 11> *xyz 0 1
| 12>  C        3.1782360000     0.9418320000    -1.8916130000
| 13>  C        2.5776420000    -0.3172010000    -1.2876940000
| 14>  C        3.3478580000    -0.8828870000    -0.0958670000
| 15>  C        2.5983770000    -2.0438990000     0.5450720000
| 16>  C        4.7281860000    -1.3280720000    -0.4975400000
| 17>  C        5.9201460000    -0.5090340000    -0.3050390000
| 18>  O        5.6424480000    -1.6012860000     0.5548410000
| 19>  H        2.5568820000     1.3214770000    -2.7058170000
| 20>  H        4.1766630000     0.7610940000    -2.2959420000
| 21>  H        3.2634650000     1.7352880000    -1.1434860000
| 22>  H        2.4964430000    -1.0951610000    -2.0572250000
| 23>  H        1.5519230000    -0.1121040000    -0.9634820000
| 24>  H        3.4682640000    -0.0897830000     0.6534690000
| 25>  H        2.4452520000    -2.8538900000    -0.1752680000
| 26>  H        1.6151530000    -1.7256820000     0.9001640000
| 27>  H        3.1551520000    -2.4473390000     1.3928500000
| 28>  H        4.7544170000    -2.0706360000    -1.2984310000
| 29>  H        5.8179760000     0.4746750000     0.1481070000
| 30>  H        6.7810870000    -0.6364900000    -0.9573890000
| 31> *
| 32>
| 33>                          ****END OF INPUT****
 Total Charge           Charge          ....    0
 Multiplicity           Mult            ....    1
 Number of Electrons    NEL             ....   56
 Basis Dimension        Dim             ....  158

MULLIKEN ATOMIC CHARGES
-----------------------
   0 C :   -0.011659
   1 C :   -0.017635
   2 C :   -0.058100
   3 C :    0.042168
   4 C :   -0.012480
   5 C :    0.158636
   6 O :   -0.289924
   7 H :    0.023820
   8 H :    0.020625
   9 H :    0.018888
  10 H :    0.012345
  11 H :    0.006209
  12 H :   -0.008989
  13 H :    0.011346
  14 H :    0.012478
  15 H :    0.031285
  16 H :    0.015320
  17 H :    0.019124
  18 H :    0.026543
Sum of atomic charges:   -0.0000000

LOEWDIN ATOMIC CHARGES
----------------------
   0 C :   -0.069629
   1 C :   -0.038965
   2 C :   -0.054863
   3 C :   -0.053450
   4 C :    0.041252
   5 C :    0.053909
   6 O :   -0.155357
   7 H :    0.028762
   8 H :    0.023748
   9 H :    0.025536
  10 H :    0.023609
  11 H :    0.025285
  12 H :    0.027951
  13 H :    0.024604
  14 H :    0.024993
  15 H :    0.030724
  16 H :    0.014382
  17 H :    0.012757
  18 H :    0.014752

  Mayer bond orders larger than 0.1
B(  0-C ,  1-C ) :   1.1200 B(  0-C ,  7-H ) :   0.9576 B(  0-C ,  8-H ) :   0.9597
B(  0-C ,  9-H ) :   0.9626 B(  1-C ,  2-C ) :   1.0535 B(  1-C , 10-H ) :   0.9339
B(  1-C , 11-H ) :   0.9266 B(  2-C ,  3-C ) :   1.0784 B(  2-C ,  4-C ) :   1.0075
B(  2-C , 12-H ) :   0.8893 B(  3-C , 13-H ) :   0.9582 B(  3-C , 14-H ) :   0.9553
B(  3-C , 15-H ) :   0.9574 B(  4-C ,  5-C ) :   1.0927 B(  4-C ,  6-O ) :   0.9632
B(  4-C , 16-H ) :   0.9328 B(  5-C ,  6-O ) :   1.0094 B(  5-C , 17-H ) :   0.9222
B(  5-C , 18-H ) :   0.9357

FINAL SINGLE POINT ENERGY      -310.408481010900

DIPOLE MOMENT
-------------
                                X             Y             Z
Electronic contribution:      5.30769      -2.51597       2.73780
Nuclear contribution   :     -5.58348       2.89771      -3.22756
                        -----------------------------------------
Total Dipole Moment    :     -0.27579       0.38174      -0.48976
                        -----------------------------------------
Magnitude (a.u.)       :      0.67945
Magnitude (Debye)      :      1.72703

                             ****ORCA TERMINATED NORMALLY****
TOTAL RUN TIME: 0 days 0 hours 0 minutes 8 seconds 234 msec
