                         Program Version 3.0.3 - RELEASE   -
|  1> ! RI PBE def2-SVP def2-SVP/J NBO PAL2
|  2> % maxcore 2000
|  3> % output
|  4>     # printlevel mini
|  5>     print[ P_Basis ] 0
|  6>     print[ P_SCFInfo ] 1
|  7>     print[ P_SCFIterInfo ] 1
|  8>     print[ P_OrbEn ] 0
|  9>     print[ P_Cartesian ] 0
| 10> end
| 11> *xyz 0 1
| 12>  C        1.0494370000    -0.1668690000    -0.2820840000
| 13>  C        2.4932510000     0.0737500000     0.1514540000
| 14>  C        3.0698310000    -1.0456660000     0.8772120000
| 15>  C        3.5323110000    -1.9879130000     1.4658790000
| 16>  C        4.1054660000    -3.0818870000     2.1981490000
| 17>  C        3.5092710000    -4.4215650000     2.1788570000
| 18>  O        4.6887490000    -4.1485620000     1.4530450000
| 19>  H        0.6657300000     0.6998790000    -0.8241080000
| 20>  H        0.4077680000    -0.3426960000     0.5829380000
| 21>  H        0.9808100000    -1.0383680000    -0.9351230000
| 22>  H        2.5500990000     0.9682470000     0.7810190000
| 23>  H        3.1162890000     0.2811720000    -0.7253460000
| 24>  H        4.6785890000    -2.7998870000     3.0791590000
| 25>  H        2.6186240000    -4.5858990000     1.5785290000
| 26>  H        3.6285740000    -5.0656350000     3.0470190000
| 27> *
| 28>
| 29>                          ****END OF INPUT****
 Total Charge           Charge          ....    0
 Multiplicity           Mult            ....    1
 Number of Electrons    NEL             ....   52
 Basis Dimension        Dim             ....  138

MULLIKEN ATOMIC CHARGES
-----------------------
   0 C :   -0.043655
   1 C :    0.032246
   2 C :   -0.146512
   3 C :    0.017448
   4 C :   -0.051468
   5 C :    0.166495
   6 O :   -0.269462
   7 H :    0.026538
   8 H :    0.037462
   9 H :    0.040504
  10 H :    0.039429
  11 H :    0.042331
  12 H :    0.044142
  13 H :    0.030951
  14 H :    0.033551
Sum of atomic charges:   -0.0000000

LOEWDIN ATOMIC CHARGES
----------------------
   0 C :   -0.055690
   1 C :   -0.051442
   2 C :   -0.033091
   3 C :   -0.076926
   4 C :    0.030496
   5 C :    0.069922
   6 O :   -0.142801
   7 H :    0.028907
   8 H :    0.031362
   9 H :    0.032053
  10 H :    0.049262
  11 H :    0.050977
  12 H :    0.031586
  13 H :    0.018518
  14 H :    0.016868

  Mayer bond orders larger than 0.1
B(  0-C ,  1-C ) :   1.1037 B(  0-C ,  7-H ) :   0.9596 B(  0-C ,  8-H ) :   0.9693
B(  0-C ,  9-H ) :   0.9706 B(  1-C ,  2-C ) :   1.0855 B(  1-C , 10-H ) :   0.9050
B(  1-C , 11-H ) :   0.8976 B(  2-C ,  3-C ) :   2.5533 B(  3-C ,  4-C ) :   0.9393
B(  4-C ,  5-C ) :   1.0741 B(  4-C ,  6-O ) :   1.0098 B(  4-C , 12-H ) :   0.9293
B(  5-C ,  6-O ) :   0.9943 B(  5-C , 13-H ) :   0.9331 B(  5-C , 14-H ) :   0.9329

FINAL SINGLE POINT ENERGY      -307.948022488480

DIPOLE MOMENT
-------------
                                X             Y             Z
Electronic contribution:      5.83051      -4.49510       2.57564
Nuclear contribution   :     -6.46314       4.90790      -2.33093
                        -----------------------------------------
Total Dipole Moment    :     -0.63263       0.41280       0.24471
                        -----------------------------------------
Magnitude (a.u.)       :      0.79404
Magnitude (Debye)      :      2.01830

                             ****ORCA TERMINATED NORMALLY****
TOTAL RUN TIME: 0 days 0 hours 0 minutes 6 seconds 358 msec
