                         Program Version 3.0.3 - RELEASE   -
|  1> ! RI PBE def2-SVP def2-SVP/J NBO PAL2
|  2> % maxcore 2000
|  3> % output
|  4>     # printlevel mini
|  5>     print[ P_Basis ] 0
|  6>     print[ P_SCFInfo ] 1
|  7>     print[ P_SCFIterInfo ] 1
|  8>     print[ P_OrbEn ] 0
|  9>     print[ P_Cartesian ] 0
| 10> end
| 11> *xyz 0 1
| 12>  C        2.8332480000    -3.4858550000     0.3053070000
| 13>  C        2.4014930000    -3.2135260000    -1.1269770000
| 14>  C        2.8763010000    -1.8711950000    -1.6756330000
| 15>  C        4.3879860000    -1.6844580000    -1.7462880000
| 16>  C        5.0989260000    -2.6771040000    -2.6535410000
| 17>  C        6.5736800000    -2.3703210000    -2.8421310000
| 18>  O        6.8144010000    -1.1160890000    -3.4495620000
| 19>  H        2.4096590000    -4.4228630000     0.6742160000
| 20>  H        2.5023590000    -2.6858710000     0.9742560000
| 21>  H        3.9195690000    -3.5611860000     0.3971180000
| 22>  H        1.3081790000    -3.2409330000    -1.1824150000
| 23>  H        2.7505790000    -4.0248540000    -1.7751680000
| 24>  H        2.4523800000    -1.0705360000    -1.0581260000
| 25>  H        2.4571880000    -1.7326820000    -2.6794850000
| 26>  H        4.8217570000    -1.7457690000    -0.7414290000
| 27>  H        4.6041130000    -0.6729330000    -2.1020100000
| 28>  H        4.6095830000    -2.6958950000    -3.6378190000
| 29>  H        5.0131390000    -3.6950350000    -2.2565540000
| 30>  H        7.0533050000    -3.1762990000    -3.4145300000
| 31>  H        7.0729930000    -2.3233340000    -1.8700480000
| 32>  H        6.4315730000    -1.1322410000    -4.3305710000
| 33> *
| 34>
| 35>                          ****END OF INPUT****
 Total Charge           Charge          ....    0
 Multiplicity           Mult            ....    1
 Number of Electrons    NEL             ....   58
 Basis Dimension        Dim             ....  168

MULLIKEN ATOMIC CHARGES
-----------------------
   0 C :   -0.032738
   1 C :   -0.062825
   2 C :    0.021681
   3 C :   -0.015168
   4 C :   -0.067891
   5 C :    0.182987
   6 O :   -0.288946
   7 H :    0.016789
   8 H :    0.019730
   9 H :    0.024679
  10 H :    0.016888
  11 H :    0.013404
  12 H :    0.003919
  13 H :   -0.001686
  14 H :    0.005989
  15 H :    0.002936
  16 H :   -0.004248
  17 H :    0.009750
  18 H :   -0.000279
  19 H :    0.003330
  20 H :    0.151700
Sum of atomic charges:    0.0000000

LOEWDIN ATOMIC CHARGES
----------------------
   0 C :   -0.069966
   1 C :   -0.052890
   2 C :   -0.041951
   3 C :   -0.045215
   4 C :   -0.066480
   5 C :    0.054732
   6 O :   -0.122507
   7 H :    0.026857
   8 H :    0.025286
   9 H :    0.022671
  10 H :    0.026232
  11 H :    0.020199
  12 H :    0.023263
  13 H :    0.021406
  14 H :    0.021064
  15 H :    0.022561
  16 H :    0.017477
  17 H :    0.025797
  18 H :    0.004329
  19 H :    0.020397
  20 H :    0.066737

  Mayer bond orders larger than 0.1
B(  0-C ,  1-C ) :   1.1163 B(  0-C ,  7-H ) :   0.9591 B(  0-C ,  8-H ) :   0.9652
B(  0-C ,  9-H ) :   0.9645 B(  1-C ,  2-C ) :   1.0979 B(  1-C , 10-H ) :   0.9350
B(  1-C , 11-H ) :   0.9354 B(  2-C ,  3-C ) :   1.1002 B(  2-C , 12-H ) :   0.9299
B(  2-C , 13-H ) :   0.9259 B(  3-C ,  4-C ) :   1.0790 B(  3-C , 14-H ) :   0.9338
B(  3-C , 15-H ) :   0.9212 B(  4-C ,  5-C ) :   1.0837 B(  4-C , 16-H ) :   0.9282
B(  4-C , 17-H ) :   0.9134 B(  5-C ,  6-O ) :   1.0565 B(  5-C , 18-H ) :   0.9398
B(  5-C , 19-H ) :   0.9316 B(  6-O , 20-H ) :   0.9859

FINAL SINGLE POINT ENERGY      -311.633979307569

DIPOLE MOMENT
-------------
                                X             Y             Z
Electronic contribution:      4.56827       2.92485      -3.80268
Nuclear contribution   :     -4.88133      -3.31572       3.50887
                        -----------------------------------------
Total Dipole Moment    :     -0.31305      -0.39087      -0.29381
                        -----------------------------------------
Magnitude (a.u.)       :      0.58061
Magnitude (Debye)      :      1.47579

                             ****ORCA TERMINATED NORMALLY****
TOTAL RUN TIME: 0 days 0 hours 0 minutes 8 seconds 573 msec
