                         Program Version 3.0.3 - RELEASE   -
|  1> ! RI PBE def2-SVP def2-SVP/J NBO PAL2
|  2> % maxcore 2000
|  3> % output
|  4>     # printlevel mini
|  5>     print[ P_Basis ] 0
|  6>     print[ P_SCFInfo ] 1
|  7>     print[ P_SCFIterInfo ] 1
|  8>     print[ P_OrbEn ] 0
|  9>     print[ P_Cartesian ] 0
| 10> end
| 11> *xyz 0 1
| 12>  C        1.0136990000    -0.1960010000     0.3374810000
| 13>  C        2.3381650000    -0.0862240000     0.2679080000
| 14>  C        3.1019780000     0.2048990000    -0.9964440000
| 15>  C        3.4475470000     1.6134930000    -1.1206920000
| 16>  C        3.7170180000     2.7780820000    -1.2213420000
| 17>  C        3.1179220000    -0.2850280000     1.5054730000
| 18>  O        4.3198900000    -0.3032870000     1.5532010000
| 19>  H        0.3758380000    -0.0850740000    -0.5320680000
| 20>  H        0.5273520000    -0.4012420000     1.2860620000
| 21>  H        2.5124520000    -0.1030610000    -1.8642880000
| 22>  H        4.0243440000    -0.3847300000    -0.9920150000
| 23>  H        3.9661940000     3.8090140000    -1.3083900000
| 24>  H        2.5021110000    -0.4396400000     2.4168050000
| 25> *
| 26>
| 27>                          ****END OF INPUT****
 Total Charge           Charge          ....    0
 Multiplicity           Mult            ....    1
 Number of Electrons    NEL             ....   50
 Basis Dimension        Dim             ....  128

MULLIKEN ATOMIC CHARGES
-----------------------
   0 C :    0.012959
   1 C :   -0.167991
   2 C :    0.177428
   3 C :    0.319989
   4 C :   -0.472491
   5 C :    0.145379
   6 O :   -0.151387
   7 H :    0.036760
   8 H :    0.034690
   9 H :    0.035575
  10 H :    0.048955
  11 H :    0.000795
  12 H :   -0.020660
Sum of atomic charges:    0.0000000

LOEWDIN ATOMIC CHARGES
----------------------
   0 C :    0.007085
   1 C :   -0.064331
   2 C :   -0.034213
   3 C :   -0.017818
   4 C :   -0.077736
   5 C :    0.083546
   6 O :   -0.100814
   7 H :    0.032315
   8 H :    0.030758
   9 H :    0.053800
  10 H :    0.059939
  11 H :    0.035520
  12 H :   -0.008051

  Mayer bond orders larger than 0.1
B(  0-C ,  1-C ) :   1.8969 B(  0-C ,  7-H ) :   0.9354 B(  0-C ,  8-H ) :   0.9318
B(  1-C ,  2-C ) :   1.0347 B(  1-C ,  5-C ) :   0.9860 B(  2-C ,  3-C ) :   1.0588
B(  2-C ,  9-H ) :   0.8906 B(  2-C , 10-H ) :   0.8675 B(  3-C ,  4-C ) :   2.3616
B(  3-C , 11-H ) :  -0.1081 B(  4-C , 11-H ) :   1.0995 B(  5-C ,  6-O ) :   2.1398
B(  5-C , 12-H ) :   0.9297

FINAL SINGLE POINT ENERGY      -306.756116354038

DIPOLE MOMENT
-------------
                                X             Y             Z
Electronic contribution:      2.90141       0.36040       1.16975
Nuclear contribution   :     -3.92804      -0.51330      -1.45537
                        -----------------------------------------
Total Dipole Moment    :     -1.02663      -0.15290      -0.28562
                        -----------------------------------------
Magnitude (a.u.)       :      1.07653
Magnitude (Debye)      :      2.73633

                             ****ORCA TERMINATED NORMALLY****
TOTAL RUN TIME: 0 days 0 hours 0 minutes 5 seconds 958 msec
