                         Program Version 3.0.3 - RELEASE   -
|  1> ! RI PBE def2-SVP def2-SVP/J NBO PAL2
|  2> % maxcore 2000
|  3> % output
|  4>     # printlevel mini
|  5>     print[ P_Basis ] 0
|  6>     print[ P_SCFInfo ] 1
|  7>     print[ P_SCFIterInfo ] 1
|  8>     print[ P_OrbEn ] 0
|  9>     print[ P_Cartesian ] 0
| 10> end
| 11> *xyz 0 1
| 12>  C        1.1116380000    -0.0509930000     0.5560400000
| 13>  C        2.4017360000    -0.0382400000     0.2222310000
| 14>  C        3.0210870000    -1.0100300000    -0.6533790000
| 15>  C        4.3156650000    -1.0046730000    -0.9814030000
| 16>  C        4.9659630000    -1.9824650000    -1.9049810000
| 17>  C        5.3061950000    -1.3116880000    -3.2162300000
| 18>  O        6.4190540000    -1.1478120000    -3.6296210000
| 19>  H        0.6881180000     0.6969190000     1.2147640000
| 20>  H        0.4387400000    -0.8135220000     0.1768810000
| 21>  H        3.0499410000     0.7402090000     0.6186990000
| 22>  H        2.3739940000    -1.7909810000    -1.0502780000
| 23>  H        4.9577180000    -0.2223670000    -0.5813880000
| 24>  H        4.2755600000    -2.8058290000    -2.1193090000
| 25>  H        5.8887460000    -2.3877530000    -1.4826260000
| 26>  H        4.4245440000    -0.9466750000    -3.7868790000
| 27> *
| 28>
| 29>                          ****END OF INPUT****
 Total Charge           Charge          ....    0
 Multiplicity           Mult            ....    1
 Number of Electrons    NEL             ....   52
 Basis Dimension        Dim             ....  138

MULLIKEN ATOMIC CHARGES
-----------------------
   0 C :   -0.031061
   1 C :   -0.007983
   2 C :    0.027042
   3 C :   -0.113916
   4 C :    0.099600
   5 C :    0.074434
   6 O :   -0.153393
   7 H :    0.030859
   8 H :    0.021849
   9 H :   -0.001343
  10 H :   -0.011724
  11 H :    0.012624
  12 H :    0.031722
  13 H :    0.027512
  14 H :   -0.006223
Sum of atomic charges:   -0.0000000

LOEWDIN ATOMIC CHARGES
----------------------
   0 C :   -0.046731
   1 C :   -0.031154
   2 C :   -0.033871
   3 C :   -0.027700
   4 C :   -0.073505
   5 C :    0.094851
   6 O :   -0.100295
   7 H :    0.027842
   8 H :    0.024331
   9 H :    0.031521
  10 H :    0.027731
  11 H :    0.029052
  12 H :    0.046308
  13 H :    0.041898
  14 H :   -0.010276

  Mayer bond orders larger than 0.1
B(  0-C ,  1-C ) :   1.8850 B(  0-C ,  3-C ) :   0.1353 B(  0-C ,  7-H ) :   0.9429
B(  0-C ,  8-H ) :   0.9477 B(  1-C ,  2-C ) :   1.1368 B(  1-C ,  9-H ) :   0.9622
B(  2-C ,  3-C ) :   1.7754 B(  2-C , 10-H ) :   0.9590 B(  3-C ,  4-C ) :   1.0431
B(  3-C , 11-H ) :   0.9573 B(  4-C ,  5-C ) :   0.9472 B(  4-C , 12-H ) :   0.9086
B(  4-C , 13-H ) :   0.9004 B(  5-C ,  6-O ) :   2.1832 B(  5-C , 14-H ) :   0.9159

FINAL SINGLE POINT ENERGY      -308.004584700749

DIPOLE MOMENT
-------------
                                X             Y             Z
Electronic contribution:      4.60919      -0.19734      -3.62050
Nuclear contribution   :     -5.36021       0.02113       4.08204
                        -----------------------------------------
Total Dipole Moment    :     -0.75102      -0.17621       0.46154
                        -----------------------------------------
Magnitude (a.u.)       :      0.89894
Magnitude (Debye)      :      2.28493

                             ****ORCA TERMINATED NORMALLY****
TOTAL RUN TIME: 0 days 0 hours 0 minutes 6 seconds 697 msec
