                         Program Version 3.0.3 - RELEASE   -
|  1> ! RI PBE def2-SVP def2-SVP/J NBO PAL2
|  2> % maxcore 2000
|  3> % output
|  4>     # printlevel mini
|  5>     print[ P_Basis ] 0
|  6>     print[ P_SCFInfo ] 1
|  7>     print[ P_SCFIterInfo ] 1
|  8>     print[ P_OrbEn ] 0
|  9>     print[ P_Cartesian ] 0
| 10> end
| 11> *xyz 0 1
| 12>  C        1.1503600000     0.4381300000     0.2629400000
| 13>  C        2.3185090000    -0.0898330000    -0.0897930000
| 14>  C        2.8925770000    -1.3273040000     0.4551770000
| 15>  C        2.1486280000    -2.3980380000     0.7322380000
| 16>  C        4.3816450000    -1.3360730000     0.6779410000
| 17>  C        4.7975300000    -0.4429750000     1.8200210000
| 18>  O        5.5874670000    -0.7586560000     2.6651740000
| 19>  H        0.7802900000     1.3443560000    -0.2014370000
| 20>  H        0.5347220000    -0.0127030000     1.0338660000
| 21>  H        2.9262710000     0.4312170000    -0.8285720000
| 22>  H        1.0846840000    -2.4099750000     0.5270870000
| 23>  H        2.5870230000    -3.2964660000     1.1513150000
| 24>  H        4.8823960000    -0.9442190000    -0.2194030000
| 25>  H        4.7636920000    -2.3398270000     0.8653940000
| 26>  H        4.3184060000     0.5594550000     1.8355620000
| 27> *
| 28>
| 29>                          ****END OF INPUT****
 Total Charge           Charge          ....    0
 Multiplicity           Mult            ....    1
 Number of Electrons    NEL             ....   52
 Basis Dimension        Dim             ....  138

MULLIKEN ATOMIC CHARGES
-----------------------
   0 C :   -0.018909
   1 C :   -0.030458
   2 C :   -0.115898
   3 C :   -0.022431
   4 C :    0.072560
   5 C :    0.088282
   6 O :   -0.158387
   7 H :    0.031462
   8 H :    0.030088
   9 H :    0.007851
  10 H :    0.026839
  11 H :    0.020827
  12 H :    0.049896
  13 H :    0.020583
  14 H :   -0.002304
Sum of atomic charges:    0.0000000

LOEWDIN ATOMIC CHARGES
----------------------
   0 C :   -0.034812
   1 C :   -0.036427
   2 C :   -0.037210
   3 C :   -0.042423
   4 C :   -0.066287
   5 C :    0.098467
   6 O :   -0.102379
   7 H :    0.028565
   8 H :    0.026605
   9 H :    0.029185
  10 H :    0.026603
  11 H :    0.025857
  12 H :    0.053977
  13 H :    0.039806
  14 H :   -0.009528

  Mayer bond orders larger than 0.1
B(  0-C ,  1-C ) :   1.9548 B(  0-C ,  7-H ) :   0.9404 B(  0-C ,  8-H ) :   0.9508
B(  1-C ,  2-C ) :   1.0374 B(  1-C ,  9-H ) :   0.9470 B(  2-C ,  3-C ) :   1.9512
B(  2-C ,  4-C ) :   1.0181 B(  3-C , 10-H ) :   0.9396 B(  3-C , 11-H ) :   0.9307
B(  4-C ,  5-C ) :   0.9589 B(  4-C , 12-H ) :   0.8975 B(  4-C , 13-H ) :   0.9124
B(  5-C ,  6-O ) :   2.1852 B(  5-C , 14-H ) :   0.9196

FINAL SINGLE POINT ENERGY      -307.996197305629

DIPOLE MOMENT
-------------
                                X             Y             Z
Electronic contribution:      4.17197       0.08070       2.60117
Nuclear contribution   :     -4.73216       0.05302      -3.34385
                        -----------------------------------------
Total Dipole Moment    :     -0.56018       0.13372      -0.74268
                        -----------------------------------------
Magnitude (a.u.)       :      0.93982
Magnitude (Debye)      :      2.38883

                             ****ORCA TERMINATED NORMALLY****
TOTAL RUN TIME: 0 days 0 hours 0 minutes 6 seconds 887 msec
