                         Program Version 3.0.3 - RELEASE   -
|  1> ! RI PBE def2-SVP def2-SVP/J NBO PAL2
|  2> % maxcore 2000
|  3> % output
|  4>     # printlevel mini
|  5>     print[ P_Basis ] 0
|  6>     print[ P_SCFInfo ] 1
|  7>     print[ P_SCFIterInfo ] 1
|  8>     print[ P_OrbEn ] 0
|  9>     print[ P_Cartesian ] 0
| 10> end
| 11> *xyz 0 1
| 12>  C        1.3798480000    -0.8522910000    -0.0598750000
| 13>  C        2.3254760000     0.0012530000     0.3024150000
| 14>  C        2.8993630000     1.0588160000    -0.5985750000
| 15>  C        2.6784190000     2.4410260000    -0.0506240000
| 16>  C        1.9932450000     3.3879360000    -0.6734410000
| 17>  C        4.4010990000     0.8225630000    -0.7299290000
| 18>  O        5.1568340000     0.8477230000     0.1994650000
| 19>  H        1.0012170000    -1.5977940000     0.6294700000
| 20>  H        0.9446180000    -0.8340540000    -1.0541260000
| 21>  H        2.7505340000    -0.0379400000     1.3019030000
| 22>  H        2.4444430000     0.9811630000    -1.5900150000
| 23>  H        3.1374510000     2.6366640000     0.9148820000
| 24>  H        1.5304800000     3.2158490000    -1.6401510000
| 25>  H        1.8645510000     4.3701530000    -0.2341020000
| 26>  H        4.7681130000     0.6206330000    -1.7583960000
| 27> *
| 28>
| 29>                          ****END OF INPUT****
 Total Charge           Charge          ....    0
 Multiplicity           Mult            ....    1
 Number of Electrons    NEL             ....   52
 Basis Dimension        Dim             ....  138

MULLIKEN ATOMIC CHARGES
-----------------------
   0 C :   -0.032594
   1 C :   -0.020108
   2 C :   -0.004377
   3 C :   -0.027372
   4 C :   -0.027808
   5 C :    0.131654
   6 O :   -0.159544
   7 H :    0.034800
   8 H :    0.021532
   9 H :    0.018891
  10 H :   -0.009071
  11 H :    0.021521
  12 H :    0.020222
  13 H :    0.033694
  14 H :   -0.001442
Sum of atomic charges:   -0.0000000

LOEWDIN ATOMIC CHARGES
----------------------
   0 C :   -0.056260
   1 C :   -0.008295
   2 C :   -0.079998
   3 C :   -0.009929
   4 C :   -0.054663
   5 C :    0.114100
   6 O :   -0.098209
   7 H :    0.029844
   8 H :    0.023724
   9 H :    0.030982
  10 H :    0.032435
  11 H :    0.031518
  12 H :    0.023537
  13 H :    0.029661
  14 H :   -0.008447

  Mayer bond orders larger than 0.1
B(  0-C ,  1-C ) :   2.0110 B(  0-C ,  7-H ) :   0.9451 B(  0-C ,  8-H ) :   0.9455
B(  1-C ,  2-C ) :   1.0017 B(  1-C ,  9-H ) :   0.9522 B(  2-C ,  3-C ) :   0.9968
B(  2-C ,  5-C ) :   0.8803 B(  2-C , 10-H ) :   0.9021 B(  3-C ,  4-C ) :   2.0171
B(  3-C , 11-H ) :   0.9518 B(  4-C , 12-H ) :   0.9448 B(  4-C , 13-H ) :   0.9442
B(  5-C ,  6-O ) :   2.1766 B(  5-C , 14-H ) :   0.9333

FINAL SINGLE POINT ENERGY      -307.987870092685

DIPOLE MOMENT
-------------
                                X             Y             Z
Electronic contribution:      4.64340      -0.52370       1.00665
Nuclear contribution   :     -5.26190       0.54502      -1.49388
                        -----------------------------------------
Total Dipole Moment    :     -0.61850       0.02132      -0.48724
                        -----------------------------------------
Magnitude (a.u.)       :      0.78765
Magnitude (Debye)      :      2.00205

                             ****ORCA TERMINATED NORMALLY****
TOTAL RUN TIME: 0 days 0 hours 0 minutes 6 seconds 904 msec
