                         Program Version 3.0.3 - RELEASE   -
|  1> ! RI PBE def2-SVP def2-SVP/J NBO PAL2
|  2> % maxcore 2000
|  3> % output
|  4>     # printlevel mini
|  5>     print[ P_Basis ] 0
|  6>     print[ P_SCFInfo ] 1
|  7>     print[ P_SCFIterInfo ] 1
|  8>     print[ P_OrbEn ] 0
|  9>     print[ P_Cartesian ] 0
| 10> end
| 11> *xyz 0 1
| 12>  C        0.8995990000    -0.0239500000    -0.1201710000
| 13>  C        2.2049790000    -0.1550280000     0.1135680000
| 14>  C        2.9177320000     0.5610620000     1.1082150000
| 15>  C        3.5439580000     1.1488610000     1.9543160000
| 16>  C        4.3165670000     1.8861100000     2.9335140000
| 17>  C        5.4877690000     2.6262940000     2.3111080000
| 18>  O        5.8506690000     3.7066610000     2.6736200000
| 19>  H        0.4154690000    -0.6053640000    -0.8948470000
| 20>  H        0.2873750000     0.6618090000     0.4531020000
| 21>  H        2.7889040000    -0.8529450000    -0.4815620000
| 22>  H        4.7455660000     1.1918020000     3.6704650000
| 23>  H        3.7067770000     2.6047280000     3.4865020000
| 24>  H        6.0030280000     2.0818500000     1.4930680000
| 25> *
| 26>
| 27>                          ****END OF INPUT****
 Total Charge           Charge          ....    0
 Multiplicity           Mult            ....    1
 Number of Electrons    NEL             ....   50
 Basis Dimension        Dim             ....  128

MULLIKEN ATOMIC CHARGES
-----------------------
   0 C :   -0.009322
   1 C :   -0.097411
   2 C :   -0.048967
   3 C :   -0.116759
   4 C :    0.104564
   5 C :    0.080028
   6 O :   -0.147338
   7 H :    0.035289
   8 H :    0.035472
   9 H :    0.034944
  10 H :    0.070547
  11 H :    0.052082
  12 H :    0.006871
Sum of atomic charges:   -0.0000000

LOEWDIN ATOMIC CHARGES
----------------------
   0 C :   -0.022793
   1 C :   -0.048586
   2 C :   -0.043841
   3 C :   -0.051019
   4 C :   -0.081568
   5 C :    0.106708
   6 O :   -0.090741
   7 H :    0.029447
   8 H :    0.030852
   9 H :    0.045014
  10 H :    0.072284
  11 H :    0.058991
  12 H :   -0.004748

  Mayer bond orders larger than 0.1
B(  0-C ,  1-C ) :   1.9168 B(  0-C ,  3-C ) :   0.1264 B(  0-C ,  7-H ) :   0.9432
B(  0-C ,  8-H ) :   0.9535 B(  1-C ,  2-C ) :   1.0618 B(  1-C ,  9-H ) :   0.9464
B(  2-C ,  3-C ) :   2.5131 B(  3-C ,  4-C ) :   1.0239 B(  4-C ,  5-C ) :   0.9309
B(  4-C , 10-H ) :   0.8801 B(  4-C , 11-H ) :   0.8873 B(  5-C ,  6-O ) :   2.1912
B(  5-C , 12-H ) :   0.9291

FINAL SINGLE POINT ENERGY      -306.761867551624

DIPOLE MOMENT
-------------
                                X             Y             Z
Electronic contribution:      3.41704       2.65618       1.63816
Nuclear contribution   :     -3.72653      -3.39394      -1.72245
                        -----------------------------------------
Total Dipole Moment    :     -0.30949      -0.73776      -0.08429
                        -----------------------------------------
Magnitude (a.u.)       :      0.80447
Magnitude (Debye)      :      2.04481

                             ****ORCA TERMINATED NORMALLY****
TOTAL RUN TIME: 0 days 0 hours 0 minutes 5 seconds 728 msec
