                         Program Version 3.0.3 - RELEASE   -
|  1> ! RI PBE def2-SVP def2-SVP/J NBO PAL2
|  2> % maxcore 2000
|  3> % output
|  4>     # printlevel mini
|  5>     print[ P_Basis ] 0
|  6>     print[ P_SCFInfo ] 1
|  7>     print[ P_SCFIterInfo ] 1
|  8>     print[ P_OrbEn ] 0
|  9>     print[ P_Cartesian ] 0
| 10> end
| 11> *xyz 0 1
| 12>  C        1.3788830000    -0.9991300000     0.7256170000
| 13>  C        2.1596500000    -0.1883360000     0.0269290000
| 14>  C        2.9644860000     0.9355590000     0.6105390000
| 15>  C        4.4292660000     0.7193720000     0.4236210000
| 16>  C        5.2539130000     1.5142520000    -0.2594180000
| 17>  C        6.6747040000     1.1898860000    -0.3807730000
| 18>  O        7.4809130000     1.8583450000    -0.9777670000
| 19>  H        0.8212780000    -1.7968730000     0.2491260000
| 20>  H        1.2638360000    -0.8909980000     1.7999010000
| 21>  H        2.2533000000    -0.3278860000    -1.0478420000
| 22>  H        2.7458000000     1.0100400000     1.6819250000
| 23>  H        2.6752840000     1.8849050000     0.1482330000
| 24>  H        4.8403960000    -0.1810780000     0.8800640000
| 25>  H        4.9114900000     2.4237000000    -0.7451750000
| 26>  H        6.9793110000     0.2505410000     0.1317090000
| 27> *
| 28>
| 29>                          ****END OF INPUT****
 Total Charge           Charge          ....    0
 Multiplicity           Mult            ....    1
 Number of Electrons    NEL             ....   52
 Basis Dimension        Dim             ....  138

MULLIKEN ATOMIC CHARGES
-----------------------
   0 C :   -0.028534
   1 C :   -0.100820
   2 C :    0.131873
   3 C :   -0.061513
   4 C :   -0.016213
   5 C :    0.120399
   6 O :   -0.168674
   7 H :    0.031899
   8 H :    0.025088
   9 H :    0.020294
  10 H :    0.028334
  11 H :    0.024287
  12 H :    0.015687
  13 H :    0.005120
  14 H :   -0.027227
Sum of atomic charges:   -0.0000000

LOEWDIN ATOMIC CHARGES
----------------------
   0 C :   -0.055505
   1 C :   -0.026366
   2 C :   -0.037524
   3 C :    0.024116
   4 C :   -0.076687
   5 C :    0.067891
   6 O :   -0.115858
   7 H :    0.028861
   8 H :    0.024222
   9 H :    0.030479
  10 H :    0.045701
  11 H :    0.041451
  12 H :    0.029824
  13 H :    0.033174
  14 H :   -0.013778

  Mayer bond orders larger than 0.1
B(  0-C ,  1-C ) :   2.0105 B(  0-C ,  7-H ) :   0.9450 B(  0-C ,  8-H ) :   0.9482
B(  1-C ,  2-C ) :   1.0413 B(  1-C ,  9-H ) :   0.9574 B(  2-C ,  3-C ) :   1.0404
B(  2-C , 10-H ) :   0.9038 B(  2-C , 11-H ) :   0.9136 B(  3-C ,  4-C ) :   1.7475
B(  3-C ,  6-O ) :   0.1026 B(  3-C , 12-H ) :   0.9526 B(  4-C ,  5-C ) :   1.0357
B(  4-C , 13-H ) :   0.9633 B(  5-C ,  6-O ) :   2.1078 B(  5-C , 14-H ) :   0.9302

FINAL SINGLE POINT ENERGY      -308.002668644485

DIPOLE MOMENT
-------------
                                X             Y             Z
Electronic contribution:      6.80408       2.77682      -2.24986
Nuclear contribution   :     -7.96919      -3.23994       2.79415
                        -----------------------------------------
Total Dipole Moment    :     -1.16511      -0.46312       0.54429
                        -----------------------------------------
Magnitude (a.u.)       :      1.36683
Magnitude (Debye)      :      3.47420

                             ****ORCA TERMINATED NORMALLY****
TOTAL RUN TIME: 0 days 0 hours 0 minutes 6 seconds 679 msec
