                         Program Version 3.0.3 - RELEASE   -
|  1> ! RI PBE def2-SVP def2-SVP/J NBO PAL2
|  2> % maxcore 2000
|  3> % output
|  4>     # printlevel mini
|  5>     print[ P_Basis ] 0
|  6>     print[ P_SCFInfo ] 1
|  7>     print[ P_SCFIterInfo ] 1
|  8>     print[ P_OrbEn ] 0
|  9>     print[ P_Cartesian ] 0
| 10> end
| 11> *xyz 0 1
| 12>  C        0.8273790000     0.1422690000    -1.2845220000
| 13>  C        1.7816610000    -0.1161730000    -0.4017570000
| 14>  C        3.1959020000     0.3728930000    -0.4960710000
| 15>  C        4.1816450000    -0.7617060000    -0.5485140000
| 16>  C        5.0250130000    -1.0699500000     0.4335900000
| 17>  C        4.1888790000    -1.5807950000    -1.7907470000
| 18>  O        4.8898140000    -2.5406090000    -1.9797830000
| 19>  H       -0.1784750000    -0.2411790000    -1.1597650000
| 20>  H        1.0168650000     0.7514890000    -2.1632300000
| 21>  H        1.5559380000    -0.7363090000     0.4635240000
| 22>  H        3.4277250000     1.0025240000     0.3687510000
| 23>  H        3.3009180000     1.0004240000    -1.3883710000
| 24>  H        5.0664440000    -0.4968060000     1.3531930000
| 25>  H        5.6977050000    -1.9132420000     0.3231630000
| 26>  H        3.4847770000    -1.2356220000    -2.5768590000
| 27> *
| 28>
| 29>                          ****END OF INPUT****
 Total Charge           Charge          ....    0
 Multiplicity           Mult            ....    1
 Number of Electrons    NEL             ....   52
 Basis Dimension        Dim             ....  138

MULLIKEN ATOMIC CHARGES
-----------------------
   0 C :   -0.027164
   1 C :   -0.082432
   2 C :    0.132265
   3 C :   -0.185025
   4 C :    0.011275
   5 C :    0.155932
   6 O :   -0.154126
   7 H :    0.031559
   8 H :    0.023569
   9 H :    0.009898
  10 H :    0.021047
  11 H :    0.019633
  12 H :    0.024941
  13 H :    0.040752
  14 H :   -0.022125
Sum of atomic charges:   -0.0000000

LOEWDIN ATOMIC CHARGES
----------------------
   0 C :   -0.057618
   1 C :   -0.025850
   2 C :   -0.034196
   3 C :   -0.084684
   4 C :    0.008904
   5 C :    0.088638
   6 O :   -0.104658
   7 H :    0.028586
   8 H :    0.023328
   9 H :    0.028760
  10 H :    0.041673
  11 H :    0.038414
  12 H :    0.027349
  13 H :    0.032431
  14 H :   -0.011077

  Mayer bond orders larger than 0.1
B(  0-C ,  1-C ) :   2.0018 B(  0-C ,  7-H ) :   0.9420 B(  0-C ,  8-H ) :   0.9490
B(  1-C ,  2-C ) :   1.0517 B(  1-C ,  9-H ) :   0.9551 B(  2-C ,  3-C ) :   1.0332
B(  2-C , 10-H ) :   0.9010 B(  2-C , 11-H ) :   0.9102 B(  3-C ,  4-C ) :   1.9392
B(  3-C ,  5-C ) :   0.9539 B(  4-C , 12-H ) :   0.9334 B(  4-C , 13-H ) :   0.9237
B(  5-C ,  6-O ) :   2.1618 B(  5-C , 14-H ) :   0.9306

FINAL SINGLE POINT ENERGY      -307.997869405684

DIPOLE MOMENT
-------------
                                X             Y             Z
Electronic contribution:      3.58455      -3.56443      -1.70472
Nuclear contribution   :     -4.00510       4.36796       2.18263
                        -----------------------------------------
Total Dipole Moment    :     -0.42055       0.80353       0.47791
                        -----------------------------------------
Magnitude (a.u.)       :      1.02514
Magnitude (Debye)      :      2.60571

                             ****ORCA TERMINATED NORMALLY****
TOTAL RUN TIME: 0 days 0 hours 0 minutes 6 seconds 737 msec
