                         Program Version 3.0.3 - RELEASE   -
|  1> ! RI PBE def2-SVP def2-SVP/J NBO PAL2
|  2> % maxcore 2000
|  3> % output
|  4>     # printlevel mini
|  5>     print[ P_Basis ] 0
|  6>     print[ P_SCFInfo ] 1
|  7>     print[ P_SCFIterInfo ] 1
|  8>     print[ P_OrbEn ] 0
|  9>     print[ P_Cartesian ] 0
| 10> end
| 11> *xyz 0 1
| 12>  C        1.3203180000    -0.6998150000     0.7764520000
| 13>  C        2.2361880000    -0.0209060000     0.1051830000
| 14>  C        3.0303620000     1.1145280000     0.6871850000
| 15>  C        4.4638060000     0.9233020000     0.5567030000
| 16>  C        5.6472210000     0.7423730000     0.4105900000
| 17>  C        7.0688840000     0.5614890000     0.2974680000
| 18>  O        7.6097360000    -0.0378030000    -0.5968400000
| 19>  H        0.7623220000    -1.5033770000     0.3109760000
| 20>  H        1.0942840000    -0.4791830000     1.8150780000
| 21>  H        2.4542000000    -0.2678450000    -0.9300930000
| 22>  H        2.7693320000     1.2606450000     1.7399160000
| 23>  H        2.7726340000     2.0484880000     0.1696130000
| 24>  H        7.6548030000     1.0251940000     1.1144780000
| 25> *
| 26>
| 27>                          ****END OF INPUT****
 Total Charge           Charge          ....    0
 Multiplicity           Mult            ....    1
 Number of Electrons    NEL             ....   50
 Basis Dimension        Dim             ....  128

MULLIKEN ATOMIC CHARGES
-----------------------
   0 C :   -0.030761
   1 C :   -0.081902
   2 C :    0.133705
   3 C :   -0.072862
   4 C :   -0.066999
   5 C :    0.069760
   6 O :   -0.156512
   7 H :    0.037881
   8 H :    0.025665
   9 H :    0.027694
  10 H :    0.038327
  11 H :    0.061217
  12 H :    0.014787
Sum of atomic charges:   -0.0000000

LOEWDIN ATOMIC CHARGES
----------------------
   0 C :   -0.051563
   1 C :   -0.018977
   2 C :   -0.042889
   3 C :    0.015741
   4 C :   -0.090921
   5 C :    0.066970
   6 O :   -0.096436
   7 H :    0.031415
   8 H :    0.025210
   9 H :    0.034865
  10 H :    0.055540
  11 H :    0.068225
  12 H :    0.002820

  Mayer bond orders larger than 0.1
B(  0-C ,  1-C ) :   2.0204 B(  0-C ,  7-H ) :   0.9474 B(  0-C ,  8-H ) :   0.9479
B(  1-C ,  2-C ) :   1.0388 B(  1-C ,  9-H ) :   0.9577 B(  2-C ,  3-C ) :   1.0462
B(  2-C , 10-H ) :   0.8938 B(  2-C , 11-H ) :   0.8798 B(  3-C ,  4-C ) :   2.6004
B(  3-C ,  6-O ) :   0.1185 B(  4-C ,  5-C ) :   0.9016 B(  5-C ,  6-O ) :   2.1362
B(  5-C , 12-H ) :   0.9428

FINAL SINGLE POINT ENERGY      -306.754275636221

DIPOLE MOMENT
-------------
                                X             Y             Z
Electronic contribution:      7.79254       0.53471      -1.59562
Nuclear contribution   :     -8.94054      -0.02302       2.22680
                        -----------------------------------------
Total Dipole Moment    :     -1.14800       0.51169       0.63118
                        -----------------------------------------
Magnitude (a.u.)       :      1.40646
Magnitude (Debye)      :      3.57494

                             ****ORCA TERMINATED NORMALLY****
TOTAL RUN TIME: 0 days 0 hours 0 minutes 5 seconds 619 msec
