                         Program Version 3.0.3 - RELEASE   -
|  1> ! RI PBE def2-SVP def2-SVP/J NBO PAL2
|  2> % maxcore 2000
|  3> % output
|  4>     # printlevel mini
|  5>     print[ P_Basis ] 0
|  6>     print[ P_SCFInfo ] 1
|  7>     print[ P_SCFIterInfo ] 1
|  8>     print[ P_OrbEn ] 0
|  9>     print[ P_Cartesian ] 0
| 10> end
| 11> *xyz 0 1
| 12>  C        1.5540870000    -0.2436660000    -0.8969540000
| 13>  C        2.4243360000     0.1829590000     0.0070730000
| 14>  C        3.0422410000    -0.6601960000     1.0724510000
| 15>  C        4.5653510000    -0.6960840000     0.9845090000
| 16>  C        5.1914920000    -1.5177570000     2.0924390000
| 17>  C        6.6890880000    -1.5672930000     2.0696600000
| 18>  O        7.3841480000    -1.0065620000     1.2676330000
| 19>  H        1.1455700000     0.4200760000    -1.6500840000
| 20>  H        1.2159970000    -1.2755620000    -0.9152560000
| 21>  H        2.7380240000     1.2259140000    -0.0150070000
| 22>  H        2.6376890000    -1.6765290000     1.0156010000
| 23>  H        2.7552070000    -0.2637900000     2.0557750000
| 24>  H        4.9655780000     0.3216860000     1.0214670000
| 25>  H        4.8704090000    -1.0986980000     0.0147500000
| 26>  H        4.8372670000    -2.5582090000     2.0758230000
| 27>  H        4.9014040000    -1.1454330000     3.0854830000
| 28>  H        7.1462020000    -2.1811760000     2.8775370000
| 29> *
| 30>
| 31>                          ****END OF INPUT****
 Total Charge           Charge          ....    0
 Multiplicity           Mult            ....    1
 Number of Electrons    NEL             ....   54
 Basis Dimension        Dim             ....  148

MULLIKEN ATOMIC CHARGES
-----------------------
   0 C :   -0.036250
   1 C :   -0.076928
   2 C :    0.067065
   3 C :   -0.042275
   4 C :   -0.005330
   5 C :    0.088294
   6 O :   -0.159420
   7 H :    0.025326
   8 H :    0.015398
   9 H :    0.006182
  10 H :   -0.000038
  11 H :    0.012972
  12 H :    0.025618
  13 H :    0.027456
  14 H :    0.033582
  15 H :    0.029555
  16 H :   -0.011206
Sum of atomic charges:   -0.0000000

LOEWDIN ATOMIC CHARGES
----------------------
   0 C :   -0.066492
   1 C :   -0.027585
   2 C :   -0.040566
   3 C :   -0.034469
   4 C :   -0.084598
   5 C :    0.091787
   6 O :   -0.108343
   7 H :    0.025005
   8 H :    0.020957
   9 H :    0.025920
  10 H :    0.026156
  11 H :    0.032004
  12 H :    0.030065
  13 H :    0.032008
  14 H :    0.045693
  15 H :    0.045142
  16 H :   -0.012683

  Mayer bond orders larger than 0.1
B(  0-C ,  1-C ) :   2.0189 B(  0-C ,  7-H ) :   0.9437 B(  0-C ,  8-H ) :   0.9470
B(  1-C ,  2-C ) :   1.0655 B(  1-C ,  9-H ) :   0.9515 B(  2-C ,  3-C ) :   1.0733
B(  2-C , 10-H ) :   0.9287 B(  2-C , 11-H ) :   0.9103 B(  3-C ,  4-C ) :   1.0754
B(  3-C , 12-H ) :   0.9378 B(  3-C , 13-H ) :   0.9399 B(  4-C ,  5-C ) :   0.9681
B(  4-C , 14-H ) :   0.9034 B(  4-C , 15-H ) :   0.9026 B(  5-C ,  6-O ) :   2.1910
B(  5-C , 16-H ) :   0.9287

FINAL SINGLE POINT ENERGY      -309.216887827449

DIPOLE MOMENT
-------------
                                X             Y             Z
Electronic contribution:      6.24616      -0.10055       0.57581
Nuclear contribution   :     -6.86573      -0.22433       0.00021
                        -----------------------------------------
Total Dipole Moment    :     -0.61957      -0.32487       0.57602
                        -----------------------------------------
Magnitude (a.u.)       :      0.90621
Magnitude (Debye)      :      2.30339

                             ****ORCA TERMINATED NORMALLY****
TOTAL RUN TIME: 0 days 0 hours 0 minutes 7 seconds 486 msec
