                         Program Version 3.0.3 - RELEASE   -
|  1> ! RI PBE def2-SVP def2-SVP/J NBO PAL2
|  2> % maxcore 2000
|  3> % output
|  4>     # printlevel mini
|  5>     print[ P_Basis ] 0
|  6>     print[ P_SCFInfo ] 1
|  7>     print[ P_SCFIterInfo ] 1
|  8>     print[ P_OrbEn ] 0
|  9>     print[ P_Cartesian ] 0
| 10> end
| 11> *xyz 0 1
| 12>  C        0.8011860000    -0.5780180000     0.4921910000
| 13>  C        2.2616160000    -0.8673620000     0.5595860000
| 14>  C        3.0677650000    -0.9885070000    -0.4883710000
| 15>  C        4.5356890000    -1.2625950000    -0.4289490000
| 16>  C        4.9613670000    -2.5095940000    -1.2039220000
| 17>  C        4.4338260000    -3.7978920000    -0.6017750000
| 18>  O        4.8791320000    -4.9493570000    -1.2900150000
| 19>  H        0.2178420000    -1.3688300000     0.9747370000
| 20>  H        0.4596830000    -0.4850250000    -0.5407560000
| 21>  H        0.5579190000     0.3522480000     1.0157520000
| 22>  H        2.6866940000    -0.9825190000     1.5564550000
| 23>  H        2.6438140000    -0.8751960000    -1.4874960000
| 24>  H        4.8511530000    -1.3507640000     0.6165490000
| 25>  H        5.0760360000    -0.4028000000    -0.8430160000
| 26>  H        6.0532710000    -2.5662800000    -1.2455110000
| 27>  H        4.6119990000    -2.4269860000    -2.2418950000
| 28>  H        3.3375510000    -3.7689740000    -0.5471520000
| 29>  H        4.8021270000    -3.9060240000     0.4225290000
| 30>  H        4.5461400000    -4.9082360000    -2.1899190000
| 31> *
| 32>
| 33>                          ****END OF INPUT****
 Total Charge           Charge          ....    0
 Multiplicity           Mult            ....    1
 Number of Electrons    NEL             ....   56
 Basis Dimension        Dim             ....  158

MULLIKEN ATOMIC CHARGES
-----------------------
   0 C :    0.040026
   1 C :   -0.101471
   2 C :   -0.075947
   3 C :    0.067031
   4 C :   -0.073748
   5 C :    0.168391
   6 O :   -0.286418
   7 H :    0.034213
   8 H :    0.016205
   9 H :    0.031107
  10 H :   -0.007344
  11 H :   -0.016738
  12 H :    0.001676
  13 H :    0.021208
  14 H :    0.022228
  15 H :   -0.002417
  16 H :    0.007987
  17 H :    0.003307
  18 H :    0.150704
Sum of atomic charges:    0.0000000

LOEWDIN ATOMIC CHARGES
----------------------
   0 C :   -0.065481
   1 C :   -0.049038
   2 C :   -0.049681
   3 C :   -0.038795
   4 C :   -0.064036
   5 C :    0.051642
   6 O :   -0.124182
   7 H :    0.036405
   8 H :    0.029569
   9 H :    0.036177
  10 H :    0.020937
  11 H :    0.018965
  12 H :    0.027260
  13 H :    0.035963
  14 H :    0.026892
  15 H :    0.016790
  16 H :    0.005152
  17 H :    0.019935
  18 H :    0.065525

  Mayer bond orders larger than 0.1
B(  0-C ,  1-C ) :   1.0845 B(  0-C ,  7-H ) :   0.9478 B(  0-C ,  8-H ) :   0.9613
B(  0-C ,  9-H ) :   0.9467 B(  1-C ,  2-C ) :   1.9131 B(  1-C , 10-H ) :   0.9546
B(  2-C ,  3-C ) :   1.0605 B(  2-C , 11-H ) :   0.9511 B(  3-C ,  4-C ) :   1.0651
B(  3-C , 12-H ) :   0.9283 B(  3-C , 13-H ) :   0.9074 B(  4-C ,  5-C ) :   1.0745
B(  4-C , 14-H ) :   0.9281 B(  4-C , 15-H ) :   0.9295 B(  5-C ,  6-O ) :   1.0568
B(  5-C , 16-H ) :   0.9409 B(  5-C , 17-H ) :   0.9309 B(  6-O , 18-H ) :   0.9871

FINAL SINGLE POINT ENERGY      -310.416099956058

DIPOLE MOMENT
-------------
                                X             Y             Z
Electronic contribution:      2.60938      -3.18970      -1.09120
Nuclear contribution   :     -2.97212       3.64979       0.84370
                        -----------------------------------------
Total Dipole Moment    :     -0.36274       0.46009      -0.24750
                        -----------------------------------------
Magnitude (a.u.)       :      0.63602
Magnitude (Debye)      :      1.61664

                             ****ORCA TERMINATED NORMALLY****
TOTAL RUN TIME: 0 days 0 hours 0 minutes 8 seconds 3 msec
