                         Program Version 3.0.3 - RELEASE   -
|  1> ! RI PBE def2-SVP def2-SVP/J NBO PAL2
|  2> % maxcore 2000
|  3> % output
|  4>     # printlevel mini
|  5>     print[ P_Basis ] 0
|  6>     print[ P_SCFInfo ] 1
|  7>     print[ P_SCFIterInfo ] 1
|  8>     print[ P_OrbEn ] 0
|  9>     print[ P_Cartesian ] 0
| 10> end
| 11> *xyz 0 1
| 12>  C        1.1472070000     0.1810520000    -1.0241930000
| 13>  C        2.5126360000     0.1178440000    -0.4538170000
| 14>  C        2.8713230000    -0.1909380000     0.8043580000
| 15>  C        1.9875170000    -0.5170790000     1.9220230000
| 16>  C        0.7950890000     0.0116640000     2.1875770000
| 17>  C        4.3270300000    -0.2835990000     1.0900970000
| 18>  O        5.2101840000     0.0371180000     0.3372750000
| 19>  H        1.1420370000    -0.2075850000    -2.0453960000
| 20>  H        0.8043340000     1.2208560000    -1.0886060000
| 21>  H        0.4218480000    -0.3680500000    -0.4217210000
| 22>  H        3.3413510000     0.3169690000    -1.1304760000
| 23>  H        2.3868240000    -1.2491900000     2.6232200000
| 24>  H        0.3571540000     0.7899300000     1.5741710000
| 25>  H        0.2294570000    -0.3038380000     3.0561760000
| 26>  H        4.5712090000    -0.6905740000     2.0954240000
| 27> *
| 28>
| 29>                          ****END OF INPUT****
 Total Charge           Charge          ....    0
 Multiplicity           Mult            ....    1
 Number of Electrons    NEL             ....   52
 Basis Dimension        Dim             ....  138

MULLIKEN ATOMIC CHARGES
-----------------------
   0 C :    0.046278
   1 C :   -0.101830
   2 C :   -0.038215
   3 C :   -0.037240
   4 C :   -0.032856
   5 C :    0.134933
   6 O :   -0.159670
   7 H :    0.036212
   8 H :    0.052756
   9 H :    0.038149
  10 H :    0.018167
  11 H :    0.009195
  12 H :    0.026449
  13 H :    0.032618
  14 H :   -0.024945
Sum of atomic charges:   -0.0000000

LOEWDIN ATOMIC CHARGES
----------------------
   0 C :   -0.066280
   1 C :    0.039138
   2 C :   -0.107199
   3 C :   -0.031008
   4 C :   -0.042429
   5 C :    0.086762
   6 O :   -0.112644
   7 H :    0.041614
   8 H :    0.051234
   9 H :    0.037579
  10 H :    0.031653
  11 H :    0.030929
  12 H :    0.024193
  13 H :    0.028832
  14 H :   -0.012375

  Mayer bond orders larger than 0.1
B(  0-C ,  1-C ) :   1.1169 B(  0-C ,  7-H ) :   0.9405 B(  0-C ,  8-H ) :   0.9271
B(  0-C ,  9-H ) :   0.9386 B(  1-C ,  2-C ) :   1.7776 B(  1-C , 10-H ) :   0.9198
B(  2-C ,  3-C ) :   1.0544 B(  2-C ,  5-C ) :   0.9664 B(  3-C ,  4-C ) :   1.9366
B(  3-C , 11-H ) :   0.9413 B(  4-C , 12-H ) :   0.9542 B(  4-C , 13-H ) :   0.9395
B(  5-C ,  6-O ) :   2.1438 B(  5-C , 14-H ) :   0.9285

FINAL SINGLE POINT ENERGY      -308.007610890468

DIPOLE MOMENT
-------------
                                X             Y             Z
Electronic contribution:      6.77837      -0.25901       0.77243
Nuclear contribution   :     -7.87166       0.17169      -0.66310
                        -----------------------------------------
Total Dipole Moment    :     -1.09329      -0.08732       0.10933
                        -----------------------------------------
Magnitude (a.u.)       :      1.10221
Magnitude (Debye)      :      2.80159

                             ****ORCA TERMINATED NORMALLY****
TOTAL RUN TIME: 0 days 0 hours 0 minutes 6 seconds 725 msec
