                         Program Version 3.0.3 - RELEASE   -
|  1> ! RI PBE def2-SVP def2-SVP/J NBO PAL2
|  2> % maxcore 2000
|  3> % output
|  4>     # printlevel mini
|  5>     print[ P_Basis ] 0
|  6>     print[ P_SCFInfo ] 1
|  7>     print[ P_SCFIterInfo ] 1
|  8>     print[ P_OrbEn ] 0
|  9>     print[ P_Cartesian ] 0
| 10> end
| 11> *xyz 0 1
| 12>  C        0.8443650000     0.0040920000    -0.4511560000
| 13>  C        2.2506870000    -0.1045000000     0.0335890000
| 14>  C        2.6852120000    -0.3182590000     1.2799240000
| 15>  C        1.7980620000    -0.5005450000     2.4720900000
| 16>  C        4.1606810000    -0.4217080000     1.5544390000
| 17>  C        4.6213630000    -1.8726460000     1.6709120000
| 18>  O        4.4109080000    -2.5928270000     0.4804850000
| 19>  H        0.6585990000    -0.7009350000    -1.2675080000
| 20>  H        0.6530420000     1.0030510000    -0.8570920000
| 21>  H        0.1055360000    -0.1847970000     0.3272130000
| 22>  H        3.0124240000     0.0377320000    -0.7319660000
| 23>  H        0.7398700000    -0.5431060000     2.2191510000
| 24>  H        1.9425410000     0.3244780000     3.1781220000
| 25>  H        2.0511580000    -1.4178940000     3.0125980000
| 26>  H        4.4091270000     0.0996320000     2.4863980000
| 27>  H        4.7262370000     0.0531750000     0.7480910000
| 28>  H        4.1195500000    -2.3630380000     2.5183460000
| 29>  H        5.6955020000    -1.9034870000     1.8689260000
| 30>  H        3.5240370000    -2.3722290000     0.1718270000
| 31> *
| 32>
| 33>                          ****END OF INPUT****
 Total Charge           Charge          ....    0
 Multiplicity           Mult            ....    1
 Number of Electrons    NEL             ....   56
 Basis Dimension        Dim             ....  158

MULLIKEN ATOMIC CHARGES
-----------------------
   0 C :    0.053075
   1 C :   -0.133464
   2 C :   -0.213749
   3 C :    0.068566
   4 C :    0.014600
   5 C :    0.186622
   6 O :   -0.289545
   7 H :    0.031103
   8 H :    0.032908
   9 H :    0.014266
  10 H :   -0.004210
  11 H :    0.016451
  12 H :    0.033088
  13 H :    0.022794
  14 H :    0.003485
  15 H :    0.016987
  16 H :   -0.010643
  17 H :    0.012168
  18 H :    0.145497
Sum of atomic charges:   -0.0000000

LOEWDIN ATOMIC CHARGES
----------------------
   0 C :   -0.068398
   1 C :   -0.065019
   2 C :   -0.053795
   3 C :   -0.060410
   4 C :   -0.052956
   5 C :    0.060436
   6 O :   -0.124463
   7 H :    0.037290
   8 H :    0.038868
   9 H :    0.027515
  10 H :    0.023008
  11 H :    0.028160
  12 H :    0.039986
  13 H :    0.033733
  14 H :    0.030348
  15 H :    0.030642
  16 H :   -0.001331
  17 H :    0.019894
  18 H :    0.056493

  Mayer bond orders larger than 0.1
B(  0-C ,  1-C ) :   1.0984 B(  0-C ,  7-H ) :   0.9437 B(  0-C ,  8-H ) :   0.9413
B(  0-C ,  9-H ) :   0.9528 B(  1-C ,  2-C ) :   1.8685 B(  1-C , 10-H ) :   0.9345
B(  2-C ,  3-C ) :   1.0988 B(  2-C ,  4-C ) :   1.0620 B(  3-C , 11-H ) :   0.9452
B(  3-C , 12-H ) :   0.9363 B(  3-C , 13-H ) :   0.9367 B(  4-C ,  5-C ) :   1.0696
B(  4-C , 14-H ) :   0.9037 B(  4-C , 15-H ) :   0.9156 B(  5-C ,  6-O ) :   1.0752
B(  5-C , 16-H ) :   0.9264 B(  5-C , 17-H ) :   0.9353 B(  6-O , 18-H ) :   0.9737

FINAL SINGLE POINT ENERGY      -310.422338280446

DIPOLE MOMENT
-------------
                                X             Y             Z
Electronic contribution:      3.36649      -1.92358      -1.28984
Nuclear contribution   :     -3.90099       2.40362       1.55172
                        -----------------------------------------
Total Dipole Moment    :     -0.53450       0.48004       0.26188
                        -----------------------------------------
Magnitude (a.u.)       :      0.76467
Magnitude (Debye)      :      1.94363

                             ****ORCA TERMINATED NORMALLY****
TOTAL RUN TIME: 0 days 0 hours 0 minutes 8 seconds 300 msec
