                         Program Version 3.0.3 - RELEASE   -
|  1> ! RI PBE def2-SVP def2-SVP/J NBO PAL2
|  2> % maxcore 2000
|  3> % output
|  4>     # printlevel mini
|  5>     print[ P_Basis ] 0
|  6>     print[ P_SCFInfo ] 1
|  7>     print[ P_SCFIterInfo ] 1
|  8>     print[ P_OrbEn ] 0
|  9>     print[ P_Cartesian ] 0
| 10> end
| 11> *xyz 0 1
| 12>  C        0.4410590000     0.1531540000     0.3177570000
| 13>  C        1.9060730000     0.2560990000     0.0598380000
| 14>  C        2.5291750000     0.2737460000    -1.1176950000
| 15>  C        1.8386370000     0.1534220000    -2.4428300000
| 16>  C        4.0376120000     0.3908850000    -1.1993990000
| 17>  C        4.4816880000     1.5530500000    -2.0792770000
| 18>  O        4.6735240000     0.4594720000     0.0579970000
| 19>  H        0.0882760000     1.0191840000     0.8875560000
| 20>  H        0.2158770000    -0.7284950000     0.9268740000
| 21>  H       -0.1556490000     0.0948470000    -0.5925710000
| 22>  H        2.5303690000     0.3001530000     0.9482760000
| 23>  H        0.8303620000    -0.2476560000    -2.3483850000
| 24>  H        2.3975500000    -0.5115960000    -3.1092690000
| 25>  H        1.7647200000     1.1196210000    -2.9518770000
| 26>  H        4.4144790000    -0.5392950000    -1.6452190000
| 27>  H        4.1065950000     1.4618150000    -3.0999490000
| 28>  H        4.1146830000     2.5004780000    -1.6704660000
| 29>  H        5.5717910000     1.5883150000    -2.1152250000
| 30>  H        4.4501700000     1.3073310000     0.4544450000
| 31> *
| 32>
| 33>                          ****END OF INPUT****
 Total Charge           Charge          ....    0
 Multiplicity           Mult            ....    1
 Number of Electrons    NEL             ....   56
 Basis Dimension        Dim             ....  158

MULLIKEN ATOMIC CHARGES
-----------------------
   0 C :    0.044027
   1 C :   -0.140371
   2 C :   -0.153594
   3 C :    0.054730
   4 C :    0.139287
   5 C :   -0.022372
   6 O :   -0.266722
   7 H :    0.028809
   8 H :    0.032344
   9 H :    0.012532
  10 H :   -0.025382
  11 H :    0.013897
  12 H :    0.022834
  13 H :    0.034536
  14 H :    0.008895
  15 H :    0.017769
  16 H :    0.010097
  17 H :    0.035814
  18 H :    0.152868
Sum of atomic charges:    0.0000000

LOEWDIN ATOMIC CHARGES
----------------------
   0 C :   -0.068506
   1 C :   -0.063436
   2 C :   -0.066312
   3 C :   -0.059431
   4 C :    0.047449
   5 C :   -0.076228
   6 O :   -0.098647
   7 H :    0.036529
   8 H :    0.037202
   9 H :    0.025756
  10 H :    0.014446
  11 H :    0.029379
  12 H :    0.032562
  13 H :    0.035594
  14 H :    0.027828
  15 H :    0.028205
  16 H :    0.023052
  17 H :    0.030501
  18 H :    0.064057

  Mayer bond orders larger than 0.1
B(  0-C ,  1-C ) :   1.0946 B(  0-C ,  7-H ) :   0.9444 B(  0-C ,  8-H ) :   0.9448
B(  0-C ,  9-H ) :   0.9518 B(  1-C ,  2-C ) :   1.9085 B(  1-C , 10-H ) :   0.9195
B(  2-C ,  3-C ) :   1.0953 B(  2-C ,  4-C ) :   0.9751 B(  3-C , 11-H ) :   0.9353
B(  3-C , 12-H ) :   0.9409 B(  3-C , 13-H ) :   0.9387 B(  4-C ,  5-C ) :   1.0805
B(  4-C ,  6-O ) :   1.0621 B(  4-C , 14-H ) :   0.8891 B(  5-C , 15-H ) :   0.9426
B(  5-C , 16-H ) :   0.9549 B(  5-C , 17-H ) :   0.9579 B(  6-O , 18-H ) :   0.9756

FINAL SINGLE POINT ENERGY      -310.424014163064

DIPOLE MOMENT
-------------
                                X             Y             Z
Electronic contribution:      3.58993      -1.07333       2.90205
Nuclear contribution   :     -3.92675       1.49480      -3.17535
                        -----------------------------------------
Total Dipole Moment    :     -0.33683       0.42147      -0.27330
                        -----------------------------------------
Magnitude (a.u.)       :      0.60480
Magnitude (Debye)      :      1.53728

                             ****ORCA TERMINATED NORMALLY****
TOTAL RUN TIME: 0 days 0 hours 0 minutes 8 seconds 291 msec
