                         Program Version 3.0.3 - RELEASE   -
|  1> ! RI PBE def2-SVP def2-SVP/J NBO PAL2
|  2> % maxcore 2000
|  3> % output
|  4>     # printlevel mini
|  5>     print[ P_Basis ] 0
|  6>     print[ P_SCFInfo ] 1
|  7>     print[ P_SCFIterInfo ] 1
|  8>     print[ P_OrbEn ] 0
|  9>     print[ P_Cartesian ] 0
| 10> end
| 11> *xyz 0 1
| 12>  C        0.9384010000     0.0376770000     0.1124360000
| 13>  C        2.4087540000    -0.0038400000    -0.1020450000
| 14>  C        3.1079720000     0.4993010000    -1.1275500000
| 15>  C        2.5283050000     1.2260100000    -2.2975160000
| 16>  C        4.5900140000     0.3546390000    -1.1622780000
| 17>  C        5.3144370000    -0.3574730000    -0.0442570000
| 18>  O        5.2155110000     0.8141470000    -2.0943220000
| 19>  H        0.5387080000    -0.9782050000     0.1996750000
| 20>  H        0.3994610000     0.5479720000    -0.6839400000
| 21>  H        0.7067950000     0.5390770000     1.0581350000
| 22>  H        2.9638990000    -0.5098340000     0.6830080000
| 23>  H        1.4449460000     1.3128860000    -2.2385330000
| 24>  H        2.7900420000     0.7166830000    -3.2280170000
| 25>  H        2.9578030000     2.2278370000    -2.3724990000
| 26>  H        4.9765810000    -1.3921750000     0.0515530000
| 27>  H        5.1446840000     0.1357250000     0.9158920000
| 28>  H        6.3788890000    -0.3467960000    -0.2701400000
| 29> *
| 30>
| 31>                          ****END OF INPUT****
 Total Charge           Charge          ....    0
 Multiplicity           Mult            ....    1
 Number of Electrons    NEL             ....   54
 Basis Dimension        Dim             ....  148

MULLIKEN ATOMIC CHARGES
-----------------------
   0 C :    0.060138
   1 C :   -0.143512
   2 C :   -0.101071
   3 C :    0.077569
   4 C :   -0.044891
   5 C :    0.022438
   6 O :   -0.165905
   7 H :    0.037261
   8 H :    0.027179
   9 H :    0.036883
  10 H :   -0.005235
  11 H :    0.005169
  12 H :    0.035545
  13 H :    0.036838
  14 H :    0.045002
  15 H :    0.040406
  16 H :    0.036185
Sum of atomic charges:   -0.0000000

LOEWDIN ATOMIC CHARGES
----------------------
   0 C :   -0.063383
   1 C :   -0.012019
   2 C :   -0.077360
   3 C :   -0.056043
   4 C :    0.051057
   5 C :   -0.092728
   6 O :   -0.129968
   7 H :    0.043883
   8 H :    0.031250
   9 H :    0.043886
  10 H :    0.025588
  11 H :    0.024747
  12 H :    0.042930
  13 H :    0.043519
  14 H :    0.043061
  15 H :    0.041766
  16 H :    0.039816

  Mayer bond orders larger than 0.1
B(  0-C ,  1-C ) :   1.0999 B(  0-C ,  7-H ) :   0.9362 B(  0-C ,  8-H ) :   0.9555
B(  0-C ,  9-H ) :   0.9358 B(  1-C ,  2-C ) :   1.8075 B(  1-C , 10-H ) :   0.9213
B(  2-C ,  3-C ) :   1.1151 B(  2-C ,  4-C ) :   0.9541 B(  3-C , 11-H ) :   0.9409
B(  3-C , 12-H ) :   0.9349 B(  3-C , 13-H ) :   0.9331 B(  4-C ,  5-C ) :   1.0704
B(  4-C ,  6-O ) :   2.1511 B(  5-C , 14-H ) :   0.9297 B(  5-C , 15-H ) :   0.9313
B(  5-C , 16-H ) :   0.9415

FINAL SINGLE POINT ENERGY      -309.241026975948

DIPOLE MOMENT
-------------
                                X             Y             Z
Electronic contribution:      4.96483       0.97780      -2.70262
Nuclear contribution   :     -5.81122      -1.35830       3.53810
                        -----------------------------------------
Total Dipole Moment    :     -0.84639      -0.38050       0.83548
                        -----------------------------------------
Magnitude (a.u.)       :      1.24867
Magnitude (Debye)      :      3.17387

                             ****ORCA TERMINATED NORMALLY****
TOTAL RUN TIME: 0 days 0 hours 0 minutes 7 seconds 900 msec
