                         Program Version 3.0.3 - RELEASE   -
|  1> ! RI PBE def2-SVP def2-SVP/J NBO PAL2
|  2> % maxcore 2000
|  3> % output
|  4>     # printlevel mini
|  5>     print[ P_Basis ] 0
|  6>     print[ P_SCFInfo ] 1
|  7>     print[ P_SCFIterInfo ] 1
|  8>     print[ P_OrbEn ] 0
|  9>     print[ P_Cartesian ] 0
| 10> end
| 11> *xyz 0 1
| 12>  C        0.7754460000     0.1378870000     0.1510730000
| 13>  C        2.2198540000    -0.0472780000    -0.1646200000
| 14>  C        2.7615360000    -0.7680360000    -1.1486050000
| 15>  C        2.0000320000    -1.5636800000    -2.1614090000
| 16>  C        4.2623010000    -0.8552810000    -1.2866300000
| 17>  C        4.7368100000    -2.1841160000    -0.7561120000
| 18>  O        5.1658540000    -3.0804830000    -1.4282830000
| 19>  H        0.5605640000    -0.1810060000     1.1760620000
| 20>  H        0.1165650000    -0.4162950000    -0.5164460000
| 21>  H        0.5000420000     1.1958520000     0.0915810000
| 22>  H        2.9049170000     0.4876550000     0.4913290000
| 23>  H        0.9277630000    -1.5748950000    -1.9738400000
| 24>  H        2.3523110000    -2.5996370000    -2.1879590000
| 25>  H        2.1641140000    -1.1575920000    -3.1652240000
| 26>  H        4.7367390000    -0.0650090000    -0.6968360000
| 27>  H        4.5743020000    -0.7674450000    -2.3305670000
| 28>  H        4.6265510000    -2.3015290000     0.3446740000
| 29> *
| 30>
| 31>                          ****END OF INPUT****
 Total Charge           Charge          ....    0
 Multiplicity           Mult            ....    1
 Number of Electrons    NEL             ....   54
 Basis Dimension        Dim             ....  148

MULLIKEN ATOMIC CHARGES
-----------------------
   0 C :    0.050394
   1 C :   -0.112317
   2 C :   -0.214772
   3 C :    0.074829
   4 C :    0.104435
   5 C :    0.075644
   6 O :   -0.159408
   7 H :    0.032308
   8 H :    0.017517
   9 H :    0.033720
  10 H :   -0.011492
  11 H :    0.018583
  12 H :    0.034869
  13 H :    0.029799
  14 H :    0.020547
  15 H :    0.015527
  16 H :   -0.010182
Sum of atomic charges:    0.0000000

LOEWDIN ATOMIC CHARGES
----------------------
   0 C :   -0.066174
   1 C :   -0.054111
   2 C :   -0.045165
   3 C :   -0.057937
   4 C :   -0.064099
   5 C :    0.091812
   6 O :   -0.106008
   7 H :    0.039019
   8 H :    0.028991
   9 H :    0.038915
  10 H :    0.022008
  11 H :    0.029349
  12 H :    0.038700
  13 H :    0.039607
  14 H :    0.041827
  15 H :    0.035085
  16 H :   -0.011823

  Mayer bond orders larger than 0.1
B(  0-C ,  1-C ) :   1.0999 B(  0-C ,  7-H ) :   0.9410 B(  0-C ,  8-H ) :   0.9539
B(  0-C ,  9-H ) :   0.9423 B(  1-C ,  2-C ) :   1.8770 B(  1-C , 10-H ) :   0.9381
B(  2-C ,  3-C ) :   1.1003 B(  2-C ,  4-C ) :   1.0437 B(  3-C , 11-H ) :   0.9463
B(  3-C , 12-H ) :   0.9342 B(  3-C , 13-H ) :   0.9357 B(  4-C ,  5-C ) :   0.9687
B(  4-C , 14-H ) :   0.9001 B(  4-C , 15-H ) :   0.9059 B(  5-C ,  6-O ) :   2.1638
B(  5-C , 16-H ) :   0.9164

FINAL SINGLE POINT ENERGY      -309.224453034297

DIPOLE MOMENT
-------------
                                X             Y             Z
Electronic contribution:      6.79162      -3.77189      -0.63868
Nuclear contribution   :     -7.35625       4.53392       0.95856
                        -----------------------------------------
Total Dipole Moment    :     -0.56463       0.76203       0.31989
                        -----------------------------------------
Magnitude (a.u.)       :      1.00091
Magnitude (Debye)      :      2.54412

                             ****ORCA TERMINATED NORMALLY****
TOTAL RUN TIME: 0 days 0 hours 0 minutes 6 seconds 634 msec
