                         Program Version 3.0.3 - RELEASE   -
|  1> ! RI PBE def2-SVP def2-SVP/J NBO PAL2
|  2> % maxcore 2000
|  3> % output
|  4>     # printlevel mini
|  5>     print[ P_Basis ] 0
|  6>     print[ P_SCFInfo ] 1
|  7>     print[ P_SCFIterInfo ] 1
|  8>     print[ P_OrbEn ] 0
|  9>     print[ P_Cartesian ] 0
| 10> end
| 11> *xyz 0 1
| 12>  C        0.6756470000     0.2484890000     0.8701620000
| 13>  C        2.1460820000     0.1232160000     0.6885420000
| 14>  C        3.0677970000     0.7536980000     1.4205600000
| 15>  C        4.4935290000     0.6140430000     1.2228020000
| 16>  C        5.4284080000     1.2293300000     1.9525140000
| 17>  C        6.8933060000     1.0768910000     1.7328930000
| 18>  O        7.5325060000     2.3151620000     1.4722130000
| 19>  H        0.2206720000    -0.7239680000     1.0860190000
| 20>  H        0.1956650000     0.6187910000    -0.0418810000
| 21>  H        0.4289080000     0.9295310000     1.6866720000
| 22>  H        2.4841230000    -0.5394810000    -0.1071500000
| 23>  H        2.7466740000     1.4177450000     2.2217450000
| 24>  H        4.8097530000    -0.0514770000     0.4197080000
| 25>  H        5.1311770000     1.9038230000     2.7537770000
| 26>  H        7.0768900000     0.3551350000     0.9249020000
| 27>  H        7.3792360000     0.6901180000     2.6340050000
| 28>  H        7.0672280000     2.7327530000     0.7420280000
| 29> *
| 30>
| 31>                          ****END OF INPUT****
 Total Charge           Charge          ....    0
 Multiplicity           Mult            ....    1
 Number of Electrons    NEL             ....   54
 Basis Dimension        Dim             ....  148

MULLIKEN ATOMIC CHARGES
-----------------------
   0 C :    0.045176
   1 C :   -0.117414
   2 C :    0.020940
   3 C :    0.016258
   4 C :   -0.151580
   5 C :    0.262327
   6 O :   -0.295045
   7 H :    0.036841
   8 H :    0.036866
   9 H :    0.022949
  10 H :   -0.002803
  11 H :   -0.015918
  12 H :   -0.015508
  13 H :   -0.000930
  14 H :   -0.005103
  15 H :    0.014159
  16 H :    0.148785
Sum of atomic charges:   -0.0000000

LOEWDIN ATOMIC CHARGES
----------------------
   0 C :   -0.064753
   1 C :   -0.029153
   2 C :   -0.047250
   3 C :   -0.036442
   4 C :   -0.064252
   5 C :    0.054160
   6 O :   -0.123922
   7 H :    0.039563
   8 H :    0.039451
   9 H :    0.032264
  10 H :    0.023246
  11 H :    0.026439
  12 H :    0.025392
  13 H :    0.024192
  14 H :    0.007293
  15 H :    0.028481
  16 H :    0.065291

  Mayer bond orders larger than 0.1
B(  0-C ,  1-C ) :   1.0868 B(  0-C ,  7-H ) :   0.9428 B(  0-C ,  8-H ) :   0.9430
B(  0-C ,  9-H ) :   0.9600 B(  1-C ,  2-C ) :   1.7845 B(  1-C ,  4-C ) :   0.1284
B(  1-C , 10-H ) :   0.9583 B(  2-C ,  3-C ) :   1.1365 B(  2-C , 11-H ) :   0.9648
B(  3-C ,  4-C ) :   1.7399 B(  3-C , 12-H ) :   0.9627 B(  4-C ,  5-C ) :   1.0629
B(  4-C , 13-H ) :   0.9632 B(  5-C ,  6-O ) :   1.0259 B(  5-C , 14-H ) :   0.9337
B(  5-C , 15-H ) :   0.9121 B(  6-O , 16-H ) :   0.9854

FINAL SINGLE POINT ENERGY      -309.206954607261

DIPOLE MOMENT
-------------
                                X             Y             Z
Electronic contribution:      5.21301       1.77422       0.57406
Nuclear contribution   :     -5.93952      -1.99244      -0.93432
                        -----------------------------------------
Total Dipole Moment    :     -0.72651      -0.21822      -0.36025
                        -----------------------------------------
Magnitude (a.u.)       :      0.83977
Magnitude (Debye)      :      2.13453

                             ****ORCA TERMINATED NORMALLY****
TOTAL RUN TIME: 0 days 0 hours 0 minutes 7 seconds 39 msec
