                         Program Version 3.0.3 - RELEASE   -
|  1> ! RI PBE def2-SVP def2-SVP/J NBO PAL2
|  2> % maxcore 2000
|  3> % output
|  4>     # printlevel mini
|  5>     print[ P_Basis ] 0
|  6>     print[ P_SCFInfo ] 1
|  7>     print[ P_SCFIterInfo ] 1
|  8>     print[ P_OrbEn ] 0
|  9>     print[ P_Cartesian ] 0
| 10> end
| 11> *xyz 0 1
| 12>  C        0.7282330000    -0.1059170000     0.1088910000
| 13>  C        2.1921040000     0.1283060000     0.1705880000
| 14>  C        3.0809430000    -0.6868110000     0.7497590000
| 15>  C        4.4930150000    -0.4146120000     0.7831020000
| 16>  C        5.4226650000    -1.2000480000     1.3508940000
| 17>  C        6.8292190000    -0.8259590000     1.3258680000
| 18>  O        7.7245780000    -1.4745940000     1.8116920000
| 19>  H        0.3833180000    -0.1421960000    -0.9297530000
| 20>  H        0.1823100000     0.7150120000     0.5854510000
| 21>  H        0.4461590000    -1.0387760000     0.5992290000
| 22>  H        2.5604540000     1.0405330000    -0.2967180000
| 23>  H        2.7385030000    -1.6044280000     1.2235480000
| 24>  H        4.8241110000     0.5075410000     0.3052440000
| 25>  H        5.1647800000    -2.1325000000     1.8442980000
| 26>  H        7.0409080000     0.1369370000     0.8090880000
| 27> *
| 28>
| 29>                          ****END OF INPUT****
 Total Charge           Charge          ....    0
 Multiplicity           Mult            ....    1
 Number of Electrons    NEL             ....   52
 Basis Dimension        Dim             ....  138

MULLIKEN ATOMIC CHARGES
-----------------------
   0 C :    0.044923
   1 C :   -0.100856
   2 C :    0.029369
   3 C :    0.026000
   4 C :   -0.029068
   5 C :    0.117343
   6 O :   -0.174367
   7 H :    0.044635
   8 H :    0.046765
   9 H :    0.027935
  10 H :    0.007548
  11 H :   -0.006011
  12 H :   -0.002350
  13 H :    0.000802
  14 H :   -0.032668
Sum of atomic charges:   -0.0000000

LOEWDIN ATOMIC CHARGES
----------------------
   0 C :   -0.061923
   1 C :    0.000053
   2 C :   -0.044805
   3 C :    0.010461
   4 C :   -0.071757
   5 C :    0.059406
   6 O :   -0.123404
   7 H :    0.045098
   8 H :    0.045722
   9 H :    0.035117
  10 H :    0.028213
  11 H :    0.031037
  12 H :    0.030390
  13 H :    0.032512
  14 H :   -0.016120

  Mayer bond orders larger than 0.1
B(  0-C ,  1-C ) :   1.0901 B(  0-C ,  7-H ) :   0.9399 B(  0-C ,  8-H ) :   0.9394
B(  0-C ,  9-H ) :   0.9600 B(  1-C ,  2-C ) :   1.7581 B(  1-C ,  4-C ) :   0.1147
B(  1-C , 10-H ) :   0.9563 B(  2-C ,  3-C ) :   1.1512 B(  2-C , 11-H ) :   0.9649
B(  3-C ,  4-C ) :   1.6163 B(  3-C , 12-H ) :   0.9622 B(  4-C ,  5-C ) :   1.0526
B(  4-C , 13-H ) :   0.9692 B(  5-C ,  6-O ) :   2.0904 B(  5-C , 14-H ) :   0.9288

FINAL SINGLE POINT ENERGY      -308.020601108361

DIPOLE MOMENT
-------------
                                X             Y             Z
Electronic contribution:      9.14987      -2.00442       2.34813
Nuclear contribution   :    -10.86975       2.57771      -2.90088
                        -----------------------------------------
Total Dipole Moment    :     -1.71988       0.57329      -0.55275
                        -----------------------------------------
Magnitude (a.u.)       :      1.89531
Magnitude (Debye)      :      4.81748

                             ****ORCA TERMINATED NORMALLY****
TOTAL RUN TIME: 0 days 0 hours 0 minutes 6 seconds 796 msec
