                         Program Version 3.0.3 - RELEASE   -
|  1> ! RI PBE def2-SVP def2-SVP/J NBO PAL2
|  2> % maxcore 2000
|  3> % output
|  4>     # printlevel mini
|  5>     print[ P_Basis ] 0
|  6>     print[ P_SCFInfo ] 1
|  7>     print[ P_SCFIterInfo ] 1
|  8>     print[ P_OrbEn ] 0
|  9>     print[ P_Cartesian ] 0
| 10> end
| 11> *xyz 0 1
| 12>  C        0.9053260000     1.7715920000    -1.3633600000
| 13>  C        2.3849210000     1.6863940000    -1.4902130000
| 14>  C        3.1673090000     0.9386820000    -0.7095630000
| 15>  C        4.6203880000     0.8469170000    -0.7912780000
| 16>  C        5.3031590000     0.0438080000     0.0322550000
| 17>  C        5.3620490000     1.6763410000    -1.8043780000
| 18>  O        5.0359540000     1.3602100000    -3.1453460000
| 19>  H        0.4133250000     1.4588770000    -2.2903980000
| 20>  H        0.5860380000     2.8026510000    -1.1781090000
| 21>  H        0.5326080000     1.1468660000    -0.5492900000
| 22>  H        2.8386500000     2.2646300000    -2.2907400000
| 23>  H        2.7037490000     0.3359730000     0.0702680000
| 24>  H        4.8005050000    -0.5589520000     0.7811720000
| 25>  H        6.3842510000    -0.0252630000    -0.0133210000
| 26>  H        6.4402690000     1.5730790000    -1.6295420000
| 27>  H        5.1089760000     2.7334700000    -1.6823530000
| 28>  H        5.1201320000     0.4086330000    -3.2506030000
| 29> *
| 30>
| 31>                          ****END OF INPUT****
 Total Charge           Charge          ....    0
 Multiplicity           Mult            ....    1
 Number of Electrons    NEL             ....   54
 Basis Dimension        Dim             ....  148

MULLIKEN ATOMIC CHARGES
-----------------------
   0 C :    0.049608
   1 C :   -0.108002
   2 C :    0.015806
   3 C :   -0.141411
   4 C :   -0.058265
   5 C :    0.263182
   6 O :   -0.287466
   7 H :    0.034872
   8 H :    0.033539
   9 H :    0.020015
  10 H :    0.013633
  11 H :   -0.030611
  12 H :    0.014890
  13 H :    0.017189
  14 H :   -0.005744
  15 H :    0.014196
  16 H :    0.154569
Sum of atomic charges:   -0.0000000

LOEWDIN ATOMIC CHARGES
----------------------
   0 C :   -0.062785
   1 C :   -0.023427
   2 C :   -0.048383
   3 C :   -0.057850
   4 C :   -0.057821
   5 C :    0.062720
   6 O :   -0.118388
   7 H :    0.039197
   8 H :    0.038794
   9 H :    0.030038
  10 H :    0.026318
  11 H :    0.023873
  12 H :    0.021243
  13 H :    0.020737
  14 H :    0.009160
  15 H :    0.026346
  16 H :    0.070228

  Mayer bond orders larger than 0.1
B(  0-C ,  1-C ) :   1.0867 B(  0-C ,  7-H ) :   0.9427 B(  0-C ,  8-H ) :   0.9431
B(  0-C ,  9-H ) :   0.9608 B(  1-C ,  2-C ) :   1.8071 B(  1-C ,  4-C ) :   0.1310
B(  1-C , 10-H ) :   0.9360 B(  2-C ,  3-C ) :   1.1191 B(  2-C , 11-H ) :   0.9599
B(  3-C ,  4-C ) :   1.8562 B(  3-C ,  5-C ) :   1.0588 B(  4-C , 12-H ) :   0.9430
B(  4-C , 13-H ) :   0.9326 B(  5-C ,  6-O ) :   1.0248 B(  5-C , 14-H ) :   0.9207
B(  5-C , 15-H ) :   0.9054 B(  6-O , 16-H ) :   0.9815

FINAL SINGLE POINT ENERGY      -309.204334185772

DIPOLE MOMENT
-------------
                                X             Y             Z
Electronic contribution:      3.13593      -0.43440      -1.48756
Nuclear contribution   :     -3.24478       0.14646       1.68892
                        -----------------------------------------
Total Dipole Moment    :     -0.10885      -0.28794       0.20135
                        -----------------------------------------
Magnitude (a.u.)       :      0.36783
Magnitude (Debye)      :      0.93496

                             ****ORCA TERMINATED NORMALLY****
TOTAL RUN TIME: 0 days 0 hours 0 minutes 7 seconds 582 msec
