                         Program Version 3.0.3 - RELEASE   -
|  1> ! RI PBE def2-SVP def2-SVP/J NBO PAL2
|  2> % maxcore 2000
|  3> % output
|  4>     # printlevel mini
|  5>     print[ P_Basis ] 0
|  6>     print[ P_SCFInfo ] 1
|  7>     print[ P_SCFIterInfo ] 1
|  8>     print[ P_OrbEn ] 0
|  9>     print[ P_Cartesian ] 0
| 10> end
| 11> *xyz 0 1
| 12>  C        0.8439110000     0.1601890000     0.2746200000
| 13>  C        2.2725220000    -0.1386510000    -0.0077880000
| 14>  C        3.3039560000     0.5020240000     0.5411700000
| 15>  C        4.7268090000     0.2571350000     0.3063900000
| 16>  C        5.2629380000    -0.6609630000    -0.5045580000
| 17>  C        5.6639030000     1.1373020000     1.0631690000
| 18>  O        6.8633080000     1.0887320000     1.0031750000
| 19>  H        0.3306590000    -0.7204090000     0.6750260000
| 20>  H        0.3124950000     0.4373320000    -0.6418910000
| 21>  H        0.7373640000     0.9752190000     0.9926210000
| 22>  H        2.4617410000    -0.9424170000    -0.7170500000
| 23>  H        3.0857870000     1.3026550000     1.2476440000
| 24>  H        4.6623870000    -1.3438940000    -1.0931280000
| 25>  H        6.3414240000    -0.7320940000    -0.5824760000
| 26>  H        5.1649070000     1.8814610000     1.7218750000
| 27> *
| 28>
| 29>                          ****END OF INPUT****
 Total Charge           Charge          ....    0
 Multiplicity           Mult            ....    1
 Number of Electrons    NEL             ....   52
 Basis Dimension        Dim             ....  138

MULLIKEN ATOMIC CHARGES
-----------------------
   0 C :    0.029120
   1 C :   -0.100552
   2 C :    0.023551
   3 C :   -0.067600
   4 C :   -0.002512
   5 C :    0.132447
   6 O :   -0.149440
   7 H :    0.042458
   8 H :    0.041964
   9 H :    0.028499
  10 H :    0.003841
  11 H :   -0.021135
  12 H :    0.021908
  13 H :    0.040596
  14 H :   -0.023143
Sum of atomic charges:   -0.0000000

LOEWDIN ATOMIC CHARGES
----------------------
   0 C :   -0.063841
   1 C :   -0.009330
   2 C :   -0.054667
   3 C :   -0.090237
   4 C :    0.020031
   5 C :    0.089322
   6 O :   -0.101861
   7 H :    0.042049
   8 H :    0.042084
   9 H :    0.033603
  10 H :    0.024901
  11 H :    0.023603
  12 H :    0.024872
  13 H :    0.032214
  14 H :   -0.012743

  Mayer bond orders larger than 0.1
B(  0-C ,  1-C ) :   1.0968 B(  0-C ,  7-H ) :   0.9412 B(  0-C ,  8-H ) :   0.9407
B(  0-C ,  9-H ) :   0.9607 B(  1-C ,  2-C ) :   1.8338 B(  1-C ,  4-C ) :   0.1075
B(  1-C , 10-H ) :   0.9521 B(  2-C ,  3-C ) :   1.0652 B(  2-C , 11-H ) :   0.9479
B(  3-C ,  4-C ) :   1.8755 B(  3-C ,  5-C ) :   0.9487 B(  4-C , 12-H ) :   0.9322
B(  4-C , 13-H ) :   0.9166 B(  5-C ,  6-O ) :   2.1575 B(  5-C , 14-H ) :   0.9282

FINAL SINGLE POINT ENERGY      -308.007623305247

DIPOLE MOMENT
-------------
                                X             Y             Z
Electronic contribution:      8.17024       1.51030       1.20550
Nuclear contribution   :     -9.38244      -1.79053      -1.43557
                        -----------------------------------------
Total Dipole Moment    :     -1.21220      -0.28023      -0.23008
                        -----------------------------------------
Magnitude (a.u.)       :      1.26526
Magnitude (Debye)      :      3.21605

                             ****ORCA TERMINATED NORMALLY****
TOTAL RUN TIME: 0 days 0 hours 0 minutes 6 seconds 558 msec
