                         Program Version 3.0.3 - RELEASE   -
|  1> ! RI PBE def2-SVP def2-SVP/J NBO PAL2
|  2> % maxcore 2000
|  3> % output
|  4>     # printlevel mini
|  5>     print[ P_Basis ] 0
|  6>     print[ P_SCFInfo ] 1
|  7>     print[ P_SCFIterInfo ] 1
|  8>     print[ P_OrbEn ] 0
|  9>     print[ P_Cartesian ] 0
| 10> end
| 11> *xyz 0 1
| 12>  C        0.6738840000    -0.3974710000    -0.8231980000
| 13>  C        2.1543690000    -0.3214610000    -0.9789870000
| 14>  C        3.0307470000    -1.1374410000    -0.4001430000
| 15>  C        4.5163810000    -1.0772870000    -0.5702990000
| 16>  C        5.2380050000    -1.1127770000     0.7713990000
| 17>  C        4.9793620000    -2.2350710000    -1.4558670000
| 18>  O        4.4152130000    -2.1958860000    -2.7430870000
| 19>  H        0.2781480000     0.5247130000    -0.3858300000
| 20>  H        0.3806990000    -1.2315240000    -0.1827570000
| 21>  H        0.1788430000    -0.5190390000    -1.7918110000
| 22>  H        2.5350030000     0.4841090000    -1.6065340000
| 23>  H        2.6575470000    -1.9435320000     0.2348170000
| 24>  H        4.7694330000    -0.1489600000    -1.0954590000
| 25>  H        5.0064340000    -2.0329420000     1.3163340000
| 26>  H        4.9411300000    -0.2710400000     1.3999260000
| 27>  H        6.3216220000    -1.0693020000     0.6350220000
| 28>  H        4.7536700000    -3.1882020000    -0.9513130000
| 29>  H        6.0634540000    -2.1853080000    -1.5895100000
| 30>  H        3.4707540000    -2.0365980000    -2.6325830000
| 31> *
| 32>
| 33>                          ****END OF INPUT****
 Total Charge           Charge          ....    0
 Multiplicity           Mult            ....    1
 Number of Electrons    NEL             ....   56
 Basis Dimension        Dim             ....  158

MULLIKEN ATOMIC CHARGES
-----------------------
   0 C :    0.043952
   1 C :   -0.111964
   2 C :   -0.058354
   3 C :   -0.111475
   4 C :    0.004753
   5 C :    0.205812
   6 O :   -0.278480
   7 H :    0.035454
   8 H :    0.023409
   9 H :    0.032933
  10 H :    0.003328
  11 H :   -0.010249
  12 H :    0.004991
  13 H :    0.020087
  14 H :    0.027811
  15 H :    0.024596
  16 H :   -0.012875
  17 H :    0.011067
  18 H :    0.145204
Sum of atomic charges:   -0.0000000

LOEWDIN ATOMIC CHARGES
----------------------
   0 C :   -0.065266
   1 C :   -0.046795
   2 C :   -0.046869
   3 C :   -0.065894
   4 C :   -0.055342
   5 C :    0.060669
   6 O :   -0.121075
   7 H :    0.038566
   8 H :    0.031673
   9 H :    0.037353
  10 H :    0.024077
  11 H :    0.021208
  12 H :    0.028673
  13 H :    0.025057
  14 H :    0.029723
  15 H :    0.028244
  16 H :   -0.000524
  17 H :    0.019421
  18 H :    0.057103

  Mayer bond orders larger than 0.1
B(  0-C ,  1-C ) :   1.0859 B(  0-C ,  7-H ) :   0.9455 B(  0-C ,  8-H ) :   0.9615
B(  0-C ,  9-H ) :   0.9461 B(  1-C ,  2-C ) :   1.8865 B(  1-C , 10-H ) :   0.9528
B(  2-C ,  3-C ) :   1.0114 B(  2-C , 11-H ) :   0.9529 B(  3-C ,  4-C ) :   1.0538
B(  3-C ,  5-C ) :   1.0173 B(  3-C , 12-H ) :   0.9064 B(  4-C , 13-H ) :   0.9604
B(  4-C , 14-H ) :   0.9598 B(  4-C , 15-H ) :   0.9583 B(  5-C ,  6-O ) :   1.0876
B(  5-C , 16-H ) :   0.9297 B(  5-C , 17-H ) :   0.9345 B(  6-O , 18-H ) :   0.9750

FINAL SINGLE POINT ENERGY      -310.420584397103

DIPOLE MOMENT
-------------
                                X             Y             Z
Electronic contribution:      1.16330      -0.94901      -3.56381
Nuclear contribution   :     -1.61443       1.18213       4.08793
                        -----------------------------------------
Total Dipole Moment    :     -0.45113       0.23312       0.52412
                        -----------------------------------------
Magnitude (a.u.)       :      0.72977
Magnitude (Debye)      :      1.85494

                             ****ORCA TERMINATED NORMALLY****
TOTAL RUN TIME: 0 days 0 hours 0 minutes 8 seconds 43 msec
