                         Program Version 3.0.3 - RELEASE   -
|  1> ! RI PBE def2-SVP def2-SVP/J NBO PAL2
|  2> % maxcore 2000
|  3> % output
|  4>     # printlevel mini
|  5>     print[ P_Basis ] 0
|  6>     print[ P_SCFInfo ] 1
|  7>     print[ P_SCFIterInfo ] 1
|  8>     print[ P_OrbEn ] 0
|  9>     print[ P_Cartesian ] 0
| 10> end
| 11> *xyz 0 1
| 12>  C        0.9264680000    -0.4128950000    -1.5398600000
| 13>  C        2.3950570000    -0.4800710000    -1.2925350000
| 14>  C        3.2112430000     0.5670660000    -1.2950740000
| 15>  C        4.6999960000     0.5683160000    -1.0702700000
| 16>  C        5.0425700000     1.4711500000     0.1055840000
| 17>  C        5.2889190000    -0.8190480000    -0.8656100000
| 18>  O        5.3198070000     1.1899570000    -2.2021830000
| 19>  H        0.3647860000    -0.7876680000    -0.6780670000
| 20>  H        0.6412500000    -1.0377690000    -2.3923160000
| 21>  H        0.6000900000     0.6091500000    -1.7408450000
| 22>  H        2.8000840000    -1.4697880000    -1.0919280000
| 23>  H        2.8023820000     1.5570360000    -1.4971810000
| 24>  H        4.6305210000     1.0700160000     1.0330280000
| 25>  H        4.6362940000     2.4714090000    -0.0553870000
| 26>  H        6.1271550000     1.5540860000     0.2046660000
| 27>  H        4.8889070000    -1.2987400000     0.0303250000
| 28>  H        6.3715920000    -0.7347120000    -0.7585150000
| 29>  H        5.0808790000    -1.4667330000    -1.7214940000
| 30>  H        5.0398100000     0.7076380000    -2.9858380000
| 31> *
| 32>
| 33>                          ****END OF INPUT****
 Total Charge           Charge          ....    0
 Multiplicity           Mult            ....    1
 Number of Electrons    NEL             ....   56
 Basis Dimension        Dim             ....  158

MULLIKEN ATOMIC CHARGES
-----------------------
   0 C :    0.050748
   1 C :   -0.112163
   2 C :   -0.015261
   3 C :   -0.092530
   4 C :    0.064559
   5 C :    0.060166
   6 O :   -0.265221
   7 H :    0.033998
   8 H :    0.029956
   9 H :    0.019566
  10 H :   -0.007067
  11 H :   -0.017423
  12 H :    0.014601
  13 H :    0.015933
  14 H :    0.020281
  15 H :    0.019171
  16 H :    0.023716
  17 H :    0.008974
  18 H :    0.147997
Sum of atomic charges:   -0.0000000

LOEWDIN ATOMIC CHARGES
----------------------
   0 C :   -0.063741
   1 C :   -0.046725
   2 C :   -0.054729
   3 C :    0.015959
   4 C :   -0.051572
   5 C :   -0.068539
   6 O :   -0.107958
   7 H :    0.037518
   8 H :    0.036016
   9 H :    0.030502
  10 H :    0.021509
  11 H :    0.022048
  12 H :    0.028496
  13 H :    0.027667
  14 H :    0.028775
  15 H :    0.028406
  16 H :    0.030656
  17 H :    0.021509
  18 H :    0.064204

  Mayer bond orders larger than 0.1
B(  0-C ,  1-C ) :   1.0755 B(  0-C ,  7-H ) :   0.9448 B(  0-C ,  8-H ) :   0.9456
B(  0-C ,  9-H ) :   0.9618 B(  1-C ,  2-C ) :   1.9045 B(  1-C , 10-H ) :   0.9350
B(  2-C ,  3-C ) :   0.9982 B(  2-C , 11-H ) :   0.9556 B(  3-C ,  4-C ) :   1.0372
B(  3-C ,  5-C ) :   1.0920 B(  3-C ,  6-O ) :   1.0015 B(  4-C , 12-H ) :   0.9603
B(  4-C , 13-H ) :   0.9504 B(  4-C , 14-H ) :   0.9485 B(  5-C , 15-H ) :   0.9383
B(  5-C , 16-H ) :   0.9484 B(  5-C , 17-H ) :   0.9363 B(  6-O , 18-H ) :   0.9827

FINAL SINGLE POINT ENERGY      -310.424591150362

DIPOLE MOMENT
-------------
                                X             Y             Z
Electronic contribution:      1.96464       1.88506      -2.41744
Nuclear contribution   :     -2.37664      -2.36615       2.37557
                        -----------------------------------------
Total Dipole Moment    :     -0.41200      -0.48110      -0.04187
                        -----------------------------------------
Magnitude (a.u.)       :      0.63479
Magnitude (Debye)      :      1.61350

                             ****ORCA TERMINATED NORMALLY****
TOTAL RUN TIME: 0 days 0 hours 0 minutes 8 seconds 232 msec
