                         Program Version 3.0.3 - RELEASE   -
|  1> ! RI PBE def2-SVP def2-SVP/J NBO PAL2
|  2> % maxcore 2000
|  3> % output
|  4>     # printlevel mini
|  5>     print[ P_Basis ] 0
|  6>     print[ P_SCFInfo ] 1
|  7>     print[ P_SCFIterInfo ] 1
|  8>     print[ P_OrbEn ] 0
|  9>     print[ P_Cartesian ] 0
| 10> end
| 11> *xyz 0 1
| 12>  C        0.7041300000     0.3373610000     0.4460400000
| 13>  C        2.1705410000     0.1864670000     0.6583590000
| 14>  C        3.0927400000     1.0586820000     0.2673110000
| 15>  C        4.5698900000     0.9173580000     0.4951450000
| 16>  C        5.3901690000     1.1137350000    -0.7677780000
| 17>  C        4.9676400000     1.8874560000     1.5892440000
| 18>  O        5.7634780000     2.7760900000     1.4669210000
| 19>  H        0.3040490000    -0.4958640000    -0.1401710000
| 20>  H        0.4684890000     1.2671530000    -0.0747170000
| 21>  H        0.1674880000     0.3341490000     1.4000100000
| 22>  H        2.4953010000    -0.7199240000     1.1686190000
| 23>  H        2.7820010000     1.9672560000    -0.2481340000
| 24>  H        4.7468930000    -0.0814320000     0.9188830000
| 25>  H        5.2126670000     2.1036150000    -1.1927400000
| 26>  H        5.1245010000     0.3644580000    -1.5152290000
| 27>  H        6.4577700000     1.0389970000    -0.5550960000
| 28>  H        4.4373350000     1.7240350000     2.5529320000
| 29> *
| 30>
| 31>                          ****END OF INPUT****
 Total Charge           Charge          ....    0
 Multiplicity           Mult            ....    1
 Number of Electrons    NEL             ....   54
 Basis Dimension        Dim             ....  148

MULLIKEN ATOMIC CHARGES
-----------------------
   0 C :    0.040092
   1 C :   -0.101359
   2 C :   -0.036360
   3 C :   -0.080568
   4 C :    0.029150
   5 C :    0.119875
   6 O :   -0.151918
   7 H :    0.037003
   8 H :    0.023973
   9 H :    0.037020
  10 H :   -0.003083
  11 H :   -0.002433
  12 H :    0.018679
  13 H :    0.028648
  14 H :    0.025992
  15 H :    0.031392
  16 H :   -0.016104
Sum of atomic charges:   -0.0000000

LOEWDIN ATOMIC CHARGES
----------------------
   0 C :   -0.063787
   1 C :   -0.037455
   2 C :   -0.037798
   3 C :   -0.084935
   4 C :   -0.053359
   5 C :    0.098500
   6 O :   -0.103916
   7 H :    0.038801
   8 H :    0.032740
   9 H :    0.039461
  10 H :    0.022758
  11 H :    0.024749
  12 H :    0.043251
  13 H :    0.031002
  14 H :    0.029998
  15 H :    0.032515
  16 H :   -0.012524

  Mayer bond orders larger than 0.1
B(  0-C ,  1-C ) :   1.0850 B(  0-C ,  7-H ) :   0.9461 B(  0-C ,  8-H ) :   0.9611
B(  0-C ,  9-H ) :   0.9449 B(  1-C ,  2-C ) :   1.9095 B(  1-C , 10-H ) :   0.9524
B(  2-C ,  3-C ) :   1.0009 B(  2-C , 11-H ) :   0.9492 B(  3-C ,  4-C ) :   1.0674
B(  3-C ,  5-C ) :   0.9050 B(  3-C , 12-H ) :   0.8882 B(  4-C , 13-H ) :   0.9594
B(  4-C , 14-H ) :   0.9607 B(  4-C , 15-H ) :   0.9540 B(  5-C ,  6-O ) :   2.1986
B(  5-C , 16-H ) :   0.9283

FINAL SINGLE POINT ENERGY      -309.223344438058

DIPOLE MOMENT
-------------
                                X             Y             Z
Electronic contribution:      4.92987       3.45897       3.25615
Nuclear contribution   :     -5.67266      -4.22265      -3.36881
                        -----------------------------------------
Total Dipole Moment    :     -0.74279      -0.76368      -0.11266
                        -----------------------------------------
Magnitude (a.u.)       :      1.07127
Magnitude (Debye)      :      2.72296

                             ****ORCA TERMINATED NORMALLY****
TOTAL RUN TIME: 0 days 0 hours 0 minutes 7 seconds 833 msec
