                         Program Version 3.0.3 - RELEASE   -
|  1> ! RI PBE def2-SVP def2-SVP/J NBO PAL2
|  2> % maxcore 2000
|  3> % output
|  4>     # printlevel mini
|  5>     print[ P_Basis ] 0
|  6>     print[ P_SCFInfo ] 1
|  7>     print[ P_SCFIterInfo ] 1
|  8>     print[ P_OrbEn ] 0
|  9>     print[ P_Cartesian ] 0
| 10> end
| 11> *xyz 0 1
| 12>  C        1.0139410000     0.0140450000     0.0282990000
| 13>  C        2.4975900000    -0.0570070000     0.0436690000
| 14>  C        3.2740660000     0.1166870000    -1.0296080000
| 15>  C        4.6892470000     0.0553210000    -1.0058200000
| 16>  C        5.8949680000     0.0028070000    -1.0141260000
| 17>  C        7.3509000000    -0.0157310000    -1.0216900000
| 18>  O        7.9337970000     0.9757380000    -0.1993680000
| 19>  H        0.5747550000    -0.9255870000     0.3789440000
| 20>  H        0.6301220000     0.2213450000    -0.9721620000
| 21>  H        0.6531190000     0.7955430000     0.7050160000
| 22>  H        2.9751040000    -0.2629020000     0.9984680000
| 23>  H        2.8120870000     0.3241840000    -1.9931360000
| 24>  H        7.7036420000     0.0732600000    -2.0588500000
| 25>  H        7.7140870000    -0.9744650000    -0.6414400000
| 26>  H        7.5003560000     1.8109930000    -0.3946760000
| 27> *
| 28>
| 29>                          ****END OF INPUT****
 Total Charge           Charge          ....    0
 Multiplicity           Mult            ....    1
 Number of Electrons    NEL             ....   52
 Basis Dimension        Dim             ....  138

MULLIKEN ATOMIC CHARGES
-----------------------
   0 C :    0.034967
   1 C :   -0.084401
   2 C :   -0.074133
   3 C :   -0.047093
   4 C :   -0.161301
   5 C :    0.275065
   6 O :   -0.286338
   7 H :    0.041489
   8 H :    0.022660
   9 H :    0.042694
  10 H :    0.013178
  11 H :    0.016575
  12 H :    0.022979
  13 H :    0.027734
  14 H :    0.155925
Sum of atomic charges:   -0.0000000

LOEWDIN ATOMIC CHARGES
----------------------
   0 C :   -0.063198
   1 C :   -0.002847
   2 C :   -0.065716
   3 C :   -0.046926
   4 C :   -0.079114
   5 C :    0.051757
   6 O :   -0.116895
   7 H :    0.041975
   8 H :    0.032415
   9 H :    0.042119
  10 H :    0.031146
  11 H :    0.037973
  12 H :    0.025540
  13 H :    0.041832
  14 H :    0.069938

  Mayer bond orders larger than 0.1
B(  0-C ,  1-C ) :   1.0889 B(  0-C ,  7-H ) :   0.9439 B(  0-C ,  8-H ) :   0.9593
B(  0-C ,  9-H ) :   0.9438 B(  1-C ,  2-C ) :   1.8212 B(  1-C ,  4-C ) :   0.1188
B(  1-C , 10-H ) :   0.9598 B(  2-C ,  3-C ) :   1.0534 B(  2-C , 11-H ) :   0.9401
B(  3-C ,  4-C ) :   2.5079 B(  4-C ,  5-C ) :   1.0235 B(  5-C ,  6-O ) :   1.0578
B(  5-C , 12-H ) :   0.9210 B(  5-C , 13-H ) :   0.8982 B(  6-O , 14-H ) :   0.9828

FINAL SINGLE POINT ENERGY      -307.963173785882

DIPOLE MOMENT
-------------
                                X             Y             Z
Electronic contribution:      6.05172       0.54063      -0.80976
Nuclear contribution   :     -6.77720      -0.40300       0.58616
                        -----------------------------------------
Total Dipole Moment    :     -0.72547       0.13763      -0.22359
                        -----------------------------------------
Magnitude (a.u.)       :      0.77152
Magnitude (Debye)      :      1.96106

                             ****ORCA TERMINATED NORMALLY****
TOTAL RUN TIME: 0 days 0 hours 0 minutes 6 seconds 665 msec
