                         Program Version 3.0.3 - RELEASE   -
|  1> ! RI PBE def2-SVP def2-SVP/J NBO PAL2
|  2> % maxcore 2000
|  3> % output
|  4>     # printlevel mini
|  5>     print[ P_Basis ] 0
|  6>     print[ P_SCFInfo ] 1
|  7>     print[ P_SCFIterInfo ] 1
|  8>     print[ P_OrbEn ] 0
|  9>     print[ P_Cartesian ] 0
| 10> end
| 11> *xyz 0 1
| 12>  C        0.8983260000     0.1169440000     0.0205460000
| 13>  C        2.3800320000     0.0633340000     0.0312110000
| 14>  C        3.1180400000    -0.6858710000    -0.7967970000
| 15>  C        4.5274560000    -0.7175570000    -0.7656260000
| 16>  C        5.7363590000    -0.7810630000    -0.7799160000
| 17>  C        7.1681830000    -0.8109040000    -0.7405680000
| 18>  O        7.8586500000    -1.4779570000    -1.4716930000
| 19>  H        0.5507820000     1.1401170000    -0.1551420000
| 20>  H        0.4943910000    -0.1827650000     0.9929150000
| 21>  H        0.4737660000    -0.5311700000    -0.7472830000
| 22>  H        2.8944560000     0.6788890000     0.7650750000
| 23>  H        2.6306120000    -1.3108960000    -1.5416430000
| 24>  H        7.6165280000    -0.1587100000     0.0339710000
| 25> *
| 26>
| 27>                          ****END OF INPUT****
 Total Charge           Charge          ....    0
 Multiplicity           Mult            ....    1
 Number of Electrons    NEL             ....   50
 Basis Dimension        Dim             ....  128

MULLIKEN ATOMIC CHARGES
-----------------------
   0 C :    0.037804
   1 C :   -0.079314
   2 C :   -0.057315
   3 C :    0.019469
   4 C :   -0.026052
   5 C :    0.069252
   6 O :   -0.162238
   7 H :    0.049259
   8 H :    0.049017
   9 H :    0.033091
  10 H :    0.023881
  11 H :    0.032757
  12 H :    0.010388
Sum of atomic charges:   -0.0000000

LOEWDIN ATOMIC CHARGES
----------------------
   0 C :   -0.059471
   1 C :    0.023603
   2 C :   -0.061351
   3 C :    0.004434
   4 C :   -0.077628
   5 C :    0.058970
   6 O :   -0.102111
   7 H :    0.047556
   8 H :    0.047602
   9 H :    0.036386
  10 H :    0.035125
  11 H :    0.045270
  12 H :    0.001616

  Mayer bond orders larger than 0.1
B(  0-C ,  1-C ) :   1.0939 B(  0-C ,  7-H ) :   0.9401 B(  0-C ,  8-H ) :   0.9397
B(  0-C ,  9-H ) :   0.9599 B(  1-C ,  2-C ) :   1.7743 B(  1-C ,  4-C ) :   0.1107
B(  1-C , 10-H ) :   0.9629 B(  2-C ,  3-C ) :   1.0818 B(  2-C , 11-H ) :   0.9411
B(  3-C ,  4-C ) :   2.4139 B(  3-C ,  6-O ) :   0.1060 B(  4-C ,  5-C ) :   0.9196
B(  5-C ,  6-O ) :   2.1156 B(  5-C , 12-H ) :   0.9424

FINAL SINGLE POINT ENERGY      -306.769701382463

DIPOLE MOMENT
-------------
                                X             Y             Z
Electronic contribution:     10.04138      -2.44901      -2.33052
Nuclear contribution   :    -11.71899       3.10388       3.00116
                        -----------------------------------------
Total Dipole Moment    :     -1.67761       0.65487       0.67064
                        -----------------------------------------
Magnitude (a.u.)       :      1.92172
Magnitude (Debye)      :      4.88461

                             ****ORCA TERMINATED NORMALLY****
TOTAL RUN TIME: 0 days 0 hours 0 minutes 5 seconds 299 msec
