                         Program Version 3.0.3 - RELEASE   -
|  1> ! RI PBE def2-SVP def2-SVP/J NBO PAL2
|  2> % maxcore 2000
|  3> % output
|  4>     # printlevel mini
|  5>     print[ P_Basis ] 0
|  6>     print[ P_SCFInfo ] 1
|  7>     print[ P_SCFIterInfo ] 1
|  8>     print[ P_OrbEn ] 0
|  9>     print[ P_Cartesian ] 0
| 10> end
| 11> *xyz 0 1
| 12>  C        0.9145980000    -0.0158860000    -1.0746070000
| 13>  C        2.4028010000    -0.0376350000    -1.1494070000
| 14>  C        3.1802540000    -1.0238280000    -0.7097210000
| 15>  C        4.6706270000    -1.0359060000    -0.8114410000
| 16>  C        5.1863630000    -1.9706400000    -1.9152730000
| 17>  C        4.8694630000    -3.4342680000    -1.6616590000
| 18>  O        4.7105130000    -1.5536430000    -3.1792960000
| 19>  H        0.5646660000     0.8310150000    -0.4757190000
| 20>  H        0.5221650000    -0.9326260000    -0.6302370000
| 21>  H        0.4690790000     0.1011910000    -2.0675160000
| 22>  H        2.8791170000     0.8411320000    -1.5840500000
| 23>  H        2.7049250000    -1.8974880000    -0.2652750000
| 24>  H        5.1130380000    -1.3430210000     0.1426960000
| 25>  H        5.0312940000    -0.0273440000    -1.0318880000
| 26>  H        6.2733900000    -1.8517580000    -1.9680500000
| 27>  H        3.7900730000    -3.6039260000    -1.6256470000
| 28>  H        5.3007360000    -3.7742390000    -0.7159910000
| 29>  H        5.2774550000    -4.0463600000    -2.4676480000
| 30>  H        3.7619620000    -1.4037800000    -3.0891790000
| 31> *
| 32>
| 33>                          ****END OF INPUT****
 Total Charge           Charge          ....    0
 Multiplicity           Mult            ....    1
 Number of Electrons    NEL             ....   56
 Basis Dimension        Dim             ....  158

MULLIKEN ATOMIC CHARGES
-----------------------
   0 C :    0.045215
   1 C :   -0.105875
   2 C :   -0.120209
   3 C :    0.089862
   4 C :    0.040655
   5 C :    0.015735
   6 O :   -0.276055
   7 H :    0.036272
   8 H :    0.020342
   9 H :    0.031705
  10 H :    0.000461
  11 H :    0.000300
  12 H :    0.008018
  13 H :    0.011582
  14 H :    0.009710
  15 H :    0.009135
  16 H :    0.008509
  17 H :    0.028650
  18 H :    0.145987
Sum of atomic charges:   -0.0000000

LOEWDIN ATOMIC CHARGES
----------------------
   0 C :   -0.065296
   1 C :   -0.045865
   2 C :   -0.055307
   3 C :   -0.053228
   4 C :    0.043373
   5 C :   -0.080644
   6 O :   -0.114638
   7 H :    0.038703
   8 H :    0.031133
   9 H :    0.037002
  10 H :    0.023280
  11 H :    0.021417
  12 H :    0.032691
  13 H :    0.030942
  14 H :    0.021346
  15 H :    0.021470
  16 H :    0.025945
  17 H :    0.030617
  18 H :    0.057060

  Mayer bond orders larger than 0.1
B(  0-C ,  1-C ) :   1.0874 B(  0-C ,  7-H ) :   0.9457 B(  0-C ,  8-H ) :   0.9612
B(  0-C ,  9-H ) :   0.9464 B(  1-C ,  2-C ) :   1.9059 B(  1-C , 10-H ) :   0.9458
B(  2-C ,  3-C ) :   1.0533 B(  2-C , 11-H ) :   0.9506 B(  3-C ,  4-C ) :   1.0388
B(  3-C , 12-H ) :   0.9039 B(  3-C , 13-H ) :   0.9222 B(  4-C ,  5-C ) :   1.0765
B(  4-C ,  6-O ) :   1.0481 B(  4-C , 14-H ) :   0.9144 B(  5-C , 15-H ) :   0.9521
B(  5-C , 16-H ) :   0.9489 B(  5-C , 17-H ) :   0.9547 B(  6-O , 18-H ) :   0.9754

FINAL SINGLE POINT ENERGY      -310.423660942186

DIPOLE MOMENT
-------------
                                X             Y             Z
Electronic contribution:      2.26422       1.20984      -2.06847
Nuclear contribution   :     -2.72216      -1.17105       2.56293
                        -----------------------------------------
Total Dipole Moment    :     -0.45794       0.03879       0.49446
                        -----------------------------------------
Magnitude (a.u.)       :      0.67506
Magnitude (Debye)      :      1.71586

                             ****ORCA TERMINATED NORMALLY****
TOTAL RUN TIME: 0 days 0 hours 0 minutes 7 seconds 340 msec
