                         Program Version 3.0.3 - RELEASE   -
|  1> ! RI PBE def2-SVP def2-SVP/J NBO PAL2
|  2> % maxcore 2000
|  3> % output
|  4>     # printlevel mini
|  5>     print[ P_Basis ] 0
|  6>     print[ P_SCFInfo ] 1
|  7>     print[ P_SCFIterInfo ] 1
|  8>     print[ P_OrbEn ] 0
|  9>     print[ P_Cartesian ] 0
| 10> end
| 11> *xyz 0 1
| 12>  C        0.7939070000    -1.4021720000    -0.3274810000
| 13>  C        2.2804060000    -1.3036800000    -0.3276370000
| 14>  C        3.0121050000    -0.8210470000    -1.3253510000
| 15>  C        4.5072000000    -0.7288930000    -1.3272750000
| 16>  C        5.0732010000    -1.6053710000    -2.4348530000
| 17>  C        5.3296200000    -3.0446440000    -2.0841270000
| 18>  O        5.2772210000    -1.1627140000    -3.5370910000
| 19>  H        0.4677120000    -2.4379870000    -0.1893130000
| 20>  H        0.3688860000    -1.0325810000    -1.2623490000
| 21>  H        0.3613550000    -0.8261520000     0.4967000000
| 22>  H        2.7893700000    -1.6495990000     0.5717450000
| 23>  H        2.5179170000    -0.4697690000    -2.2295530000
| 24>  H        4.9007070000    -1.0394480000    -0.3555640000
| 25>  H        4.8248460000     0.2966280000    -1.5341590000
| 26>  H        6.1855430000    -3.1004130000    -1.4037780000
| 27>  H        5.5455440000    -3.6206910000    -2.9820650000
| 28>  H        4.4722580000    -3.4681580000    -1.5550610000
| 29> *
| 30>
| 31>                          ****END OF INPUT****
 Total Charge           Charge          ....    0
 Multiplicity           Mult            ....    1
 Number of Electrons    NEL             ....   54
 Basis Dimension        Dim             ....  148

MULLIKEN ATOMIC CHARGES
-----------------------
   0 C :    0.042339
   1 C :   -0.095230
   2 C :   -0.083829
   3 C :    0.118977
   4 C :   -0.086428
   5 C :    0.020257
   6 O :   -0.161170
   7 H :    0.032064
   8 H :    0.022542
   9 H :    0.034851
  10 H :   -0.006007
  11 H :    0.005860
  12 H :    0.005741
  13 H :    0.026451
  14 H :    0.045884
  15 H :    0.038191
  16 H :    0.039507
Sum of atomic charges:   -0.0000000

LOEWDIN ATOMIC CHARGES
----------------------
   0 C :   -0.062950
   1 C :   -0.044561
   2 C :   -0.040688
   3 C :   -0.061373
   4 C :    0.060776
   5 C :   -0.089798
   6 O :   -0.122043
   7 H :    0.036989
   8 H :    0.032453
   9 H :    0.038012
  10 H :    0.021381
  11 H :    0.026846
  12 H :    0.031560
  13 H :    0.042963
  14 H :    0.049253
  15 H :    0.038005
  16 H :    0.043177

  Mayer bond orders larger than 0.1
B(  0-C ,  1-C ) :   1.0863 B(  0-C ,  7-H ) :   0.9473 B(  0-C ,  8-H ) :   0.9622
B(  0-C ,  9-H ) :   0.9462 B(  1-C ,  2-C ) :   1.9150 B(  1-C , 10-H ) :   0.9496
B(  2-C ,  3-C ) :   1.0616 B(  2-C , 11-H ) :   0.9479 B(  3-C ,  4-C ) :   0.9450
B(  3-C , 12-H ) :   0.9193 B(  3-C , 13-H ) :   0.8914 B(  4-C ,  5-C ) :   1.0310
B(  4-C ,  6-O ) :   2.1892 B(  5-C , 14-H ) :   0.9335 B(  5-C , 15-H ) :   0.9481
B(  5-C , 16-H ) :   0.9401

FINAL SINGLE POINT ENERGY      -309.232226751518

DIPOLE MOMENT
-------------
                                X             Y             Z
Electronic contribution:      4.52309       2.20712      -4.60681
Nuclear contribution   :     -4.85152      -2.59636       5.57617
                        -----------------------------------------
Total Dipole Moment    :     -0.32843      -0.38924       0.96936
                        -----------------------------------------
Magnitude (a.u.)       :      1.09500
Magnitude (Debye)      :      2.78327

                             ****ORCA TERMINATED NORMALLY****
TOTAL RUN TIME: 0 days 0 hours 0 minutes 7 seconds 257 msec
