                         Program Version 3.0.3 - RELEASE   -
|  1> ! RI PBE def2-SVP def2-SVP/J NBO PAL2
|  2> % maxcore 2000
|  3> % output
|  4>     # printlevel mini
|  5>     print[ P_Basis ] 0
|  6>     print[ P_SCFInfo ] 1
|  7>     print[ P_SCFIterInfo ] 1
|  8>     print[ P_OrbEn ] 0
|  9>     print[ P_Cartesian ] 0
| 10> end
| 11> *xyz 0 1
| 12>  C        0.8180810000     1.2047580000     0.0651690000
| 13>  C        2.3057800000     1.1765230000    -0.0156400000
| 14>  C        3.1212170000     0.8627630000     0.9840370000
| 15>  C        4.6112660000     0.8326360000     0.8988460000
| 16>  C        5.2675170000     1.8091020000     1.8623730000
| 17>  C        6.7652850000     1.7760240000     1.8588730000
| 18>  O        7.4359900000     1.0449380000     1.1830210000
| 19>  H        0.4270220000     2.1969950000    -0.1818640000
| 20>  H        0.4670890000     0.9394900000     1.0644380000
| 21>  H        0.3707720000     0.5064690000    -0.6494880000
| 22>  H        2.7437250000     1.4302240000    -0.9807230000
| 23>  H        2.6864580000     0.6070290000     1.9511700000
| 24>  H        4.9354950000     1.0540980000    -0.1211990000
| 25>  H        4.9828160000    -0.1735610000     1.1223760000
| 26>  H        4.9466230000     1.6313760000     2.8984820000
| 27>  H        4.9630140000     2.8434490000     1.6535960000
| 28>  H        7.2479490000     2.5016890000     2.5509250000
| 29> *
| 30>
| 31>                          ****END OF INPUT****
 Total Charge           Charge          ....    0
 Multiplicity           Mult            ....    1
 Number of Electrons    NEL             ....   54
 Basis Dimension        Dim             ....  148

MULLIKEN ATOMIC CHARGES
-----------------------
   0 C :    0.041471
   1 C :   -0.104854
   2 C :   -0.068380
   3 C :    0.074065
   4 C :   -0.036386
   5 C :    0.085509
   6 O :   -0.161438
   7 H :    0.030002
   8 H :    0.016543
   9 H :    0.034411
  10 H :   -0.007092
  11 H :   -0.013921
  12 H :    0.015273
  13 H :    0.028940
  14 H :    0.035936
  15 H :    0.038966
  16 H :   -0.009045
Sum of atomic charges:   -0.0000000

LOEWDIN ATOMIC CHARGES
----------------------
   0 C :   -0.064586
   1 C :   -0.046552
   2 C :   -0.049102
   3 C :   -0.036484
   4 C :   -0.082201
   5 C :    0.091747
   6 O :   -0.108709
   7 H :    0.035426
   8 H :    0.029827
   9 H :    0.037182
  10 H :    0.021758
  11 H :    0.019023
  12 H :    0.033473
  13 H :    0.037841
  14 H :    0.046105
  15 H :    0.047138
  16 H :   -0.011886

  Mayer bond orders larger than 0.1
B(  0-C ,  1-C ) :   1.0834 B(  0-C ,  7-H ) :   0.9486 B(  0-C ,  8-H ) :   0.9612
B(  0-C ,  9-H ) :   0.9473 B(  1-C ,  2-C ) :   1.9379 B(  1-C , 10-H ) :   0.9520
B(  2-C ,  3-C ) :   1.0573 B(  2-C , 11-H ) :   0.9449 B(  3-C ,  4-C ) :   1.0613
B(  3-C , 12-H ) :   0.9328 B(  3-C , 13-H ) :   0.9147 B(  4-C ,  5-C ) :   0.9674
B(  4-C , 14-H ) :   0.9073 B(  4-C , 15-H ) :   0.9077 B(  5-C ,  6-O ) :   2.1850
B(  5-C , 16-H ) :   0.9287

FINAL SINGLE POINT ENERGY      -309.222982189867

DIPOLE MOMENT
-------------
                                X             Y             Z
Electronic contribution:      8.43420      -0.53835       0.83769
Nuclear contribution   :     -9.17769       0.99803      -0.46204
                        -----------------------------------------
Total Dipole Moment    :     -0.74349       0.45968       0.37565
                        -----------------------------------------
Magnitude (a.u.)       :      0.95142
Magnitude (Debye)      :      2.41831

                             ****ORCA TERMINATED NORMALLY****
TOTAL RUN TIME: 0 days 0 hours 0 minutes 7 seconds 402 msec
