                         Program Version 3.0.3 - RELEASE   -
|  1> ! RI PBE def2-SVP def2-SVP/J NBO PAL2
|  2> % maxcore 2000
|  3> % output
|  4>     # printlevel mini
|  5>     print[ P_Basis ] 0
|  6>     print[ P_SCFInfo ] 1
|  7>     print[ P_SCFIterInfo ] 1
|  8>     print[ P_OrbEn ] 0
|  9>     print[ P_Cartesian ] 0
| 10> end
| 11> *xyz 0 1
| 12>  C        3.3764430000     0.6528620000    -1.9873760000
| 13>  C        2.8492260000     0.6444630000    -0.5862870000
| 14>  C        1.8791530000     1.4666240000    -0.1974700000
| 15>  C        3.4587150000    -0.3551970000     0.3578930000
| 16>  C        4.9592420000    -0.1751810000     0.5925420000
| 17>  C        5.3067260000     1.1497910000     1.2430090000
| 18>  O        6.6971300000     1.3284270000     1.4167070000
| 19>  H        2.8352810000     1.3638540000    -2.6125270000
| 20>  H        3.2917980000    -0.3405470000    -2.4409710000
| 21>  H        4.4377860000     0.9187650000    -2.0141290000
| 22>  H        1.4290580000     2.1774690000    -0.8821730000
| 23>  H        1.5004300000     1.4537520000     0.8190230000
| 24>  H        3.2930320000    -1.3624230000    -0.0438760000
| 25>  H        2.9318880000    -0.3103030000     1.3161650000
| 26>  H        5.5118650000    -0.2616950000    -0.3479170000
| 27>  H        5.3120880000    -0.9925060000     1.2336210000
| 28>  H        4.7736450000     1.2449490000     2.2009230000
| 29>  H        4.9756980000     1.9793610000     0.6142430000
| 30>  H        7.0267050000     0.6125570000     1.9659090000
| 31> *
| 32>
| 33>                          ****END OF INPUT****
 Total Charge           Charge          ....    0
 Multiplicity           Mult            ....    1
 Number of Electrons    NEL             ....   56
 Basis Dimension        Dim             ....  158

MULLIKEN ATOMIC CHARGES
-----------------------
   0 C :    0.059886
   1 C :   -0.200831
   2 C :   -0.034838
   3 C :    0.073992
   4 C :   -0.070011
   5 C :    0.175228
   6 O :   -0.285302
   7 H :    0.014836
   8 H :    0.026180
   9 H :    0.035962
  10 H :    0.008465
  11 H :    0.006513
  12 H :    0.014783
  13 H :   -0.004130
  14 H :    0.018880
  15 H :    0.000505
  16 H :   -0.009064
  17 H :    0.019371
  18 H :    0.149575
Sum of atomic charges:    0.0000000

LOEWDIN ATOMIC CHARGES
----------------------
   0 C :   -0.057819
   1 C :   -0.031386
   2 C :   -0.080811
   3 C :   -0.031211
   4 C :   -0.063222
   5 C :    0.054155
   6 O :   -0.123636
   7 H :    0.032161
   8 H :    0.035348
   9 H :    0.036352
  10 H :    0.019380
  11 H :    0.018545
  12 H :    0.033155
  13 H :    0.026323
  14 H :    0.022741
  15 H :    0.020049
  16 H :    0.002745
  17 H :    0.022065
  18 H :    0.065066

  Mayer bond orders larger than 0.1
B(  0-C ,  1-C ) :   1.0844 B(  0-C ,  7-H ) :   0.9462 B(  0-C ,  8-H ) :   0.9434
B(  0-C ,  9-H ) :   0.9397 B(  1-C ,  2-C ) :   1.9774 B(  1-C ,  3-C ) :   1.0631
B(  2-C , 10-H ) :   0.9335 B(  2-C , 11-H ) :   0.9343 B(  3-C ,  4-C ) :   1.0661
B(  3-C , 12-H ) :   0.9094 B(  3-C , 13-H ) :   0.9150 B(  4-C ,  5-C ) :   1.0725
B(  4-C , 14-H ) :   0.9271 B(  4-C , 15-H ) :   0.9257 B(  5-C ,  6-O ) :   1.0579
B(  5-C , 16-H ) :   0.9349 B(  5-C , 17-H ) :   0.9347 B(  6-O , 18-H ) :   0.9871

FINAL SINGLE POINT ENERGY      -310.415306668480

DIPOLE MOMENT
-------------
                                X             Y             Z
Electronic contribution:      2.32120       1.00556       2.03131
Nuclear contribution   :     -2.44402      -1.59916      -1.90723
                        -----------------------------------------
Total Dipole Moment    :     -0.12282      -0.59359       0.12408
                        -----------------------------------------
Magnitude (a.u.)       :      0.61874
Magnitude (Debye)      :      1.57270

                             ****ORCA TERMINATED NORMALLY****
TOTAL RUN TIME: 0 days 0 hours 0 minutes 8 seconds 317 msec
