                         Program Version 3.0.3 - RELEASE   -
|  1> ! RI PBE def2-SVP def2-SVP/J NBO PAL2
|  2> % maxcore 2000
|  3> % output
|  4>     # printlevel mini
|  5>     print[ P_Basis ] 0
|  6>     print[ P_SCFInfo ] 1
|  7>     print[ P_SCFIterInfo ] 1
|  8>     print[ P_OrbEn ] 0
|  9>     print[ P_Cartesian ] 0
| 10> end
| 11> *xyz 0 1
| 12>  C        3.6408390000    -0.8630070000     1.2404430000
| 13>  C        2.7443610000    -0.2518260000     0.2093380000
| 14>  C        1.4196340000    -0.4288660000     0.2387130000
| 15>  C        3.3396980000     0.5556150000    -0.8488320000
| 16>  C        4.6412600000     0.8067780000    -1.0076070000
| 17>  C        5.1945680000     1.6458220000    -2.1080210000
| 18>  O        5.9479520000     2.7424190000    -1.6208330000
| 19>  H        3.0644650000    -1.4286860000     1.9725460000
| 20>  H        4.2109380000    -0.0950350000     1.7714700000
| 21>  H        4.3674100000    -1.5381900000     0.7789150000
| 22>  H        0.9426150000    -1.0223890000     1.0100480000
| 23>  H        0.7763290000     0.0161980000    -0.5125380000
| 24>  H        2.6391210000     0.9768240000    -1.5687220000
| 25>  H        5.3699090000     0.4105410000    -0.3044490000
| 26>  H        4.3834660000     1.9798630000    -2.7694860000
| 27>  H        5.8954190000     1.0656060000    -2.7160410000
| 28>  H        5.3855240000     3.2357320000    -1.0172460000
| 29> *
| 30>
| 31>                          ****END OF INPUT****
 Total Charge           Charge          ....    0
 Multiplicity           Mult            ....    1
 Number of Electrons    NEL             ....   54
 Basis Dimension        Dim             ....  148

MULLIKEN ATOMIC CHARGES
-----------------------
   0 C :    0.065791
   1 C :   -0.119136
   2 C :   -0.042062
   3 C :    0.025875
   4 C :   -0.155273
   5 C :    0.262966
   6 O :   -0.292346
   7 H :    0.015222
   8 H :    0.036361
   9 H :    0.037083
  10 H :    0.015017
  11 H :    0.012978
  12 H :   -0.025974
  13 H :    0.002235
  14 H :   -0.005413
  15 H :    0.017080
  16 H :    0.149596
Sum of atomic charges:   -0.0000000

LOEWDIN ATOMIC CHARGES
----------------------
   0 C :   -0.055867
   1 C :   -0.034147
   2 C :   -0.054264
   3 C :   -0.032246
   4 C :   -0.062444
   5 C :    0.056177
   6 O :   -0.122083
   7 H :    0.032562
   8 H :    0.038196
   9 H :    0.038279
  10 H :    0.021897
  11 H :    0.021411
  12 H :    0.025473
  13 H :    0.024368
  14 H :    0.007233
  15 H :    0.029330
  16 H :    0.066124

  Mayer bond orders larger than 0.1
B(  0-C ,  1-C ) :   1.1012 B(  0-C ,  7-H ) :   0.9471 B(  0-C ,  8-H ) :   0.9338
B(  0-C ,  9-H ) :   0.9359 B(  1-C ,  2-C ) :   1.8822 B(  1-C ,  3-C ) :   1.1127
B(  2-C ,  4-C ) :   0.1291 B(  2-C , 10-H ) :   0.9309 B(  2-C , 11-H ) :   0.9390
B(  3-C ,  4-C ) :   1.7629 B(  3-C , 12-H ) :   0.9573 B(  4-C ,  5-C ) :   1.0611
B(  4-C , 13-H ) :   0.9446 B(  5-C ,  6-O ) :   1.0312 B(  5-C , 14-H ) :   0.9335
B(  5-C , 15-H ) :   0.9127 B(  6-O , 16-H ) :   0.9859

FINAL SINGLE POINT ENERGY      -309.204594615935

DIPOLE MOMENT
-------------
                                X             Y             Z
Electronic contribution:      1.54797       2.67788      -1.97665
Nuclear contribution   :     -1.97795      -2.81392       2.25180
                        -----------------------------------------
Total Dipole Moment    :     -0.42998      -0.13603       0.27515
                        -----------------------------------------
Magnitude (a.u.)       :      0.52829
Magnitude (Debye)      :      1.34281

                             ****ORCA TERMINATED NORMALLY****
TOTAL RUN TIME: 0 days 0 hours 0 minutes 7 seconds 290 msec
