                         Program Version 3.0.3 - RELEASE   -
|  1> ! RI PBE def2-SVP def2-SVP/J NBO PAL2
|  2> % maxcore 2000
|  3> % output
|  4>     # printlevel mini
|  5>     print[ P_Basis ] 0
|  6>     print[ P_SCFInfo ] 1
|  7>     print[ P_SCFIterInfo ] 1
|  8>     print[ P_OrbEn ] 0
|  9>     print[ P_Cartesian ] 0
| 10> end
| 11> *xyz 0 1
| 12>  C        0.9253120000     0.0081760000    -0.0924730000
| 13>  C        2.3968500000     0.2654860000    -0.1744700000
| 14>  C        2.9343370000     1.0307800000    -1.1314960000
| 15>  C        3.2713920000    -0.3350750000     0.8173370000
| 16>  C        2.8946470000    -1.1228360000     1.8352390000
| 17>  C        3.8855970000    -1.6600620000     2.7612280000
| 18>  O        3.6310280000    -2.3741510000     3.7000750000
| 19>  H        0.3939960000     0.5183010000    -0.8956750000
| 20>  H        0.5195990000     0.3545000000     0.8622830000
| 21>  H        0.7100950000    -1.0617680000    -0.1632240000
| 22>  H        2.3235320000     1.5005550000    -1.8937220000
| 23>  H        4.0034170000     1.2067350000    -1.1759070000
| 24>  H        4.3329100000    -0.1149670000     0.7105600000
| 25>  H        1.8593170000    -1.3926380000     2.0155140000
| 26>  H        4.9343820000    -1.3601270000     2.5418210000
| 27> *
| 28>
| 29>                          ****END OF INPUT****
 Total Charge           Charge          ....    0
 Multiplicity           Mult            ....    1
 Number of Electrons    NEL             ....   52
 Basis Dimension        Dim             ....  138

MULLIKEN ATOMIC CHARGES
-----------------------
   0 C :    0.075067
   1 C :   -0.124928
   2 C :   -0.023708
   3 C :    0.032163
   4 C :   -0.032480
   5 C :    0.119502
   6 O :   -0.167669
   7 H :    0.018589
   8 H :    0.043939
   9 H :    0.043993
  10 H :    0.024846
  11 H :    0.025574
  12 H :   -0.007707
  13 H :    0.003922
  14 H :   -0.031105
Sum of atomic charges:   -0.0000000

LOEWDIN ATOMIC CHARGES
----------------------
   0 C :   -0.053641
   1 C :   -0.035085
   2 C :   -0.023922
   3 C :    0.014961
   4 C :   -0.071068
   5 C :    0.065224
   6 O :   -0.118195
   7 H :    0.034876
   8 H :    0.042466
   9 H :    0.042289
  10 H :    0.026784
  11 H :    0.026681
  12 H :    0.031188
  13 H :    0.032403
  14 H :   -0.014963

  Mayer bond orders larger than 0.1
B(  0-C ,  1-C ) :   1.1016 B(  0-C ,  7-H ) :   0.9461 B(  0-C ,  8-H ) :   0.9356
B(  0-C ,  9-H ) :   0.9358 B(  1-C ,  2-C ) :   1.8558 B(  1-C ,  3-C ) :   1.1151
B(  2-C ,  4-C ) :   0.1173 B(  2-C , 10-H ) :   0.9323 B(  2-C , 11-H ) :   0.9425
B(  3-C ,  4-C ) :   1.6404 B(  3-C , 12-H ) :   0.9612 B(  4-C ,  5-C ) :   1.0415
B(  4-C , 13-H ) :   0.9533 B(  5-C ,  6-O ) :   2.1050 B(  5-C , 14-H ) :   0.9324

FINAL SINGLE POINT ENERGY      -308.017217444119

DIPOLE MOMENT
-------------
                                X             Y             Z
Electronic contribution:      3.16113      -3.51305       5.44263
Nuclear contribution   :     -3.42097       4.34017      -6.62919
                        -----------------------------------------
Total Dipole Moment    :     -0.25984       0.82713      -1.18656
                        -----------------------------------------
Magnitude (a.u.)       :      1.46955
Magnitude (Debye)      :      3.73530

                             ****ORCA TERMINATED NORMALLY****
TOTAL RUN TIME: 0 days 0 hours 0 minutes 6 seconds 596 msec
