                         Program Version 3.0.3 - RELEASE   -
|  1> ! RI PBE def2-SVP def2-SVP/J NBO PAL2
|  2> % maxcore 2000
|  3> % output
|  4>     # printlevel mini
|  5>     print[ P_Basis ] 0
|  6>     print[ P_SCFInfo ] 1
|  7>     print[ P_SCFIterInfo ] 1
|  8>     print[ P_OrbEn ] 0
|  9>     print[ P_Cartesian ] 0
| 10> end
| 11> *xyz 0 1
| 12>  C        2.5975180000    -0.2960310000    -1.5202030000
| 13>  C        2.3081720000     0.1636360000    -0.1230580000
| 14>  C        1.4567710000     1.1573000000     0.1265310000
| 15>  C        3.0214920000    -0.5196250000     0.9777000000
| 16>  C        2.4131810000    -0.8622660000     2.1124270000
| 17>  C        4.4594930000    -0.8826370000     0.7549130000
| 18>  O        5.1849870000     0.2725610000     0.3765070000
| 19>  H        1.9699650000     0.2301220000    -2.2401400000
| 20>  H        2.4215070000    -1.3707220000    -1.6303100000
| 21>  H        3.6436550000    -0.1066400000    -1.7763600000
| 22>  H        0.9131960000     1.6451690000    -0.6751210000
| 23>  H        1.2980500000     1.5245870000     1.1334130000
| 24>  H        1.3524030000    -0.6946360000     2.2562270000
| 25>  H        2.9590810000    -1.3346520000     2.9219380000
| 26>  H        4.5169540000    -1.6470980000    -0.0345890000
| 27>  H        4.8639540000    -1.3251630000     1.6732530000
| 28>  H        6.0713300000     0.0040040000     0.1239820000
| 29> *
| 30>
| 31>                          ****END OF INPUT****
 Total Charge           Charge          ....    0
 Multiplicity           Mult            ....    1
 Number of Electrons    NEL             ....   54
 Basis Dimension        Dim             ....  148

MULLIKEN ATOMIC CHARGES
-----------------------
   0 C :    0.063542
   1 C :   -0.108646
   2 C :   -0.029433
   3 C :   -0.112332
   4 C :   -0.034532
   5 C :    0.216643
   6 O :   -0.271104
   7 H :    0.008583
   8 H :    0.029361
   9 H :    0.033513
  10 H :    0.006920
  11 H :    0.014739
  12 H :    0.018764
  13 H :    0.010984
  14 H :    0.010841
  15 H :   -0.014262
  16 H :    0.156418
Sum of atomic charges:   -0.0000000

LOEWDIN ATOMIC CHARGES
----------------------
   0 C :   -0.055566
   1 C :   -0.022788
   2 C :   -0.056246
   3 C :   -0.033605
   4 C :   -0.047874
   5 C :    0.062288
   6 O :   -0.123430
   7 H :    0.031199
   8 H :    0.032961
   9 H :    0.034680
  10 H :    0.019664
  11 H :    0.022068
  12 H :    0.023589
  13 H :    0.020264
  14 H :    0.012762
  15 H :    0.008965
  16 H :    0.071069

  Mayer bond orders larger than 0.1
B(  0-C ,  1-C ) :   1.0827 B(  0-C ,  7-H ) :   0.9431 B(  0-C ,  8-H ) :   0.9455
B(  0-C ,  9-H ) :   0.9290 B(  1-C ,  2-C ) :   1.9573 B(  1-C ,  3-C ) :   1.0060
B(  2-C , 10-H ) :   0.9277 B(  2-C , 11-H ) :   0.9366 B(  3-C ,  4-C ) :   1.9558
B(  3-C ,  5-C ) :   1.0603 B(  4-C , 12-H ) :   0.9372 B(  4-C , 13-H ) :   0.9270
B(  5-C ,  6-O ) :   1.0862 B(  5-C , 14-H ) :   0.9077 B(  5-C , 15-H ) :   0.9127
B(  6-O , 16-H ) :   0.9784

FINAL SINGLE POINT ENERGY      -309.194516578700

DIPOLE MOMENT
-------------
                                X             Y             Z
Electronic contribution:      1.75941       1.02866       1.58284
Nuclear contribution   :     -1.30129      -1.57612      -1.77375
                        -----------------------------------------
Total Dipole Moment    :      0.45813      -0.54746      -0.19090
                        -----------------------------------------
Magnitude (a.u.)       :      0.73894
Magnitude (Debye)      :      1.87824

                             ****ORCA TERMINATED NORMALLY****
TOTAL RUN TIME: 0 days 0 hours 0 minutes 7 seconds 957 msec
