                         Program Version 3.0.3 - RELEASE   -
|  1> ! RI PBE def2-SVP def2-SVP/J NBO PAL2
|  2> % maxcore 2000
|  3> % output
|  4>     # printlevel mini
|  5>     print[ P_Basis ] 0
|  6>     print[ P_SCFInfo ] 1
|  7>     print[ P_SCFIterInfo ] 1
|  8>     print[ P_OrbEn ] 0
|  9>     print[ P_Cartesian ] 0
| 10> end
| 11> *xyz 0 1
| 12>  C        1.1007870000     0.0031890000    -0.1525410000
| 13>  C        2.5920800000     0.0360460000    -0.0020180000
| 14>  C        3.1982800000     0.7381980000     0.9532240000
| 15>  C        3.3762150000    -0.7669640000    -0.9656370000
| 16>  C        4.2763070000    -1.6816680000    -0.6015390000
| 17>  C        3.1639250000    -0.5204030000    -2.4209450000
| 18>  O        3.6786800000    -1.1544270000    -3.3044160000
| 19>  H        0.6157430000     0.6460450000     0.5825110000
| 20>  H        0.7242440000    -1.0166450000    -0.0273880000
| 21>  H        0.7879550000     0.3311240000    -1.1485250000
| 22>  H        2.6294320000     1.3140830000     1.6750710000
| 23>  H        4.2787600000     0.7666500000     1.0315810000
| 24>  H        4.4631900000    -1.9070290000     0.4415230000
| 25>  H        4.8330730000    -2.2210700000    -1.3598300000
| 26>  H        2.4971480000     0.3328710000    -2.6623710000
| 27> *
| 28>
| 29>                          ****END OF INPUT****
 Total Charge           Charge          ....    0
 Multiplicity           Mult            ....    1
 Number of Electrons    NEL             ....   52
 Basis Dimension        Dim             ....  138

MULLIKEN ATOMIC CHARGES
-----------------------
   0 C :    0.069517
   1 C :   -0.145309
   2 C :   -0.015622
   3 C :   -0.100203
   4 C :    0.019639
   5 C :    0.139027
   6 O :   -0.154542
   7 H :    0.022497
   8 H :    0.039129
   9 H :    0.030639
  10 H :    0.016159
  11 H :    0.020161
  12 H :    0.031635
  13 H :    0.040184
  14 H :   -0.012910
Sum of atomic charges:   -0.0000000

LOEWDIN ATOMIC CHARGES
----------------------
   0 C :   -0.051183
   1 C :   -0.034123
   2 C :   -0.052682
   3 C :   -0.082499
   4 C :    0.025237
   5 C :    0.088438
   6 O :   -0.103177
   7 H :    0.034658
   8 H :    0.040805
   9 H :    0.034910
  10 H :    0.023120
  11 H :    0.024640
  12 H :    0.030116
  13 H :    0.031644
  14 H :   -0.009905

  Mayer bond orders larger than 0.1
B(  0-C ,  1-C ) :   1.0797 B(  0-C ,  7-H ) :   0.9499 B(  0-C ,  8-H ) :   0.9431
B(  0-C ,  9-H ) :   0.9395 B(  1-C ,  2-C ) :   1.9669 B(  1-C ,  3-C ) :   0.9830
B(  2-C , 10-H ) :   0.9331 B(  2-C , 11-H ) :   0.9403 B(  3-C ,  4-C ) :   1.9176
B(  3-C ,  5-C ) :   0.9559 B(  4-C , 12-H ) :   0.9389 B(  4-C , 13-H ) :   0.9212
B(  5-C ,  6-O ) :   2.1528 B(  5-C , 14-H ) :   0.9307

FINAL SINGLE POINT ENERGY      -308.002628732839

DIPOLE MOMENT
-------------
                                X             Y             Z
Electronic contribution:      2.92484      -1.72949      -4.97150
Nuclear contribution   :     -3.28909       1.97987       5.82286
                        -----------------------------------------
Total Dipole Moment    :     -0.36425       0.25038       0.85135
                        -----------------------------------------
Magnitude (a.u.)       :      0.95926
Magnitude (Debye)      :      2.43823

                             ****ORCA TERMINATED NORMALLY****
TOTAL RUN TIME: 0 days 0 hours 0 minutes 6 seconds 975 msec
