                         Program Version 3.0.3 - RELEASE   -
|  1> ! RI PBE def2-SVP def2-SVP/J NBO PAL2
|  2> % maxcore 2000
|  3> % output
|  4>     # printlevel mini
|  5>     print[ P_Basis ] 0
|  6>     print[ P_SCFInfo ] 1
|  7>     print[ P_SCFIterInfo ] 1
|  8>     print[ P_OrbEn ] 0
|  9>     print[ P_Cartesian ] 0
| 10> end
| 11> *xyz 0 1
| 12>  C        3.0380430000    -0.7153450000     1.2962640000
| 13>  C        2.4046350000    -0.0875070000     0.0912490000
| 14>  C        1.2613560000     0.5817510000     0.1933240000
| 15>  C        3.1407550000    -0.2830860000    -1.2310130000
| 16>  C        2.8838290000    -1.6952760000    -1.7566960000
| 17>  C        2.7592140000     0.7389560000    -2.2855150000
| 18>  O        4.5435530000    -0.0960250000    -1.0366560000
| 19>  H        2.3847800000    -0.6369050000     2.1655500000
| 20>  H        3.9831680000    -0.2211910000     1.5397650000
| 21>  H        3.2566660000    -1.7771390000     1.1395610000
| 22>  H        0.7527810000     0.6715300000     1.1472300000
| 23>  H        0.7908670000     1.0647460000    -0.6536130000
| 24>  H        1.8228490000    -1.8467400000    -1.9637900000
| 25>  H        3.1938170000    -2.4531320000    -1.0316410000
| 26>  H        3.4514690000    -1.8520210000    -2.6766820000
| 27>  H        1.7143290000     0.6383820000    -2.5805670000
| 28>  H        3.3813370000     0.5834670000    -3.1682750000
| 29>  H        2.9276450000     1.7513730000    -1.9161440000
| 30>  H        4.8782860000    -0.8253490000    -0.5079520000
| 31> *
| 32>
| 33>                          ****END OF INPUT****
 Total Charge           Charge          ....    0
 Multiplicity           Mult            ....    1
 Number of Electrons    NEL             ....   56
 Basis Dimension        Dim             ....  158

MULLIKEN ATOMIC CHARGES
-----------------------
   0 C :    0.028349
   1 C :   -0.100270
   2 C :   -0.038489
   3 C :   -0.099013
   4 C :    0.074104
   5 C :    0.059461
   6 O :   -0.259060
   7 H :    0.018828
   8 H :    0.036634
   9 H :    0.022520
  10 H :    0.002685
  11 H :    0.009479
  12 H :    0.017843
  13 H :   -0.001206
  14 H :    0.021506
  15 H :    0.018594
  16 H :    0.015730
  17 H :    0.025823
  18 H :    0.146483
Sum of atomic charges:   -0.0000000

LOEWDIN ATOMIC CHARGES
----------------------
   0 C :   -0.064748
   1 C :   -0.031311
   2 C :   -0.075812
   3 C :    0.023313
   4 C :   -0.060740
   5 C :   -0.053254
   6 O :   -0.101073
   7 H :    0.034470
   8 H :    0.035842
   9 H :    0.028373
  10 H :    0.019719
  11 H :    0.019807
  12 H :    0.031720
  13 H :    0.018990
  14 H :    0.028002
  15 H :    0.027006
  16 H :    0.029695
  17 H :    0.030788
  18 H :    0.059214

  Mayer bond orders larger than 0.1
B(  0-C ,  1-C ) :   1.0838 B(  0-C ,  7-H ) :   0.9430 B(  0-C ,  8-H ) :   0.9327
B(  0-C ,  9-H ) :   0.9427 B(  1-C ,  2-C ) :   2.0157 B(  1-C ,  3-C ) :   0.9253
B(  2-C , 10-H ) :   0.9229 B(  2-C , 11-H ) :   0.9254 B(  3-C ,  4-C ) :   1.0582
B(  3-C ,  5-C ) :   1.0789 B(  3-C ,  6-O ) :   1.0358 B(  4-C , 12-H ) :   0.9485
B(  4-C , 13-H ) :   0.9418 B(  4-C , 14-H ) :   0.9495 B(  5-C , 15-H ) :   0.9458
B(  5-C , 16-H ) :   0.9470 B(  5-C , 17-H ) :   0.9507 B(  6-O , 18-H ) :   0.9769

FINAL SINGLE POINT ENERGY      -310.420128181643

DIPOLE MOMENT
-------------
                                X             Y             Z
Electronic contribution:      2.08406       1.37789       0.36270
Nuclear contribution   :     -2.21581      -1.89781      -0.17286
                        -----------------------------------------
Total Dipole Moment    :     -0.13175      -0.51991       0.18985
                        -----------------------------------------
Magnitude (a.u.)       :      0.56895
Magnitude (Debye)      :      1.44617

                             ****ORCA TERMINATED NORMALLY****
TOTAL RUN TIME: 0 days 0 hours 0 minutes 8 seconds 521 msec
