                         Program Version 3.0.3 - RELEASE   -
|  1> ! RI PBE def2-SVP def2-SVP/J NBO PAL2
|  2> % maxcore 2000
|  3> % output
|  4>     # printlevel mini
|  5>     print[ P_Basis ] 0
|  6>     print[ P_SCFInfo ] 1
|  7>     print[ P_SCFIterInfo ] 1
|  8>     print[ P_OrbEn ] 0
|  9>     print[ P_Cartesian ] 0
| 10> end
| 11> *xyz 0 1
| 12>  C        1.0448850000    -0.1906190000     0.2609720000
| 13>  C        2.5178190000     0.0353550000     0.0816810000
| 14>  C        3.1791920000     1.0228690000     0.6907770000
| 15>  C        3.1898050000    -0.8697820000    -0.7908060000
| 16>  C        3.7204790000    -1.6613620000    -1.5304630000
| 17>  C        4.3780180000    -2.5777840000    -2.4521890000
| 18>  O        5.5824130000    -2.0737460000    -2.9896560000
| 19>  H        0.6200160000     0.5450360000     0.9446280000
| 20>  H        0.8547210000    -1.1910890000     0.6582460000
| 21>  H        0.5246260000    -0.1229650000    -0.6980610000
| 22>  H        2.6612290000     1.7131300000     1.3463730000
| 23>  H        4.2432330000     1.1622670000     0.5480520000
| 24>  H        3.6714330000    -2.8519550000    -3.2485060000
| 25>  H        4.6423840000    -3.5013500000    -1.9295430000
| 26>  H        5.4105480000    -1.1883960000    -3.3216940000
| 27> *
| 28>
| 29>                          ****END OF INPUT****
 Total Charge           Charge          ....    0
 Multiplicity           Mult            ....    1
 Number of Electrons    NEL             ....   52
 Basis Dimension        Dim             ....  138

MULLIKEN ATOMIC CHARGES
-----------------------
   0 C :    0.076578
   1 C :   -0.198574
   2 C :   -0.003218
   3 C :   -0.033074
   4 C :   -0.179269
   5 C :    0.263531
   6 O :   -0.280872
   7 H :    0.018002
   8 H :    0.038174
   9 H :    0.039048
  10 H :    0.017523
  11 H :    0.023781
  12 H :    0.026495
  13 H :    0.034349
  14 H :    0.157525
Sum of atomic charges:   -0.0000000

LOEWDIN ATOMIC CHARGES
----------------------
   0 C :   -0.044044
   1 C :   -0.049977
   2 C :   -0.042294
   3 C :   -0.035278
   4 C :   -0.074626
   5 C :    0.050296
   6 O :   -0.113872
   7 H :    0.032408
   8 H :    0.041110
   9 H :    0.040836
  10 H :    0.023872
  11 H :    0.028835
  12 H :    0.027247
  13 H :    0.044352
  14 H :    0.071135

  Mayer bond orders larger than 0.1
B(  0-C ,  1-C ) :   1.0746 B(  0-C ,  7-H ) :   0.9472 B(  0-C ,  8-H ) :   0.9469
B(  0-C ,  9-H ) :   0.9470 B(  1-C ,  2-C ) :   1.9079 B(  1-C ,  3-C ) :   1.0199
B(  2-C ,  4-C ) :   0.1153 B(  2-C , 10-H ) :   0.9318 B(  2-C , 11-H ) :   0.9400
B(  3-C ,  4-C ) :   2.5593 B(  4-C ,  5-C ) :   1.0258 B(  5-C ,  6-O ) :   1.0681
B(  5-C , 12-H ) :   0.9166 B(  5-C , 13-H ) :   0.8969 B(  6-O , 14-H ) :   0.9833

FINAL SINGLE POINT ENERGY      -307.960715111722

DIPOLE MOMENT
-------------
                                X             Y             Z
Electronic contribution:      3.79466      -1.62652      -2.36946
Nuclear contribution   :     -4.40117       1.87941       2.31332
                        -----------------------------------------
Total Dipole Moment    :     -0.60651       0.25289      -0.05615
                        -----------------------------------------
Magnitude (a.u.)       :      0.65951
Magnitude (Debye)      :      1.67635

                             ****ORCA TERMINATED NORMALLY****
TOTAL RUN TIME: 0 days 0 hours 0 minutes 6 seconds 796 msec
