                         Program Version 3.0.3 - RELEASE   -
|  1> ! RI PBE def2-SVP def2-SVP/J NBO PAL2
|  2> % maxcore 2000
|  3> % output
|  4>     # printlevel mini
|  5>     print[ P_Basis ] 0
|  6>     print[ P_SCFInfo ] 1
|  7>     print[ P_SCFIterInfo ] 1
|  8>     print[ P_OrbEn ] 0
|  9>     print[ P_Cartesian ] 0
| 10> end
| 11> *xyz 0 1
| 12>  C        0.9553600000    -0.0856650000     0.0789750000
| 13>  C        2.4536570000    -0.0238430000     0.0369800000
| 14>  C        3.1371970000     0.7236790000    -0.8356690000
| 15>  C        3.1510410000    -0.8145890000     0.9905510000
| 16>  C        3.6835010000    -1.5087640000     1.8257000000
| 17>  C        4.3850180000    -2.3085840000     2.7894290000
| 18>  O        3.8488480000    -3.0100220000     3.6108250000
| 19>  H        0.5196360000     0.5536020000    -0.6891970000
| 20>  H        0.5852520000     0.2334240000     1.0563070000
| 21>  H        0.6090120000    -1.1104300000    -0.0754970000
| 22>  H        2.6205430000     1.3323890000    -1.5687520000
| 23>  H        4.2195960000     0.7424950000    -0.8349470000
| 24>  H        5.4878370000    -2.2369010000     2.7271850000
| 25> *
| 26>
| 27>                          ****END OF INPUT****
 Total Charge           Charge          ....    0
 Multiplicity           Mult            ....    1
 Number of Electrons    NEL             ....   50
 Basis Dimension        Dim             ....  128

MULLIKEN ATOMIC CHARGES
-----------------------
   0 C :    0.084177
   1 C :   -0.198086
   2 C :    0.016921
   3 C :    0.032454
   4 C :   -0.048019
   5 C :    0.065357
   6 O :   -0.154606
   7 H :    0.022066
   8 H :    0.048442
   9 H :    0.048251
  10 H :    0.029224
  11 H :    0.037324
  12 H :    0.016494
Sum of atomic charges:   -0.0000000

LOEWDIN ATOMIC CHARGES
----------------------
   0 C :   -0.041145
   1 C :   -0.050200
   2 C :   -0.006991
   3 C :    0.015803
   4 C :   -0.076000
   5 C :    0.061399
   6 O :   -0.096651
   7 H :    0.034641
   8 H :    0.046081
   9 H :    0.045944
  10 H :    0.029307
  11 H :    0.034113
  12 H :    0.003698

  Mayer bond orders larger than 0.1
B(  0-C ,  1-C ) :   1.0709 B(  0-C ,  7-H ) :   0.9473 B(  0-C ,  8-H ) :   0.9464
B(  0-C ,  9-H ) :   0.9468 B(  1-C ,  2-C ) :   1.8768 B(  1-C ,  3-C ) :   1.0395
B(  2-C ,  4-C ) :   0.1069 B(  2-C , 10-H ) :   0.9332 B(  2-C , 11-H ) :   0.9419
B(  3-C ,  4-C ) :   2.4765 B(  3-C ,  6-O ) :   0.1086 B(  4-C ,  5-C ) :   0.9099
B(  5-C ,  6-O ) :   2.1257 B(  5-C , 12-H ) :   0.9441

FINAL SINGLE POINT ENERGY      -306.766090529581

DIPOLE MOMENT
-------------
                                X             Y             Z
Electronic contribution:      3.97373      -4.40005       5.30504
Nuclear contribution   :     -4.10731       5.31130      -6.39038
                        -----------------------------------------
Total Dipole Moment    :     -0.13358       0.91125      -1.08534
                        -----------------------------------------
Magnitude (a.u.)       :      1.42344
Magnitude (Debye)      :      3.61809

                             ****ORCA TERMINATED NORMALLY****
TOTAL RUN TIME: 0 days 0 hours 0 minutes 6 seconds 151 msec
