                         Program Version 3.0.3 - RELEASE   -
|  1> ! RI PBE def2-SVP def2-SVP/J NBO PAL2
|  2> % maxcore 2000
|  3> % output
|  4>     # printlevel mini
|  5>     print[ P_Basis ] 0
|  6>     print[ P_SCFInfo ] 1
|  7>     print[ P_SCFIterInfo ] 1
|  8>     print[ P_OrbEn ] 0
|  9>     print[ P_Cartesian ] 0
| 10> end
| 11> *xyz 0 1
| 12>  C        4.2478330000     1.9027960000     1.1212060000
| 13>  C        3.4053480000     1.0712720000     0.2080680000
| 14>  C        2.4489450000     1.5883960000    -0.5579550000
| 15>  C        3.7059430000    -0.4068530000     0.1937980000
| 16>  C        5.0272510000    -0.6672030000    -0.5156220000
| 17>  C        4.9569800000    -0.8723890000    -2.0029720000
| 18>  O        6.0700800000    -0.6845510000     0.0892850000
| 19>  H        4.0198580000     2.9639480000     1.0165800000
| 20>  H        5.3126690000     1.7473080000     0.9273540000
| 21>  H        4.0799950000     1.6132590000     2.1637720000
| 22>  H        2.2404380000     2.6525840000    -0.5560290000
| 23>  H        1.8365760000     0.9669300000    -1.2025040000
| 24>  H        2.8988790000    -0.9438840000    -0.3093210000
| 25>  H        3.8068490000    -0.7794770000     1.2166040000
| 26>  H        4.4590630000    -1.8246120000    -2.2117210000
| 27>  H        5.9579450000    -0.8862590000    -2.4301660000
| 28>  H        4.3543570000    -0.0881640000    -2.4678670000
| 29> *
| 30>
| 31>                          ****END OF INPUT****
 Total Charge           Charge          ....    0
 Multiplicity           Mult            ....    1
 Number of Electrons    NEL             ....   54
 Basis Dimension        Dim             ....  148

MULLIKEN ATOMIC CHARGES
-----------------------
   0 C :    0.061092
   1 C :   -0.220031
   2 C :   -0.033451
   3 C :    0.130749
   4 C :   -0.080433
   5 C :    0.028326
   6 O :   -0.163027
   7 H :    0.020573
   8 H :    0.047443
   9 H :    0.034135
  10 H :    0.013645
  11 H :    0.010498
  12 H :    0.004620
  13 H :    0.021581
  14 H :    0.042737
  15 H :    0.038760
  16 H :    0.042785
Sum of atomic charges:    0.0000000

LOEWDIN ATOMIC CHARGES
----------------------
   0 C :   -0.058509
   1 C :   -0.022507
   2 C :   -0.081378
   3 C :   -0.054228
   4 C :    0.063155
   5 C :   -0.087109
   6 O :   -0.121563
   7 H :    0.032076
   8 H :    0.040386
   9 H :    0.040548
  10 H :    0.022609
  11 H :    0.019342
  12 H :    0.033243
  13 H :    0.041338
  14 H :    0.049136
  15 H :    0.038194
  16 H :    0.045269

  Mayer bond orders larger than 0.1
B(  0-C ,  1-C ) :   1.0845 B(  0-C ,  7-H ) :   0.9499 B(  0-C ,  8-H ) :   0.9370
B(  0-C ,  9-H ) :   0.9381 B(  1-C ,  2-C ) :   1.9671 B(  1-C ,  3-C ) :   1.0607
B(  2-C , 10-H ) :   0.9327 B(  2-C , 11-H ) :   0.9376 B(  3-C ,  4-C ) :   0.9496
B(  3-C , 12-H ) :   0.9074 B(  3-C , 13-H ) :   0.8935 B(  4-C ,  5-C ) :   1.0362
B(  4-C ,  6-O ) :   2.1591 B(  5-C , 14-H ) :   0.9325 B(  5-C , 15-H ) :   0.9497
B(  5-C , 16-H ) :   0.9399

FINAL SINGLE POINT ENERGY      -309.232599511374

DIPOLE MOMENT
-------------
                                X             Y             Z
Electronic contribution:      3.07750      -2.58183       1.21440
Nuclear contribution   :     -3.77118       2.59337      -1.59222
                        -----------------------------------------
Total Dipole Moment    :     -0.69368       0.01154      -0.37782
                        -----------------------------------------
Magnitude (a.u.)       :      0.78998
Magnitude (Debye)      :      2.00797

                             ****ORCA TERMINATED NORMALLY****
TOTAL RUN TIME: 0 days 0 hours 0 minutes 6 seconds 703 msec
