                         Program Version 3.0.3 - RELEASE   -
|  1> ! RI PBE def2-SVP def2-SVP/J NBO PAL2
|  2> % maxcore 2000
|  3> % output
|  4>     # printlevel mini
|  5>     print[ P_Basis ] 0
|  6>     print[ P_SCFInfo ] 1
|  7>     print[ P_SCFIterInfo ] 1
|  8>     print[ P_OrbEn ] 0
|  9>     print[ P_Cartesian ] 0
| 10> end
| 11> *xyz 0 1
| 12>  C        1.4766870000     1.1509240000     0.8608250000
| 13>  C        2.9511910000     0.9139380000     0.7520790000
| 14>  C        3.8317310000     1.7266070000     1.3289980000
| 15>  C        3.3248720000    -0.2978470000    -0.0502240000
| 16>  C        4.8027710000    -0.5817140000    -0.1903310000
| 17>  C        5.1178320000    -1.8022490000    -1.0004940000
| 18>  O        4.3039460000    -2.5212850000    -1.5122840000
| 19>  H        1.2527290000     2.0399620000     1.4511470000
| 20>  H        0.9784150000     0.2934520000     1.3250470000
| 21>  H        1.0284360000     1.2727200000    -0.1307750000
| 22>  H        3.5035000000     2.5893250000     1.8980450000
| 23>  H        4.9016740000     1.5713010000     1.2612940000
| 24>  H        2.8799190000    -0.2102020000    -1.0487530000
| 25>  H        2.8305880000    -1.1747310000     0.3850690000
| 26>  H        5.2885170000    -0.7137060000     0.7860650000
| 27>  H        5.3381440000     0.2566270000    -0.6564650000
| 28>  H        6.2041570000    -2.0176330000    -1.1081530000
| 29> *
| 30>
| 31>                          ****END OF INPUT****
 Total Charge           Charge          ....    0
 Multiplicity           Mult            ....    1
 Number of Electrons    NEL             ....   54
 Basis Dimension        Dim             ....  148

MULLIKEN ATOMIC CHARGES
-----------------------
   0 C :    0.056745
   1 C :   -0.208312
   2 C :   -0.033622
   3 C :    0.075923
   4 C :   -0.033719
   5 C :    0.083716
   6 O :   -0.162455
   7 H :    0.016251
   8 H :    0.030523
   9 H :    0.029336
  10 H :    0.003267
  11 H :    0.007909
  12 H :    0.026645
  13 H :    0.025542
  14 H :    0.044434
  15 H :    0.045026
  16 H :   -0.007210
Sum of atomic charges:   -0.0000000

LOEWDIN ATOMIC CHARGES
----------------------
   0 C :   -0.054576
   1 C :   -0.028975
   2 C :   -0.089323
   3 C :   -0.034908
   4 C :   -0.083059
   5 C :    0.092709
   6 O :   -0.109760
   7 H :    0.031123
   8 H :    0.036224
   9 H :    0.036082
  10 H :    0.021033
  11 H :    0.016294
  12 H :    0.040644
  13 H :    0.040418
  14 H :    0.048602
  15 H :    0.048777
  16 H :   -0.011305

  Mayer bond orders larger than 0.1
B(  0-C ,  1-C ) :   1.0897 B(  0-C ,  7-H ) :   0.9494 B(  0-C ,  8-H ) :   0.9473
B(  0-C ,  9-H ) :   0.9465 B(  1-C ,  2-C ) :   1.9906 B(  1-C ,  3-C ) :   1.0252
B(  2-C , 10-H ) :   0.9257 B(  2-C , 11-H ) :   0.9257 B(  3-C ,  4-C ) :   1.0983
B(  3-C , 12-H ) :   0.9097 B(  3-C , 13-H ) :   0.9107 B(  4-C ,  5-C ) :   0.9672
B(  4-C , 14-H ) :   0.8961 B(  4-C , 15-H ) :   0.8969 B(  5-C ,  6-O ) :   2.1839
B(  5-C , 16-H ) :   0.9314

FINAL SINGLE POINT ENERGY      -309.222570226305

DIPOLE MOMENT
-------------
                                X             Y             Z
Electronic contribution:      2.72390      -5.30396      -3.48011
Nuclear contribution   :     -2.46861       5.83718       3.84167
                        -----------------------------------------
Total Dipole Moment    :      0.25529       0.53322       0.36156
                        -----------------------------------------
Magnitude (a.u.)       :      0.69298
Magnitude (Debye)      :      1.76142

                             ****ORCA TERMINATED NORMALLY****
TOTAL RUN TIME: 0 days 0 hours 0 minutes 7 seconds 873 msec
