                         Program Version 3.0.3 - RELEASE   -
|  1> ! RI PBE def2-SVP def2-SVP/J NBO PAL2
|  2> % maxcore 2000
|  3> % output
|  4>     # printlevel mini
|  5>     print[ P_Basis ] 0
|  6>     print[ P_SCFInfo ] 1
|  7>     print[ P_SCFIterInfo ] 1
|  8>     print[ P_OrbEn ] 0
|  9>     print[ P_Cartesian ] 0
| 10> end
| 11> *xyz 0 1
| 12>  C        1.0090610000    -0.0930300000     0.0277110000
| 13>  C        2.5015630000    -0.0390650000    -0.0992260000
| 14>  C        3.0591400000     0.0787310000    -1.4426060000
| 15>  C        2.3490330000     0.0997540000    -2.5708740000
| 16>  C        3.2691760000    -0.1054400000     1.0016050000
| 17>  C        4.7557340000    -0.0615360000     1.1025840000
| 18>  O        5.1878070000     0.9681360000     1.9774410000
| 19>  H        0.6001320000    -0.9604510000    -0.4991900000
| 20>  H        0.5437030000     0.7951070000    -0.4098530000
| 21>  H        0.7085990000    -0.1585610000     1.0734180000
| 22>  H        4.1383740000     0.1573060000    -1.5215050000
| 23>  H        1.2683580000     0.0185920000    -2.5783650000
| 24>  H        2.8367630000     0.1963150000    -3.5333220000
| 25>  H        2.7695370000    -0.1814310000     1.9655440000
| 26>  H        5.2368870000     0.0314110000     0.1234250000
| 27>  H        5.1227930000    -0.9899000000     1.5514270000
| 28>  H        4.8001400000     1.7921720000     1.6699960000
| 29> *
| 30>
| 31>                          ****END OF INPUT****
 Total Charge           Charge          ....    0
 Multiplicity           Mult            ....    1
 Number of Electrons    NEL             ....   54
 Basis Dimension        Dim             ....  148

MULLIKEN ATOMIC CHARGES
-----------------------
   0 C :    0.046551
   1 C :   -0.049284
   2 C :   -0.023296
   3 C :   -0.040489
   4 C :   -0.192804
   5 C :    0.283713
   6 O :   -0.298773
   7 H :    0.039544
   8 H :    0.036760
   9 H :    0.014766
  10 H :   -0.015914
  11 H :    0.020830
  12 H :    0.021747
  13 H :   -0.006451
  14 H :   -0.000664
  15 H :    0.013257
  16 H :    0.150508
Sum of atomic charges:   -0.0000000

LOEWDIN ATOMIC CHARGES
----------------------
   0 C :   -0.054030
   1 C :   -0.038504
   2 C :   -0.034362
   3 C :   -0.051931
   4 C :   -0.062622
   5 C :    0.055323
   6 O :   -0.122285
   7 H :    0.037797
   8 H :    0.036445
   9 H :    0.031438
  10 H :    0.025168
  11 H :    0.021739
  12 H :    0.025758
  13 H :    0.024474
  14 H :    0.007929
  15 H :    0.031093
  16 H :    0.066570

  Mayer bond orders larger than 0.1
B(  0-C ,  1-C ) :   1.0937 B(  0-C ,  7-H ) :   0.9375 B(  0-C ,  8-H ) :   0.9393
B(  0-C ,  9-H ) :   0.9492 B(  1-C ,  2-C ) :   1.1271 B(  1-C ,  4-C ) :   1.7364
B(  2-C ,  3-C ) :   1.9006 B(  2-C , 10-H ) :   0.9518 B(  3-C ,  4-C ) :   0.1304
B(  3-C , 11-H ) :   0.9391 B(  3-C , 12-H ) :   0.9406 B(  4-C ,  5-C ) :   1.0748
B(  4-C , 13-H ) :   0.9399 B(  5-C ,  6-O ) :   1.0162 B(  5-C , 14-H ) :   0.9287
B(  5-C , 15-H ) :   0.9069 B(  6-O , 16-H ) :   0.9857

FINAL SINGLE POINT ENERGY      -309.201035704215

DIPOLE MOMENT
-------------
                                X             Y             Z
Electronic contribution:      3.34476       0.84231       2.13707
Nuclear contribution   :     -3.76623      -0.74033      -2.53859
                        -----------------------------------------
Total Dipole Moment    :     -0.42147       0.10197      -0.40152
                        -----------------------------------------
Magnitude (a.u.)       :      0.59097
Magnitude (Debye)      :      1.50214

                             ****ORCA TERMINATED NORMALLY****
TOTAL RUN TIME: 0 days 0 hours 0 minutes 7 seconds 352 msec
