                         Program Version 3.0.3 - RELEASE   -
|  1> ! RI PBE def2-SVP def2-SVP/J NBO PAL2
|  2> % maxcore 2000
|  3> % output
|  4>     # printlevel mini
|  5>     print[ P_Basis ] 0
|  6>     print[ P_SCFInfo ] 1
|  7>     print[ P_SCFIterInfo ] 1
|  8>     print[ P_OrbEn ] 0
|  9>     print[ P_Cartesian ] 0
| 10> end
| 11> *xyz 0 1
| 12>  C        1.2922690000    -0.0937510000    -0.0009560000
| 13>  C        2.7836790000    -0.2164650000    -0.0049820000
| 14>  C        3.5082960000     1.0565720000    -0.0527620000
| 15>  C        4.5264820000     1.3358870000    -0.8613810000
| 16>  C        3.3802090000    -1.4226450000     0.0340110000
| 17>  C        4.8119260000    -1.6629350000     0.1909660000
| 18>  O        5.3118780000    -2.7610670000     0.1021380000
| 19>  H        0.9447290000     0.4262110000    -0.8987250000
| 20>  H        0.9643620000     0.5062260000     0.8543170000
| 21>  H        0.8070110000    -1.0679970000     0.0525420000
| 22>  H        3.1134930000     1.8455650000     0.5856260000
| 23>  H        4.9064060000     0.6081310000    -1.5697060000
| 24>  H        4.9924300000     2.3143120000    -0.8572970000
| 25>  H        2.7708140000    -2.3218250000     0.0076640000
| 26>  H        5.4307150000    -0.7800100000     0.4400450000
| 27> *
| 28>
| 29>                          ****END OF INPUT****
 Total Charge           Charge          ....    0
 Multiplicity           Mult            ....    1
 Number of Electrons    NEL             ....   52
 Basis Dimension        Dim             ....  138

MULLIKEN ATOMIC CHARGES
-----------------------
   0 C :    0.048531
   1 C :   -0.071729
   2 C :   -0.039534
   3 C :   -0.028282
   4 C :   -0.043187
   5 C :    0.113783
   6 O :   -0.183362
   7 H :    0.048057
   8 H :    0.044034
   9 H :    0.027202
  10 H :    0.017364
  11 H :    0.047040
  12 H :    0.037601
  13 H :   -0.001932
  14 H :   -0.015588
Sum of atomic charges:   -0.0000000

LOEWDIN ATOMIC CHARGES
----------------------
   0 C :   -0.048685
   1 C :    0.001891
   2 C :   -0.028310
   3 C :   -0.024345
   4 C :   -0.076530
   5 C :    0.060390
   6 O :   -0.127856
   7 H :    0.044402
   8 H :    0.043966
   9 H :    0.035185
  10 H :    0.034926
  11 H :    0.030775
  12 H :    0.030984
  13 H :    0.033395
  14 H :   -0.010187

  Mayer bond orders larger than 0.1
B(  0-C ,  1-C ) :   1.0721 B(  0-C ,  7-H ) :   0.9422 B(  0-C ,  8-H ) :   0.9431
B(  0-C ,  9-H ) :   0.9542 B(  1-C ,  2-C ) :   1.0677 B(  1-C ,  4-C ) :   1.6830
B(  2-C ,  3-C ) :   1.9394 B(  2-C , 10-H ) :   0.9390 B(  3-C , 11-H ) :   0.9552
B(  3-C , 12-H ) :   0.9413 B(  4-C ,  5-C ) :   1.0547 B(  4-C , 13-H ) :   0.9478
B(  5-C ,  6-O ) :   2.0841 B(  5-C , 14-H ) :   0.9274

FINAL SINGLE POINT ENERGY      -308.007566774475

DIPOLE MOMENT
-------------
                                X             Y             Z
Electronic contribution:      4.14991      -4.41530       0.63109
Nuclear contribution   :     -5.08338       5.67298      -0.66381
                        -----------------------------------------
Total Dipole Moment    :     -0.93347       1.25769      -0.03272
                        -----------------------------------------
Magnitude (a.u.)       :      1.56659
Magnitude (Debye)      :      3.98196

                             ****ORCA TERMINATED NORMALLY****
TOTAL RUN TIME: 0 days 0 hours 0 minutes 6 seconds 771 msec
