                         Program Version 3.0.3 - RELEASE   -
|  1> ! RI PBE def2-SVP def2-SVP/J NBO PAL2
|  2> % maxcore 2000
|  3> % output
|  4>     # printlevel mini
|  5>     print[ P_Basis ] 0
|  6>     print[ P_SCFInfo ] 1
|  7>     print[ P_SCFIterInfo ] 1
|  8>     print[ P_OrbEn ] 0
|  9>     print[ P_Cartesian ] 0
| 10> end
| 11> *xyz 0 1
| 12>  C        1.2105420000    -0.3840870000     0.1173740000
| 13>  C        2.4858780000     0.4462310000     0.0862340000
| 14>  C        2.6424100000     1.1665520000    -1.2222990000
| 15>  C        3.6919810000     1.0727510000    -2.0266000000
| 16>  C        2.4872100000     1.5037270000     1.1928960000
| 17>  C        3.8354910000     1.9335190000     1.6988930000
| 18>  O        1.4609310000     1.9718360000     1.6166020000
| 19>  H        1.2135590000    -1.1159120000    -0.6923180000
| 20>  H        0.3357340000     0.2580620000     0.0082040000
| 21>  H        1.1133310000    -0.9142810000     1.0670780000
| 22>  H        3.3640940000    -0.1931910000     0.2293310000
| 23>  H        1.8066990000     1.8075030000    -1.4981440000
| 24>  H        4.5400840000     0.4396220000    -1.7835360000
| 25>  H        3.7378170000     1.6184580000    -2.9618780000
| 26>  H        4.5171150000     2.1234500000     0.8665020000
| 27>  H        4.2689740000     1.1206520000     2.2905720000
| 28>  H        3.7400510000     2.8198190000     2.3235900000
| 29> *
| 30>
| 31>                          ****END OF INPUT****
 Total Charge           Charge          ....    0
 Multiplicity           Mult            ....    1
 Number of Electrons    NEL             ....   54
 Basis Dimension        Dim             ....  148

MULLIKEN ATOMIC CHARGES
-----------------------
   0 C :    0.035279
   1 C :   -0.068783
   2 C :   -0.048020
   3 C :   -0.020330
   4 C :   -0.040538
   5 C :    0.032307
   6 O :   -0.160042
   7 H :    0.025329
   8 H :    0.033142
   9 H :    0.023532
  10 H :    0.000715
  11 H :    0.014925
  12 H :    0.019989
  13 H :    0.028298
  14 H :    0.038233
  15 H :    0.047438
  16 H :    0.038526
Sum of atomic charges:   -0.0000000

LOEWDIN ATOMIC CHARGES
----------------------
   0 C :   -0.049762
   1 C :   -0.072258
   2 C :   -0.015363
   3 C :   -0.060532
   4 C :    0.067873
   5 C :   -0.088722
   6 O :   -0.116974
   7 H :    0.029385
   8 H :    0.030863
   9 H :    0.030530
  10 H :    0.030680
  11 H :    0.030799
  12 H :    0.022565
  13 H :    0.027948
  14 H :    0.043927
  15 H :    0.050205
  16 H :    0.038836

  Mayer bond orders larger than 0.1
B(  0-C ,  1-C ) :   1.0614 B(  0-C ,  7-H ) :   0.9603 B(  0-C ,  8-H ) :   0.9549
B(  0-C ,  9-H ) :   0.9610 B(  1-C ,  2-C ) :   1.0162 B(  1-C ,  4-C ) :   0.8840
B(  1-C , 10-H ) :   0.9056 B(  2-C ,  3-C ) :   2.0009 B(  2-C , 11-H ) :   0.9520
B(  3-C , 12-H ) :   0.9454 B(  3-C , 13-H ) :   0.9391 B(  4-C ,  5-C ) :   1.0537
B(  4-C ,  6-O ) :   2.1907 B(  5-C , 14-H ) :   0.9353 B(  5-C , 15-H ) :   0.9331
B(  5-C , 16-H ) :   0.9452

FINAL SINGLE POINT ENERGY      -309.227889119324

DIPOLE MOMENT
-------------
                                X             Y             Z
Electronic contribution:     -2.31247       2.50030       2.09876
Nuclear contribution   :      3.08131      -2.88725      -2.40259
                        -----------------------------------------
Total Dipole Moment    :      0.76884      -0.38695      -0.30383
                        -----------------------------------------
Magnitude (a.u.)       :      0.91277
Magnitude (Debye)      :      2.32009

                             ****ORCA TERMINATED NORMALLY****
TOTAL RUN TIME: 0 days 0 hours 0 minutes 7 seconds 479 msec
