                         Program Version 3.0.3 - RELEASE   -
|  1> ! RI PBE def2-SVP def2-SVP/J NBO PAL2
|  2> % maxcore 2000
|  3> % output
|  4>     # printlevel mini
|  5>     print[ P_Basis ] 0
|  6>     print[ P_SCFInfo ] 1
|  7>     print[ P_SCFIterInfo ] 1
|  8>     print[ P_OrbEn ] 0
|  9>     print[ P_Cartesian ] 0
| 10> end
| 11> *xyz 0 1
| 12>  C        3.8591890000    -2.3962950000    -0.7225280000
| 13>  C        3.4690930000    -0.9893130000    -1.1554440000
| 14>  C        2.0884390000    -0.9917670000    -1.7969910000
| 15>  C        3.5181010000     0.0081330000     0.0011980000
| 16>  C        4.8940670000     0.2184390000     0.6152350000
| 17>  C        4.9278250000     1.3289060000     1.6501150000
| 18>  O        4.1451330000     1.0564980000     2.7953160000
| 19>  H        3.8015550000    -3.0923560000    -1.5632450000
| 20>  H        3.1819070000    -2.7614400000     0.0566980000
| 21>  H        4.8760630000    -2.4402320000    -0.3274730000
| 22>  H        4.1925210000    -0.6532510000    -1.9108460000
| 23>  H        1.3285710000    -1.3195950000    -1.0800250000
| 24>  H        2.0489280000    -1.6706610000    -2.6526370000
| 25>  H        1.8075910000     0.0053870000    -2.1463510000
| 26>  H        2.8133850000    -0.3317030000     0.7726430000
| 27>  H        3.1414450000     0.9749820000    -0.3583930000
| 28>  H        5.6103560000     0.4701200000    -0.1770140000
| 29>  H        5.2501760000    -0.7026370000     1.0861250000
| 30>  H        4.6205500000     2.2788140000     1.1873720000
| 31>  H        5.9476010000     1.4640210000     2.0179650000
| 32>  H        3.2224130000     1.0309510000     2.5316020000
| 33> *
| 34>
| 35>                          ****END OF INPUT****
 Total Charge           Charge          ....    0
 Multiplicity           Mult            ....    1
 Number of Electrons    NEL             ....   58
 Basis Dimension        Dim             ....  168

MULLIKEN ATOMIC CHARGES
-----------------------
   0 C :    0.009433
   1 C :   -0.139364
   2 C :    0.025978
   3 C :   -0.019424
   4 C :   -0.021890
   5 C :    0.184603
   6 O :   -0.293144
   7 H :    0.018319
   8 H :    0.015541
   9 H :    0.020334
  10 H :    0.005571
  11 H :    0.010671
  12 H :    0.018060
  13 H :    0.010970
  14 H :   -0.010343
  15 H :   -0.004293
  16 H :    0.001611
  17 H :    0.018742
  18 H :   -0.011699
  19 H :    0.008198
  20 H :    0.152125
Sum of atomic charges:   -0.0000000

LOEWDIN ATOMIC CHARGES
----------------------
   0 C :   -0.060877
   1 C :   -0.045669
   2 C :   -0.059664
   3 C :   -0.044101
   4 C :   -0.064553
   5 C :    0.057951
   6 O :   -0.123369
   7 H :    0.026335
   8 H :    0.024752
   9 H :    0.024030
  10 H :    0.023159
  11 H :    0.023417
  12 H :    0.025431
  13 H :    0.023336
  14 H :    0.014031
  15 H :    0.019300
  16 H :    0.027206
  17 H :    0.025056
  18 H :    0.000945
  19 H :    0.020696
  20 H :    0.062587

  Mayer bond orders larger than 0.1
B(  0-C ,  1-C ) :   1.0806 B(  0-C ,  7-H ) :   0.9589 B(  0-C ,  8-H ) :   0.9606
B(  0-C ,  9-H ) :   0.9570 B(  1-C ,  2-C ) :   1.0915 B(  1-C ,  3-C ) :   1.0679
B(  1-C , 10-H ) :   0.9098 B(  2-C , 11-H ) :   0.9591 B(  2-C , 12-H ) :   0.9590
B(  2-C , 13-H ) :   0.9568 B(  3-C ,  4-C ) :   1.0860 B(  3-C , 14-H ) :   0.9152
B(  3-C , 15-H ) :   0.9325 B(  4-C ,  5-C ) :   1.0761 B(  4-C , 16-H ) :   0.9127
B(  4-C , 17-H ) :   0.9176 B(  5-C ,  6-O ) :   1.0573 B(  5-C , 18-H ) :   0.9350
B(  5-C , 19-H ) :   0.9384 B(  6-O , 20-H ) :   0.9876

FINAL SINGLE POINT ENERGY      -311.635249480569

DIPOLE MOMENT
-------------
                                X             Y             Z
Electronic contribution:      1.51208       3.26410       5.03517
Nuclear contribution   :     -1.73562      -3.25294      -5.60955
                        -----------------------------------------
Total Dipole Moment    :     -0.22354       0.01116      -0.57439
                        -----------------------------------------
Magnitude (a.u.)       :      0.61645
Magnitude (Debye)      :      1.56690

                             ****ORCA TERMINATED NORMALLY****
TOTAL RUN TIME: 0 days 0 hours 0 minutes 8 seconds 148 msec
