                         Program Version 3.0.3 - RELEASE   -
|  1> ! RI PBE def2-SVP def2-SVP/J NBO PAL2
|  2> % maxcore 2000
|  3> % output
|  4>     # printlevel mini
|  5>     print[ P_Basis ] 0
|  6>     print[ P_SCFInfo ] 1
|  7>     print[ P_SCFIterInfo ] 1
|  8>     print[ P_OrbEn ] 0
|  9>     print[ P_Cartesian ] 0
| 10> end
| 11> *xyz 0 1
| 12>  C        0.7049720000     0.0568510000     0.3524790000
| 13>  C        2.0768360000    -0.1210910000    -0.2230400000
| 14>  C        2.1088850000    -0.3060090000    -1.7085020000
| 15>  C        3.1577250000    -0.0844080000     0.5623440000
| 16>  C        4.5893250000    -0.2566110000     0.1693800000
| 17>  C        5.1188230000    -1.6240420000     0.5914060000
| 18>  O        4.4269040000    -2.6780110000    -0.0363660000
| 19>  H        0.2094920000     0.9280790000    -0.0898080000
| 20>  H        0.7324020000     0.1918510000     1.4346090000
| 21>  H        0.0693380000    -0.8065770000     0.1284260000
| 22>  H        1.4721030000    -1.1470480000    -2.0021270000
| 23>  H        3.1078350000    -0.4920380000    -2.0984710000
| 24>  H        1.7011740000     0.5783930000    -2.2102610000
| 25>  H        2.9882450000     0.0569690000     1.6295940000
| 26>  H        5.1984050000     0.5141370000     0.6559070000
| 27>  H        4.7287650000    -0.1432480000    -0.9077450000
| 28>  H        5.0668740000    -1.7180120000     1.6865630000
| 29>  H        6.1672430000    -1.7275710000     0.3020590000
| 30>  H        3.4862740000    -2.5098240000     0.0899420000
| 31> *
| 32>
| 33>                          ****END OF INPUT****
 Total Charge           Charge          ....    0
 Multiplicity           Mult            ....    1
 Number of Electrons    NEL             ....   56
 Basis Dimension        Dim             ....  158

MULLIKEN ATOMIC CHARGES
-----------------------
   0 C :    0.045332
   1 C :   -0.203614
   2 C :    0.066954
   3 C :   -0.131917
   4 C :    0.039193
   5 C :    0.160275
   6 O :   -0.288291
   7 H :    0.026793
   8 H :    0.018904
   9 H :    0.028845
  10 H :    0.023597
  11 H :    0.017159
  12 H :    0.028732
  13 H :   -0.017125
  14 H :    0.009223
  15 H :    0.014858
  16 H :   -0.001603
  17 H :    0.013971
  18 H :    0.148714
Sum of atomic charges:    0.0000000

LOEWDIN ATOMIC CHARGES
----------------------
   0 C :   -0.057273
   1 C :   -0.046405
   2 C :   -0.059716
   3 C :   -0.070743
   4 C :   -0.064171
   5 C :    0.058506
   6 O :   -0.124301
   7 H :    0.034875
   8 H :    0.029677
   9 H :    0.033774
  10 H :    0.035461
  11 H :    0.027931
  12 H :    0.037342
  13 H :    0.020953
  14 H :    0.035629
  15 H :    0.027828
  16 H :    0.001509
  17 H :    0.019482
  18 H :    0.059640

  Mayer bond orders larger than 0.1
B(  0-C ,  1-C ) :   1.0845 B(  0-C ,  7-H ) :   0.9439 B(  0-C ,  8-H ) :   0.9523
B(  0-C ,  9-H ) :   0.9462 B(  1-C ,  2-C ) :   1.0947 B(  1-C ,  3-C ) :   1.8732
B(  2-C , 10-H ) :   0.9416 B(  2-C , 11-H ) :   0.9435 B(  2-C , 12-H ) :   0.9412
B(  3-C ,  4-C ) :   1.0666 B(  3-C , 13-H ) :   0.9350 B(  4-C ,  5-C ) :   1.0612
B(  4-C , 14-H ) :   0.8933 B(  4-C , 15-H ) :   0.9211 B(  5-C ,  6-O ) :   1.0700
B(  5-C , 16-H ) :   0.9357 B(  5-C , 17-H ) :   0.9374 B(  6-O , 18-H ) :   0.9778

FINAL SINGLE POINT ENERGY      -310.422710984879

DIPOLE MOMENT
-------------
                                X             Y             Z
Electronic contribution:      2.66893      -2.23741       0.82284
Nuclear contribution   :     -3.10316       2.76439      -0.72829
                        -----------------------------------------
Total Dipole Moment    :     -0.43424       0.52698       0.09455
                        -----------------------------------------
Magnitude (a.u.)       :      0.68935
Magnitude (Debye)      :      1.75220

                             ****ORCA TERMINATED NORMALLY****
TOTAL RUN TIME: 0 days 0 hours 0 minutes 8 seconds 260 msec
