                         Program Version 3.0.3 - RELEASE   -
|  1> ! RI PBE def2-SVP def2-SVP/J NBO PAL2
|  2> % maxcore 2000
|  3> % output
|  4>     # printlevel mini
|  5>     print[ P_Basis ] 0
|  6>     print[ P_SCFInfo ] 1
|  7>     print[ P_SCFIterInfo ] 1
|  8>     print[ P_OrbEn ] 0
|  9>     print[ P_Cartesian ] 0
| 10> end
| 11> *xyz 0 1
| 12>  C        1.0092310000    -0.0526960000     0.8955130000
| 13>  C        2.0258130000     0.3072240000    -0.1446030000
| 14>  C        1.9745220000     1.7558870000    -0.5291440000
| 15>  C        2.9018410000    -0.5532690000    -0.6841240000
| 16>  C        3.0156680000    -2.0057040000    -0.3267180000
| 17>  C        3.8846900000    -0.1089310000    -1.7441040000
| 18>  O        3.2822140000     0.2588820000    -2.9767850000
| 19>  H        1.0174690000    -1.1018240000     1.1825390000
| 20>  H        0.0015860000     0.1930740000     0.5430620000
| 21>  H        1.1702200000     0.5437480000     1.8004110000
| 22>  H        0.9804630000     2.0108680000    -0.9124620000
| 23>  H        2.6973490000     2.0279320000    -1.2945500000
| 24>  H        2.1336200000     2.3859170000     0.3532820000
| 25>  H        2.2679860000    -2.3449580000     0.3871070000
| 26>  H        4.0020040000    -2.2187460000     0.1006050000
| 27>  H        2.9304640000    -2.6325180000    -1.2216970000
| 28>  H        4.6135870000    -0.9123080000    -1.9135010000
| 29>  H        4.4506610000     0.7674860000    -1.4167040000
| 30>  H        2.5329020000    -0.3250760000    -3.1198060000
| 31> *
| 32>
| 33>                          ****END OF INPUT****
 Total Charge           Charge          ....    0
 Multiplicity           Mult            ....    1
 Number of Electrons    NEL             ....   56
 Basis Dimension        Dim             ....  158

MULLIKEN ATOMIC CHARGES
-----------------------
   0 C :    0.067801
   1 C :   -0.193253
   2 C :    0.048672
   3 C :   -0.277789
   4 C :    0.068174
   5 C :    0.253753
   6 O :   -0.288140
   7 H :    0.006465
   8 H :    0.020039
   9 H :    0.023811
  10 H :    0.019118
  11 H :    0.031915
  12 H :    0.019776
  13 H :    0.008773
  14 H :    0.030352
  15 H :    0.019543
  16 H :   -0.018063
  17 H :    0.009566
  18 H :    0.149487
Sum of atomic charges:   -0.0000000

LOEWDIN ATOMIC CHARGES
----------------------
   0 C :   -0.057045
   1 C :   -0.039873
   2 C :   -0.059179
   3 C :   -0.095000
   4 C :   -0.060258
   5 C :    0.061914
   6 O :   -0.125205
   7 H :    0.024491
   8 H :    0.033641
   9 H :    0.036072
  10 H :    0.034929
  11 H :    0.031403
  12 H :    0.032747
  13 H :    0.024886
  14 H :    0.035809
  15 H :    0.031102
  16 H :    0.004514
  17 H :    0.020681
  18 H :    0.064369

  Mayer bond orders larger than 0.1
B(  0-C ,  1-C ) :   1.1035 B(  0-C ,  7-H ) :   0.9467 B(  0-C ,  8-H ) :   0.9421
B(  0-C ,  9-H ) :   0.9381 B(  1-C ,  2-C ) :   1.1011 B(  1-C ,  3-C ) :   1.8418
B(  2-C , 10-H ) :   0.9408 B(  2-C , 11-H ) :   0.9378 B(  2-C , 12-H ) :   0.9417
B(  3-C ,  4-C ) :   1.1102 B(  3-C ,  5-C ) :   1.0630 B(  4-C , 13-H ) :   0.9489
B(  4-C , 14-H ) :   0.9364 B(  4-C , 15-H ) :   0.9376 B(  5-C ,  6-O ) :   1.0398
B(  5-C , 16-H ) :   0.9224 B(  5-C , 17-H ) :   0.9157 B(  6-O , 18-H ) :   0.9824

FINAL SINGLE POINT ENERGY      -310.418231447768

DIPOLE MOMENT
-------------
                                X             Y             Z
Electronic contribution:      1.79376       0.52407      -3.77340
Nuclear contribution   :     -2.13354      -0.89837       4.19485
                        -----------------------------------------
Total Dipole Moment    :     -0.33978      -0.37430       0.42145
                        -----------------------------------------
Magnitude (a.u.)       :      0.65815
Magnitude (Debye)      :      1.67289

                             ****ORCA TERMINATED NORMALLY****
TOTAL RUN TIME: 0 days 0 hours 0 minutes 8 seconds 318 msec
