                         Program Version 3.0.3 - RELEASE   -
|  1> ! RI PBE def2-SVP def2-SVP/J NBO PAL2
|  2> % maxcore 2000
|  3> % output
|  4>     # printlevel mini
|  5>     print[ P_Basis ] 0
|  6>     print[ P_SCFInfo ] 1
|  7>     print[ P_SCFIterInfo ] 1
|  8>     print[ P_OrbEn ] 0
|  9>     print[ P_Cartesian ] 0
| 10> end
| 11> *xyz 0 1
| 12>  C        0.9177040000    -0.1873190000     0.0748470000
| 13>  C        2.4051640000    -0.0267910000     0.0577640000
| 14>  C        3.0605260000    -0.8648640000     1.1150200000
| 15>  C        3.0580040000     0.7777740000    -0.8098320000
| 16>  C        2.4169250000     1.6197100000    -1.8698530000
| 17>  C        4.5232780000     0.9011170000    -0.7860670000
| 18>  O        5.1388070000     1.6115980000    -1.5477300000
| 19>  H        0.6562770000    -1.2406580000    -0.0731310000
| 20>  H        0.3953020000     0.4005390000    -0.6744680000
| 21>  H        0.5259020000     0.0878360000     1.0600110000
| 22>  H        2.6656080000    -0.5886440000     2.0982560000
| 23>  H        4.1428880000    -0.7945820000     1.1574020000
| 24>  H        2.7962240000    -1.9167710000     0.9645320000
| 25>  H        1.3339330000     1.5350080000    -1.8945740000
| 26>  H        2.8101090000     1.3478840000    -2.8525910000
| 27>  H        2.6809290000     2.6701110000    -1.7242170000
| 28>  H        5.0738100000     0.3115300000    -0.0321590000
| 29> *
| 30>
| 31>                          ****END OF INPUT****
 Total Charge           Charge          ....    0
 Multiplicity           Mult            ....    1
 Number of Electrons    NEL             ....   54
 Basis Dimension        Dim             ....  148

MULLIKEN ATOMIC CHARGES
-----------------------
   0 C :    0.052777
   1 C :   -0.198542
   2 C :    0.045737
   3 C :   -0.128645
   4 C :    0.061804
   5 C :    0.104830
   6 O :   -0.179756
   7 H :    0.033929
   8 H :    0.021599
   9 H :    0.033069
  10 H :    0.032260
  11 H :    0.028126
  12 H :    0.036934
  13 H :    0.009946
  14 H :    0.035965
  15 H :    0.041370
  16 H :   -0.031403
Sum of atomic charges:   -0.0000000

LOEWDIN ATOMIC CHARGES
----------------------
   0 C :   -0.055009
   1 C :    0.000505
   2 C :   -0.057509
   3 C :   -0.096785
   4 C :   -0.056405
   5 C :    0.070096
   6 O :   -0.126589
   7 H :    0.041954
   8 H :    0.029485
   9 H :    0.041895
  10 H :    0.041074
  11 H :    0.026815
  12 H :    0.041644
  13 H :    0.024269
  14 H :    0.042607
  15 H :    0.043378
  16 H :   -0.011424

  Mayer bond orders larger than 0.1
B(  0-C ,  1-C ) :   1.1002 B(  0-C ,  7-H ) :   0.9383 B(  0-C ,  8-H ) :   0.9495
B(  0-C ,  9-H ) :   0.9379 B(  1-C ,  2-C ) :   1.1046 B(  1-C ,  3-C ) :   1.7068
B(  2-C , 10-H ) :   0.9367 B(  2-C , 11-H ) :   0.9433 B(  2-C , 12-H ) :   0.9382
B(  3-C ,  4-C ) :   1.1057 B(  3-C ,  5-C ) :   1.0225 B(  4-C , 13-H ) :   0.9470
B(  4-C , 14-H ) :   0.9337 B(  4-C , 15-H ) :   0.9354 B(  5-C ,  6-O ) :   2.1143
B(  5-C , 16-H ) :   0.9426

FINAL SINGLE POINT ENERGY      -309.233776511357

DIPOLE MOMENT
-------------
                                X             Y             Z
Electronic contribution:      6.18250       2.76546      -2.52951
Nuclear contribution   :     -7.20697      -3.47191       3.23973
                        -----------------------------------------
Total Dipole Moment    :     -1.02447      -0.70645       0.71022
                        -----------------------------------------
Magnitude (a.u.)       :      1.43283
Magnitude (Debye)      :      3.64197

                             ****ORCA TERMINATED NORMALLY****
TOTAL RUN TIME: 0 days 0 hours 0 minutes 7 seconds 980 msec
