                         Program Version 3.0.3 - RELEASE   -
|  1> ! RI PBE def2-SVP def2-SVP/J NBO PAL2
|  2> % maxcore 2000
|  3> % output
|  4>     # printlevel mini
|  5>     print[ P_Basis ] 0
|  6>     print[ P_SCFInfo ] 1
|  7>     print[ P_SCFIterInfo ] 1
|  8>     print[ P_OrbEn ] 0
|  9>     print[ P_Cartesian ] 0
| 10> end
| 11> *xyz 0 1
| 12>  C        0.8625470000    -0.1285170000     0.0308420000
| 13>  C        2.3376650000     0.0635640000    -0.1449480000
| 14>  C        2.6881910000     0.8293680000    -1.3790120000
| 15>  C        3.1724010000    -0.4439090000     0.7758050000
| 16>  C        4.6429970000    -0.4407910000     0.9122450000
| 17>  C        5.5617250000     0.2147760000    -0.0870500000
| 18>  O        5.1204350000    -0.9973440000     1.8813450000
| 19>  H        0.3527240000     0.8397310000     0.0770150000
| 20>  H        0.6262420000    -0.6886130000     0.9350280000
| 21>  H        0.4400050000    -0.6594930000    -0.8288580000
| 22>  H        2.2873440000     0.3124870000    -2.2573910000
| 23>  H        3.7504400000     0.9836450000    -1.5300350000
| 24>  H        2.1984690000     1.8086190000    -1.3541190000
| 25>  H        2.7243480000    -0.9746500000     1.6117050000
| 26>  H        5.3571120000     1.2850290000    -0.1680750000
| 27>  H        5.4431960000    -0.2253470000    -1.0800650000
| 28>  H        6.5863710000     0.0693560000     0.2506980000
| 29> *
| 30>
| 31>                          ****END OF INPUT****
 Total Charge           Charge          ....    0
 Multiplicity           Mult            ....    1
 Number of Electrons    NEL             ....   54
 Basis Dimension        Dim             ....  148

MULLIKEN ATOMIC CHARGES
-----------------------
   0 C :    0.038411
   1 C :   -0.172090
   2 C :    0.073403
   3 C :   -0.009785
   4 C :   -0.053790
   5 C :    0.022079
   6 O :   -0.172214
   7 H :    0.034582
   8 H :    0.029956
   9 H :    0.035586
  10 H :    0.030976
  11 H :   -0.001128
  12 H :    0.032099
  13 H :   -0.013521
  14 H :    0.050586
  15 H :    0.047877
  16 H :    0.026974
Sum of atomic charges:   -0.0000000

LOEWDIN ATOMIC CHARGES
----------------------
   0 C :   -0.051555
   1 C :   -0.000489
   2 C :   -0.059828
   3 C :   -0.088690
   4 C :    0.043849
   5 C :   -0.091805
   6 O :   -0.133830
   7 H :    0.039303
   8 H :    0.033779
   9 H :    0.039316
  10 H :    0.043255
  11 H :    0.028022
  12 H :    0.043783
  13 H :    0.032748
  14 H :    0.042041
  15 H :    0.041621
  16 H :    0.038481

  Mayer bond orders larger than 0.1
B(  0-C ,  1-C ) :   1.0811 B(  0-C ,  7-H ) :   0.9434 B(  0-C ,  8-H ) :   0.9554
B(  0-C ,  9-H ) :   0.9452 B(  1-C ,  2-C ) :   1.0972 B(  1-C ,  3-C ) :   1.7348
B(  2-C , 10-H ) :   0.9329 B(  2-C , 11-H ) :   0.9418 B(  2-C , 12-H ) :   0.9311
B(  3-C ,  4-C ) :   1.0268 B(  3-C , 13-H ) :   0.9335 B(  4-C ,  5-C ) :   1.0590
B(  4-C ,  6-O ) :   2.1074 B(  5-C , 14-H ) :   0.9294 B(  5-C , 15-H ) :   0.9298
B(  5-C , 16-H ) :   0.9301

FINAL SINGLE POINT ENERGY      -309.236365639059

DIPOLE MOMENT
-------------
                                X             Y             Z
Electronic contribution:      4.05860      -3.09342       5.52300
Nuclear contribution   :     -4.86869       3.71952      -6.63431
                        -----------------------------------------
Total Dipole Moment    :     -0.81009       0.62610      -1.11131
                        -----------------------------------------
Magnitude (a.u.)       :      1.51105
Magnitude (Debye)      :      3.84077

                             ****ORCA TERMINATED NORMALLY****
TOTAL RUN TIME: 0 days 0 hours 0 minutes 7 seconds 425 msec
