                         Program Version 3.0.3 - RELEASE   -
|  1> ! RI PBE def2-SVP def2-SVP/J NBO PAL2
|  2> % maxcore 2000
|  3> % output
|  4>     # printlevel mini
|  5>     print[ P_Basis ] 0
|  6>     print[ P_SCFInfo ] 1
|  7>     print[ P_SCFIterInfo ] 1
|  8>     print[ P_OrbEn ] 0
|  9>     print[ P_Cartesian ] 0
| 10> end
| 11> *xyz 0 1
| 12>  C        0.8383950000    -0.2458520000    -0.0769410000
| 13>  C        2.2743970000     0.1725300000    -0.0059400000
| 14>  C        2.5176270000     1.6147400000    -0.3188660000
| 15>  C        3.2233200000    -0.7129470000     0.3065880000
| 16>  C        4.6963540000    -0.4753380000     0.4412500000
| 17>  C        5.0818810000    -0.4598820000     1.8993170000
| 18>  O        5.8188060000    -1.2479530000     2.4228850000
| 19>  H        0.2271350000     0.3410830000     0.6168990000
| 20>  H        0.7104350000    -1.3020420000     0.1627230000
| 21>  H        0.4309050000    -0.0673550000    -1.0778250000
| 22>  H        1.9955360000     2.2536850000     0.4011500000
| 23>  H        2.1103500000     1.8636740000    -1.3043230000
| 24>  H        3.5707820000     1.8920630000    -0.3074620000
| 25>  H        2.9091810000    -1.7322560000     0.5200400000
| 26>  H        4.9831110000     0.4897640000     0.0126200000
| 27>  H        5.2718170000    -1.2606640000    -0.0544570000
| 28>  H        4.6007670000     0.3495600000     2.4918320000
| 29> *
| 30>
| 31>                          ****END OF INPUT****
 Total Charge           Charge          ....    0
 Multiplicity           Mult            ....    1
 Number of Electrons    NEL             ....   54
 Basis Dimension        Dim             ....  148

MULLIKEN ATOMIC CHARGES
-----------------------
   0 C :    0.049937
   1 C :   -0.177596
   2 C :    0.065255
   3 C :   -0.126048
   4 C :    0.107220
   5 C :    0.077300
   6 O :   -0.159868
   7 H :    0.029562
   8 H :    0.019190
   9 H :    0.028022
  10 H :    0.032640
  11 H :    0.025492
  12 H :    0.007231
  13 H :   -0.009206
  14 H :    0.024549
  15 H :    0.022706
  16 H :   -0.016385
Sum of atomic charges:   -0.0000000

LOEWDIN ATOMIC CHARGES
----------------------
   0 C :   -0.053139
   1 C :   -0.036125
   2 C :   -0.058035
   3 C :   -0.060822
   4 C :   -0.075173
   5 C :    0.094094
   6 O :   -0.106606
   7 H :    0.035541
   8 H :    0.031125
   9 H :    0.034875
  10 H :    0.039957
  11 H :    0.037260
  12 H :    0.025300
  13 H :    0.024895
  14 H :    0.041168
  15 H :    0.039963
  16 H :   -0.014280

  Mayer bond orders larger than 0.1
B(  0-C ,  1-C ) :   1.0814 B(  0-C ,  7-H ) :   0.9459 B(  0-C ,  8-H ) :   0.9526
B(  0-C ,  9-H ) :   0.9464 B(  1-C ,  2-C ) :   1.1018 B(  1-C ,  3-C ) :   1.8749
B(  2-C , 10-H ) :   0.9387 B(  2-C , 11-H ) :   0.9412 B(  2-C , 12-H ) :   0.9439
B(  3-C ,  4-C ) :   1.0455 B(  3-C , 13-H ) :   0.9355 B(  4-C ,  5-C ) :   0.9507
B(  4-C , 14-H ) :   0.9025 B(  4-C , 15-H ) :   0.8987 B(  5-C ,  6-O ) :   2.1787
B(  5-C , 16-H ) :   0.9165

FINAL SINGLE POINT ENERGY      -309.224382228097

DIPOLE MOMENT
-------------
                                X             Y             Z
Electronic contribution:      6.90602      -3.72359       4.38878
Nuclear contribution   :     -7.68772       4.39570      -5.02773
                        -----------------------------------------
Total Dipole Moment    :     -0.78170       0.67212      -0.63895
                        -----------------------------------------
Magnitude (a.u.)       :      1.21287
Magnitude (Debye)      :      3.08287

                             ****ORCA TERMINATED NORMALLY****
TOTAL RUN TIME: 0 days 0 hours 0 minutes 7 seconds 852 msec
