                         Program Version 3.0.3 - RELEASE   -
|  1> ! RI PBE def2-SVP def2-SVP/J NBO PAL2
|  2> % maxcore 2000
|  3> % output
|  4>     # printlevel mini
|  5>     print[ P_Basis ] 0
|  6>     print[ P_SCFInfo ] 1
|  7>     print[ P_SCFIterInfo ] 1
|  8>     print[ P_OrbEn ] 0
|  9>     print[ P_Cartesian ] 0
| 10> end
| 11> *xyz 0 1
| 12>  C        1.0006590000     0.1534680000    -0.0973860000
| 13>  C        2.5205860000     0.1008850000     0.0165040000
| 14>  C        3.1376960000     1.4890920000    -0.0903690000
| 15>  C        2.9880390000    -0.5795720000     1.2791230000
| 16>  C        2.2408710000    -1.2565270000     2.1409790000
| 17>  C        3.0276730000    -0.7934950000    -1.1099890000
| 18>  O        3.8925780000    -0.5084360000    -1.8881640000
| 19>  H        0.5742020000     0.6867870000     0.7550730000
| 20>  H        0.5594430000    -0.8461340000    -0.1262100000
| 21>  H        0.7058110000     0.6769240000    -1.0095330000
| 22>  H        2.7843630000     2.1233030000     0.7254180000
| 23>  H        2.8699170000     1.9570310000    -1.0396420000
| 24>  H        4.2266140000     1.4381460000    -0.0464320000
| 25>  H        4.0590740000    -0.5029930000     1.4578230000
| 26>  H        1.1696010000    -1.3704470000     2.0196490000
| 27>  H        2.6833830000    -1.7164050000     3.0169200000
| 28>  H        2.5204990000    -1.7831060000    -1.1518530000
| 29> *
| 30>
| 31>                          ****END OF INPUT****
 Total Charge           Charge          ....    0
 Multiplicity           Mult            ....    1
 Number of Electrons    NEL             ....   54
 Basis Dimension        Dim             ....  148

MULLIKEN ATOMIC CHARGES
-----------------------
   0 C :    0.053234
   1 C :   -0.298987
   2 C :    0.061826
   3 C :   -0.018005
   4 C :   -0.020204
   5 C :    0.160361
   6 O :   -0.145677
   7 H :    0.031998
   8 H :    0.026693
   9 H :    0.026119
  10 H :    0.023838
  11 H :    0.022796
  12 H :    0.031988
  13 H :    0.011100
  14 H :    0.023494
  15 H :    0.025988
  16 H :   -0.016563
Sum of atomic charges:   -0.0000000

LOEWDIN ATOMIC CHARGES
----------------------
   0 C :   -0.041142
   1 C :   -0.108160
   2 C :   -0.043716
   3 C :   -0.014609
   4 C :   -0.054808
   5 C :    0.107282
   6 O :   -0.098833
   7 H :    0.033006
   8 H :    0.026066
   9 H :    0.031767
  10 H :    0.029576
  11 H :    0.030479
  12 H :    0.030657
  13 H :    0.030489
  14 H :    0.023765
  15 H :    0.029508
  16 H :   -0.011325

  Mayer bond orders larger than 0.1
B(  0-C ,  1-C ) :   1.0655 B(  0-C ,  7-H ) :   0.9483 B(  0-C ,  8-H ) :   0.9443
B(  0-C ,  9-H ) :   0.9565 B(  1-C ,  2-C ) :   1.0493 B(  1-C ,  3-C ) :   0.9632
B(  1-C ,  5-C ) :   0.8559 B(  2-C , 10-H ) :   0.9602 B(  2-C , 11-H ) :   0.9504
B(  2-C , 12-H ) :   0.9530 B(  3-C ,  4-C ) :   1.9978 B(  3-C , 13-H ) :   0.9562
B(  4-C , 14-H ) :   0.9323 B(  4-C , 15-H ) :   0.9369 B(  5-C ,  6-O ) :   2.2099
B(  5-C , 16-H ) :   0.9288

FINAL SINGLE POINT ENERGY      -309.217350469666

DIPOLE MOMENT
-------------
                                X             Y             Z
Electronic contribution:      3.79467      -2.33717      -3.64119
Nuclear contribution   :     -4.41168       2.34843       4.27742
                        -----------------------------------------
Total Dipole Moment    :     -0.61701       0.01126       0.63623
                        -----------------------------------------
Magnitude (a.u.)       :      0.88635
Magnitude (Debye)      :      2.25291

                             ****ORCA TERMINATED NORMALLY****
TOTAL RUN TIME: 0 days 0 hours 0 minutes 7 seconds 386 msec
