                         Program Version 3.0.3 - RELEASE   -
|  1> ! RI PBE def2-SVP def2-SVP/J NBO PAL2
|  2> % maxcore 2000
|  3> % output
|  4>     # printlevel mini
|  5>     print[ P_Basis ] 0
|  6>     print[ P_SCFInfo ] 1
|  7>     print[ P_SCFIterInfo ] 1
|  8>     print[ P_OrbEn ] 0
|  9>     print[ P_Cartesian ] 0
| 10> end
| 11> *xyz 0 1
| 12>  C        0.9047190000    -0.0840620000    -0.0279050000
| 13>  C        2.4245310000     0.0694690000     0.0045830000
| 14>  C        2.8709540000     0.8171360000    -1.2511510000
| 15>  C        2.8107470000     0.8746800000     1.2448730000
| 16>  C        3.0387230000    -1.3387480000     0.0481470000
| 17>  C        4.5543030000    -1.4285430000     0.0583390000
| 18>  O        5.0068240000    -2.7690400000     0.0443510000
| 19>  H        0.4143550000     0.8931570000    -0.0577340000
| 20>  H        0.5429290000    -0.6134140000     0.8583630000
| 21>  H        0.5849110000    -0.6474180000    -0.9090930000
| 22>  H        2.3598170000     1.7811120000    -1.3238660000
| 23>  H        2.6360380000     0.2457730000    -2.1538640000
| 24>  H        3.9451980000     1.0163150000    -1.2485710000
| 25>  H        2.3055880000     1.8446040000     1.2434710000
| 26>  H        3.8853700000     1.0654210000     1.2911570000
| 27>  H        2.5212260000     0.3505000000     2.1605490000
| 28>  H        2.6765850000    -1.9119580000    -0.8129020000
| 29>  H        2.6564500000    -1.8503130000     0.9427340000
| 30>  H        4.9714960000    -0.8911800000     0.9203620000
| 31>  H        4.9741230000    -0.9742290000    -0.8413900000
| 32>  H        4.6405000000    -3.2159420000     0.8118490000
| 33> *
| 34>
| 35>                          ****END OF INPUT****
 Total Charge           Charge          ....    0
 Multiplicity           Mult            ....    1
 Number of Electrons    NEL             ....   58
 Basis Dimension        Dim             ....  168

MULLIKEN ATOMIC CHARGES
-----------------------
   0 C :    0.080386
   1 C :   -0.354842
   2 C :    0.058246
   3 C :    0.061286
   4 C :    0.002807
   5 C :    0.194481
   6 O :   -0.291652
   7 H :    0.007701
   8 H :    0.007485
   9 H :    0.009878
  10 H :    0.007284
  11 H :    0.014455
  12 H :    0.018077
  13 H :    0.007079
  14 H :    0.016588
  15 H :    0.008240
  16 H :    0.008404
  17 H :   -0.012873
  18 H :   -0.002042
  19 H :    0.009026
  20 H :    0.149985
Sum of atomic charges:   -0.0000000

LOEWDIN ATOMIC CHARGES
----------------------
   0 C :   -0.046296
   1 C :   -0.066181
   2 C :   -0.049656
   3 C :   -0.050648
   4 C :   -0.053197
   5 C :    0.054701
   6 O :   -0.124359
   7 H :    0.021992
   8 H :    0.022319
   9 H :    0.023357
  10 H :    0.024643
  11 H :    0.025262
  12 H :    0.022115
  13 H :    0.024645
  14 H :    0.020661
  15 H :    0.022934
  16 H :    0.024116
  17 H :    0.015629
  18 H :    0.003277
  19 H :    0.019988
  20 H :    0.064700

  Mayer bond orders larger than 0.1
B(  0-C ,  1-C ) :   1.0501 B(  0-C ,  7-H ) :   0.9552 B(  0-C ,  8-H ) :   0.9574
B(  0-C ,  9-H ) :   0.9576 B(  1-C ,  2-C ) :   1.0465 B(  1-C ,  3-C ) :   1.0428
B(  1-C ,  4-C ) :   1.0032 B(  2-C , 10-H ) :   0.9540 B(  2-C , 11-H ) :   0.9595
B(  2-C , 12-H ) :   0.9566 B(  3-C , 13-H ) :   0.9534 B(  3-C , 14-H ) :   0.9568
B(  3-C , 15-H ) :   0.9595 B(  4-C ,  5-C ) :   1.0788 B(  4-C , 16-H ) :   0.9239
B(  4-C , 17-H ) :   0.9234 B(  5-C ,  6-O ) :   1.0462 B(  5-C , 18-H ) :   0.9350
B(  5-C , 19-H ) :   0.9276 B(  6-O , 20-H ) :   0.9872

FINAL SINGLE POINT ENERGY      -311.633553887575

DIPOLE MOMENT
-------------
                                X             Y             Z
Electronic contribution:      3.88470      -4.77069      -0.10370
Nuclear contribution   :     -4.27711       4.99458       0.50280
                        -----------------------------------------
Total Dipole Moment    :     -0.39242       0.22389       0.39910
                        -----------------------------------------
Magnitude (a.u.)       :      0.60282
Magnitude (Debye)      :      1.53226

                             ****ORCA TERMINATED NORMALLY****
TOTAL RUN TIME: 0 days 0 hours 0 minutes 9 seconds 302 msec
