                         Program Version 3.0.3 - RELEASE   -
|  1> ! RI PBE def2-SVP def2-SVP/J NBO PAL2
|  2> % maxcore 2000
|  3> % output
|  4>     # printlevel mini
|  5>     print[ P_Basis ] 0
|  6>     print[ P_SCFInfo ] 1
|  7>     print[ P_SCFIterInfo ] 1
|  8>     print[ P_OrbEn ] 0
|  9>     print[ P_Cartesian ] 0
| 10> end
| 11> *xyz 0 1
| 12>  C        0.9589560000    -0.0410270000    -0.0453420000
| 13>  C        2.4807410000     0.0394760000     0.0567290000
| 14>  C        2.9591940000     1.4129970000    -0.4120390000
| 15>  C        2.9036890000    -0.1662000000     1.5088990000
| 16>  C        3.1192480000    -1.0877010000    -0.7834210000
| 17>  C        2.7933280000    -1.0392070000    -2.2452270000
| 18>  O        2.1698610000    -1.8829630000    -2.8315650000
| 19>  H        0.4922220000     0.7269840000     0.5773060000
| 20>  H        0.5924070000    -1.0150260000     0.2894490000
| 21>  H        0.6137220000     0.1061990000    -1.0721430000
| 22>  H        2.5680980000     2.1928010000     0.2468300000
| 23>  H        2.6214390000     1.6442300000    -1.4249300000
| 24>  H        4.0508590000     1.4803120000    -0.3948070000
| 25>  H        2.4602460000     0.6003040000     2.1504240000
| 26>  H        3.9903970000    -0.1064190000     1.6159840000
| 27>  H        2.5810830000    -1.1427560000     1.8797750000
| 28>  H        2.8050000000    -2.0621760000    -0.4011330000
| 29>  H        4.2105930000    -1.0139310000    -0.6871820000
| 30>  H        3.1757280000    -0.1522980000    -2.7959880000
| 31> *
| 32>
| 33>                          ****END OF INPUT****
 Total Charge           Charge          ....    0
 Multiplicity           Mult            ....    1
 Number of Electrons    NEL             ....   56
 Basis Dimension        Dim             ....  158

MULLIKEN ATOMIC CHARGES
-----------------------
   0 C :    0.076220
   1 C :   -0.400810
   2 C :    0.060611
   3 C :    0.077440
   4 C :    0.101588
   5 C :    0.073087
   6 O :   -0.160915
   7 H :    0.014841
   8 H :    0.017270
   9 H :    0.024364
  10 H :    0.015219
  11 H :    0.016311
  12 H :    0.017136
  13 H :    0.014695
  14 H :    0.013838
  15 H :    0.013685
  16 H :    0.010601
  17 H :    0.025543
  18 H :   -0.010723
Sum of atomic charges:   -0.0000000

LOEWDIN ATOMIC CHARGES
----------------------
   0 C :   -0.046404
   1 C :   -0.061465
   2 C :   -0.051614
   3 C :   -0.047158
   4 C :   -0.064566
   5 C :    0.089319
   6 O :   -0.106481
   7 H :    0.026164
   8 H :    0.027564
   9 H :    0.025948
  10 H :    0.027798
  11 H :    0.022367
  12 H :    0.025117
  13 H :    0.025542
  14 H :    0.024411
  15 H :    0.025539
  16 H :    0.031412
  17 H :    0.039923
  18 H :   -0.013417

  Mayer bond orders larger than 0.1
B(  0-C ,  1-C ) :   1.0421 B(  0-C ,  7-H ) :   0.9587 B(  0-C ,  8-H ) :   0.9583
B(  0-C ,  9-H ) :   0.9536 B(  1-C ,  2-C ) :   1.0432 B(  1-C ,  3-C ) :   1.0554
B(  1-C ,  4-C ) :   1.0141 B(  2-C , 10-H ) :   0.9535 B(  2-C , 11-H ) :   0.9523
B(  2-C , 12-H ) :   0.9593 B(  3-C , 13-H ) :   0.9545 B(  3-C , 14-H ) :   0.9563
B(  3-C , 15-H ) :   0.9559 B(  4-C ,  5-C ) :   0.9772 B(  4-C , 16-H ) :   0.9149
B(  4-C , 17-H ) :   0.9017 B(  5-C ,  6-O ) :   2.1744 B(  5-C , 18-H ) :   0.9161

FINAL SINGLE POINT ENERGY      -310.438692762710

DIPOLE MOMENT
-------------
                                X             Y             Z
Electronic contribution:     -0.05618      -4.96570      -6.92923
Nuclear contribution   :      0.43217       5.59225       7.63927
                        -----------------------------------------
Total Dipole Moment    :      0.37599       0.62655       0.71005
                        -----------------------------------------
Magnitude (a.u.)       :      1.01887
Magnitude (Debye)      :      2.58977

                             ****ORCA TERMINATED NORMALLY****
TOTAL RUN TIME: 0 days 0 hours 0 minutes 8 seconds 203 msec
