                         Program Version 3.0.3 - RELEASE   -
|  1> ! RI PBE def2-SVP def2-SVP/J NBO PAL2
|  2> % maxcore 2000
|  3> % output
|  4>     # printlevel mini
|  5>     print[ P_Basis ] 0
|  6>     print[ P_SCFInfo ] 1
|  7>     print[ P_SCFIterInfo ] 1
|  8>     print[ P_OrbEn ] 0
|  9>     print[ P_Cartesian ] 0
| 10> end
| 11> *xyz 0 1
| 12>  C        0.8445290000    -0.0537670000     0.0076240000
| 13>  C        2.3702010000    -0.0251800000    -0.0436300000
| 14>  C        2.9284180000    -1.4236550000    -0.2984210000
| 15>  C        2.8459760000     0.9303310000    -1.0919490000
| 16>  C        3.6103260000     1.9965540000    -0.8832790000
| 17>  C        4.0628220000     2.9264890000    -1.9579810000
| 18>  O        3.6359050000     4.2591630000    -1.7334420000
| 19>  H        0.4937470000    -0.7472760000     0.7764020000
| 20>  H        0.4304580000    -0.3831130000    -0.9504280000
| 21>  H        0.4358200000     0.9348590000     0.2273700000
| 22>  H        2.7435180000     0.3245680000     0.9259100000
| 23>  H        2.5929950000    -1.8042530000    -1.2680890000
| 24>  H        2.5879870000    -2.1237170000     0.4690040000
| 25>  H        4.0203540000    -1.4205420000    -0.2995390000
| 26>  H        2.5330160000     0.7045880000    -2.1136820000
| 27>  H        3.9283680000     2.2456720000     0.1283370000
| 28>  H        3.7240090000     2.5585920000    -2.9363970000
| 29>  H        5.1552690000     2.9776190000    -1.9871230000
| 30>  H        2.6830920000     4.2396580000    -1.6084960000
| 31> *
| 32>
| 33>                          ****END OF INPUT****
 Total Charge           Charge          ....    0
 Multiplicity           Mult            ....    1
 Number of Electrons    NEL             ....   56
 Basis Dimension        Dim             ....  158

MULLIKEN ATOMIC CHARGES
-----------------------
   0 C :    0.025558
   1 C :   -0.083346
   2 C :    0.005752
   3 C :   -0.020939
   4 C :   -0.137399
   5 C :    0.256252
   6 O :   -0.294268
   7 H :    0.018036
   8 H :    0.012304
   9 H :    0.019323
  10 H :   -0.002080
  11 H :    0.014002
  12 H :    0.022281
  13 H :    0.029094
  14 H :   -0.012624
  15 H :   -0.003820
  16 H :   -0.013773
  17 H :    0.018502
  18 H :    0.147145
Sum of atomic charges:    0.0000000

LOEWDIN ATOMIC CHARGES
----------------------
   0 C :   -0.052803
   1 C :   -0.047199
   2 C :   -0.055735
   3 C :   -0.024008
   4 C :   -0.072709
   5 C :    0.054869
   6 O :   -0.124522
   7 H :    0.025932
   8 H :    0.023397
   9 H :    0.025615
  10 H :    0.027325
  11 H :    0.024181
  12 H :    0.026685
  13 H :    0.028226
  14 H :    0.019908
  15 H :    0.023268
  16 H :    0.005158
  17 H :    0.027909
  18 H :    0.064503

  Mayer bond orders larger than 0.1
B(  0-C ,  1-C ) :   1.0669 B(  0-C ,  7-H ) :   0.9594 B(  0-C ,  8-H ) :   0.9628
B(  0-C ,  9-H ) :   0.9632 B(  1-C ,  2-C ) :   1.0644 B(  1-C ,  3-C ) :   1.0134
B(  1-C , 10-H ) :   0.9127 B(  2-C , 11-H ) :   0.9624 B(  2-C , 12-H ) :   0.9581
B(  2-C , 13-H ) :   0.9632 B(  3-C ,  4-C ) :   1.8795 B(  3-C , 14-H ) :   0.9472
B(  4-C ,  5-C ) :   1.0604 B(  4-C , 15-H ) :   0.9567 B(  5-C ,  6-O ) :   1.0312
B(  5-C , 16-H ) :   0.9317 B(  5-C , 17-H ) :   0.9177 B(  6-O , 18-H ) :   0.9868

FINAL SINGLE POINT ENERGY      -310.416348980941

DIPOLE MOMENT
-------------
                                X             Y             Z
Electronic contribution:      2.74726       6.74166      -1.64457
Nuclear contribution   :     -3.17989      -7.29676       1.74178
                        -----------------------------------------
Total Dipole Moment    :     -0.43263      -0.55510       0.09721
                        -----------------------------------------
Magnitude (a.u.)       :      0.71046
Magnitude (Debye)      :      1.80585

                             ****ORCA TERMINATED NORMALLY****
TOTAL RUN TIME: 0 days 0 hours 0 minutes 8 seconds 48 msec
