                         Program Version 3.0.3 - RELEASE   -
|  1> ! RI PBE def2-SVP def2-SVP/J NBO PAL2
|  2> % maxcore 2000
|  3> % output
|  4>     # printlevel mini
|  5>     print[ P_Basis ] 0
|  6>     print[ P_SCFInfo ] 1
|  7>     print[ P_SCFIterInfo ] 1
|  8>     print[ P_OrbEn ] 0
|  9>     print[ P_Cartesian ] 0
| 10> end
| 11> *xyz 0 1
| 12>  C        0.8520880000     0.0995960000    -0.1368440000
| 13>  C        2.3662700000     0.1153930000     0.0675930000
| 14>  C        2.9430530000     1.4938280000    -0.2518730000
| 15>  C        2.7017560000    -0.2722080000     1.4674610000
| 16>  C        3.4260100000    -1.3269190000     1.8444470000
| 17>  C        3.6805990000    -1.5919400000     3.2588620000
| 18>  O        4.3236960000    -2.5213810000     3.6790850000
| 19>  H        0.6037420000     0.3778290000    -1.1638780000
| 20>  H        0.3619150000     0.8146440000     0.5304380000
| 21>  H        0.4327190000    -0.8888030000     0.0607920000
| 22>  H        2.8183050000    -0.6183170000    -0.6086660000
| 23>  H        2.5221110000     2.2550210000     0.4116190000
| 24>  H        2.7034170000     1.7778950000    -1.2793790000
| 25>  H        4.0286160000     1.5088830000    -0.1370480000
| 26>  H        2.3078520000     0.3826780000     2.2479000000
| 27>  H        3.8510300000    -2.0232840000     1.1268900000
| 28>  H        3.2256320000    -0.8524960000     3.9553210000
| 29> *
| 30>
| 31>                          ****END OF INPUT****
 Total Charge           Charge          ....    0
 Multiplicity           Mult            ....    1
 Number of Electrons    NEL             ....   54
 Basis Dimension        Dim             ....  148

MULLIKEN ATOMIC CHARGES
-----------------------
   0 C :    0.021943
   1 C :   -0.094048
   2 C :    0.007360
   3 C :   -0.007468
   4 C :   -0.019330
   5 C :    0.116523
   6 O :   -0.169507
   7 H :    0.023614
   8 H :    0.019522
   9 H :    0.029949
  10 H :    0.011658
  11 H :    0.020065
  12 H :    0.025097
  13 H :    0.037062
  14 H :    0.004674
  15 H :    0.004388
  16 H :   -0.031501
Sum of atomic charges:   -0.0000000

LOEWDIN ATOMIC CHARGES
----------------------
   0 C :   -0.048570
   1 C :   -0.048095
   2 C :   -0.051369
   3 C :    0.030790
   4 C :   -0.079497
   5 C :    0.066130
   6 O :   -0.118745
   7 H :    0.029668
   8 H :    0.026409
   9 H :    0.029813
  10 H :    0.031964
  11 H :    0.026734
  12 H :    0.029891
  13 H :    0.031140
  14 H :    0.026147
  15 H :    0.033077
  16 H :   -0.015487

  Mayer bond orders larger than 0.1
B(  0-C ,  1-C ) :   1.0579 B(  0-C ,  7-H ) :   0.9586 B(  0-C ,  8-H ) :   0.9619
B(  0-C ,  9-H ) :   0.9650 B(  1-C ,  2-C ) :   1.0621 B(  1-C ,  3-C ) :   1.0178
B(  1-C , 10-H ) :   0.9141 B(  2-C , 11-H ) :   0.9595 B(  2-C , 12-H ) :   0.9581
B(  2-C , 13-H ) :   0.9644 B(  3-C ,  4-C ) :   1.7505 B(  3-C ,  6-O ) :   0.1040
B(  3-C , 14-H ) :   0.9465 B(  4-C ,  5-C ) :   1.0377 B(  4-C , 15-H ) :   0.9637
B(  5-C ,  6-O ) :   2.1078 B(  5-C , 16-H ) :   0.9285

FINAL SINGLE POINT ENERGY      -309.228472762339

DIPOLE MOMENT
-------------
                                X             Y             Z
Electronic contribution:      4.99714      -6.87446       7.50891
Nuclear contribution   :     -5.68680       7.83056      -8.43835
                        -----------------------------------------
Total Dipole Moment    :     -0.68966       0.95610      -0.92944
                        -----------------------------------------
Magnitude (a.u.)       :      1.50121
Magnitude (Debye)      :      3.81576

                             ****ORCA TERMINATED NORMALLY****
TOTAL RUN TIME: 0 days 0 hours 0 minutes 7 seconds 800 msec
