                         Program Version 3.0.3 - RELEASE   -
|  1> ! RI PBE def2-SVP def2-SVP/J NBO PAL2
|  2> % maxcore 2000
|  3> % output
|  4>     # printlevel mini
|  5>     print[ P_Basis ] 0
|  6>     print[ P_SCFInfo ] 1
|  7>     print[ P_SCFIterInfo ] 1
|  8>     print[ P_OrbEn ] 0
|  9>     print[ P_Cartesian ] 0
| 10> end
| 11> *xyz 0 1
| 12>  C        0.9250050000     0.2810900000     0.8545480000
| 13>  C        2.0990560000    -0.1162120000    -0.0252810000
| 14>  C        3.4034450000    -0.0661170000     0.7743640000
| 15>  C        1.9354800000    -1.4573030000    -0.6981920000
| 16>  C        1.0400750000    -2.3726670000    -0.3376550000
| 17>  C        2.8492630000    -1.7316480000    -1.8619610000
| 18>  O        2.6772340000    -0.8029110000    -2.9185310000
| 19>  H        1.0637550000     1.2961770000     1.2338850000
| 20>  H        0.8323250000    -0.3800400000     1.7211060000
| 21>  H       -0.0188350000     0.2514550000     0.3053450000
| 22>  H        2.1853750000     0.6201000000    -0.8340030000
| 23>  H        3.3791340000    -0.7911860000     1.5926870000
| 24>  H        3.5471470000     0.9273600000     1.2063100000
| 25>  H        4.2755190000    -0.2837650000     0.1551250000
| 26>  H        0.3480210000    -2.2210390000     0.4822240000
| 27>  H        0.9766550000    -3.3228410000    -0.8582240000
| 28>  H        2.6984460000    -2.7605200000    -2.2116390000
| 29>  H        3.8975440000    -1.6371360000    -1.5662140000
| 30>  H        1.7606450000    -0.8543860000    -3.2040040000
| 31> *
| 32>
| 33>                          ****END OF INPUT****
 Total Charge           Charge          ....    0
 Multiplicity           Mult            ....    1
 Number of Electrons    NEL             ....   56
 Basis Dimension        Dim             ....  158

MULLIKEN ATOMIC CHARGES
-----------------------
   0 C :    0.030666
   1 C :   -0.075675
   2 C :    0.018720
   3 C :   -0.206163
   4 C :   -0.030543
   5 C :    0.274774
   6 O :   -0.287086
   7 H :    0.011130
   8 H :    0.019396
   9 H :    0.016386
  10 H :    0.010609
  11 H :    0.016584
  12 H :    0.016774
  13 H :    0.018555
  14 H :    0.012140
  15 H :    0.002696
  16 H :   -0.011847
  17 H :    0.009964
  18 H :    0.152920
Sum of atomic charges:    0.0000000

LOEWDIN ATOMIC CHARGES
----------------------
   0 C :   -0.056011
   1 C :   -0.044782
   2 C :   -0.050115
   3 C :   -0.047279
   4 C :   -0.070410
   5 C :    0.065406
   6 O :   -0.117475
   7 H :    0.026541
   8 H :    0.023512
   9 H :    0.025420
  10 H :    0.030351
  11 H :    0.025482
  12 H :    0.026711
  13 H :    0.024070
  14 H :    0.019833
  15 H :    0.019094
  16 H :    0.007578
  17 H :    0.023439
  18 H :    0.068635

  Mayer bond orders larger than 0.1
B(  0-C ,  1-C ) :   1.1084 B(  0-C ,  7-H ) :   0.9545 B(  0-C ,  8-H ) :   0.9507
B(  0-C ,  9-H ) :   0.9543 B(  1-C ,  2-C ) :   1.0719 B(  1-C ,  3-C ) :   0.9985
B(  1-C , 10-H ) :   0.8832 B(  2-C , 11-H ) :   0.9579 B(  2-C , 12-H ) :   0.9580
B(  2-C , 13-H ) :   0.9590 B(  3-C ,  4-C ) :   1.9768 B(  3-C ,  5-C ) :   1.0504
B(  4-C , 14-H ) :   0.9286 B(  4-C , 15-H ) :   0.9229 B(  5-C ,  6-O ) :   1.0355
B(  5-C , 16-H ) :   0.9216 B(  5-C , 17-H ) :   0.9175 B(  6-O , 18-H ) :   0.9815

FINAL SINGLE POINT ENERGY      -310.415097188960

DIPOLE MOMENT
-------------
                                X             Y             Z
Electronic contribution:      0.43402      -1.41034      -5.17876
Nuclear contribution   :     -0.77057       1.26758       5.33076
                        -----------------------------------------
Total Dipole Moment    :     -0.33655      -0.14276       0.15201
                        -----------------------------------------
Magnitude (a.u.)       :      0.39592
Magnitude (Debye)      :      1.00634

                             ****ORCA TERMINATED NORMALLY****
TOTAL RUN TIME: 0 days 0 hours 0 minutes 8 seconds 167 msec
