                         Program Version 3.0.3 - RELEASE   -
|  1> ! RI PBE def2-SVP def2-SVP/J NBO PAL2
|  2> % maxcore 2000
|  3> % output
|  4>     # printlevel mini
|  5>     print[ P_Basis ] 0
|  6>     print[ P_SCFInfo ] 1
|  7>     print[ P_SCFIterInfo ] 1
|  8>     print[ P_OrbEn ] 0
|  9>     print[ P_Cartesian ] 0
| 10> end
| 11> *xyz 0 1
| 12>  C        0.8826690000     0.2393480000    -0.1315420000
| 13>  C        2.3794000000     0.0768930000     0.0751240000
| 14>  C        3.0740460000     1.4389320000     0.1446170000
| 15>  C        2.7327870000    -0.7473870000     1.2811970000
| 16>  C        1.9267570000    -1.0305090000     2.3055040000
| 17>  C        4.0966390000    -1.3147650000     1.3489660000
| 18>  O        4.9300040000    -1.2088030000     0.4858710000
| 19>  H        0.6889280000     0.7749010000    -1.0635020000
| 20>  H        0.4268090000     0.8201910000     0.6757390000
| 21>  H        0.3733520000    -0.7258340000    -0.1851540000
| 22>  H        2.8002240000    -0.4540740000    -0.7869470000
| 23>  H        2.6986310000     2.0175580000     0.9933950000
| 24>  H        2.8783040000     2.0091340000    -0.7666030000
| 25>  H        4.1539340000     1.3291890000     0.2487750000
| 26>  H        0.8981430000    -0.6946490000     2.3543740000
| 27>  H        2.2887030000    -1.6254470000     3.1385960000
| 28>  H        4.3100620000    -1.8819800000     2.2808100000
| 29> *
| 30>
| 31>                          ****END OF INPUT****
 Total Charge           Charge          ....    0
 Multiplicity           Mult            ....    1
 Number of Electrons    NEL             ....   54
 Basis Dimension        Dim             ....  148

MULLIKEN ATOMIC CHARGES
-----------------------
   0 C :    0.023656
   1 C :   -0.072483
   2 C :    0.006150
   3 C :   -0.114730
   4 C :   -0.006484
   5 C :    0.134317
   6 O :   -0.158499
   7 H :    0.017633
   8 H :    0.020201
   9 H :    0.021246
  10 H :    0.019378
  11 H :    0.016163
  12 H :    0.024843
  13 H :    0.037323
  14 H :    0.029258
  15 H :    0.026853
  16 H :   -0.024825
Sum of atomic charges:   -0.0000000

LOEWDIN ATOMIC CHARGES
----------------------
   0 C :   -0.055085
   1 C :   -0.040493
   2 C :   -0.049956
   3 C :   -0.064382
   4 C :   -0.006803
   5 C :    0.081432
   6 O :   -0.109403
   7 H :    0.029548
   8 H :    0.023593
   9 H :    0.026933
  10 H :    0.037769
  11 H :    0.024084
  12 H :    0.028487
  13 H :    0.030211
  14 H :    0.027338
  15 H :    0.027289
  16 H :   -0.010561

  Mayer bond orders larger than 0.1
B(  0-C ,  1-C ) :   1.1070 B(  0-C ,  7-H ) :   0.9563 B(  0-C ,  8-H ) :   0.9491
B(  0-C ,  9-H ) :   0.9568 B(  1-C ,  2-C ) :   1.0638 B(  1-C ,  3-C ) :   1.0078
B(  1-C , 10-H ) :   0.8841 B(  2-C , 11-H ) :   0.9586 B(  2-C , 12-H ) :   0.9604
B(  2-C , 13-H ) :   0.9603 B(  3-C ,  4-C ) :   1.8898 B(  3-C ,  5-C ) :   0.9923
B(  4-C , 14-H ) :   0.9292 B(  4-C , 15-H ) :   0.9246 B(  5-C ,  6-O ) :   2.1187
B(  5-C , 16-H ) :   0.9297

FINAL SINGLE POINT ENERGY      -309.227104243433

DIPOLE MOMENT
-------------
                                X             Y             Z
Electronic contribution:      5.86599      -4.56609       1.15965
Nuclear contribution   :     -6.72386       4.69235      -0.71560
                        -----------------------------------------
Total Dipole Moment    :     -0.85788       0.12625       0.44405
                        -----------------------------------------
Magnitude (a.u.)       :      0.97420
Magnitude (Debye)      :      2.47623

                             ****ORCA TERMINATED NORMALLY****
TOTAL RUN TIME: 0 days 0 hours 0 minutes 7 seconds 794 msec
