                         Program Version 3.0.3 - RELEASE   -
|  1> ! RI PBE def2-SVP def2-SVP/J NBO PAL2
|  2> % maxcore 2000
|  3> % output
|  4>     # printlevel mini
|  5>     print[ P_Basis ] 0
|  6>     print[ P_SCFInfo ] 1
|  7>     print[ P_SCFIterInfo ] 1
|  8>     print[ P_OrbEn ] 0
|  9>     print[ P_Cartesian ] 0
| 10> end
| 11> *xyz 0 1
| 12>  C        3.1308160000    -1.2832750000    -1.6506310000
| 13>  C        2.7386430000    -0.4716600000    -0.4205970000
| 14>  C        1.2400870000    -0.1979120000    -0.4196380000
| 15>  C        3.2076760000    -1.0920320000     0.9074640000
| 16>  C        2.6560100000    -2.4835240000     1.1840890000
| 17>  C        4.7287820000    -1.0821720000     1.0162690000
| 18>  O        5.2003940000    -1.4297950000     2.3023610000
| 19>  H        2.8343700000    -0.7575370000    -2.5618320000
| 20>  H        2.6339720000    -2.2569050000    -1.6619130000
| 21>  H        4.2078820000    -1.4551640000    -1.7081480000
| 22>  H        3.2442040000     0.5007800000    -0.4967170000
| 23>  H        0.6620890000    -1.1258610000    -0.4032520000
| 24>  H        0.9461090000     0.3517310000    -1.3175580000
| 25>  H        0.9427400000     0.3967940000     0.4485360000
| 26>  H        2.8390950000    -0.4215820000     1.6998310000
| 27>  H        2.9733380000    -3.1955600000     0.4175120000
| 28>  H        1.5648860000    -2.4904250000     1.2207080000
| 29>  H        3.0280590000    -2.8502440000     2.1421030000
| 30>  H        5.1133170000    -0.0965510000     0.7147800000
| 31>  H        5.1658040000    -1.8221790000     0.3405790000
| 32>  H        4.8623070000    -0.7843250000     2.9286640000
| 33> *
| 34>
| 35>                          ****END OF INPUT****
 Total Charge           Charge          ....    0
 Multiplicity           Mult            ....    1
 Number of Electrons    NEL             ....   58
 Basis Dimension        Dim             ....  168

MULLIKEN ATOMIC CHARGES
-----------------------
   0 C :    0.013936
   1 C :   -0.128902
   2 C :    0.029656
   3 C :   -0.145703
   4 C :    0.020820
   5 C :    0.215776
   6 O :   -0.281113
   7 H :    0.012929
   8 H :    0.016202
   9 H :    0.019732
  10 H :    0.000060
  11 H :    0.015939
  12 H :    0.014719
  13 H :    0.011901
  14 H :   -0.013788
  15 H :    0.018264
  16 H :    0.019687
  17 H :    0.012192
  18 H :   -0.012203
  19 H :    0.007298
  20 H :    0.152598
Sum of atomic charges:   -0.0000000

LOEWDIN ATOMIC CHARGES
----------------------
   0 C :   -0.059858
   1 C :   -0.043154
   2 C :   -0.058641
   3 C :   -0.062839
   4 C :   -0.063250
   5 C :    0.059523
   6 O :   -0.118087
   7 H :    0.026666
   8 H :    0.023932
   9 H :    0.024056
  10 H :    0.021883
  11 H :    0.022775
  12 H :    0.025531
  13 H :    0.023666
  14 H :    0.017445
  15 H :    0.024966
  16 H :    0.023959
  17 H :    0.025227
  18 H :    0.001522
  19 H :    0.018234
  20 H :    0.066445

  Mayer bond orders larger than 0.1
B(  0-C ,  1-C ) :   1.0753 B(  0-C ,  7-H ) :   0.9572 B(  0-C ,  8-H ) :   0.9564
B(  0-C ,  9-H ) :   0.9605 B(  1-C ,  2-C ) :   1.0850 B(  1-C ,  3-C ) :   1.0225
B(  1-C , 10-H ) :   0.9043 B(  2-C , 11-H ) :   0.9564 B(  2-C , 12-H ) :   0.9585
B(  2-C , 13-H ) :   0.9576 B(  3-C ,  4-C ) :   1.0666 B(  3-C ,  5-C ) :   1.0377
B(  3-C , 14-H ) :   0.9018 B(  4-C , 15-H ) :   0.9573 B(  4-C , 16-H ) :   0.9595
B(  4-C , 17-H ) :   0.9441 B(  5-C ,  6-O ) :   1.0639 B(  5-C , 18-H ) :   0.9361
B(  5-C , 19-H ) :   0.9268 B(  6-O , 20-H ) :   0.9848

FINAL SINGLE POINT ENERGY      -311.634064386518

DIPOLE MOMENT
-------------
                                X             Y             Z
Electronic contribution:      4.48523       0.27830       4.17127
Nuclear contribution   :     -4.83107       0.19974      -4.23443
                        -----------------------------------------
Total Dipole Moment    :     -0.34584       0.47804      -0.06316
                        -----------------------------------------
Magnitude (a.u.)       :      0.59339
Magnitude (Debye)      :      1.50829

                             ****ORCA TERMINATED NORMALLY****
TOTAL RUN TIME: 0 days 0 hours 0 minutes 9 seconds 339 msec
