                         Program Version 3.0.3 - RELEASE   -
|  1> ! RI PBE def2-SVP def2-SVP/J NBO PAL2
|  2> % maxcore 2000
|  3> % output
|  4>     # printlevel mini
|  5>     print[ P_Basis ] 0
|  6>     print[ P_SCFInfo ] 1
|  7>     print[ P_SCFIterInfo ] 1
|  8>     print[ P_OrbEn ] 0
|  9>     print[ P_Cartesian ] 0
| 10> end
| 11> *xyz 0 1
| 12>  C        3.9224770000    -0.9381620000    -0.8028200000
| 13>  C        2.8812900000    -0.0351500000    -0.1549520000
| 14>  C        3.2989820000     0.3183690000     1.2671210000
| 15>  C        2.5317540000     1.2082420000    -0.9961540000
| 16>  C        2.0577560000     0.8144720000    -2.3904520000
| 17>  C        3.6793490000     2.2059870000    -1.0951650000
| 18>  O        1.4408940000     1.8110910000    -0.2971730000
| 19>  H        4.1054500000    -1.8080130000    -0.1673490000
| 20>  H        4.8799110000    -0.4236300000    -0.9260930000
| 21>  H        3.6078170000    -1.3080890000    -1.7801700000
| 22>  H        1.9393570000    -0.5943110000    -0.0925260000
| 23>  H        4.2947270000     0.7702410000     1.2916490000
| 24>  H        3.3404760000    -0.5849090000     1.8810090000
| 25>  H        2.5939270000     1.0113090000     1.7265110000
| 26>  H        1.6627000000     1.6926220000    -2.9107830000
| 27>  H        1.2604410000     0.0703530000    -2.3274050000
| 28>  H        2.8670130000     0.4115530000    -3.0020540000
| 29>  H        3.3760380000     3.0655690000    -1.7012660000
| 30>  H        3.9616850000     2.5727120000    -0.1076850000
| 31>  H        4.5591960000     1.7675880000    -1.5712130000
| 32>  H        1.1773610000     2.5984860000    -0.7811290000
| 33> *
| 34>
| 35>                          ****END OF INPUT****
 Total Charge           Charge          ....    0
 Multiplicity           Mult            ....    1
 Number of Electrons    NEL             ....   58
 Basis Dimension        Dim             ....  168

MULLIKEN ATOMIC CHARGES
-----------------------
   0 C :    0.033171
   1 C :   -0.099999
   2 C :    0.025366
   3 C :   -0.131287
   4 C :    0.061982
   5 C :    0.068133
   6 O :   -0.252607
   7 H :    0.014532
   8 H :    0.011127
   9 H :    0.008863
  10 H :    0.007119
  11 H :    0.007894
  12 H :    0.011247
  13 H :    0.028143
  14 H :   -0.002184
  15 H :    0.020209
  16 H :    0.017611
  17 H :   -0.000694
  18 H :    0.015713
  19 H :    0.010043
  20 H :    0.145620
Sum of atomic charges:    0.0000000

LOEWDIN ATOMIC CHARGES
----------------------
   0 C :   -0.056674
   1 C :   -0.045647
   2 C :   -0.060706
   3 C :    0.020785
   4 C :   -0.067615
   5 C :   -0.066212
   6 O :   -0.105413
   7 H :    0.028257
   8 H :    0.021576
   9 H :    0.021933
  10 H :    0.027253
  11 H :    0.019847
  12 H :    0.025130
  13 H :    0.026657
  14 H :    0.020520
  15 H :    0.027828
  16 H :    0.026221
  17 H :    0.021053
  18 H :    0.026606
  19 H :    0.026420
  20 H :    0.062181

  Mayer bond orders larger than 0.1
B(  0-C ,  1-C ) :   1.0759 B(  0-C ,  7-H ) :   0.9547 B(  0-C ,  8-H ) :   0.9565
B(  0-C ,  9-H ) :   0.9529 B(  1-C ,  2-C ) :   1.0947 B(  1-C ,  3-C ) :   0.9908
B(  1-C , 10-H ) :   0.8988 B(  2-C , 11-H ) :   0.9540 B(  2-C , 12-H ) :   0.9555
B(  2-C , 13-H ) :   0.9510 B(  3-C ,  4-C ) :   1.0735 B(  3-C ,  5-C ) :   1.0539
B(  3-C ,  6-O ) :   1.0248 B(  4-C , 14-H ) :   0.9420 B(  4-C , 15-H ) :   0.9504
B(  4-C , 16-H ) :   0.9402 B(  5-C , 17-H ) :   0.9470 B(  5-C , 18-H ) :   0.9485
B(  5-C , 19-H ) :   0.9443 B(  6-O , 20-H ) :   0.9782

FINAL SINGLE POINT ENERGY      -311.641958657874

DIPOLE MOMENT
-------------
                                X             Y             Z
Electronic contribution:     -3.76870       1.96473       0.95306
Nuclear contribution   :      3.92726      -1.75477      -1.40652
                        -----------------------------------------
Total Dipole Moment    :      0.15856       0.20995      -0.45346
                        -----------------------------------------
Magnitude (a.u.)       :      0.52426
Magnitude (Debye)      :      1.33256

                             ****ORCA TERMINATED NORMALLY****
TOTAL RUN TIME: 0 days 0 hours 0 minutes 9 seconds 50 msec
