                         Program Version 3.0.3 - RELEASE   -
|  1> ! RI PBE def2-SVP def2-SVP/J NBO PAL2
|  2> % maxcore 2000
|  3> % output
|  4>     # printlevel mini
|  5>     print[ P_Basis ] 0
|  6>     print[ P_SCFInfo ] 1
|  7>     print[ P_SCFIterInfo ] 1
|  8>     print[ P_OrbEn ] 0
|  9>     print[ P_Cartesian ] 0
| 10> end
| 11> *xyz 0 1
| 12>  C        0.8933840000     0.2352650000    -0.3084680000
| 13>  C        2.3390150000     0.1149680000     0.1572850000
| 14>  C        2.9139820000     1.4771520000     0.5187480000
| 15>  C        2.5061890000    -0.9026690000     1.3052830000
| 16>  C        1.6935590000    -0.6270840000     2.5561910000
| 17>  C        2.2672670000    -2.2910900000     0.7738890000
| 18>  O        1.5440930000    -3.1134950000     1.2646920000
| 19>  H        0.8289750000     0.8739090000    -1.1925880000
| 20>  H        0.2624080000     0.6814020000     0.4642340000
| 21>  H        0.4639470000    -0.7363520000    -0.5674410000
| 22>  H        2.9277990000    -0.2747520000    -0.6844430000
| 23>  H        2.3540860000     1.9442950000     1.3330700000
| 24>  H        2.8667350000     2.1537510000    -0.3381260000
| 25>  H        3.9594230000     1.4017620000     0.8292760000
| 26>  H        3.5783670000    -0.8953030000     1.5607560000
| 27>  H        0.6230510000    -0.6915270000     2.3555650000
| 28>  H        1.9129830000     0.3624220000     2.9603570000
| 29>  H        1.9171990000    -1.3673050000     3.3254250000
| 30>  H        2.8368470000    -2.5272590000    -0.1549050000
| 31> *
| 32>
| 33>                          ****END OF INPUT****
 Total Charge           Charge          ....    0
 Multiplicity           Mult            ....    1
 Number of Electrons    NEL             ....   56
 Basis Dimension        Dim             ....  158

MULLIKEN ATOMIC CHARGES
-----------------------
   0 C :    0.011266
   1 C :   -0.169284
   2 C :    0.035247
   3 C :   -0.091599
   4 C :    0.030493
   5 C :    0.108514
   6 O :   -0.150300
   7 H :    0.022466
   8 H :    0.027530
   9 H :    0.025107
  10 H :    0.009825
  11 H :    0.020540
  12 H :    0.024096
  13 H :    0.013589
  14 H :    0.023607
  15 H :    0.034683
  16 H :    0.013089
  17 H :    0.029220
  18 H :   -0.018090
Sum of atomic charges:   -0.0000000

LOEWDIN ATOMIC CHARGES
----------------------
   0 C :   -0.060263
   1 C :   -0.039608
   2 C :   -0.058285
   3 C :   -0.081542
   4 C :   -0.057355
   5 C :    0.092052
   6 O :   -0.104642
   7 H :    0.029394
   8 H :    0.027340
   9 H :    0.027824
  10 H :    0.023795
  11 H :    0.024679
  12 H :    0.028912
  13 H :    0.025606
  14 H :    0.044582
  15 H :    0.031703
  16 H :    0.025836
  17 H :    0.034062
  18 H :   -0.014091

  Mayer bond orders larger than 0.1
B(  0-C ,  1-C ) :   1.0789 B(  0-C ,  7-H ) :   0.9581 B(  0-C ,  8-H ) :   0.9565
B(  0-C ,  9-H ) :   0.9559 B(  1-C ,  2-C ) :   1.0915 B(  1-C ,  3-C ) :   1.0250
B(  1-C , 10-H ) :   0.9074 B(  2-C , 11-H ) :   0.9549 B(  2-C , 12-H ) :   0.9588
B(  2-C , 13-H ) :   0.9541 B(  3-C ,  4-C ) :   1.0794 B(  3-C ,  5-C ) :   0.9291
B(  3-C , 14-H ) :   0.8737 B(  4-C , 15-H ) :   0.9556 B(  4-C , 16-H ) :   0.9557
B(  4-C , 17-H ) :   0.9505 B(  5-C ,  6-O ) :   2.2029 B(  5-C , 18-H ) :   0.9242

FINAL SINGLE POINT ENERGY      -310.440805057830

DIPOLE MOMENT
-------------
                                X             Y             Z
Electronic contribution:      0.03677      -8.19596       0.61469
Nuclear contribution   :      0.42360       9.01797      -0.86405
                        -----------------------------------------
Total Dipole Moment    :      0.46036       0.82201      -0.24936
                        -----------------------------------------
Magnitude (a.u.)       :      0.97458
Magnitude (Debye)      :      2.47719

                             ****ORCA TERMINATED NORMALLY****
TOTAL RUN TIME: 0 days 0 hours 0 minutes 8 seconds 184 msec
