                         Program Version 3.0.3 - RELEASE   -
|  1> ! RI PBE def2-SVP def2-SVP/J NBO PAL2
|  2> % maxcore 2000
|  3> % output
|  4>     # printlevel mini
|  5>     print[ P_Basis ] 0
|  6>     print[ P_SCFInfo ] 1
|  7>     print[ P_SCFIterInfo ] 1
|  8>     print[ P_OrbEn ] 0
|  9>     print[ P_Cartesian ] 0
| 10> end
| 11> *xyz 0 1
| 12>  C        1.0023490000     0.0453870000     0.1129160000
| 13>  C        2.5311730000     0.0455040000     0.0981930000
| 14>  C        3.1000120000    -0.7654020000     1.2630340000
| 15>  C        3.0402130000    -0.4506080000    -1.1762770000
| 16>  C        3.4404690000    -0.8840470000    -2.2259210000
| 17>  C        3.9700520000    -1.3934100000    -3.4850890000
| 18>  O        4.9441310000    -2.4045820000    -3.3216020000
| 19>  H        0.6347140000     0.4596620000     1.0548240000
| 20>  H        0.6194200000    -0.9726310000     0.0121530000
| 21>  H        0.5996540000     0.6416770000    -0.7073030000
| 22>  H        2.8716180000     1.0828540000     0.2092220000
| 23>  H        2.7831840000    -1.8084160000     1.1934710000
| 24>  H        2.7433730000    -0.3601540000     2.2129820000
| 25>  H        4.1909350000    -0.7419580000     1.2657920000
| 26>  H        4.3683060000    -0.5539900000    -4.0724810000
| 27>  H        3.1654750000    -1.8418580000    -4.0737420000
| 28>  H        5.5811320000    -2.0954270000    -2.6719500000
| 29> *
| 30>
| 31>                          ****END OF INPUT****
 Total Charge           Charge          ....    0
 Multiplicity           Mult            ....    1
 Number of Electrons    NEL             ....   54
 Basis Dimension        Dim             ....  148

MULLIKEN ATOMIC CHARGES
-----------------------
   0 C :    0.021419
   1 C :   -0.098150
   2 C :    0.011841
   3 C :   -0.074905
   4 C :   -0.223556
   5 C :    0.255060
   6 O :   -0.281354
   7 H :    0.017343
   8 H :    0.026044
   9 H :    0.031396
  10 H :    0.026973
  11 H :    0.029927
  12 H :    0.017011
  13 H :    0.032049
  14 H :    0.024394
  15 H :    0.030474
  16 H :    0.154034
Sum of atomic charges:   -0.0000000

LOEWDIN ATOMIC CHARGES
----------------------
   0 C :   -0.044665
   1 C :   -0.053874
   2 C :   -0.046610
   3 C :   -0.040294
   4 C :   -0.098098
   5 C :    0.048789
   6 O :   -0.116717
   7 H :    0.026141
   8 H :    0.029087
   9 H :    0.030601
  10 H :    0.044092
  11 H :    0.030165
  12 H :    0.026276
  13 H :    0.029858
  14 H :    0.024873
  15 H :    0.041413
  16 H :    0.068963

  Mayer bond orders larger than 0.1
B(  0-C ,  1-C ) :   1.0752 B(  0-C ,  7-H ) :   0.9588 B(  0-C ,  8-H ) :   0.9633
B(  0-C ,  9-H ) :   0.9643 B(  1-C ,  2-C ) :   1.0704 B(  1-C ,  3-C ) :   1.0134
B(  1-C , 10-H ) :   0.8802 B(  2-C , 11-H ) :   0.9623 B(  2-C , 12-H ) :   0.9582
B(  2-C , 13-H ) :   0.9640 B(  3-C ,  4-C ) :   2.6628 B(  4-C ,  5-C ) :   1.0253
B(  5-C ,  6-O ) :   1.0708 B(  5-C , 14-H ) :   0.9207 B(  5-C , 15-H ) :   0.8960
B(  6-O , 16-H ) :   0.9843

FINAL SINGLE POINT ENERGY      -309.175677508430

DIPOLE MOMENT
-------------
                                X             Y             Z
Electronic contribution:      3.90900      -1.79670      -6.08915
Nuclear contribution   :     -3.95167       2.35037       6.56964
                        -----------------------------------------
Total Dipole Moment    :     -0.04267       0.55367       0.48049
                        -----------------------------------------
Magnitude (a.u.)       :      0.73433
Magnitude (Debye)      :      1.86652

                             ****ORCA TERMINATED NORMALLY****
TOTAL RUN TIME: 0 days 0 hours 0 minutes 7 seconds 609 msec
