                         Program Version 3.0.3 - RELEASE   -
|  1> ! RI PBE def2-SVP def2-SVP/J NBO PAL2
|  2> % maxcore 2000
|  3> % output
|  4>     # printlevel mini
|  5>     print[ P_Basis ] 0
|  6>     print[ P_SCFInfo ] 1
|  7>     print[ P_SCFIterInfo ] 1
|  8>     print[ P_OrbEn ] 0
|  9>     print[ P_Cartesian ] 0
| 10> end
| 11> *xyz 0 1
| 12>  C        0.9693050000     0.0381200000     0.0822150000
| 13>  C        2.4983280000     0.0465650000     0.0686710000
| 14>  C        3.0811810000    -1.2345570000     0.6677530000
| 15>  C        3.0135360000     0.2754050000    -1.2724760000
| 16>  C        3.4584460000     0.4458430000    -2.3814000000
| 17>  C        3.9324520000     0.6799270000    -3.7177400000
| 18>  O        5.0224540000     0.3610380000    -4.1210030000
| 19>  H        0.6061810000    -0.0790600000     1.1054750000
| 20>  H        0.5857000000    -0.7926340000    -0.5139490000
| 21>  H        0.5641490000     0.9655930000    -0.3247730000
| 22>  H        2.8416020000     0.8941190000     0.6768050000
| 23>  H        2.7673320000    -2.1053880000     0.0883700000
| 24>  H        2.7277930000    -1.3596050000     1.6935290000
| 25>  H        4.1713880000    -1.2064640000     0.6757170000
| 26>  H        3.2050440000     1.1907990000    -4.3781030000
| 27> *
| 28>
| 29>                          ****END OF INPUT****
 Total Charge           Charge          ....    0
 Multiplicity           Mult            ....    1
 Number of Electrons    NEL             ....   52
 Basis Dimension        Dim             ....  138

MULLIKEN ATOMIC CHARGES
-----------------------
   0 C :    0.022083
   1 C :   -0.124942
   2 C :    0.012919
   3 C :    0.013692
   4 C :   -0.085170
   5 C :    0.061438
   6 O :   -0.156272
   7 H :    0.025050
   8 H :    0.033574
   9 H :    0.033447
  10 H :    0.048192
  11 H :    0.032071
  12 H :    0.025234
  13 H :    0.045478
  14 H :    0.013205
Sum of atomic charges:    0.0000000

LOEWDIN ATOMIC CHARGES
----------------------
   0 C :   -0.043073
   1 C :   -0.056068
   2 C :   -0.043731
   3 C :    0.023002
   4 C :   -0.097833
   5 C :    0.065128
   6 O :   -0.097882
   7 H :    0.029703
   8 H :    0.031774
   9 H :    0.032468
  10 H :    0.056886
  11 H :    0.032085
  12 H :    0.029892
  13 H :    0.035890
  14 H :    0.001759

  Mayer bond orders larger than 0.1
B(  0-C ,  1-C ) :   1.0695 B(  0-C ,  7-H ) :   0.9603 B(  0-C ,  8-H ) :   0.9646
B(  0-C ,  9-H ) :   0.9627 B(  1-C ,  2-C ) :   1.0729 B(  1-C ,  3-C ) :   1.0065
B(  1-C , 10-H ) :   0.8749 B(  2-C , 11-H ) :   0.9621 B(  2-C , 12-H ) :   0.9573
B(  2-C , 13-H ) :   0.9628 B(  3-C ,  4-C ) :   2.5681 B(  3-C ,  6-O ) :   0.1203
B(  4-C ,  5-C ) :   0.8967 B(  5-C ,  6-O ) :   2.1398 B(  5-C , 14-H ) :   0.9444

FINAL SINGLE POINT ENERGY      -307.981197092468

DIPOLE MOMENT
-------------
                                X             Y             Z
Electronic contribution:      6.09072       2.87460      -9.33551
Nuclear contribution   :     -7.12991      -2.82464      10.41477
                        -----------------------------------------
Total Dipole Moment    :     -1.03919       0.04995       1.07926
                        -----------------------------------------
Magnitude (a.u.)       :      1.49907
Magnitude (Debye)      :      3.81034

                             ****ORCA TERMINATED NORMALLY****
TOTAL RUN TIME: 0 days 0 hours 0 minutes 6 seconds 257 msec
