                         Program Version 3.0.3 - RELEASE   -
|  1> ! RI PBE def2-SVP def2-SVP/J NBO PAL2
|  2> % maxcore 2000
|  3> % output
|  4>     # printlevel mini
|  5>     print[ P_Basis ] 0
|  6>     print[ P_SCFInfo ] 1
|  7>     print[ P_SCFIterInfo ] 1
|  8>     print[ P_OrbEn ] 0
|  9>     print[ P_Cartesian ] 0
| 10> end
| 11> *xyz 0 1
| 12>  C        2.3610570000     1.0704500000    -0.7282030000
| 13>  C        3.7301300000     0.5609780000    -0.2982980000
| 14>  C        4.3114240000     1.4473470000     0.7945870000
| 15>  C        3.6379490000    -0.9010310000     0.1325540000
| 16>  C        4.9682300000    -1.5931350000     0.3969970000
| 17>  C        4.7772310000    -3.0269600000     0.8555490000
| 18>  O        5.8237320000    -1.5297690000    -0.7343950000
| 19>  H        2.4145240000     2.1061010000    -1.0737790000
| 20>  H        1.6520840000     1.0367970000     0.1057770000
| 21>  H        1.9455680000     0.4674020000    -1.5402460000
| 22>  H        4.4022640000     0.6057880000    -1.1628040000
| 23>  H        3.6969880000     1.4028670000     1.7002700000
| 24>  H        4.3455220000     2.4904260000     0.4700010000
| 25>  H        5.3288640000     1.1555830000     1.0623550000
| 26>  H        3.1089810000    -1.4718710000    -0.6441480000
| 27>  H        3.0170990000    -0.9741730000     1.0349510000
| 28>  H        5.5125810000    -1.0482310000     1.1742660000
| 29>  H        4.2327430000    -3.6050080000     0.1007950000
| 30>  H        4.2037610000    -3.0718430000     1.7847420000
| 31>  H        5.7441310000    -3.5054230000     1.0211300000
| 32>  H        5.4072280000    -2.0232150000    -1.4476830000
| 33> *
| 34>
| 35>                          ****END OF INPUT****
 Total Charge           Charge          ....    0
 Multiplicity           Mult            ....    1
 Number of Electrons    NEL             ....   58
 Basis Dimension        Dim             ....  168

MULLIKEN ATOMIC CHARGES
-----------------------
   0 C :    0.023881
   1 C :   -0.121499
   2 C :    0.011546
   3 C :    0.011621
   4 C :    0.065097
   5 C :    0.023962
   6 O :   -0.278421
   7 H :    0.013616
   8 H :    0.012538
   9 H :    0.011109
  10 H :    0.003255
  11 H :    0.008829
  12 H :    0.014261
  13 H :    0.025255
  14 H :   -0.014599
  15 H :   -0.004102
  16 H :    0.000474
  17 H :    0.004767
  18 H :    0.014991
  19 H :    0.025814
  20 H :    0.147605
Sum of atomic charges:   -0.0000000

LOEWDIN ATOMIC CHARGES
----------------------
   0 C :   -0.060673
   1 C :   -0.048384
   2 C :   -0.059554
   3 C :   -0.052040
   4 C :    0.040407
   5 C :   -0.077764
   6 O :   -0.111909
   7 H :    0.024539
   8 H :    0.022754
   9 H :    0.022544
  10 H :    0.021925
  11 H :    0.021852
  12 H :    0.025957
  13 H :    0.025364
  14 H :    0.017371
  15 H :    0.024209
  16 H :    0.020204
  17 H :    0.020990
  18 H :    0.029864
  19 H :    0.028933
  20 H :    0.063409

  Mayer bond orders larger than 0.1
B(  0-C ,  1-C ) :   1.0906 B(  0-C ,  7-H ) :   0.9572 B(  0-C ,  8-H ) :   0.9592
B(  0-C ,  9-H ) :   0.9562 B(  1-C ,  2-C ) :   1.0844 B(  1-C ,  3-C ) :   1.0591
B(  1-C , 10-H ) :   0.9003 B(  2-C , 11-H ) :   0.9604 B(  2-C , 12-H ) :   0.9571
B(  2-C , 13-H ) :   0.9567 B(  3-C ,  4-C ) :   1.0435 B(  3-C , 14-H ) :   0.9153
B(  3-C , 15-H ) :   0.9173 B(  4-C ,  5-C ) :   1.1029 B(  4-C ,  6-O ) :   1.0165
B(  4-C , 16-H ) :   0.9000 B(  5-C , 17-H ) :   0.9490 B(  5-C , 18-H ) :   0.9470
B(  5-C , 19-H ) :   0.9531 B(  6-O , 20-H ) :   0.9837

FINAL SINGLE POINT ENERGY      -311.641504998137

DIPOLE MOMENT
-------------
                                X             Y             Z
Electronic contribution:      3.76464      -1.98087      -1.83264
Nuclear contribution   :     -4.19569       1.69997       1.80908
                        -----------------------------------------
Total Dipole Moment    :     -0.43106      -0.28091      -0.02355
                        -----------------------------------------
Magnitude (a.u.)       :      0.51505
Magnitude (Debye)      :      1.30914

                             ****ORCA TERMINATED NORMALLY****
TOTAL RUN TIME: 0 days 0 hours 0 minutes 8 seconds 259 msec
