                         Program Version 3.0.3 - RELEASE   -
|  1> ! RI PBE def2-SVP def2-SVP/J NBO PAL2
|  2> % maxcore 2000
|  3> % output
|  4>     # printlevel mini
|  5>     print[ P_Basis ] 0
|  6>     print[ P_SCFInfo ] 1
|  7>     print[ P_SCFIterInfo ] 1
|  8>     print[ P_OrbEn ] 0
|  9>     print[ P_Cartesian ] 0
| 10> end
| 11> *xyz 0 1
| 12>  C        0.7492790000    -0.3115980000    -0.1557810000
| 13>  C        2.2001360000    -0.0634600000    -0.5458570000
| 14>  C        2.4106740000    -0.2813890000    -2.0375440000
| 15>  C        2.6487330000     1.3329450000    -0.1410140000
| 16>  C        2.8007510000     1.5588990000     1.3468730000
| 17>  C        2.9328030000     2.9934550000     1.7876340000
| 18>  O        2.8294360000     0.6493210000     2.1389260000
| 19>  H        0.4412330000    -1.3253680000    -0.4235270000
| 20>  H        0.0827160000     0.3839970000    -0.6772600000
| 21>  H        0.6009500000    -0.1912540000     0.9186840000
| 22>  H        2.8236110000    -0.7752340000     0.0054650000
| 23>  H        1.8177150000     0.4262830000    -2.6262970000
| 24>  H        2.1078680000    -1.2891170000    -2.3325410000
| 25>  H        3.4593460000    -0.1514970000    -2.3187590000
| 26>  H        1.9745590000     2.0968530000    -0.5497350000
| 27>  H        3.6317750000     1.5597680000    -0.5778600000
| 28>  H        3.6244070000     3.5431970000     1.1442940000
| 29>  H        3.2618400000     3.0391960000     2.8243520000
| 30>  H        1.9582960000     3.4842230000     1.6994460000
| 31> *
| 32>
| 33>                          ****END OF INPUT****
 Total Charge           Charge          ....    0
 Multiplicity           Mult            ....    1
 Number of Electrons    NEL             ....   56
 Basis Dimension        Dim             ....  158

MULLIKEN ATOMIC CHARGES
-----------------------
   0 C :    0.016538
   1 C :   -0.138551
   2 C :    0.035227
   3 C :    0.029717
   4 C :   -0.062592
   5 C :    0.030060
   6 O :   -0.167009
   7 H :    0.014929
   8 H :    0.003478
   9 H :    0.029455
  10 H :    0.020741
  11 H :    0.007485
  12 H :    0.013399
  13 H :    0.011795
  14 H :    0.010734
  15 H :    0.028423
  16 H :    0.033219
  17 H :    0.034332
  18 H :    0.048617
Sum of atomic charges:    0.0000000

LOEWDIN ATOMIC CHARGES
----------------------
   0 C :   -0.058285
   1 C :   -0.045897
   2 C :   -0.056539
   3 C :   -0.067178
   4 C :    0.059617
   5 C :   -0.088043
   6 O :   -0.122796
   7 H :    0.026055
   8 H :    0.019692
   9 H :    0.027339
  10 H :    0.029761
  11 H :    0.021735
  12 H :    0.025471
  13 H :    0.022780
  14 H :    0.032795
  15 H :    0.045763
  16 H :    0.039772
  17 H :    0.037971
  18 H :    0.049988

  Mayer bond orders larger than 0.1
B(  0-C ,  1-C ) :   1.0855 B(  0-C ,  7-H ) :   0.9628 B(  0-C ,  8-H ) :   0.9559
B(  0-C ,  9-H ) :   0.9604 B(  1-C ,  2-C ) :   1.0852 B(  1-C ,  3-C ) :   1.0578
B(  1-C , 10-H ) :   0.9027 B(  2-C , 11-H ) :   0.9567 B(  2-C , 12-H ) :   0.9607
B(  2-C , 13-H ) :   0.9613 B(  3-C ,  4-C ) :   0.9466 B(  3-C , 14-H ) :   0.9160
B(  3-C , 15-H ) :   0.8954 B(  4-C ,  5-C ) :   1.0383 B(  4-C ,  6-O ) :   2.1635
B(  5-C , 16-H ) :   0.9451 B(  5-C , 17-H ) :   0.9442 B(  5-C , 18-H ) :   0.9370

FINAL SINGLE POINT ENERGY      -310.453355357564

DIPOLE MOMENT
-------------
                                X             Y             Z
Electronic contribution:      2.36486       0.02245       5.94981
Nuclear contribution   :     -2.36505       0.67990      -6.56665
                        -----------------------------------------
Total Dipole Moment    :     -0.00019       0.70236      -0.61684
                        -----------------------------------------
Magnitude (a.u.)       :      0.93477
Magnitude (Debye)      :      2.37600

                             ****ORCA TERMINATED NORMALLY****
TOTAL RUN TIME: 0 days 0 hours 0 minutes 8 seconds 286 msec
