                         Program Version 3.0.3 - RELEASE   -
|  1> ! RI PBE def2-SVP def2-SVP/J NBO PAL2
|  2> % maxcore 2000
|  3> % output
|  4>     # printlevel mini
|  5>     print[ P_Basis ] 0
|  6>     print[ P_SCFInfo ] 1
|  7>     print[ P_SCFIterInfo ] 1
|  8>     print[ P_OrbEn ] 0
|  9>     print[ P_Cartesian ] 0
| 10> end
| 11> *xyz 0 1
| 12>  C        0.9960280000     0.1533800000     0.1790430000
| 13>  C        2.5056820000    -0.0345880000     0.1188550000
| 14>  C        2.8748100000    -1.4805270000     0.4241770000
| 15>  C        3.0408670000     0.4317380000    -1.2332520000
| 16>  C        4.5523880000     0.4385690000    -1.3430000000
| 17>  C        5.0844510000     1.0150100000    -2.6198100000
| 18>  O        4.4125390000     1.4417290000    -3.5184860000
| 19>  H        0.5987680000    -0.1359470000     1.1552430000
| 20>  H        0.4992660000    -0.4629980000    -0.5770570000
| 21>  H        0.7155680000     1.1936220000    -0.0046460000
| 22>  H        2.9557220000     0.6013170000     0.8939590000
| 23>  H        2.4731720000    -2.1510410000    -0.3427640000
| 24>  H        2.4613250000    -1.7941990000     1.3859390000
| 25>  H        3.9556060000    -1.6328880000     0.4686550000
| 26>  H        2.6737400000     1.4419190000    -1.4383790000
| 27>  H        2.6239970000    -0.1982470000    -2.0271790000
| 28>  H        4.9828880000    -0.5677460000    -1.2547350000
| 29>  H        5.0138650000     1.0081640000    -0.5230490000
| 30>  H        6.1949190000     1.0271160000    -2.6953030000
| 31> *
| 32>
| 33>                          ****END OF INPUT****
 Total Charge           Charge          ....    0
 Multiplicity           Mult            ....    1
 Number of Electrons    NEL             ....   56
 Basis Dimension        Dim             ....  158

MULLIKEN ATOMIC CHARGES
-----------------------
   0 C :    0.042311
   1 C :   -0.158258
   2 C :    0.011447
   3 C :    0.016278
   4 C :    0.004297
   5 C :    0.070486
   6 O :   -0.158516
   7 H :    0.011875
   8 H :    0.011548
   9 H :    0.014307
  10 H :    0.005418
  11 H :    0.014931
  12 H :    0.013823
  13 H :    0.017098
  14 H :    0.013939
  15 H :    0.012767
  16 H :    0.033602
  17 H :    0.029595
  18 H :   -0.006947
Sum of atomic charges:   -0.0000000

LOEWDIN ATOMIC CHARGES
----------------------
   0 C :   -0.055314
   1 C :   -0.048619
   2 C :   -0.060836
   3 C :   -0.033679
   4 C :   -0.084591
   5 C :    0.089988
   6 O :   -0.108735
   7 H :    0.023890
   8 H :    0.024506
   9 H :    0.024732
  10 H :    0.022784
  11 H :    0.025107
  12 H :    0.026386
  13 H :    0.020970
  14 H :    0.028334
  15 H :    0.027947
  16 H :    0.044058
  17 H :    0.045474
  18 H :   -0.012403

  Mayer bond orders larger than 0.1
B(  0-C ,  1-C ) :   1.0903 B(  0-C ,  7-H ) :   0.9601 B(  0-C ,  8-H ) :   0.9585
B(  0-C ,  9-H ) :   0.9597 B(  1-C ,  2-C ) :   1.0758 B(  1-C ,  3-C ) :   1.0615
B(  1-C , 10-H ) :   0.9099 B(  2-C , 11-H ) :   0.9598 B(  2-C , 12-H ) :   0.9576
B(  2-C , 13-H ) :   0.9599 B(  3-C ,  4-C ) :   1.0754 B(  3-C , 14-H ) :   0.9336
B(  3-C , 15-H ) :   0.9292 B(  4-C ,  5-C ) :   0.9682 B(  4-C , 16-H ) :   0.8951
B(  4-C , 17-H ) :   0.9000 B(  5-C ,  6-O ) :   2.1893 B(  5-C , 18-H ) :   0.9299

FINAL SINGLE POINT ENERGY      -310.441466647112

DIPOLE MOMENT
-------------
                                X             Y             Z
Electronic contribution:      4.92539       4.30098      -7.41677
Nuclear contribution   :     -4.64970      -4.66058       8.24144
                        -----------------------------------------
Total Dipole Moment    :      0.27569      -0.35960       0.82467
                        -----------------------------------------
Magnitude (a.u.)       :      0.94096
Magnitude (Debye)      :      2.39173

                             ****ORCA TERMINATED NORMALLY****
TOTAL RUN TIME: 0 days 0 hours 0 minutes 8 seconds 263 msec
