                         Program Version 3.0.3 - RELEASE   -
|  1> ! RI PBE def2-SVP def2-SVP/J NBO PAL2
|  2> % maxcore 2000
|  3> % output
|  4>     # printlevel mini
|  5>     print[ P_Basis ] 0
|  6>     print[ P_SCFInfo ] 1
|  7>     print[ P_SCFIterInfo ] 1
|  8>     print[ P_OrbEn ] 0
|  9>     print[ P_Cartesian ] 0
| 10> end
| 11> *xyz 0 1
| 12>  C        0.7378900000    -0.0425430000    -0.2507120000
| 13>  C        2.1712330000     0.2205160000     0.1939040000
| 14>  C        3.1301910000    -0.6394330000    -0.4842580000
| 15>  C        3.9020570000    -1.3520820000    -1.0656830000
| 16>  C        2.5504380000     1.7074820000     0.0693510000
| 17>  C        3.9921920000     2.0639930000     0.2867630000
| 18>  O        1.7085040000     2.5331800000    -0.1646660000
| 19>  H        0.4723940000    -1.0843000000    -0.0687790000
| 20>  H        0.6248020000     0.1654150000    -1.3150630000
| 21>  H        0.0528100000     0.6063350000     0.2939610000
| 22>  H        2.2544630000     0.0119900000     1.2720880000
| 23>  H        4.5854900000    -1.9867840000    -1.5785470000
| 24>  H        4.5690050000     1.7654940000    -0.5927060000
| 25>  H        4.4121990000     1.5188080000     1.1351010000
| 26>  H        4.0854520000     3.1382190000     0.4348460000
| 27> *
| 28>
| 29>                          ****END OF INPUT****
 Total Charge           Charge          ....    0
 Multiplicity           Mult            ....    1
 Number of Electrons    NEL             ....   52
 Basis Dimension        Dim             ....  138

MULLIKEN ATOMIC CHARGES
-----------------------
   0 C :    0.053033
   1 C :   -0.065354
   2 C :    0.373393
   3 C :   -0.500622
   4 C :   -0.054647
   5 C :    0.040532
   6 O :   -0.143366
   7 H :    0.025403
   8 H :    0.034745
   9 H :    0.032551
  10 H :    0.060502
  11 H :   -0.000245
  12 H :    0.067515
  13 H :    0.036729
  14 H :    0.039832
Sum of atomic charges:   -0.0000000

LOEWDIN ATOMIC CHARGES
----------------------
   0 C :   -0.040787
   1 C :   -0.082982
   2 C :   -0.019446
   3 C :   -0.084752
   4 C :    0.072275
   5 C :   -0.084756
   6 O :   -0.104973
   7 H :    0.031767
   8 H :    0.035657
   9 H :    0.033011
  10 H :    0.065190
  11 H :    0.036025
  12 H :    0.059280
  13 H :    0.043905
  14 H :    0.040585

  Mayer bond orders larger than 0.1
B(  0-C ,  1-C ) :   1.0926 B(  0-C ,  7-H ) :   0.9566 B(  0-C ,  8-H ) :   0.9621
B(  0-C ,  9-H ) :   0.9479 B(  1-C ,  2-C ) :   0.9915 B(  1-C ,  4-C ) :   0.8628
B(  1-C , 10-H ) :   0.8567 B(  2-C ,  3-C ) :   2.3216 B(  2-C , 11-H ) :  -0.1187
B(  3-C , 11-H ) :   1.1094 B(  4-C ,  5-C ) :   1.0587 B(  4-C ,  6-O ) :   2.2110
B(  5-C , 12-H ) :   0.9224 B(  5-C , 13-H ) :   0.9410 B(  5-C , 14-H ) :   0.9434

FINAL SINGLE POINT ENERGY      -307.983916359928

DIPOLE MOMENT
-------------
                                X             Y             Z
Electronic contribution:      0.06134       0.94693      -0.74209
Nuclear contribution   :      0.49250      -1.41936       1.01865
                        -----------------------------------------
Total Dipole Moment    :      0.55385      -0.47243       0.27656
                        -----------------------------------------
Magnitude (a.u.)       :      0.77873
Magnitude (Debye)      :      1.97938

                             ****ORCA TERMINATED NORMALLY****
TOTAL RUN TIME: 0 days 0 hours 0 minutes 6 seconds 943 msec
