                         Program Version 3.0.3 - RELEASE   -
|  1> ! RI PBE def2-SVP def2-SVP/J NBO PAL2
|  2> % maxcore 2000
|  3> % output
|  4>     # printlevel mini
|  5>     print[ P_Basis ] 0
|  6>     print[ P_SCFInfo ] 1
|  7>     print[ P_SCFIterInfo ] 1
|  8>     print[ P_OrbEn ] 0
|  9>     print[ P_Cartesian ] 0
| 10> end
| 11> *xyz 0 1
| 12>  C        0.7473890000    -0.3259140000     0.0932650000
| 13>  C        2.2640730000    -0.1635390000     0.1549460000
| 14>  C        2.7091540000     1.2457610000     0.5349260000
| 15>  C        2.4055780000     2.2534050000    -0.5224960000
| 16>  C        1.6327670000     3.3195980000    -0.3687440000
| 17>  C        2.8436800000    -1.2087100000     1.0715600000
| 18>  O        3.6031890000    -0.9991630000     1.9762960000
| 19>  H        0.3203770000     0.3649730000    -0.6347490000
| 20>  H        0.2960620000    -0.1096490000     1.0653890000
| 21>  H        0.4641390000    -1.3415970000    -0.1939190000
| 22>  H        2.6648100000    -0.4136950000    -0.8407380000
| 23>  H        3.7871500000     1.2228400000     0.7272930000
| 24>  H        2.2358830000     1.5337050000     1.4785510000
| 25>  H        2.8707170000     2.0792530000    -1.4926690000
| 26>  H        1.1497460000     3.5362790000     0.5792790000
| 27>  H        1.4615460000     4.0187320000    -1.1790960000
| 28>  H        2.5055610000    -2.2466700000     0.8498860000
| 29> *
| 30>
| 31>                          ****END OF INPUT****
 Total Charge           Charge          ....    0
 Multiplicity           Mult            ....    1
 Number of Electrons    NEL             ....   54
 Basis Dimension        Dim             ....  148

MULLIKEN ATOMIC CHARGES
-----------------------
   0 C :    0.010000
   1 C :   -0.160706
   2 C :    0.115752
   3 C :   -0.083836
   4 C :   -0.033975
   5 C :    0.115461
   6 O :   -0.152153
   7 H :    0.037038
   8 H :    0.028905
   9 H :    0.025863
  10 H :    0.031403
  11 H :    0.030854
  12 H :    0.004947
  13 H :   -0.000720
  14 H :    0.017499
  15 H :    0.026343
  16 H :   -0.012673
Sum of atomic charges:    0.0000000

LOEWDIN ATOMIC CHARGES
----------------------
   0 C :   -0.049259
   1 C :   -0.084491
   2 C :   -0.032791
   3 C :   -0.028756
   4 C :   -0.067293
   5 C :    0.097267
   6 O :   -0.102318
   7 H :    0.033660
   8 H :    0.029829
   9 H :    0.027766
  10 H :    0.044558
  11 H :    0.040221
  12 H :    0.031756
  13 H :    0.024379
  14 H :    0.022076
  15 H :    0.025127
  16 H :   -0.011731

  Mayer bond orders larger than 0.1
B(  0-C ,  1-C ) :   1.0562 B(  0-C ,  7-H ) :   0.9565 B(  0-C ,  8-H ) :   0.9635
B(  0-C ,  9-H ) :   0.9589 B(  1-C ,  2-C ) :   1.0454 B(  1-C ,  5-C ) :   0.9186
B(  1-C , 10-H ) :   0.8829 B(  2-C ,  3-C ) :   1.0719 B(  2-C , 11-H ) :   0.9003
B(  2-C , 12-H ) :   0.9238 B(  3-C ,  4-C ) :   2.0037 B(  3-C , 13-H ) :   0.9501
B(  4-C , 14-H ) :   0.9484 B(  4-C , 15-H ) :   0.9426 B(  5-C ,  6-O ) :   2.1991
B(  5-C , 16-H ) :   0.9316

FINAL SINGLE POINT ENERGY      -309.217547424533

DIPOLE MOMENT
-------------
                                X             Y             Z
Electronic contribution:      4.47568      -2.95593       3.10533
Nuclear contribution   :     -5.01373       2.90280      -3.80358
                        -----------------------------------------
Total Dipole Moment    :     -0.53804      -0.05313      -0.69825
                        -----------------------------------------
Magnitude (a.u.)       :      0.88310
Magnitude (Debye)      :      2.24466

                             ****ORCA TERMINATED NORMALLY****
TOTAL RUN TIME: 0 days 0 hours 0 minutes 7 seconds 975 msec
