                         Program Version 3.0.3 - RELEASE   -
|  1> ! RI PBE def2-SVP def2-SVP/J NBO PAL2
|  2> % maxcore 2000
|  3> % output
|  4>     # printlevel mini
|  5>     print[ P_Basis ] 0
|  6>     print[ P_SCFInfo ] 1
|  7>     print[ P_SCFIterInfo ] 1
|  8>     print[ P_OrbEn ] 0
|  9>     print[ P_Cartesian ] 0
| 10> end
| 11> *xyz 0 1
| 12>  C        0.9754890000     0.3653240000     0.1015670000
| 13>  C        2.4725820000     0.1093410000    -0.0485110000
| 14>  C        2.8123500000    -0.8574910000    -1.1816450000
| 15>  C        2.2761600000    -2.1895740000    -0.9643950000
| 16>  C        1.8300230000    -3.2868660000    -0.7677580000
| 17>  C        3.1939610000     1.4194890000    -0.2160850000
| 18>  O        3.9366480000     1.6916290000    -1.1183080000
| 19>  H        0.4533160000    -0.5694080000     0.3092960000
| 20>  H        0.5601410000     0.7908560000    -0.8158030000
| 21>  H        0.7718050000     1.0589130000     0.9208010000
| 22>  H        2.8375770000    -0.3085930000     0.9009600000
| 23>  H        3.8982710000    -0.9109300000    -1.2997770000
| 24>  H        2.4302950000    -0.4552510000    -2.1257970000
| 25>  H        1.4406150000    -4.2636330000    -0.6038010000
| 26>  H        2.9813670000     2.1625740000     0.5848660000
| 27> *
| 28>
| 29>                          ****END OF INPUT****
 Total Charge           Charge          ....    0
 Multiplicity           Mult            ....    1
 Number of Electrons    NEL             ....   52
 Basis Dimension        Dim             ....  138

MULLIKEN ATOMIC CHARGES
-----------------------
   0 C :    0.003348
   1 C :   -0.161882
   2 C :    0.142201
   3 C :    0.336891
   4 C :   -0.512121
   5 C :    0.118540
   6 O :   -0.151495
   7 H :    0.047340
   8 H :    0.031019
   9 H :    0.030263
  10 H :    0.042446
  11 H :    0.045786
  12 H :    0.035575
  13 H :   -0.001424
  14 H :   -0.006487
Sum of atomic charges:    0.0000000

LOEWDIN ATOMIC CHARGES
----------------------
   0 C :   -0.047875
   1 C :   -0.078184
   2 C :   -0.037281
   3 C :   -0.021720
   4 C :   -0.091970
   5 C :    0.098795
   6 O :   -0.101681
   7 H :    0.038226
   8 H :    0.030844
   9 H :    0.029829
  10 H :    0.049441
  11 H :    0.054272
  12 H :    0.051588
  13 H :    0.034624
  14 H :   -0.008907

  Mayer bond orders larger than 0.1
B(  0-C ,  1-C ) :   1.0556 B(  0-C ,  7-H ) :   0.9555 B(  0-C ,  8-H ) :   0.9629
B(  0-C ,  9-H ) :   0.9585 B(  1-C ,  2-C ) :   1.0442 B(  1-C ,  5-C ) :   0.9232
B(  1-C , 10-H ) :   0.8851 B(  2-C ,  3-C ) :   1.0607 B(  2-C , 11-H ) :   0.8876
B(  2-C , 12-H ) :   0.8879 B(  3-C ,  4-C ) :   2.3114 B(  3-C , 13-H ) :  -0.1126
B(  4-C , 13-H ) :   1.1031 B(  5-C ,  6-O ) :   2.1916 B(  5-C , 14-H ) :   0.9333

FINAL SINGLE POINT ENERGY      -307.975157605006

DIPOLE MOMENT
-------------
                                X             Y             Z
Electronic contribution:      3.86138      -0.05611      -1.85396
Nuclear contribution   :     -4.40009      -0.06492       2.44449
                        -----------------------------------------
Total Dipole Moment    :     -0.53871      -0.12103       0.59053
                        -----------------------------------------
Magnitude (a.u.)       :      0.80844
Magnitude (Debye)      :      2.05490

                             ****ORCA TERMINATED NORMALLY****
TOTAL RUN TIME: 0 days 0 hours 0 minutes 6 seconds 485 msec
