                         Program Version 3.0.3 - RELEASE   -
|  1> ! RI PBE def2-SVP def2-SVP/J NBO PAL2
|  2> % maxcore 2000
|  3> % output
|  4>     # printlevel mini
|  5>     print[ P_Basis ] 0
|  6>     print[ P_SCFInfo ] 1
|  7>     print[ P_SCFIterInfo ] 1
|  8>     print[ P_OrbEn ] 0
|  9>     print[ P_Cartesian ] 0
| 10> end
| 11> *xyz 0 1
| 12>  C        0.9547270000    -0.0651110000     0.0833290000
| 13>  C        2.4054580000    -0.0264400000     0.0558380000
| 14>  C        3.6079330000     0.0006200000     0.0387830000
| 15>  C        5.0634160000     0.0463660000     0.0092520000
| 16>  C        5.6383750000     0.4978100000    -1.3352450000
| 17>  C        5.3337280000    -0.4689540000    -2.4630900000
| 18>  O        5.9009020000    -0.0677490000    -3.6932580000
| 19>  H        0.5327160000     0.3364720000    -0.8414950000
| 20>  H        0.5610090000     0.5260090000     0.9141070000
| 21>  H        0.5909430000    -1.0892640000     0.1991120000
| 22>  H        5.4604790000    -0.9444410000     0.2607290000
| 23>  H        5.4142990000     0.7210340000     0.7968200000
| 24>  H        6.7232370000     0.6051350000    -1.2451710000
| 25>  H        5.2344620000     1.4861120000    -1.5827860000
| 26>  H        4.2487960000    -0.6095250000    -2.5518080000
| 27>  H        5.7693670000    -1.4475420000    -2.2415270000
| 28>  H        5.4881530000     0.7577460000    -3.9591000000
| 29> *
| 30>
| 31>                          ****END OF INPUT****
 Total Charge           Charge          ....    0
 Multiplicity           Mult            ....    1
 Number of Electrons    NEL             ....   54
 Basis Dimension        Dim             ....  148

MULLIKEN ATOMIC CHARGES
-----------------------
   0 C :    0.055133
   1 C :   -0.221749
   2 C :   -0.115066
   3 C :    0.058271
   4 C :   -0.053801
   5 C :    0.173327
   6 O :   -0.289166
   7 H :    0.043815
   8 H :    0.046178
   9 H :    0.044642
  10 H :    0.029846
  11 H :    0.034307
  12 H :    0.021700
  13 H :    0.007891
  14 H :    0.011780
  15 H :    0.000241
  16 H :    0.152651
Sum of atomic charges:   -0.0000000

LOEWDIN ATOMIC CHARGES
----------------------
   0 C :   -0.068150
   1 C :   -0.074589
   2 C :   -0.071151
   3 C :   -0.045187
   4 C :   -0.056535
   5 C :    0.053797
   6 O :   -0.123885
   7 H :    0.049057
   8 H :    0.049418
   9 H :    0.049244
  10 H :    0.045081
  11 H :    0.048250
  12 H :    0.027886
  13 H :    0.021827
  14 H :    0.008481
  15 H :    0.019611
  16 H :    0.066844

  Mayer bond orders larger than 0.1
B(  0-C ,  1-C ) :   1.1366 B(  0-C ,  7-H ) :   0.9316 B(  0-C ,  8-H ) :   0.9342
B(  0-C ,  9-H ) :   0.9333 B(  1-C ,  2-C ) :   2.5816 B(  2-C ,  3-C ) :   1.0745
B(  3-C ,  4-C ) :   1.0681 B(  3-C , 10-H ) :   0.8991 B(  3-C , 11-H ) :   0.8928
B(  4-C ,  5-C ) :   1.0729 B(  4-C , 12-H ) :   0.9255 B(  4-C , 13-H ) :   0.9304
B(  5-C ,  6-O ) :   1.0567 B(  5-C , 14-H ) :   0.9438 B(  5-C , 15-H ) :   0.9318
B(  6-O , 16-H ) :   0.9868

FINAL SINGLE POINT ENERGY      -309.179606854076

DIPOLE MOMENT
-------------
                                X             Y             Z
Electronic contribution:      1.23442      -0.05770      -0.85587
Nuclear contribution   :     -1.71811       0.40847       1.12718
                        -----------------------------------------
Total Dipole Moment    :     -0.48370       0.35077       0.27130
                        -----------------------------------------
Magnitude (a.u.)       :      0.65621
Magnitude (Debye)      :      1.66794

                             ****ORCA TERMINATED NORMALLY****
TOTAL RUN TIME: 0 days 0 hours 0 minutes 7 seconds 386 msec
