                         Program Version 3.0.3 - RELEASE   -
|  1> ! RI PBE def2-SVP def2-SVP/J NBO PAL2
|  2> % maxcore 2000
|  3> % output
|  4>     # printlevel mini
|  5>     print[ P_Basis ] 0
|  6>     print[ P_SCFInfo ] 1
|  7>     print[ P_SCFIterInfo ] 1
|  8>     print[ P_OrbEn ] 0
|  9>     print[ P_Cartesian ] 0
| 10> end
| 11> *xyz 0 1
| 12>  C        1.0281600000     0.0248240000     0.0790420000
| 13>  C        2.4756240000    -0.0210720000     0.0420920000
| 14>  C        3.6798770000    -0.0665410000     0.0020480000
| 15>  C        5.0957700000    -0.0918840000    -0.0105410000
| 16>  C        5.8420710000    -0.7847970000    -0.8759860000
| 17>  C        7.3312590000    -0.7862460000    -0.8556120000
| 18>  O        7.8645890000    -2.0903060000    -0.7145900000
| 19>  H        0.6771670000     0.8195740000     0.7418610000
| 20>  H        0.6159850000    -0.9210820000     0.4409350000
| 21>  H        0.6163540000     0.2088310000    -0.9167190000
| 22>  H        5.5952610000     0.5123630000     0.7458910000
| 23>  H        5.3634440000    -1.4008990000    -1.6326320000
| 24>  H        7.6960670000    -0.1151930000    -0.0657110000
| 25>  H        7.7250930000    -0.4168260000    -1.8073970000
| 26>  H        7.4756070000    -2.4818170000     0.0724980000
| 27> *
| 28>
| 29>                          ****END OF INPUT****
 Total Charge           Charge          ....    0
 Multiplicity           Mult            ....    1
 Number of Electrons    NEL             ....   52
 Basis Dimension        Dim             ....  138

MULLIKEN ATOMIC CHARGES
-----------------------
   0 C :    0.052958
   1 C :   -0.168970
   2 C :    0.000228
   3 C :   -0.078015
   4 C :   -0.120134
   5 C :    0.252543
   6 O :   -0.292680
   7 H :    0.051295
   8 H :    0.051477
   9 H :    0.051170
  10 H :    0.020298
  11 H :    0.011952
  12 H :   -0.002478
  13 H :    0.018620
  14 H :    0.151737
Sum of atomic charges:   -0.0000000

LOEWDIN ATOMIC CHARGES
----------------------
   0 C :   -0.066766
   1 C :   -0.043937
   2 C :   -0.063196
   3 C :   -0.052883
   4 C :   -0.039666
   5 C :    0.054911
   6 O :   -0.120688
   7 H :    0.051956
   8 H :    0.053266
   9 H :    0.052754
  10 H :    0.038090
  11 H :    0.030424
  12 H :    0.008279
  13 H :    0.030313
  14 H :    0.067141

  Mayer bond orders larger than 0.1
B(  0-C ,  1-C ) :   1.1315 B(  0-C ,  7-H ) :   0.9337 B(  0-C ,  8-H ) :   0.9295
B(  0-C ,  9-H ) :   0.9309 B(  1-C ,  2-C ) :   2.4472 B(  1-C ,  4-C ) :   0.1198
B(  2-C ,  3-C ) :   1.0369 B(  3-C ,  4-C ) :   1.7766 B(  3-C , 10-H ) :   0.9396
B(  4-C ,  5-C ) :   1.0624 B(  4-C , 11-H ) :   0.9652 B(  5-C ,  6-O ) :   1.0268
B(  5-C , 12-H ) :   0.9326 B(  5-C , 13-H ) :   0.9151 B(  6-O , 14-H ) :   0.9841

FINAL SINGLE POINT ENERGY      -307.966399830752

DIPOLE MOMENT
-------------
                                X             Y             Z
Electronic contribution:      2.24407      -0.76309       0.03862
Nuclear contribution   :     -2.90952       0.94569       0.32438
                        -----------------------------------------
Total Dipole Moment    :     -0.66545       0.18260       0.36300
                        -----------------------------------------
Magnitude (a.u.)       :      0.77970
Magnitude (Debye)      :      1.98185

                             ****ORCA TERMINATED NORMALLY****
TOTAL RUN TIME: 0 days 0 hours 0 minutes 6 seconds 670 msec
