                         Program Version 3.0.3 - RELEASE   -
|  1> ! RI PBE def2-SVP def2-SVP/J NBO PAL2
|  2> % maxcore 2000
|  3> % output
|  4>     # printlevel mini
|  5>     print[ P_Basis ] 0
|  6>     print[ P_SCFInfo ] 1
|  7>     print[ P_SCFIterInfo ] 1
|  8>     print[ P_OrbEn ] 0
|  9>     print[ P_Cartesian ] 0
| 10> end
| 11> *xyz 0 1
| 12>  C        1.0376940000    -0.0330970000     0.0589020000
| 13>  C        2.4831050000     0.0240620000     0.0614120000
| 14>  C        3.6880720000     0.0853760000     0.0665100000
| 15>  C        5.0956940000     0.1168950000     0.0646330000
| 16>  C        5.8506820000     1.2076640000     0.2715150000
| 17>  C        7.3053800000     1.1024340000     0.2428370000
| 18>  O        8.0618860000     2.0255590000     0.4171510000
| 19>  H        0.6389310000     0.2474350000     1.0374380000
| 20>  H        0.6823930000    -1.0383130000    -0.1787460000
| 21>  H        0.6247550000     0.6592700000    -0.6794480000
| 22>  H        5.6018360000    -0.8303430000    -0.1216280000
| 23>  H        5.4166070000     2.1827780000     0.4627600000
| 24>  H        7.6903550000     0.0778710000     0.0423640000
| 25> *
| 26>
| 27>                          ****END OF INPUT****
 Total Charge           Charge          ....    0
 Multiplicity           Mult            ....    1
 Number of Electrons    NEL             ....   50
 Basis Dimension        Dim             ....  128

MULLIKEN ATOMIC CHARGES
-----------------------
   0 C :    0.052685
   1 C :   -0.150217
   2 C :    0.017289
   3 C :   -0.068726
   4 C :   -0.005588
   5 C :    0.119946
   6 O :   -0.168015
   7 H :    0.060136
   8 H :    0.056546
   9 H :    0.061922
  10 H :    0.036290
  11 H :    0.015376
  12 H :   -0.027644
Sum of atomic charges:   -0.0000000

LOEWDIN ATOMIC CHARGES
----------------------
   0 C :   -0.064304
   1 C :   -0.012795
   2 C :   -0.060016
   3 C :   -0.003819
   4 C :   -0.048231
   5 C :    0.062375
   6 O :   -0.115461
   7 H :    0.059201
   8 H :    0.054851
   9 H :    0.059210
  10 H :    0.044744
  11 H :    0.038399
  12 H :   -0.014153

  Mayer bond orders larger than 0.1
B(  0-C ,  1-C ) :   1.1334 B(  0-C ,  7-H ) :   0.9265 B(  0-C ,  8-H ) :   0.9326
B(  0-C ,  9-H ) :   0.9272 B(  1-C ,  2-C ) :   2.4181 B(  1-C ,  4-C ) :   0.1116
B(  2-C ,  3-C ) :   1.0469 B(  3-C ,  4-C ) :   1.6539 B(  3-C , 10-H ) :   0.9397
B(  4-C ,  5-C ) :   1.0456 B(  4-C , 11-H ) :   0.9710 B(  5-C ,  6-O ) :   2.0933
B(  5-C , 12-H ) :   0.9276

FINAL SINGLE POINT ENERGY      -306.778633349778

DIPOLE MOMENT
-------------
                                X             Y             Z
Electronic contribution:      6.22032       1.81157       0.31206
Nuclear contribution   :     -7.82525      -2.57666      -0.45173
                        -----------------------------------------
Total Dipole Moment    :     -1.60493      -0.76509      -0.13967
                        -----------------------------------------
Magnitude (a.u.)       :      1.78344
Magnitude (Debye)      :      4.53315

                             ****ORCA TERMINATED NORMALLY****
TOTAL RUN TIME: 0 days 0 hours 0 minutes 5 seconds 685 msec
