                         Program Version 3.0.3 - RELEASE   -
|  1> ! RI PBE def2-SVP def2-SVP/J NBO PAL2
|  2> % maxcore 2000
|  3> % output
|  4>     # printlevel mini
|  5>     print[ P_Basis ] 0
|  6>     print[ P_SCFInfo ] 1
|  7>     print[ P_SCFIterInfo ] 1
|  8>     print[ P_OrbEn ] 0
|  9>     print[ P_Cartesian ] 0
| 10> end
| 11> *xyz 0 1
| 12>  C        0.9496680000    -0.1502120000    -0.0347290000
| 13>  C        2.3965560000    -0.0757070000     0.0033260000
| 14>  C        3.5984220000     0.0225360000     0.0415680000
| 15>  C        5.0230820000     0.0401610000     0.0658110000
| 16>  C        5.7276910000     1.1707010000     0.1340840000
| 17>  C        5.6751800000    -1.3200780000     0.0182830000
| 18>  O        5.2461240000    -2.0952150000    -1.0760890000
| 19>  H        0.5797040000    -0.0554990000    -1.0591470000
| 20>  H        0.5040350000     0.6525760000     0.5579580000
| 21>  H        0.5931970000    -1.1024700000     0.3654520000
| 22>  H        5.2446690000     2.1380080000     0.1939240000
| 23>  H        6.8113530000     1.1460340000     0.1348760000
| 24>  H        5.4752600000    -1.8404510000     0.9667960000
| 25>  H        6.7555760000    -1.2037060000    -0.0808620000
| 26>  H        4.2828720000    -2.0924690000    -1.0727400000
| 27> *
| 28>
| 29>                          ****END OF INPUT****
 Total Charge           Charge          ....    0
 Multiplicity           Mult            ....    1
 Number of Electrons    NEL             ....   52
 Basis Dimension        Dim             ....  138

MULLIKEN ATOMIC CHARGES
-----------------------
   0 C :    0.057811
   1 C :   -0.202581
   2 C :   -0.006295
   3 C :   -0.202986
   4 C :    0.000920
   5 C :    0.267045
   6 O :   -0.280656
   7 H :    0.052551
   8 H :    0.055714
   9 H :    0.049563
  10 H :    0.020606
  11 H :    0.020472
  12 H :    0.013592
  13 H :    0.001874
  14 H :    0.152371
Sum of atomic charges:   -0.0000000

LOEWDIN ATOMIC CHARGES
----------------------
   0 C :   -0.066030
   1 C :   -0.048594
   2 C :   -0.059193
   3 C :   -0.067770
   4 C :   -0.031818
   5 C :    0.070825
   6 O :   -0.115555
   7 H :    0.053958
   8 H :    0.055232
   9 H :    0.052340
  10 H :    0.028013
  11 H :    0.025494
  12 H :    0.013671
  13 H :    0.024723
  14 H :    0.064705

  Mayer bond orders larger than 0.1
B(  0-C ,  1-C ) :   1.1356 B(  0-C ,  7-H ) :   0.9291 B(  0-C ,  8-H ) :   0.9311
B(  0-C ,  9-H ) :   0.9311 B(  1-C ,  2-C ) :   2.4778 B(  1-C ,  4-C ) :   0.1164
B(  2-C ,  3-C ) :   1.0069 B(  3-C ,  4-C ) :   1.9120 B(  3-C ,  5-C ) :   1.0114
B(  4-C , 10-H ) :   0.9415 B(  4-C , 11-H ) :   0.9292 B(  5-C ,  6-O ) :   1.0741
B(  5-C , 12-H ) :   0.9178 B(  5-C , 13-H ) :   0.9175 B(  6-O , 14-H ) :   0.9790

FINAL SINGLE POINT ENERGY      -307.964682294829

DIPOLE MOMENT
-------------
                                X             Y             Z
Electronic contribution:      1.69480      -0.63060      -0.78967
Nuclear contribution   :     -2.45650       0.85887       1.12175
                        -----------------------------------------
Total Dipole Moment    :     -0.76170       0.22827       0.33207
                        -----------------------------------------
Magnitude (a.u.)       :      0.86172
Magnitude (Debye)      :      2.19033

                             ****ORCA TERMINATED NORMALLY****
TOTAL RUN TIME: 0 days 0 hours 0 minutes 6 seconds 911 msec
