                         Program Version 3.0.3 - RELEASE   -
|  1> ! RI PBE def2-SVP def2-SVP/J NBO PAL2
|  2> % maxcore 2000
|  3> % output
|  4>     # printlevel mini
|  5>     print[ P_Basis ] 0
|  6>     print[ P_SCFInfo ] 1
|  7>     print[ P_SCFIterInfo ] 1
|  8>     print[ P_OrbEn ] 0
|  9>     print[ P_Cartesian ] 0
| 10> end
| 11> *xyz 0 1
| 12>  C        1.0191280000     0.0116660000     0.0529970000
| 13>  C        2.4653600000     0.0526460000     0.0938110000
| 14>  C        3.6684220000     0.0852410000     0.1262190000
| 15>  C        5.0866830000     0.0857800000     0.1216590000
| 16>  C        5.8446200000     0.8212250000     0.9461340000
| 17>  C        5.7947990000    -0.7825050000    -0.8577280000
| 18>  O        5.2641590000    -1.4976040000    -1.6604910000
| 19>  H        0.6042070000     1.0113040000    -0.0994910000
| 20>  H        0.6138200000    -0.3806880000     0.9892900000
| 21>  H        0.6730150000    -0.6286430000    -0.7616570000
| 22>  H        5.4142800000     1.4802300000     1.6890050000
| 23>  H        6.9261840000     0.7670290000     0.8811230000
| 24>  H        6.9014140000    -0.7130000000    -0.7833610000
| 25> *
| 26>
| 27>                          ****END OF INPUT****
 Total Charge           Charge          ....    0
 Multiplicity           Mult            ....    1
 Number of Electrons    NEL             ....   50
 Basis Dimension        Dim             ....  128

MULLIKEN ATOMIC CHARGES
-----------------------
   0 C :    0.052185
   1 C :   -0.183402
   2 C :    0.028842
   3 C :   -0.130470
   4 C :    0.008585
   5 C :    0.132059
   6 O :   -0.128049
   7 H :    0.052770
   8 H :    0.053770
   9 H :    0.059920
  10 H :    0.040216
  11 H :    0.037105
  12 H :   -0.023531
Sum of atomic charges:   -0.0000000

LOEWDIN ATOMIC CHARGES
----------------------
   0 C :   -0.065225
   1 C :   -0.019017
   2 C :   -0.053513
   3 C :   -0.088986
   4 C :    0.012173
   5 C :    0.086224
   6 O :   -0.091589
   7 H :    0.054826
   8 H :    0.055362
   9 H :    0.056548
  10 H :    0.034706
  11 H :    0.029039
  12 H :   -0.010548

  Mayer bond orders larger than 0.1
B(  0-C ,  1-C ) :   1.1402 B(  0-C ,  7-H ) :   0.9291 B(  0-C ,  8-H ) :   0.9285
B(  0-C ,  9-H ) :   0.9307 B(  1-C ,  2-C ) :   2.4924 B(  1-C ,  4-C ) :   0.1120
B(  2-C ,  3-C ) :   0.9767 B(  3-C ,  4-C ) :   1.8194 B(  3-C ,  5-C ) :   0.9563
B(  4-C , 10-H ) :   0.9450 B(  4-C , 11-H ) :   0.9291 B(  5-C ,  6-O ) :   2.2003
B(  5-C , 12-H ) :   0.9246

FINAL SINGLE POINT ENERGY      -306.772269100983

DIPOLE MOMENT
-------------
                                X             Y             Z
Electronic contribution:      3.37430      -1.92282      -2.17545
Nuclear contribution   :     -3.62356       2.56571       2.90139
                        -----------------------------------------
Total Dipole Moment    :     -0.24926       0.64289       0.72594
                        -----------------------------------------
Magnitude (a.u.)       :      1.00121
Magnitude (Debye)      :      2.54488

                             ****ORCA TERMINATED NORMALLY****
TOTAL RUN TIME: 0 days 0 hours 0 minutes 5 seconds 975 msec
