                         Program Version 3.0.3 - RELEASE   -
|  1> ! RI PBE def2-SVP def2-SVP/J NBO PAL2
|  2> % maxcore 2000
|  3> % output
|  4>     # printlevel mini
|  5>     print[ P_Basis ] 0
|  6>     print[ P_SCFInfo ] 1
|  7>     print[ P_SCFIterInfo ] 1
|  8>     print[ P_OrbEn ] 0
|  9>     print[ P_Cartesian ] 0
| 10> end
| 11> *xyz 0 1
| 12>  C        0.9022020000    -0.0646360000     0.0661470000
| 13>  C        2.3532680000    -0.0595910000     0.0409150000
| 14>  C        3.5560200000    -0.0514220000     0.0107240000
| 15>  C        5.0138080000    -0.0401920000     0.0100450000
| 16>  C        5.5749660000     1.3798400000    -0.0015260000
| 17>  C        5.5383670000    -0.8426880000     1.2078310000
| 18>  O        6.9435290000    -0.9508380000     1.2200510000
| 19>  H        0.4953490000    -0.5575940000    -0.8204630000
| 20>  H        0.5066060000     0.9538210000     0.0944260000
| 21>  H        0.5263230000    -0.5938920000     0.9453990000
| 22>  H        5.3538790000    -0.5553790000    -0.9002240000
| 23>  H        5.2188180000     1.9347210000     0.8695760000
| 24>  H        5.2595860000     1.9163910000    -0.8975200000
| 25>  H        6.6650820000     1.3506000000     0.0304090000
| 26>  H        5.0594240000    -1.8292110000     1.2224890000
| 27>  H        5.2631210000    -0.3282310000     2.1318150000
| 28>  H        7.2111620000    -1.5261790000     0.4990040000
| 29> *
| 30>
| 31>                          ****END OF INPUT****
 Total Charge           Charge          ....    0
 Multiplicity           Mult            ....    1
 Number of Electrons    NEL             ....   54
 Basis Dimension        Dim             ....  148

MULLIKEN ATOMIC CHARGES
-----------------------
   0 C :    0.056508
   1 C :   -0.255127
   2 C :   -0.028778
   3 C :   -0.109865
   4 C :    0.028161
   5 C :    0.185840
   6 O :   -0.271803
   7 H :    0.045206
   8 H :    0.044263
   9 H :    0.045396
  10 H :    0.007844
  11 H :    0.022928
  12 H :    0.027187
  13 H :    0.024201
  14 H :    0.010952
  15 H :    0.013068
  16 H :    0.154018
Sum of atomic charges:   -0.0000000

LOEWDIN ATOMIC CHARGES
----------------------
   0 C :   -0.067980
   1 C :   -0.071842
   2 C :   -0.060671
   3 C :   -0.072816
   4 C :   -0.049404
   5 C :    0.066702
   6 O :   -0.114014
   7 H :    0.049418
   8 H :    0.049552
   9 H :    0.049711
  10 H :    0.036401
  11 H :    0.029174
  12 H :    0.028929
  13 H :    0.025445
  14 H :    0.009176
  15 H :    0.022917
  16 H :    0.069304

  Mayer bond orders larger than 0.1
B(  0-C ,  1-C ) :   1.1393 B(  0-C ,  7-H ) :   0.9339 B(  0-C ,  8-H ) :   0.9321
B(  0-C ,  9-H ) :   0.9312 B(  1-C ,  2-C ) :   2.5957 B(  2-C ,  3-C ) :   0.9729
B(  3-C ,  4-C ) :   1.0606 B(  3-C ,  5-C ) :   1.0166 B(  3-C , 10-H ) :   0.8700
B(  4-C , 11-H ) :   0.9623 B(  4-C , 12-H ) :   0.9632 B(  4-C , 13-H ) :   0.9499
B(  5-C ,  6-O ) :   1.0734 B(  5-C , 14-H ) :   0.9478 B(  5-C , 15-H ) :   0.9327
B(  6-O , 16-H ) :   0.9847

FINAL SINGLE POINT ENERGY      -309.181420497967

DIPOLE MOMENT
-------------
                                X             Y             Z
Electronic contribution:      1.57858      -2.01673       0.32088
Nuclear contribution   :     -1.93229       1.71683      -0.71276
                        -----------------------------------------
Total Dipole Moment    :     -0.35372      -0.29990      -0.39188
                        -----------------------------------------
Magnitude (a.u.)       :      0.60715
Magnitude (Debye)      :      1.54325

                             ****ORCA TERMINATED NORMALLY****
TOTAL RUN TIME: 0 days 0 hours 0 minutes 7 seconds 241 msec
