                         Program Version 3.0.3 - RELEASE   -
|  1> ! RI PBE def2-SVP def2-SVP/J NBO PAL2
|  2> % maxcore 2000
|  3> % output
|  4>     # printlevel mini
|  5>     print[ P_Basis ] 0
|  6>     print[ P_SCFInfo ] 1
|  7>     print[ P_SCFIterInfo ] 1
|  8>     print[ P_OrbEn ] 0
|  9>     print[ P_Cartesian ] 0
| 10> end
| 11> *xyz 0 1
| 12>  C        1.2754270000    -0.2812650000     0.6054890000
| 13>  C        2.6724380000    -0.1618940000     0.2341100000
| 14>  C        3.8322420000    -0.0805120000    -0.0693850000
| 15>  C        5.2397350000     0.0627460000    -0.4501550000
| 16>  C        5.9118380000     1.1118400000     0.4350020000
| 17>  C        5.3406680000     0.4500930000    -1.9251550000
| 18>  O        5.8506890000    -1.2093200000    -0.2413510000
| 19>  H        1.0222980000     0.4071510000     1.4156430000
| 20>  H        1.0524580000    -1.2956460000     0.9455190000
| 21>  H        0.6216620000    -0.0604380000    -0.2419580000
| 22>  H        5.8572550000     0.8058790000     1.4800430000
| 23>  H        5.4287270000     2.0844070000     0.3265640000
| 24>  H        6.9639050000     1.2180450000     0.1519480000
| 25>  H        4.8373630000     1.3992900000    -2.1168640000
| 26>  H        4.8834620000    -0.3224170000    -2.5439380000
| 27>  H        6.3921630000     0.5556690000    -2.2105450000
| 28>  H        6.7764810000    -1.1235070000    -0.4889750000
| 29> *
| 30>
| 31>                          ****END OF INPUT****
 Total Charge           Charge          ....    0
 Multiplicity           Mult            ....    1
 Number of Electrons    NEL             ....   54
 Basis Dimension        Dim             ....  148

MULLIKEN ATOMIC CHARGES
-----------------------
   0 C :    0.058239
   1 C :   -0.271046
   2 C :    0.056992
   3 C :   -0.125308
   4 C :    0.056760
   5 C :    0.060972
   6 O :   -0.238694
   7 H :    0.045453
   8 H :    0.047838
   9 H :    0.046895
  10 H :    0.036212
  11 H :    0.020647
  12 H :    0.001747
  13 H :    0.020061
  14 H :    0.032983
  15 H :    0.002684
  16 H :    0.147567
Sum of atomic charges:   -0.0000000

LOEWDIN ATOMIC CHARGES
----------------------
   0 C :   -0.068268
   1 C :   -0.058981
   2 C :   -0.052305
   3 C :    0.008283
   4 C :   -0.056505
   5 C :   -0.055694
   6 O :   -0.100890
   7 H :    0.049549
   8 H :    0.052855
   9 H :    0.049997
  10 H :    0.032803
  11 H :    0.031420
  12 H :    0.020342
  13 H :    0.031494
  14 H :    0.032278
  15 H :    0.020358
  16 H :    0.063264

  Mayer bond orders larger than 0.1
B(  0-C ,  1-C ) :   1.1416 B(  0-C ,  7-H ) :   0.9324 B(  0-C ,  8-H ) :   0.9274
B(  0-C ,  9-H ) :   0.9315 B(  1-C ,  2-C ) :   2.6673 B(  2-C ,  3-C ) :   0.8856
B(  3-C ,  4-C ) :   1.0708 B(  3-C ,  5-C ) :   1.0689 B(  3-C ,  6-O ) :   1.1032
B(  4-C , 10-H ) :   0.9545 B(  4-C , 11-H ) :   0.9485 B(  4-C , 12-H ) :   0.9453
B(  5-C , 13-H ) :   0.9481 B(  5-C , 14-H ) :   0.9538 B(  5-C , 15-H ) :   0.9475
B(  6-O , 16-H ) :   0.9802

FINAL SINGLE POINT ENERGY      -309.182332169954

DIPOLE MOMENT
-------------
                                X             Y             Z
Electronic contribution:     -0.01927      -3.18909       0.89650
Nuclear contribution   :      0.10781       3.65601      -1.05116
                        -----------------------------------------
Total Dipole Moment    :      0.08854       0.46692      -0.15465
                        -----------------------------------------
Magnitude (a.u.)       :      0.49977
Magnitude (Debye)      :      1.27032

                             ****ORCA TERMINATED NORMALLY****
TOTAL RUN TIME: 0 days 0 hours 0 minutes 7 seconds 277 msec
