                         Program Version 3.0.3 - RELEASE   -
|  1> ! RI PBE def2-SVP def2-SVP/J NBO PAL2
|  2> % maxcore 2000
|  3> % output
|  4>     # printlevel mini
|  5>     print[ P_Basis ] 0
|  6>     print[ P_SCFInfo ] 1
|  7>     print[ P_SCFIterInfo ] 1
|  8>     print[ P_OrbEn ] 0
|  9>     print[ P_Cartesian ] 0
| 10> end
| 11> *xyz 0 1
| 12>  C        1.0396720000     0.0886090000     0.0578340000
| 13>  C        2.4899030000     0.0738520000     0.0363970000
| 14>  C        3.6924090000     0.0457930000     0.0195110000
| 15>  C        5.1480110000     0.0587930000     0.0134320000
| 16>  C        5.7218850000     0.1154320000    -1.4084160000
| 17>  C        5.6407130000     1.2738220000     0.7812160000
| 18>  O        6.4753600000     1.2354650000     1.6382270000
| 19>  H        0.6672530000     0.6408540000     0.9240840000
| 20>  H        0.6411550000    -0.9275070000     0.1113780000
| 21>  H        0.6377490000     0.5610050000    -0.8417490000
| 22>  H        5.5364240000    -0.8231650000     0.5317400000
| 23>  H        5.4066820000     1.0291250000    -1.9171310000
| 24>  H        5.3627580000    -0.7344570000    -1.9896730000
| 25>  H        6.8127020000     0.0871760000    -1.3781950000
| 26>  H        5.1735220000     2.2323220000     0.4670470000
| 27> *
| 28>
| 29>                          ****END OF INPUT****
 Total Charge           Charge          ....    0
 Multiplicity           Mult            ....    1
 Number of Electrons    NEL             ....   52
 Basis Dimension        Dim             ....  138

MULLIKEN ATOMIC CHARGES
-----------------------
   0 C :    0.055273
   1 C :   -0.223639
   2 C :   -0.044566
   3 C :   -0.055650
   4 C :    0.004592
   5 C :    0.120397
   6 O :   -0.150496
   7 H :    0.051091
   8 H :    0.049091
   9 H :    0.048845
  10 H :    0.031043
  11 H :    0.033742
  12 H :    0.044674
  13 H :    0.042383
  14 H :   -0.006781
Sum of atomic charges:    0.0000000

LOEWDIN ATOMIC CHARGES
----------------------
   0 C :   -0.066650
   1 C :   -0.055228
   2 C :   -0.066549
   3 C :   -0.083475
   4 C :   -0.039473
   5 C :    0.108347
   6 O :   -0.097122
   7 H :    0.052719
   8 H :    0.052649
   9 H :    0.051459
  10 H :    0.049347
  11 H :    0.031477
  12 H :    0.037539
  13 H :    0.033573
  14 H :   -0.008614

  Mayer bond orders larger than 0.1
B(  0-C ,  1-C ) :   1.1405 B(  0-C ,  7-H ) :   0.9305 B(  0-C ,  8-H ) :   0.9321
B(  0-C ,  9-H ) :   0.9312 B(  1-C ,  2-C ) :   2.6098 B(  2-C ,  3-C ) :   0.9620
B(  3-C ,  4-C ) :   1.0617 B(  3-C ,  5-C ) :   0.9096 B(  3-C , 10-H ) :   0.8717
B(  4-C , 11-H ) :   0.9601 B(  4-C , 12-H ) :   0.9586 B(  4-C , 13-H ) :   0.9586
B(  5-C ,  6-O ) :   2.1961 B(  5-C , 14-H ) :   0.9214

FINAL SINGLE POINT ENERGY      -307.982922908573

DIPOLE MOMENT
-------------
                                X             Y             Z
Electronic contribution:      3.53184       1.14712       4.35073
Nuclear contribution   :     -4.32422      -1.30955      -5.07312
                        -----------------------------------------
Total Dipole Moment    :     -0.79238      -0.16242      -0.72239
                        -----------------------------------------
Magnitude (a.u.)       :      1.08448
Magnitude (Debye)      :      2.75653

                             ****ORCA TERMINATED NORMALLY****
TOTAL RUN TIME: 0 days 0 hours 0 minutes 6 seconds 872 msec
