                         Program Version 3.0.3 - RELEASE   -
|  1> ! RI PBE def2-SVP def2-SVP/J NBO PAL2
|  2> % maxcore 2000
|  3> % output
|  4>     # printlevel mini
|  5>     print[ P_Basis ] 0
|  6>     print[ P_SCFInfo ] 1
|  7>     print[ P_SCFIterInfo ] 1
|  8>     print[ P_OrbEn ] 0
|  9>     print[ P_Cartesian ] 0
| 10> end
| 11> *xyz 0 1
| 12>  C        1.0158140000    -0.0552050000     0.0795230000
| 13>  C        2.4613050000    -0.0567500000     0.0775150000
| 14>  C        3.6695090000    -0.0554850000     0.0773220000
| 15>  C        5.0321200000    -0.0549660000     0.0759230000
| 16>  C        6.2412980000    -0.0480600000     0.0822730000
| 17>  C        7.6955900000    -0.0615910000     0.0463290000
| 18>  O        8.2408770000     0.6107660000    -1.0688020000
| 19>  H        0.6267270000     0.3287910000    -0.8672930000
| 20>  H        0.6266440000     0.5745840000     0.8839000000
| 21>  H        0.6234380000    -1.0658320000     0.2201560000
| 22>  H        8.0421250000    -1.1041090000     0.0925040000
| 23>  H        8.0912440000     0.4456200000     0.9306710000
| 24>  H        7.8032990000     0.2809370000    -1.8585220000
| 25> *
| 26>
| 27>                          ****END OF INPUT****
 Total Charge           Charge          ....    0
 Multiplicity           Mult            ....    1
 Number of Electrons    NEL             ....   50
 Basis Dimension        Dim             ....  128

MULLIKEN ATOMIC CHARGES
-----------------------
   0 C :    0.057373
   1 C :   -0.175570
   2 C :   -0.028735
   3 C :   -0.069325
   4 C :   -0.166075
   5 C :    0.277388
   6 O :   -0.281181
   7 H :    0.055469
   8 H :    0.057468
   9 H :    0.054360
  10 H :    0.027884
  11 H :    0.032411
  12 H :    0.158532
Sum of atomic charges:    0.0000000

LOEWDIN ATOMIC CHARGES
----------------------
   0 C :   -0.064665
   1 C :   -0.012140
   2 C :   -0.073249
   3 C :   -0.057629
   4 C :   -0.048269
   5 C :    0.052409
   6 O :   -0.112037
   7 H :    0.056796
   8 H :    0.056423
   9 H :    0.055654
  10 H :    0.029077
  11 H :    0.045528
  12 H :    0.072102

  Mayer bond orders larger than 0.1
B(  0-C ,  1-C ) :   1.1510 B(  0-C ,  7-H ) :   0.9267 B(  0-C ,  8-H ) :   0.9269
B(  0-C ,  9-H ) :   0.9266 B(  1-C ,  2-C ) :   2.3439 B(  1-C ,  4-C ) :   0.2246
B(  2-C ,  3-C ) :   0.9675 B(  3-C ,  4-C ) :   2.4277 B(  4-C ,  5-C ) :   1.0232
B(  5-C ,  6-O ) :   1.0686 B(  5-C , 10-H ) :   0.9182 B(  5-C , 11-H ) :   0.8935
B(  6-O , 12-H ) :   0.9822

FINAL SINGLE POINT ENERGY      -306.732050568981

DIPOLE MOMENT
-------------
                                X             Y             Z
Electronic contribution:      3.19552       0.40931      -0.26725
Nuclear contribution   :     -3.93828      -0.81177       0.16813
                        -----------------------------------------
Total Dipole Moment    :     -0.74276      -0.40246      -0.09912
                        -----------------------------------------
Magnitude (a.u.)       :      0.85058
Magnitude (Debye)      :      2.16201

                             ****ORCA TERMINATED NORMALLY****
TOTAL RUN TIME: 0 days 0 hours 0 minutes 6 seconds 77 msec
