                         Program Version 3.0.3 - RELEASE   -
|  1> ! RI PBE def2-SVP def2-SVP/J NBO PAL2
|  2> % maxcore 2000
|  3> % output
|  4>     # printlevel mini
|  5>     print[ P_Basis ] 0
|  6>     print[ P_SCFInfo ] 1
|  7>     print[ P_SCFIterInfo ] 1
|  8>     print[ P_OrbEn ] 0
|  9>     print[ P_Cartesian ] 0
| 10> end
| 11> *xyz 0 1
| 12>  C        1.0443750000     0.0492640000    -0.0771610000
| 13>  C        2.4873840000     0.0406430000    -0.0941500000
| 14>  C        3.6962560000     0.0306770000    -0.1111880000
| 15>  C        5.0529830000     0.0200320000    -0.1299150000
| 16>  C        6.2651450000     0.0026580000    -0.1615890000
| 17>  C        7.6995500000     0.0165280000    -0.1341830000
| 18>  O        8.4002360000    -0.4432020000    -1.0009220000
| 19>  H        0.6591480000    -0.9368030000     0.1962040000
| 20>  H        0.6469720000     0.3055010000    -1.0627140000
| 21>  H        0.6652030000     0.7754600000     0.6462590000
| 22>  H        8.1330370000     0.4930510000     0.7659610000
| 23> *
| 24>
| 25>                          ****END OF INPUT****
 Total Charge           Charge          ....    0
 Multiplicity           Mult            ....    1
 Number of Electrons    NEL             ....   48
 Basis Dimension        Dim             ....  118

MULLIKEN ATOMIC CHARGES
-----------------------
   0 C :    0.056212
   1 C :   -0.143660
   2 C :   -0.016549
   3 C :   -0.001605
   4 C :   -0.023377
   5 C :    0.066721
   6 O :   -0.152304
   7 H :    0.065640
   8 H :    0.065478
   9 H :    0.065163
  10 H :    0.018280
Sum of atomic charges:   -0.0000000

LOEWDIN ATOMIC CHARGES
----------------------
   0 C :   -0.061362
   1 C :    0.020848
   2 C :   -0.067818
   3 C :   -0.005248
   4 C :   -0.047573
   5 C :    0.062421
   6 O :   -0.092412
   7 H :    0.063446
   8 H :    0.061943
   9 H :    0.060464
  10 H :    0.005293

  Mayer bond orders larger than 0.1
B(  0-C ,  1-C ) :   1.1494 B(  0-C ,  7-H ) :   0.9224 B(  0-C ,  8-H ) :   0.9245
B(  0-C ,  9-H ) :   0.9250 B(  1-C ,  2-C ) :   2.3179 B(  1-C ,  4-C ) :   0.2189
B(  2-C ,  3-C ) :   0.9859 B(  3-C ,  4-C ) :   2.3502 B(  3-C ,  6-O ) :   0.1073
B(  4-C ,  5-C ) :   0.9056 B(  5-C ,  6-O ) :   2.1254 B(  5-C , 10-H ) :   0.9441

FINAL SINGLE POINT ENERGY      -305.536504331103

DIPOLE MOMENT
-------------
                                X             Y             Z
Electronic contribution:      7.46089      -0.46953      -0.88786
Nuclear contribution   :     -9.20627       0.77654       1.47772
                        -----------------------------------------
Total Dipole Moment    :     -1.74538       0.30700       0.58986
                        -----------------------------------------
Magnitude (a.u.)       :      1.86776
Magnitude (Debye)      :      4.74746

                             ****ORCA TERMINATED NORMALLY****
TOTAL RUN TIME: 0 days 0 hours 0 minutes 5 seconds 344 msec
