                         Program Version 3.0.3 - RELEASE   -
|  1> ! RI PBE def2-SVP def2-SVP/J NBO PAL2
|  2> % maxcore 2000
|  3> % output
|  4>     # printlevel mini
|  5>     print[ P_Basis ] 0
|  6>     print[ P_SCFInfo ] 1
|  7>     print[ P_SCFIterInfo ] 1
|  8>     print[ P_OrbEn ] 0
|  9>     print[ P_Cartesian ] 0
| 10> end
| 11> *xyz 0 1
| 12>  C        0.9505630000    -0.0607360000     0.1103820000
| 13>  C        2.4008470000    -0.0182830000     0.1043090000
| 14>  C        3.6025240000     0.0105110000     0.0917640000
| 15>  C        5.0546270000     0.0490310000     0.0640260000
| 16>  C        5.6582510000    -0.1749170000    -1.3270550000
| 17>  C        7.1686470000    -0.0327880000    -1.2937000000
| 18>  O        5.2683430000    -1.4156850000    -1.8754130000
| 19>  H        0.5717810000    -0.5623280000    -0.7838040000
| 20>  H        0.5256970000     0.9459910000     0.1355980000
| 21>  H        0.5765550000    -0.6037320000     0.9821950000
| 22>  H        5.4595450000    -0.7109180000     0.7464230000
| 23>  H        5.4046020000     1.0143970000     0.4469850000
| 24>  H        5.2363690000     0.5706630000    -2.0072710000
| 25>  H        7.6108220000    -0.7583030000    -0.6023760000
| 26>  H        7.4688790000     0.9661060000    -0.9673890000
| 27>  H        7.5832510000    -0.2120810000    -2.2867350000
| 28>  H        5.5724870000    -2.1156390000    -1.2897480000
| 29> *
| 30>
| 31>                          ****END OF INPUT****
 Total Charge           Charge          ....    0
 Multiplicity           Mult            ....    1
 Number of Electrons    NEL             ....   54
 Basis Dimension        Dim             ....  148

MULLIKEN ATOMIC CHARGES
-----------------------
   0 C :    0.052425
   1 C :   -0.239795
   2 C :   -0.045538
   3 C :    0.049038
   4 C :    0.034899
   5 C :    0.044644
   6 O :   -0.268395
   7 H :    0.048290
   8 H :    0.042214
   9 H :    0.043756
  10 H :    0.012494
  11 H :    0.022178
  12 H :    0.014351
  13 H :    0.001996
  14 H :    0.010383
  15 H :    0.028387
  16 H :    0.148672
Sum of atomic charges:    0.0000000

LOEWDIN ATOMIC CHARGES
----------------------
   0 C :   -0.068415
   1 C :   -0.067887
   2 C :   -0.068623
   3 C :   -0.063771
   4 C :    0.047991
   5 C :   -0.076618
   6 O :   -0.106178
   7 H :    0.050649
   8 H :    0.048006
   9 H :    0.048611
  10 H :    0.037866
  11 H :    0.046170
  12 H :    0.026394
  13 H :    0.021128
  14 H :    0.028444
  15 H :    0.030773
  16 H :    0.065460

  Mayer bond orders larger than 0.1
B(  0-C ,  1-C ) :   1.1359 B(  0-C ,  7-H ) :   0.9321 B(  0-C ,  8-H ) :   0.9335
B(  0-C ,  9-H ) :   0.9341 B(  1-C ,  2-C ) :   2.5631 B(  2-C ,  3-C ) :   1.0560
B(  3-C ,  4-C ) :   1.0286 B(  3-C , 10-H ) :   0.8846 B(  3-C , 11-H ) :   0.8907
B(  4-C ,  5-C ) :   1.0902 B(  4-C ,  6-O ) :   1.0394 B(  4-C , 12-H ) :   0.9092
B(  5-C , 13-H ) :   0.9490 B(  5-C , 14-H ) :   0.9465 B(  5-C , 15-H ) :   0.9569
B(  6-O , 16-H ) :   0.9843

FINAL SINGLE POINT ENERGY      -309.184259421905

DIPOLE MOMENT
-------------
                                X             Y             Z
Electronic contribution:     -1.94256      -1.16098      -0.27135
Nuclear contribution   :      2.17363       1.17506       0.69734
                        -----------------------------------------
Total Dipole Moment    :      0.23108       0.01408       0.42599
                        -----------------------------------------
Magnitude (a.u.)       :      0.48483
Magnitude (Debye)      :      1.23234

                             ****ORCA TERMINATED NORMALLY****
TOTAL RUN TIME: 0 days 0 hours 0 minutes 7 seconds 180 msec
