                         Program Version 3.0.3 - RELEASE   -
|  1> ! RI PBE def2-SVP def2-SVP/J NBO PAL2
|  2> % maxcore 2000
|  3> % output
|  4>     # printlevel mini
|  5>     print[ P_Basis ] 0
|  6>     print[ P_SCFInfo ] 1
|  7>     print[ P_SCFIterInfo ] 1
|  8>     print[ P_OrbEn ] 0
|  9>     print[ P_Cartesian ] 0
| 10> end
| 11> *xyz 0 1
| 12>  C        1.0635920000     0.1650710000     0.0953370000
| 13>  C        2.5113280000     0.0763880000     0.0616900000
| 14>  C        3.7109710000    -0.0011600000     0.0367340000
| 15>  C        5.1579380000    -0.1046280000    -0.0054110000
| 16>  C        5.8519970000     0.6103400000    -1.1661630000
| 17>  C        5.2005620000     1.8451680000    -1.7121750000
| 18>  O        6.9002010000     0.1884560000    -1.5804800000
| 19>  H        0.6069410000    -0.8004360000    -0.1358990000
| 20>  H        0.6978750000     0.8914670000    -0.6349080000
| 21>  H        0.7117510000     0.4759950000     1.0821450000
| 22>  H        5.4844540000    -1.1470890000    -0.0297190000
| 23>  H        5.5873550000     0.3300510000     0.9077860000
| 24>  H        4.9312870000     2.5280180000    -0.9019080000
| 25>  H        4.2642370000     1.5716060000    -2.2060330000
| 26>  H        5.8680220000     2.3326550000    -2.4198950000
| 27> *
| 28>
| 29>                          ****END OF INPUT****
 Total Charge           Charge          ....    0
 Multiplicity           Mult            ....    1
 Number of Electrons    NEL             ....   52
 Basis Dimension        Dim             ....  138

MULLIKEN ATOMIC CHARGES
-----------------------
   0 C :    0.055434
   1 C :   -0.215986
   2 C :   -0.141452
   3 C :    0.135990
   4 C :   -0.103161
   5 C :    0.034995
   6 O :   -0.155038
   7 H :    0.049454
   8 H :    0.047398
   9 H :    0.047232
  10 H :    0.045873
  11 H :    0.059632
  12 H :    0.042566
  13 H :    0.058675
  14 H :    0.038387
Sum of atomic charges:    0.0000000

LOEWDIN ATOMIC CHARGES
----------------------
   0 C :   -0.067595
   1 C :   -0.064864
   2 C :   -0.077941
   3 C :   -0.072153
   4 C :    0.065385
   5 C :   -0.087241
   6 O :   -0.115740
   7 H :    0.051706
   8 H :    0.050571
   9 H :    0.050622
  10 H :    0.057997
  11 H :    0.068070
  12 H :    0.047134
  13 H :    0.055435
  14 H :    0.038616

  Mayer bond orders larger than 0.1
B(  0-C ,  1-C ) :   1.1360 B(  0-C ,  7-H ) :   0.9323 B(  0-C ,  8-H ) :   0.9312
B(  0-C ,  9-H ) :   0.9327 B(  1-C ,  2-C ) :   2.6230 B(  2-C ,  3-C ) :   1.0133
B(  3-C ,  4-C ) :   0.9170 B(  3-C , 10-H ) :   0.8891 B(  3-C , 11-H ) :   0.8789
B(  4-C ,  5-C ) :   1.0630 B(  4-C ,  6-O ) :   2.1880 B(  5-C , 12-H ) :   0.9378
B(  5-C , 13-H ) :   0.9179 B(  5-C , 14-H ) :   0.9458

FINAL SINGLE POINT ENERGY      -307.994991919402

DIPOLE MOMENT
-------------
                                X             Y             Z
Electronic contribution:      5.40246      -2.25122      -0.40979
Nuclear contribution   :     -6.42054       2.64473       0.75424
                        -----------------------------------------
Total Dipole Moment    :     -1.01809       0.39350       0.34445
                        -----------------------------------------
Magnitude (a.u.)       :      1.14455
Magnitude (Debye)      :      2.90921

                             ****ORCA TERMINATED NORMALLY****
TOTAL RUN TIME: 0 days 0 hours 0 minutes 6 seconds 682 msec
