                         Program Version 3.0.3 - RELEASE   -
|  1> ! RI PBE def2-SVP def2-SVP/J NBO PAL2
|  2> % maxcore 2000
|  3> % output
|  4>     # printlevel mini
|  5>     print[ P_Basis ] 0
|  6>     print[ P_SCFInfo ] 1
|  7>     print[ P_SCFIterInfo ] 1
|  8>     print[ P_OrbEn ] 0
|  9>     print[ P_Cartesian ] 0
| 10> end
| 11> *xyz 0 1
| 12>  C        0.9143260000    -0.0280500000     0.0761820000
| 13>  C        2.3657360000    -0.0277480000     0.0781670000
| 14>  C        3.5682480000    -0.0289430000     0.0904600000
| 15>  C        5.0223770000    -0.0279120000     0.0878030000
| 16>  C        5.6023380000     0.1658530000    -1.3068480000
| 17>  C        7.0992260000     0.1714450000    -1.3423430000
| 18>  O        7.8078630000     0.0385210000    -0.3823470000
| 19>  H        0.5222260000    -0.2518020000     1.0715330000
| 20>  H        0.5214160000    -0.7786460000    -0.6142910000
| 21>  H        0.5204760000     0.9452760000    -0.2271960000
| 22>  H        5.3987010000    -0.9655450000     0.5080050000
| 23>  H        5.3979280000     0.7602210000     0.7474560000
| 24>  H        5.2553870000     1.1055030000    -1.7547470000
| 25>  H        5.2561810000    -0.6166790000    -1.9936870000
| 26>  H        7.5404810000     0.3118150000    -2.3536380000
| 27> *
| 28>
| 29>                          ****END OF INPUT****
 Total Charge           Charge          ....    0
 Multiplicity           Mult            ....    1
 Number of Electrons    NEL             ....   52
 Basis Dimension        Dim             ....  138

MULLIKEN ATOMIC CHARGES
-----------------------
   0 C :    0.055228
   1 C :   -0.251288
   2 C :   -0.083920
   3 C :    0.086550
   4 C :   -0.046547
   5 C :    0.094225
   6 O :   -0.164135
   7 H :    0.046199
   8 H :    0.046344
   9 H :    0.044517
  10 H :    0.038859
  11 H :    0.042736
  12 H :    0.046836
  13 H :    0.050855
  14 H :   -0.006458
Sum of atomic charges:   -0.0000000

LOEWDIN ATOMIC CHARGES
----------------------
   0 C :   -0.067762
   1 C :   -0.071283
   2 C :   -0.071908
   3 C :   -0.042191
   4 C :   -0.074557
   5 C :    0.093045
   6 O :   -0.108419
   7 H :    0.050353
   8 H :    0.049456
   9 H :    0.049133
  10 H :    0.050424
  11 H :    0.051376
  12 H :    0.050772
  13 H :    0.051729
  14 H :   -0.010167

  Mayer bond orders larger than 0.1
B(  0-C ,  1-C ) :   1.1339 B(  0-C ,  7-H ) :   0.9336 B(  0-C ,  8-H ) :   0.9333
B(  0-C ,  9-H ) :   0.9330 B(  1-C ,  2-C ) :   2.5926 B(  2-C ,  3-C ) :   1.0645
B(  3-C ,  4-C ) :   1.0675 B(  3-C , 10-H ) :   0.8970 B(  3-C , 11-H ) :   0.8949
B(  4-C ,  5-C ) :   0.9698 B(  4-C , 12-H ) :   0.9089 B(  4-C , 13-H ) :   0.9081
B(  5-C ,  6-O ) :   2.1742 B(  5-C , 14-H ) :   0.9319

FINAL SINGLE POINT ENERGY      -307.986343667568

DIPOLE MOMENT
-------------
                                X             Y             Z
Electronic contribution:      5.84054      -0.09523       0.70664
Nuclear contribution   :     -6.61125       0.17965      -1.31750
                        -----------------------------------------
Total Dipole Moment    :     -0.77071       0.08442      -0.61087
                        -----------------------------------------
Magnitude (a.u.)       :      0.98706
Magnitude (Debye)      :      2.50889

                             ****ORCA TERMINATED NORMALLY****
TOTAL RUN TIME: 0 days 0 hours 0 minutes 5 seconds 934 msec
