                         Program Version 3.0.3 - RELEASE   -
|  1> ! RI PBE def2-SVP def2-SVP/J NBO PAL2
|  2> % maxcore 2000
|  3> % output
|  4>     # printlevel mini
|  5>     print[ P_Basis ] 0
|  6>     print[ P_SCFInfo ] 1
|  7>     print[ P_SCFIterInfo ] 1
|  8>     print[ P_OrbEn ] 0
|  9>     print[ P_Cartesian ] 0
| 10> end
| 11> *xyz 0 1
| 12>  C        2.7481820000     1.5760660000     0.0263430000
| 13>  C        3.5730030000     0.3406810000    -0.3187970000
| 14>  C        3.2729800000    -0.8214130000     0.5692110000
| 15>  C        4.1560080000    -1.4571370000     1.3342890000
| 16>  C        3.8380110000    -2.5919950000     2.2512860000
| 17>  C        3.8977760000    -2.1577650000     3.7125870000
| 18>  O        2.9436970000    -1.1671390000     4.0113580000
| 19>  H        2.9553450000     2.3942400000    -0.6669690000
| 20>  H        2.9704880000     1.9263000000     1.0373160000
| 21>  H        1.6773020000     1.3613860000    -0.0221410000
| 22>  H        4.6406650000     0.5746680000    -0.2669740000
| 23>  H        3.3658350000     0.0577050000    -1.3582790000
| 24>  H        2.2384440000    -1.1676840000     0.5727050000
| 25>  H        5.1905800000    -1.1114160000     1.3335140000
| 26>  H        4.5508740000    -3.4112670000     2.1022580000
| 27>  H        2.8373050000    -2.9798050000     2.0385600000
| 28>  H        4.9141880000    -1.8107850000     3.9530910000
| 29>  H        3.6783500000    -3.0064820000     4.3646110000
| 30>  H        2.9941480000    -0.5048490000     3.3128000000
| 31> *
| 32>
| 33>                          ****END OF INPUT****
 Total Charge           Charge          ....    0
 Multiplicity           Mult            ....    1
 Number of Electrons    NEL             ....   56
 Basis Dimension        Dim             ....  158

MULLIKEN ATOMIC CHARGES
-----------------------
   0 C :   -0.047733
   1 C :    0.035385
   2 C :   -0.068882
   3 C :   -0.114500
   4 C :    0.025229
   5 C :    0.167546
   6 O :   -0.287572
   7 H :    0.028194
   8 H :    0.022047
   9 H :    0.028634
  10 H :    0.011513
  11 H :    0.025367
  12 H :   -0.002254
  13 H :   -0.006161
  14 H :    0.017242
  15 H :    0.012372
  16 H :   -0.006110
  17 H :    0.014332
  18 H :    0.145352
Sum of atomic charges:   -0.0000000

LOEWDIN ATOMIC CHARGES
----------------------
   0 C :   -0.064380
   1 C :   -0.046180
   2 C :   -0.040657
   3 C :   -0.052552
   4 C :   -0.062572
   5 C :    0.059131
   6 O :   -0.124248
   7 H :    0.028775
   8 H :    0.024736
   9 H :    0.026726
  10 H :    0.028291
  11 H :    0.035362
  12 H :    0.022792
  13 H :    0.021912
  14 H :    0.035989
  15 H :    0.029450
  16 H :    0.000534
  17 H :    0.020241
  18 H :    0.056652

  Mayer bond orders larger than 0.1
B(  0-C ,  1-C ) :   1.0951 B(  0-C ,  7-H ) :   0.9609 B(  0-C ,  8-H ) :   0.9683
B(  0-C ,  9-H ) :   0.9701 B(  1-C ,  2-C ) :   1.0608 B(  1-C , 10-H ) :   0.9363
B(  1-C , 11-H ) :   0.9168 B(  2-C ,  3-C ) :   1.8913 B(  2-C , 12-H ) :   0.9500
B(  3-C ,  4-C ) :   1.0575 B(  3-C , 13-H ) :   0.9515 B(  4-C ,  5-C ) :   1.0614
B(  4-C , 14-H ) :   0.9021 B(  4-C , 15-H ) :   0.9252 B(  5-C ,  6-O ) :   1.0727
B(  5-C , 16-H ) :   0.9332 B(  5-C , 17-H ) :   0.9370 B(  6-O , 18-H ) :   0.9764

FINAL SINGLE POINT ENERGY      -310.418887056091

DIPOLE MOMENT
-------------
                                X             Y             Z
Electronic contribution:     -0.04287      -2.59455       3.23577
Nuclear contribution   :      0.34771       2.66197      -3.87766
                        -----------------------------------------
Total Dipole Moment    :      0.30484       0.06742      -0.64189
                        -----------------------------------------
Magnitude (a.u.)       :      0.71379
Magnitude (Debye)      :      1.81432

                             ****ORCA TERMINATED NORMALLY****
TOTAL RUN TIME: 0 days 0 hours 0 minutes 8 seconds 45 msec
