                         Program Version 3.0.3 - RELEASE   -
|  1> ! RI PBE def2-SVP def2-SVP/J NBO PAL2
|  2> % maxcore 2000
|  3> % output
|  4>     # printlevel mini
|  5>     print[ P_Basis ] 0
|  6>     print[ P_SCFInfo ] 1
|  7>     print[ P_SCFIterInfo ] 1
|  8>     print[ P_OrbEn ] 0
|  9>     print[ P_Cartesian ] 0
| 10> end
| 11> *xyz 0 1
| 12>  C        1.3841840000    -1.3590510000    -0.4804980000
| 13>  C        2.7154040000    -1.0531240000     0.1989010000
| 14>  C        3.3155380000     0.2219220000    -0.2966820000
| 15>  C        4.5234100000     0.4430660000    -0.8175190000
| 16>  C        4.9358870000     1.8039600000    -1.2865700000
| 17>  C        5.5777210000    -0.6111840000    -0.9553430000
| 18>  O        5.9943930000    -0.6719680000    -2.3114920000
| 19>  H        0.9324510000    -2.2669330000    -0.0739150000
| 20>  H        1.5185430000    -1.4973760000    -1.5557010000
| 21>  H        0.6733190000    -0.5404730000    -0.3386410000
| 22>  H        3.3976390000    -1.8947730000     0.0623970000
| 23>  H        2.5478910000    -0.9696100000     1.2803860000
| 24>  H        2.6509530000     1.0834340000    -0.2235360000
| 25>  H        5.8174300000     2.1559190000    -0.7385300000
| 26>  H        4.1341040000     2.5308640000    -1.1498860000
| 27>  H        5.2130070000     1.7796890000    -2.3431470000
| 28>  H        5.2110460000    -1.5859180000    -0.6195390000
| 29>  H        6.4276510000    -0.3366930000    -0.3108680000
| 30>  H        6.7832370000    -1.2161510000    -2.3602250000
| 31> *
| 32>
| 33>                          ****END OF INPUT****
 Total Charge           Charge          ....    0
 Multiplicity           Mult            ....    1
 Number of Electrons    NEL             ....   56
 Basis Dimension        Dim             ....  158

MULLIKEN ATOMIC CHARGES
-----------------------
   0 C :   -0.049147
   1 C :    0.037380
   2 C :   -0.084696
   3 C :   -0.189941
   4 C :    0.065688
   5 C :    0.224049
   6 O :   -0.281877
   7 H :    0.016413
   8 H :    0.033884
   9 H :    0.025518
  10 H :    0.006158
  11 H :    0.024502
  12 H :   -0.023021
  13 H :    0.013351
  14 H :    0.011223
  15 H :    0.038060
  16 H :   -0.019740
  17 H :   -0.000322
  18 H :    0.152518
Sum of atomic charges:   -0.0000000

LOEWDIN ATOMIC CHARGES
----------------------
   0 C :   -0.064032
   1 C :   -0.049358
   2 C :   -0.044811
   3 C :   -0.056093
   4 C :   -0.056128
   5 C :    0.063846
   6 O :   -0.128561
   7 H :    0.025279
   8 H :    0.028718
   9 H :    0.024975
  10 H :    0.023039
  11 H :    0.034372
  12 H :    0.020536
  13 H :    0.031255
  14 H :    0.026925
  15 H :    0.037055
  16 H :    0.003708
  17 H :    0.010805
  18 H :    0.068469

  Mayer bond orders larger than 0.1
B(  0-C ,  1-C ) :   1.0970 B(  0-C ,  7-H ) :   0.9586 B(  0-C ,  8-H ) :   0.9695
B(  0-C ,  9-H ) :   0.9701 B(  1-C ,  2-C ) :   1.0673 B(  1-C , 10-H ) :   0.9258
B(  1-C , 11-H ) :   0.9125 B(  2-C ,  3-C ) :   1.9034 B(  2-C , 12-H ) :   0.9331
B(  3-C ,  4-C ) :   1.0791 B(  3-C ,  5-C ) :   1.0697 B(  4-C , 13-H ) :   0.9386
B(  4-C , 14-H ) :   0.9529 B(  4-C , 15-H ) :   0.9380 B(  5-C ,  6-O ) :   1.0857
B(  5-C , 16-H ) :   0.9161 B(  5-C , 17-H ) :   0.9106 B(  6-O , 18-H ) :   0.9796

FINAL SINGLE POINT ENERGY      -310.416014732645

DIPOLE MOMENT
-------------
                                X             Y             Z
Electronic contribution:      4.03995       0.00425      -1.78129
Nuclear contribution   :     -3.69007      -0.32511       2.14154
                        -----------------------------------------
Total Dipole Moment    :      0.34988      -0.32086       0.36025
                        -----------------------------------------
Magnitude (a.u.)       :      0.59594
Magnitude (Debye)      :      1.51476

                             ****ORCA TERMINATED NORMALLY****
TOTAL RUN TIME: 0 days 0 hours 0 minutes 8 seconds 102 msec
