                         Program Version 3.0.3 - RELEASE   -
|  1> ! RI PBE def2-SVP def2-SVP/J NBO PAL2
|  2> % maxcore 2000
|  3> % output
|  4>     # printlevel mini
|  5>     print[ P_Basis ] 0
|  6>     print[ P_SCFInfo ] 1
|  7>     print[ P_SCFIterInfo ] 1
|  8>     print[ P_OrbEn ] 0
|  9>     print[ P_Cartesian ] 0
| 10> end
| 11> *xyz 0 1
| 12>  C        2.3601600000     0.6344770000    -1.3106650000
| 13>  C        3.1533890000     0.4415440000    -0.0206360000
| 14>  C        3.4399130000    -0.9920470000     0.2515760000
| 15>  C        4.6243550000    -1.5871280000     0.4482940000
| 16>  C        5.9692690000    -0.9432180000     0.4528450000
| 17>  C        4.5889380000    -3.0381550000     0.6901960000
| 18>  O        5.5621150000    -3.7230380000     0.8856580000
| 19>  H        2.1215980000     1.6885470000    -1.4656190000
| 20>  H        1.4195080000     0.0787800000    -1.2822330000
| 21>  H        2.9275910000     0.2841330000    -2.1754990000
| 22>  H        2.5657210000     0.8386180000     0.8169600000
| 23>  H        4.0751250000     1.0251530000    -0.0552960000
| 24>  H        2.5618700000    -1.6391150000     0.2845640000
| 25>  H        5.9282280000     0.1153810000     0.2014820000
| 26>  H        6.6305420000    -1.4504450000    -0.2536430000
| 27>  H        6.4363100000    -1.0507500000     1.4354110000
| 28>  H        3.5700490000    -3.4835570000     0.6809160000
| 29> *
| 30>
| 31>                          ****END OF INPUT****
 Total Charge           Charge          ....    0
 Multiplicity           Mult            ....    1
 Number of Electrons    NEL             ....   54
 Basis Dimension        Dim             ....  148

MULLIKEN ATOMIC CHARGES
-----------------------
   0 C :   -0.044297
   1 C :    0.041000
   2 C :   -0.084398
   3 C :   -0.144378
   4 C :    0.080980
   5 C :    0.118736
   6 O :   -0.168662
   7 H :    0.029971
   8 H :    0.028236
   9 H :    0.033702
  10 H :    0.036941
  11 H :    0.017641
  12 H :   -0.002691
  13 H :    0.009520
  14 H :    0.040175
  15 H :    0.041743
  16 H :   -0.034220
Sum of atomic charges:    0.0000000

LOEWDIN ATOMIC CHARGES
----------------------
   0 C :   -0.057438
   1 C :   -0.047119
   2 C :    0.004487
   3 C :   -0.085493
   4 C :   -0.054919
   5 C :    0.071797
   6 O :   -0.121258
   7 H :    0.030516
   8 H :    0.027783
   9 H :    0.029354
  10 H :    0.043904
  11 H :    0.029623
  12 H :    0.024612
  13 H :    0.027315
  14 H :    0.045087
  15 H :    0.046236
  16 H :   -0.014487

  Mayer bond orders larger than 0.1
B(  0-C ,  1-C ) :   1.0981 B(  0-C ,  7-H ) :   0.9601 B(  0-C ,  8-H ) :   0.9678
B(  0-C ,  9-H ) :   0.9716 B(  1-C ,  2-C ) :   1.0629 B(  1-C , 10-H ) :   0.9068
B(  1-C , 11-H ) :   0.9285 B(  2-C ,  3-C ) :   1.7598 B(  2-C , 12-H ) :   0.9338
B(  3-C ,  4-C ) :   1.1088 B(  3-C ,  5-C ) :   1.0047 B(  4-C , 13-H ) :   0.9437
B(  4-C , 14-H ) :   0.9315 B(  4-C , 15-H ) :   0.9348 B(  5-C ,  6-O ) :   2.1350
B(  5-C , 16-H ) :   0.9298

FINAL SINGLE POINT ENERGY      -309.234142503018

DIPOLE MOMENT
-------------
                                X             Y             Z
Electronic contribution:      3.28776      -7.82421       3.19455
Nuclear contribution   :     -4.01037       8.93038      -3.45776
                        -----------------------------------------
Total Dipole Moment    :     -0.72261       1.10618      -0.26321
                        -----------------------------------------
Magnitude (a.u.)       :      1.34725
Magnitude (Debye)      :      3.42443

                             ****ORCA TERMINATED NORMALLY****
TOTAL RUN TIME: 0 days 0 hours 0 minutes 6 seconds 654 msec
