                         Program Version 3.0.3 - RELEASE   -
|  1> ! RI PBE def2-SVP def2-SVP/J NBO PAL2
|  2> % maxcore 2000
|  3> % output
|  4>     # printlevel mini
|  5>     print[ P_Basis ] 0
|  6>     print[ P_SCFInfo ] 1
|  7>     print[ P_SCFIterInfo ] 1
|  8>     print[ P_OrbEn ] 0
|  9>     print[ P_Cartesian ] 0
| 10> end
| 11> *xyz 0 1
| 12>  C        2.3696360000     0.1963970000     1.3810650000
| 13>  C        3.1462220000    -0.2026740000     0.1308310000
| 14>  C        3.2363410000     0.9027230000    -0.8689860000
| 15>  C        4.3686120000     1.4262620000    -1.3250420000
| 16>  C        4.5105570000     2.5490220000    -2.3086140000
| 17>  C        3.2082950000     3.1531090000    -2.7946340000
| 18>  O        5.3726660000     3.5485880000    -1.7728760000
| 19>  H        2.2877980000    -0.6408230000     2.0778770000
| 20>  H        1.3560700000     0.5200740000     1.1293190000
| 21>  H        2.8619580000     1.0222830000     1.8999060000
| 22>  H        2.6497600000    -1.0641280000    -0.3330250000
| 23>  H        4.1532150000    -0.5330880000     0.4023660000
| 24>  H        2.2854210000     1.2906300000    -1.2318120000
| 25>  H        5.3182090000     1.0385780000    -0.9578050000
| 26>  H        5.0620800000     2.1698520000    -3.1776280000
| 27>  H        2.6216740000     3.5497520000    -1.9607000000
| 28>  H        2.5975180000     2.4167960000    -3.3221130000
| 29>  H        3.4257670000     3.9743500000    -3.4788460000
| 30>  H        4.9998910000     3.8279960000    -0.9310830000
| 31> *
| 32>
| 33>                          ****END OF INPUT****
 Total Charge           Charge          ....    0
 Multiplicity           Mult            ....    1
 Number of Electrons    NEL             ....   56
 Basis Dimension        Dim             ....  158

MULLIKEN ATOMIC CHARGES
-----------------------
   0 C :   -0.051568
   1 C :    0.055762
   2 C :   -0.070084
   3 C :   -0.096198
   4 C :    0.136029
   5 C :    0.004485
   6 O :   -0.287366
   7 H :    0.028896
   8 H :    0.023178
   9 H :    0.025482
  10 H :    0.021692
  11 H :    0.005232
  12 H :   -0.010608
  13 H :   -0.009947
  14 H :    0.008497
  15 H :    0.013420
  16 H :    0.025565
  17 H :    0.030607
  18 H :    0.146925
Sum of atomic charges:   -0.0000000

LOEWDIN ATOMIC CHARGES
----------------------
   0 C :   -0.065259
   1 C :   -0.043091
   2 C :   -0.036666
   3 C :   -0.064887
   4 C :    0.040914
   5 C :   -0.081198
   6 O :   -0.115027
   7 H :    0.028301
   8 H :    0.025358
   9 H :    0.025946
  10 H :    0.034281
  11 H :    0.027424
  12 H :    0.020455
  13 H :    0.023105
  14 H :    0.030539
  15 H :    0.022648
  16 H :    0.030720
  17 H :    0.032382
  18 H :    0.064055

  Mayer bond orders larger than 0.1
B(  0-C ,  1-C ) :   1.0999 B(  0-C ,  7-H ) :   0.9613 B(  0-C ,  8-H ) :   0.9675
B(  0-C ,  9-H ) :   0.9688 B(  1-C ,  2-C ) :   1.0548 B(  1-C , 10-H ) :   0.9151
B(  1-C , 11-H ) :   0.9336 B(  2-C ,  3-C ) :   1.8973 B(  2-C , 12-H ) :   0.9325
B(  3-C ,  4-C ) :   1.0209 B(  3-C , 13-H ) :   0.9613 B(  4-C ,  5-C ) :   1.1193
B(  4-C ,  6-O ) :   1.0033 B(  4-C , 14-H ) :   0.8842 B(  5-C , 15-H ) :   0.9409
B(  5-C , 16-H ) :   0.9381 B(  5-C , 17-H ) :   0.9498 B(  6-O , 18-H ) :   0.9858

FINAL SINGLE POINT ENERGY      -310.420166335396

DIPOLE MOMENT
-------------
                                X             Y             Z
Electronic contribution:      4.56008       2.44442      -2.52473
Nuclear contribution   :     -5.09096      -2.69302       2.83563
                        -----------------------------------------
Total Dipole Moment    :     -0.53089      -0.24860       0.31090
                        -----------------------------------------
Magnitude (a.u.)       :      0.66355
Magnitude (Debye)      :      1.68661

                             ****ORCA TERMINATED NORMALLY****
TOTAL RUN TIME: 0 days 0 hours 0 minutes 8 seconds 61 msec
