                         Program Version 3.0.3 - RELEASE   -
|  1> ! RI PBE def2-SVP def2-SVP/J NBO PAL2
|  2> % maxcore 2000
|  3> % output
|  4>     # printlevel mini
|  5>     print[ P_Basis ] 0
|  6>     print[ P_SCFInfo ] 1
|  7>     print[ P_SCFIterInfo ] 1
|  8>     print[ P_OrbEn ] 0
|  9>     print[ P_Cartesian ] 0
| 10> end
| 11> *xyz 0 1
| 12>  C        1.8778730000    -0.4317540000    -1.3106130000
| 13>  C        2.7547210000    -0.1984330000    -0.0829320000
| 14>  C        3.0314240000     1.2432750000     0.1470450000
| 15>  C        4.2373360000     1.8066520000     0.2128810000
| 16>  C        4.3956870000     3.2622530000     0.4421330000
| 17>  C        5.8021460000     3.8087140000     0.4926140000
| 18>  O        3.4455470000     4.0006830000     0.5849490000
| 19>  H        1.6543360000    -1.4936440000    -1.4312350000
| 20>  H        2.3751140000    -0.0837080000    -2.2184830000
| 21>  H        0.9293150000     0.1037100000    -1.2241700000
| 22>  H        3.6935510000    -0.7520380000    -0.1737850000
| 23>  H        2.2364870000    -0.5952990000     0.7993290000
| 24>  H        2.1726830000     1.9039880000     0.2638330000
| 25>  H        5.1360130000     1.2066550000     0.0998010000
| 26>  H        6.5667990000     3.0451560000     0.3502050000
| 27>  H        5.9549520000     4.2986300000     1.4567730000
| 28>  H        5.9090170000     4.5761610000    -0.2771440000
| 29> *
| 30>
| 31>                          ****END OF INPUT****
 Total Charge           Charge          ....    0
 Multiplicity           Mult            ....    1
 Number of Electrons    NEL             ....   54
 Basis Dimension        Dim             ....  148

MULLIKEN ATOMIC CHARGES
-----------------------
   0 C :   -0.039799
   1 C :    0.035449
   2 C :   -0.022910
   3 C :   -0.051048
   4 C :   -0.026573
   5 C :    0.032195
   6 O :   -0.179005
   7 H :    0.029360
   8 H :    0.030104
   9 H :    0.030328
  10 H :    0.011757
  11 H :    0.036626
  12 H :    0.015215
  13 H :   -0.014466
  14 H :    0.011999
  15 H :    0.048832
  16 H :    0.051936
Sum of atomic charges:    0.0000000

LOEWDIN ATOMIC CHARGES
----------------------
   0 C :   -0.058051
   1 C :   -0.045088
   2 C :    0.041317
   3 C :   -0.094236
   4 C :    0.045958
   5 C :   -0.089972
   6 O :   -0.139361
   7 H :    0.030064
   8 H :    0.028586
   9 H :    0.029286
  10 H :    0.029292
  11 H :    0.042935
  12 H :    0.030855
  13 H :    0.021379
  14 H :    0.026084
  15 H :    0.050281
  16 H :    0.050672

  Mayer bond orders larger than 0.1
B(  0-C ,  1-C ) :   1.0957 B(  0-C ,  7-H ) :   0.9599 B(  0-C ,  8-H ) :   0.9706
B(  0-C ,  9-H ) :   0.9674 B(  1-C ,  2-C ) :   1.0607 B(  1-C , 10-H ) :   0.9318
B(  1-C , 11-H ) :   0.9099 B(  2-C ,  3-C ) :   1.8288 B(  2-C , 12-H ) :   0.9399
B(  3-C ,  4-C ) :   0.9882 B(  3-C , 13-H ) :   0.9453 B(  4-C ,  5-C ) :   1.0343
B(  4-C ,  6-O ) :   2.1230 B(  5-C , 14-H ) :   0.9504 B(  5-C , 15-H ) :   0.9398
B(  5-C , 16-H ) :   0.9407

FINAL SINGLE POINT ENERGY      -309.235866231622

DIPOLE MOMENT
-------------
                                X             Y             Z
Electronic contribution:      0.23429       5.77620       2.57010
Nuclear contribution   :      0.18905      -6.70636      -2.75568
                        -----------------------------------------
Total Dipole Moment    :      0.42335      -0.93016      -0.18559
                        -----------------------------------------
Magnitude (a.u.)       :      1.03869
Magnitude (Debye)      :      2.64013

                             ****ORCA TERMINATED NORMALLY****
TOTAL RUN TIME: 0 days 0 hours 0 minutes 7 seconds 410 msec
