                         Program Version 3.0.3 - RELEASE   -
|  1> ! RI PBE def2-SVP def2-SVP/J NBO PAL2
|  2> % maxcore 2000
|  3> % output
|  4>     # printlevel mini
|  5>     print[ P_Basis ] 0
|  6>     print[ P_SCFInfo ] 1
|  7>     print[ P_SCFIterInfo ] 1
|  8>     print[ P_OrbEn ] 0
|  9>     print[ P_Cartesian ] 0
| 10> end
| 11> *xyz 0 1
| 12>  C        1.7533700000     0.4603000000    -1.2446670000
| 13>  C        2.6275760000     0.2088930000    -0.0202890000
| 14>  C        2.9815080000    -1.2307350000     0.1470640000
| 15>  C        4.2166670000    -1.7186050000     0.1747650000
| 16>  C        4.5631750000    -3.1685530000     0.3147600000
| 17>  C        5.1155350000    -3.7036940000    -0.9834380000
| 18>  O        6.2251620000    -4.1333570000    -1.1308570000
| 19>  H        1.4804570000     1.5150250000    -1.3216590000
| 20>  H        0.8282270000    -0.1200690000    -1.1945810000
| 21>  H        2.2741470000     0.1763620000    -2.1619670000
| 22>  H        2.0911950000     0.5503510000     0.8735830000
| 23>  H        3.5424870000     0.8055120000    -0.0822300000
| 24>  H        2.1436640000    -1.9211650000     0.2520770000
| 25>  H        5.0582390000    -1.0360820000     0.0680250000
| 26>  H        3.6597040000    -3.7413820000     0.5533510000
| 27>  H        5.3080520000    -3.3356230000     1.0966940000
| 28>  H        4.4048340000    -3.6548750000    -1.8378500000
| 29> *
| 30>
| 31>                          ****END OF INPUT****
 Total Charge           Charge          ....    0
 Multiplicity           Mult            ....    1
 Number of Electrons    NEL             ....   54
 Basis Dimension        Dim             ....  148

MULLIKEN ATOMIC CHARGES
-----------------------
   0 C :   -0.034901
   1 C :    0.029921
   2 C :   -0.054647
   3 C :   -0.105215
   4 C :    0.088187
   5 C :    0.076214
   6 O :   -0.157763
   7 H :    0.026124
   8 H :    0.022966
   9 H :    0.025715
  10 H :    0.027440
  11 H :    0.011476
  12 H :   -0.007391
  13 H :    0.007128
  14 H :    0.027749
  15 H :    0.027623
  16 H :   -0.010624
Sum of atomic charges:   -0.0000000

LOEWDIN ATOMIC CHARGES
----------------------
   0 C :   -0.061311
   1 C :   -0.045277
   2 C :   -0.029567
   3 C :   -0.045620
   4 C :   -0.075156
   5 C :    0.093001
   6 O :   -0.103948
   7 H :    0.028659
   8 H :    0.025974
   9 H :    0.026698
  10 H :    0.035778
  11 H :    0.029567
  12 H :    0.021680
  13 H :    0.026438
  14 H :    0.045367
  15 H :    0.040181
  16 H :   -0.012465

  Mayer bond orders larger than 0.1
B(  0-C ,  1-C ) :   1.1004 B(  0-C ,  7-H ) :   0.9603 B(  0-C ,  8-H ) :   0.9678
B(  0-C ,  9-H ) :   0.9698 B(  1-C ,  2-C ) :   1.0609 B(  1-C , 10-H ) :   0.9180
B(  1-C , 11-H ) :   0.9333 B(  2-C ,  3-C ) :   1.9003 B(  2-C , 12-H ) :   0.9506
B(  3-C ,  4-C ) :   1.0416 B(  3-C , 13-H ) :   0.9528 B(  4-C ,  5-C ) :   0.9585
B(  4-C , 14-H ) :   0.9064 B(  4-C , 15-H ) :   0.9039 B(  5-C ,  6-O ) :   2.1771
B(  5-C , 16-H ) :   0.9160

FINAL SINGLE POINT ENERGY      -309.220195950972

DIPOLE MOMENT
-------------
                                X             Y             Z
Electronic contribution:      7.05075      -7.19880      -0.13658
Nuclear contribution   :     -7.97309       7.73703       0.40889
                        -----------------------------------------
Total Dipole Moment    :     -0.92234       0.53824       0.27231
                        -----------------------------------------
Magnitude (a.u.)       :      1.10207
Magnitude (Debye)      :      2.80124

                             ****ORCA TERMINATED NORMALLY****
TOTAL RUN TIME: 0 days 0 hours 0 minutes 7 seconds 660 msec
