                         Program Version 3.0.3 - RELEASE   -
|  1> ! RI PBE def2-SVP def2-SVP/J NBO PAL2
|  2> % maxcore 2000
|  3> % output
|  4>     # printlevel mini
|  5>     print[ P_Basis ] 0
|  6>     print[ P_SCFInfo ] 1
|  7>     print[ P_SCFIterInfo ] 1
|  8>     print[ P_OrbEn ] 0
|  9>     print[ P_Cartesian ] 0
| 10> end
| 11> *xyz 0 1
| 12>  C        3.1029240000     1.3969700000    -0.0334280000
| 13>  C        2.6196160000    -0.0461500000     0.0740050000
| 14>  C        2.9566510000    -0.6982930000     1.3849150000
| 15>  C        1.9985740000    -1.1386190000     2.1983600000
| 16>  C        4.4257970000    -0.8109570000     1.7023350000
| 17>  C        4.7889670000    -1.8476300000     2.7479850000
| 18>  O        4.4695630000    -3.1613620000     2.3486500000
| 19>  H        2.8165440000     1.8282420000    -0.9950030000
| 20>  H        4.1898870000     1.4667240000     0.0472130000
| 21>  H        2.6674180000     2.0140650000     0.7563350000
| 22>  H        3.0726700000    -0.6324400000    -0.7353920000
| 23>  H        1.5376800000    -0.0834020000    -0.0780940000
| 24>  H        0.9520300000    -1.0322510000     1.9346070000
| 25>  H        2.2105720000    -1.5994650000     3.1572950000
| 26>  H        4.7996380000     0.1681510000     2.0277360000
| 27>  H        4.9658130000    -1.0450790000     0.7769450000
| 28>  H        4.3176140000    -1.6006770000     3.7102500000
| 29>  H        5.8688930000    -1.8350440000     2.9114860000
| 30>  H        3.5449490000    -3.1627550000     2.0802900000
| 31> *
| 32>
| 33>                          ****END OF INPUT****
 Total Charge           Charge          ....    0
 Multiplicity           Mult            ....    1
 Number of Electrons    NEL             ....   56
 Basis Dimension        Dim             ....  158

MULLIKEN ATOMIC CHARGES
-----------------------
   0 C :   -0.045700
   1 C :    0.039401
   2 C :   -0.196341
   3 C :   -0.059552
   4 C :    0.043356
   5 C :    0.157849
   6 O :   -0.286976
   7 H :    0.023653
   8 H :    0.035165
   9 H :    0.028730
  10 H :    0.021812
  11 H :    0.005581
  12 H :    0.014237
  13 H :    0.021213
  14 H :    0.025225
  15 H :    0.017545
  16 H :   -0.003544
  17 H :    0.010156
  18 H :    0.148188
Sum of atomic charges:   -0.0000000

LOEWDIN ATOMIC CHARGES
----------------------
   0 C :   -0.063575
   1 C :   -0.037395
   2 C :   -0.023236
   3 C :   -0.092846
   4 C :   -0.059899
   5 C :    0.056931
   6 O :   -0.123784
   7 H :    0.029091
   8 H :    0.025766
   9 H :    0.028445
  10 H :    0.033050
  11 H :    0.028179
  12 H :    0.022755
  13 H :    0.019370
  14 H :    0.040626
  15 H :    0.032902
  16 H :    0.001142
  17 H :    0.023609
  18 H :    0.058870

  Mayer bond orders larger than 0.1
B(  0-C ,  1-C ) :   1.1052 B(  0-C ,  7-H ) :   0.9598 B(  0-C ,  8-H ) :   0.9654
B(  0-C ,  9-H ) :   0.9664 B(  1-C ,  2-C ) :   1.0708 B(  1-C , 10-H ) :   0.9136
B(  1-C , 11-H ) :   0.9249 B(  2-C ,  3-C ) :   1.9681 B(  2-C ,  4-C ) :   1.0158
B(  3-C , 12-H ) :   0.9300 B(  3-C , 13-H ) :   0.9270 B(  4-C ,  5-C ) :   1.0926
B(  4-C , 14-H ) :   0.8930 B(  4-C , 15-H ) :   0.9087 B(  5-C ,  6-O ) :   1.0829
B(  5-C , 16-H ) :   0.9193 B(  5-C , 17-H ) :   0.9324 B(  6-O , 18-H ) :   0.9789

FINAL SINGLE POINT ENERGY      -310.415564092377

DIPOLE MOMENT
-------------
                                X             Y             Z
Electronic contribution:      0.83110      -4.71679       2.02008
Nuclear contribution   :     -1.10557       5.34928      -2.24860
                        -----------------------------------------
Total Dipole Moment    :     -0.27446       0.63250      -0.22851
                        -----------------------------------------
Magnitude (a.u.)       :      0.72636
Magnitude (Debye)      :      1.84627

                             ****ORCA TERMINATED NORMALLY****
TOTAL RUN TIME: 0 days 0 hours 0 minutes 8 seconds 300 msec
