                         Program Version 3.0.3 - RELEASE   -
|  1> ! RI PBE def2-SVP def2-SVP/J NBO PAL2
|  2> % maxcore 2000
|  3> % output
|  4>     # printlevel mini
|  5>     print[ P_Basis ] 0
|  6>     print[ P_SCFInfo ] 1
|  7>     print[ P_SCFIterInfo ] 1
|  8>     print[ P_OrbEn ] 0
|  9>     print[ P_Cartesian ] 0
| 10> end
| 11> *xyz 0 1
| 12>  C        0.8876390000     0.0090200000    -0.6035050000
| 13>  C        2.3636390000     0.0093620000    -0.2522530000
| 14>  C        2.7161390000    -0.4826200000     1.1243300000
| 15>  C        1.8116740000    -0.7469170000     2.0607660000
| 16>  C        4.1939060000    -0.6997230000     1.3753330000
| 17>  C        5.0295920000     0.5420700000     1.0895680000
| 18>  O        4.4755720000    -1.1941960000     2.6658620000
| 19>  H        0.7409360000     0.3461150000    -1.6317550000
| 20>  H        0.3198300000     0.6791830000     0.0460060000
| 21>  H        0.4562400000    -0.9905300000    -0.5125310000
| 22>  H        2.7617470000     1.0231740000    -0.3797850000
| 23>  H        2.9120880000    -0.6020520000    -0.9813420000
| 24>  H        0.7524490000    -0.6063060000     1.8858650000
| 25>  H        2.1033070000    -1.1428590000     3.0253070000
| 26>  H        4.5246200000    -1.4985620000     0.6987790000
| 27>  H        4.9578760000     0.8556450000     0.0468620000
| 28>  H        4.7000250000     1.3770940000     1.7165110000
| 29>  H        6.0767680000     0.3315640000     1.3124390000
| 30>  H        4.2555810000    -0.5048720000     3.3002630000
| 31> *
| 32>
| 33>                          ****END OF INPUT****
 Total Charge           Charge          ....    0
 Multiplicity           Mult            ....    1
 Number of Electrons    NEL             ....   56
 Basis Dimension        Dim             ....  158

MULLIKEN ATOMIC CHARGES
-----------------------
   0 C :   -0.016944
   1 C :    0.016851
   2 C :   -0.158233
   3 C :   -0.043275
   4 C :    0.122564
   5 C :   -0.019904
   6 O :   -0.263885
   7 H :    0.014995
   8 H :    0.030064
   9 H :    0.026683
  10 H :    0.024890
  11 H :    0.018075
  12 H :    0.010193
  13 H :   -0.003496
  14 H :    0.017550
  15 H :    0.026450
  16 H :    0.012859
  17 H :    0.033302
  18 H :    0.151259
Sum of atomic charges:   -0.0000000

LOEWDIN ATOMIC CHARGES
----------------------
   0 C :   -0.063211
   1 C :   -0.043150
   2 C :   -0.045164
   3 C :   -0.084218
   4 C :    0.044955
   5 C :   -0.076087
   6 O :   -0.098348
   7 H :    0.028226
   8 H :    0.027302
   9 H :    0.028002
  10 H :    0.034209
  11 H :    0.033046
  12 H :    0.019573
  13 H :    0.015234
  14 H :    0.031109
  15 H :    0.028528
  16 H :    0.024170
  17 H :    0.031066
  18 H :    0.064759

  Mayer bond orders larger than 0.1
B(  0-C ,  1-C ) :   1.1434 B(  0-C ,  7-H ) :   0.9535 B(  0-C ,  8-H ) :   0.9561
B(  0-C ,  9-H ) :   0.9607 B(  1-C ,  2-C ) :   1.0282 B(  1-C , 10-H ) :   0.9075
B(  1-C , 11-H ) :   0.9156 B(  2-C ,  3-C ) :   2.0088 B(  2-C ,  4-C ) :   0.9736
B(  3-C , 12-H ) :   0.9203 B(  3-C , 13-H ) :   0.9094 B(  4-C ,  5-C ) :   1.0791
B(  4-C ,  6-O ) :   1.0696 B(  4-C , 14-H ) :   0.8919 B(  5-C , 15-H ) :   0.9433
B(  5-C , 16-H ) :   0.9545 B(  5-C , 17-H ) :   0.9552 B(  6-O , 18-H ) :   0.9771

FINAL SINGLE POINT ENERGY      -310.419499239663

DIPOLE MOMENT
-------------
                                X             Y             Z
Electronic contribution:      2.41574      -2.80252       3.94127
Nuclear contribution   :     -2.47326       3.37901      -4.20964
                        -----------------------------------------
Total Dipole Moment    :     -0.05752       0.57649      -0.26836
                        -----------------------------------------
Magnitude (a.u.)       :      0.63849
Magnitude (Debye)      :      1.62290

                             ****ORCA TERMINATED NORMALLY****
TOTAL RUN TIME: 0 days 0 hours 0 minutes 8 seconds 2 msec
