                         Program Version 3.0.3 - RELEASE   -
|  1> ! RI PBE def2-SVP def2-SVP/J NBO PAL2
|  2> % maxcore 2000
|  3> % output
|  4>     # printlevel mini
|  5>     print[ P_Basis ] 0
|  6>     print[ P_SCFInfo ] 1
|  7>     print[ P_SCFIterInfo ] 1
|  8>     print[ P_OrbEn ] 0
|  9>     print[ P_Cartesian ] 0
| 10> end
| 11> *xyz 0 1
| 12>  C        2.5988420000     0.1008230000    -1.4704340000
| 13>  C        2.4526890000     0.0736900000     0.0484510000
| 14>  C        2.8660580000     1.3611710000     0.6966070000
| 15>  C        1.9872930000     2.2380020000     1.1829070000
| 16>  C        4.3357020000     1.6207500000     0.7825620000
| 17>  C        4.8290620000     2.9348820000     1.3329300000
| 18>  O        5.1206040000     0.7730850000     0.4178110000
| 19>  H        2.2921280000    -0.8545010000    -1.9020830000
| 20>  H        3.6355930000     0.2814210000    -1.7573200000
| 21>  H        1.9772100000     0.8849160000    -1.9098580000
| 22>  H        3.0710810000    -0.7338320000     0.4492920000
| 23>  H        1.4147740000    -0.1393380000     0.3175590000
| 24>  H        0.9207630000     2.0427430000     1.1429410000
| 25>  H        2.2916030000     3.1723010000     1.6383600000
| 26>  H        4.5153860000     3.0648090000     2.3715820000
| 27>  H        4.4295530000     3.7757040000     0.7613120000
| 28>  H        5.9160280000     2.9440850000     1.2832690000
| 29> *
| 30>
| 31>                          ****END OF INPUT****
 Total Charge           Charge          ....    0
 Multiplicity           Mult            ....    1
 Number of Electrons    NEL             ....   54
 Basis Dimension        Dim             ....  148

MULLIKEN ATOMIC CHARGES
-----------------------
   0 C :   -0.017612
   1 C :    0.063687
   2 C :   -0.128592
   3 C :   -0.024462
   4 C :   -0.016024
   5 C :    0.012158
   6 O :   -0.159421
   7 H :    0.022365
   8 H :    0.033053
   9 H :    0.015370
  10 H :    0.025164
  11 H :   -0.002722
  12 H :    0.026682
  13 H :    0.019429
  14 H :    0.048071
  15 H :    0.044657
  16 H :    0.038198
Sum of atomic charges:   -0.0000000

LOEWDIN ATOMIC CHARGES
----------------------
   0 C :   -0.057010
   1 C :   -0.035153
   2 C :   -0.057114
   3 C :   -0.021372
   4 C :    0.056496
   5 C :   -0.090386
   6 O :   -0.119591
   7 H :    0.028150
   8 H :    0.028362
   9 H :    0.022998
  10 H :    0.036533
  11 H :    0.026600
  12 H :    0.027474
  13 H :    0.023673
  14 H :    0.045921
  15 H :    0.043859
  16 H :    0.040561

  Mayer bond orders larger than 0.1
B(  0-C ,  1-C ) :   1.1011 B(  0-C ,  7-H ) :   0.9617 B(  0-C ,  8-H ) :   0.9678
B(  0-C ,  9-H ) :   0.9657 B(  1-C ,  2-C ) :   1.0668 B(  1-C , 10-H ) :   0.9081
B(  1-C , 11-H ) :   0.9196 B(  2-C ,  3-C ) :   1.9254 B(  2-C ,  4-C ) :   0.9380
B(  3-C , 12-H ) :   0.9315 B(  3-C , 13-H ) :   0.9193 B(  4-C ,  5-C ) :   1.0709
B(  4-C ,  6-O ) :   2.1331 B(  5-C , 14-H ) :   0.9299 B(  5-C , 15-H ) :   0.9355
B(  5-C , 16-H ) :   0.9418

FINAL SINGLE POINT ENERGY      -309.234512947372

DIPOLE MOMENT
-------------
                                X             Y             Z
Electronic contribution:      3.37119      -0.78824       1.83163
Nuclear contribution   :     -4.05632       1.40121      -1.57682
                        -----------------------------------------
Total Dipole Moment    :     -0.68513       0.61297       0.25481
                        -----------------------------------------
Magnitude (a.u.)       :      0.95397
Magnitude (Debye)      :      2.42480

                             ****ORCA TERMINATED NORMALLY****
TOTAL RUN TIME: 0 days 0 hours 0 minutes 7 seconds 944 msec
