                         Program Version 3.0.3 - RELEASE   -
|  1> ! RI PBE def2-SVP def2-SVP/J NBO PAL2
|  2> % maxcore 2000
|  3> % output
|  4>     # printlevel mini
|  5>     print[ P_Basis ] 0
|  6>     print[ P_SCFInfo ] 1
|  7>     print[ P_SCFIterInfo ] 1
|  8>     print[ P_OrbEn ] 0
|  9>     print[ P_Cartesian ] 0
| 10> end
| 11> *xyz 0 1
| 12>  C        2.3061470000    -1.3431580000     0.4119580000
| 13>  C        2.4152580000     0.1090080000    -0.0451690000
| 14>  C        2.8509830000     0.2504530000    -1.4755680000
| 15>  C        2.0246240000     0.6567120000    -2.4350930000
| 16>  C        4.2997140000    -0.0489100000    -1.7677180000
| 17>  C        5.1421540000     1.1291460000    -1.3440520000
| 18>  O        5.9081670000     1.1264980000    -0.4214270000
| 19>  H        1.9840490000    -1.3938000000     1.4542190000
| 20>  H        3.2630440000    -1.8647030000     0.3406130000
| 21>  H        1.5799720000    -1.8886290000    -0.1949690000
| 22>  H        3.1268790000     0.6332110000     0.6036690000
| 23>  H        1.4487250000     0.6037210000     0.0811740000
| 24>  H        0.9930980000     0.9119930000    -2.2172220000
| 25>  H        2.3448260000     0.7399470000    -3.4681180000
| 26>  H        4.4388010000    -0.1957090000    -2.8430170000
| 27>  H        4.6512970000    -0.9340330000    -1.2339020000
| 28>  H        4.9797520000     2.0484600000    -1.9481790000
| 29> *
| 30>
| 31>                          ****END OF INPUT****
 Total Charge           Charge          ....    0
 Multiplicity           Mult            ....    1
 Number of Electrons    NEL             ....   54
 Basis Dimension        Dim             ....  148

MULLIKEN ATOMIC CHARGES
-----------------------
   0 C :   -0.028459
   1 C :    0.054035
   2 C :   -0.224813
   3 C :   -0.019167
   4 C :    0.117748
   5 C :    0.082747
   6 O :   -0.158767
   7 H :    0.027702
   8 H :    0.028167
   9 H :    0.024919
  10 H :    0.028381
  11 H :    0.007023
  12 H :    0.015174
  13 H :    0.012989
  14 H :    0.024650
  15 H :    0.015665
  16 H :   -0.007994
Sum of atomic charges:   -0.0000000

LOEWDIN ATOMIC CHARGES
----------------------
   0 C :   -0.059747
   1 C :   -0.037390
   2 C :   -0.026302
   3 C :   -0.068290
   4 C :   -0.064981
   5 C :    0.096852
   6 O :   -0.103201
   7 H :    0.030786
   8 H :    0.025067
   9 H :    0.027781
  10 H :    0.034526
  11 H :    0.030456
  12 H :    0.023565
  13 H :    0.020985
  14 H :    0.045086
  15 H :    0.035253
  16 H :   -0.010447

  Mayer bond orders larger than 0.1
B(  0-C ,  1-C ) :   1.1072 B(  0-C ,  7-H ) :   0.9580 B(  0-C ,  8-H ) :   0.9652
B(  0-C ,  9-H ) :   0.9643 B(  1-C ,  2-C ) :   1.0625 B(  1-C , 10-H ) :   0.9134
B(  1-C , 11-H ) :   0.9214 B(  2-C ,  3-C ) :   1.9757 B(  2-C ,  4-C ) :   1.0408
B(  3-C , 12-H ) :   0.9311 B(  3-C , 13-H ) :   0.9369 B(  4-C ,  5-C ) :   0.9630
B(  4-C , 14-H ) :   0.8961 B(  4-C , 15-H ) :   0.9024 B(  5-C ,  6-O ) :   2.1667
B(  5-C , 16-H ) :   0.9166

FINAL SINGLE POINT ENERGY      -309.219125127086

DIPOLE MOMENT
-------------
                                X             Y             Z
Electronic contribution:      5.98893       3.48779      -0.81161
Nuclear contribution   :     -6.60750      -3.70253       0.35962
                        -----------------------------------------
Total Dipole Moment    :     -0.61858      -0.21474      -0.45199
                        -----------------------------------------
Magnitude (a.u.)       :      0.79564
Magnitude (Debye)      :      2.02236

                             ****ORCA TERMINATED NORMALLY****
TOTAL RUN TIME: 0 days 0 hours 0 minutes 7 seconds 695 msec
