                         Program Version 3.0.3 - RELEASE   -
|  1> ! RI PBE def2-SVP def2-SVP/J NBO PAL2
|  2> % maxcore 2000
|  3> % output
|  4>     # printlevel mini
|  5>     print[ P_Basis ] 0
|  6>     print[ P_SCFInfo ] 1
|  7>     print[ P_SCFIterInfo ] 1
|  8>     print[ P_OrbEn ] 0
|  9>     print[ P_Cartesian ] 0
| 10> end
| 11> *xyz 0 1
| 12>  C        1.9704270000    -1.4056440000     0.5633470000
| 13>  C        2.4214460000    -0.0288510000     0.0847730000
| 14>  C        2.9379020000     0.8373140000     1.1967580000
| 15>  C        1.9305940000     1.4260980000     2.0922470000
| 16>  O        0.7390470000     1.2845260000     1.9466230000
| 17>  C        4.2486530000     1.0705120000     1.3674430000
| 18>  C        4.9431760000     1.8754760000     2.4095220000
| 19>  H        1.5920530000    -1.9992240000    -0.2720130000
| 20>  H        1.1716850000    -1.3175950000     1.3012020000
| 21>  H        2.7996020000    -1.9532740000     1.0184810000
| 22>  H        1.5737160000     0.4770290000    -0.3862020000
| 23>  H        3.2008230000    -0.1359550000    -0.6747750000
| 24>  H        2.3113580000     2.0359240000     2.9329740000
| 25>  H        4.9194440000     0.6107580000     0.6416030000
| 26>  H        4.2807680000     2.3250410000     3.1457780000
| 27>  H        5.5216250000     2.6765540000     1.9379460000
| 28>  H        5.6669900000     1.2489000000     2.9405940000
| 29> *
| 30>
| 31>                          ****END OF INPUT****
 Total Charge           Charge          ....    0
 Multiplicity           Mult            ....    1
 Number of Electrons    NEL             ....   54
 Basis Dimension        Dim             ....  148

MULLIKEN ATOMIC CHARGES
-----------------------
   0 C :   -0.033088
   1 C :    0.048406
   2 C :   -0.116031
   3 C :    0.121783
   4 O :   -0.173930
   5 C :   -0.104023
   6 C :    0.057219
   7 H :    0.026288
   8 H :    0.040250
   9 H :    0.016274
  10 H :    0.023376
  11 H :    0.006028
  12 H :   -0.027832
  13 H :    0.003086
  14 H :    0.026204
  15 H :    0.043056
  16 H :    0.042936
Sum of atomic charges:   -0.0000000

LOEWDIN ATOMIC CHARGES
----------------------
   0 C :   -0.062302
   1 C :   -0.035028
   2 C :   -0.086370
   3 C :    0.076773
   4 O :   -0.119580
   5 C :    0.008879
   6 C :   -0.064620
   7 H :    0.028813
   8 H :    0.030167
   9 H :    0.023012
  10 H :    0.035583
  11 H :    0.026607
  12 H :   -0.010992
  13 H :    0.028035
  14 H :    0.029046
  15 H :    0.045927
  16 H :    0.046050

  Mayer bond orders larger than 0.1
B(  0-C ,  1-C ) :   1.1084 B(  0-C ,  7-H ) :   0.9598 B(  0-C ,  8-H ) :   0.9667
B(  0-C ,  9-H ) :   0.9641 B(  1-C ,  2-C ) :   1.0670 B(  1-C , 10-H ) :   0.9068
B(  1-C , 11-H ) :   0.9249 B(  2-C ,  3-C ) :   1.0203 B(  2-C ,  5-C ) :   1.7717
B(  3-C ,  4-O ) :   2.0988 B(  3-C , 12-H ) :   0.9366 B(  5-C ,  6-C ) :   1.1058
B(  5-C , 13-H ) :   0.9348 B(  6-C , 14-H ) :   0.9509 B(  6-C , 15-H ) :   0.9362
B(  6-C , 16-H ) :   0.9353

FINAL SINGLE POINT ENERGY      -309.230151616094

DIPOLE MOMENT
-------------
                                X             Y             Z
Electronic contribution:     -4.20956       2.97695       1.19894
Nuclear contribution   :      5.46686      -2.94968      -1.23092
                        -----------------------------------------
Total Dipole Moment    :      1.25730       0.02727      -0.03198
                        -----------------------------------------
Magnitude (a.u.)       :      1.25800
Magnitude (Debye)      :      3.19758

                             ****ORCA TERMINATED NORMALLY****
TOTAL RUN TIME: 0 days 0 hours 0 minutes 7 seconds 897 msec
