                         Program Version 3.0.3 - RELEASE   -
|  1> ! RI PBE def2-SVP def2-SVP/J NBO PAL2
|  2> % maxcore 2000
|  3> % output
|  4>     # printlevel mini
|  5>     print[ P_Basis ] 0
|  6>     print[ P_SCFInfo ] 1
|  7>     print[ P_SCFIterInfo ] 1
|  8>     print[ P_OrbEn ] 0
|  9>     print[ P_Cartesian ] 0
| 10> end
| 11> *xyz 0 1
| 12>  C        2.9091340000     1.3426670000    -0.3749210000
| 13>  C        2.8334560000    -0.1753140000    -0.3762770000
| 14>  C        3.1590730000    -0.7964170000     0.9772000000
| 15>  C        2.8413140000    -2.2637360000     1.0345240000
| 16>  C        2.1603740000    -2.8595910000     2.0034790000
| 17>  C        4.6251010000    -0.6685380000     1.3492940000
| 18>  O        5.5052330000    -0.3721010000     0.5907070000
| 19>  H        2.6507120000     1.7454110000    -1.3564810000
| 20>  H        3.9144420000     1.6894080000    -0.1292220000
| 21>  H        2.2129590000     1.7723380000     0.3512980000
| 22>  H        3.5260700000    -0.5801790000    -1.1199220000
| 23>  H        1.8296380000    -0.4977270000    -0.6684580000
| 24>  H        2.5940420000    -0.2980370000     1.7765740000
| 25>  H        3.2340950000    -2.8561640000     0.2101420000
| 26>  H        1.7545430000    -2.3002040000     2.8407760000
| 27>  H        1.9753080000    -3.9273790000     1.9896300000
| 28>  H        4.8469980000    -0.9181360000     2.4094380000
| 29> *
| 30>
| 31>                          ****END OF INPUT****
 Total Charge           Charge          ....    0
 Multiplicity           Mult            ....    1
 Number of Electrons    NEL             ....   54
 Basis Dimension        Dim             ....  148

MULLIKEN ATOMIC CHARGES
-----------------------
   0 C :   -0.000697
   1 C :    0.000495
   2 C :   -0.077176
   3 C :   -0.049147
   4 C :   -0.021564
   5 C :    0.128094
   6 O :   -0.153912
   7 H :    0.021044
   8 H :    0.027389
   9 H :    0.013868
  10 H :    0.023398
  11 H :    0.011343
  12 H :    0.014002
  13 H :    0.016285
  14 H :    0.022229
  15 H :    0.033056
  16 H :   -0.008707
Sum of atomic charges:   -0.0000000

LOEWDIN ATOMIC CHARGES
----------------------
   0 C :   -0.063529
   1 C :   -0.034897
   2 C :   -0.081920
   3 C :   -0.016756
   4 C :   -0.053539
   5 C :    0.103162
   6 O :   -0.101648
   7 H :    0.029574
   8 H :    0.027183
   9 H :    0.022889
  10 H :    0.028562
  11 H :    0.027070
  12 H :    0.039396
  13 H :    0.030986
  14 H :    0.023945
  15 H :    0.029453
  16 H :   -0.009932

  Mayer bond orders larger than 0.1
B(  0-C ,  1-C ) :   1.1155 B(  0-C ,  7-H ) :   0.9607 B(  0-C ,  8-H ) :   0.9640
B(  0-C ,  9-H ) :   0.9636 B(  1-C ,  2-C ) :   1.0385 B(  1-C , 10-H ) :   0.9238
B(  1-C , 11-H ) :   0.9387 B(  2-C ,  3-C ) :   1.0088 B(  2-C ,  5-C ) :   0.9007
B(  2-C , 12-H ) :   0.8917 B(  3-C ,  4-C ) :   1.9929 B(  3-C , 13-H ) :   0.9525
B(  4-C , 14-H ) :   0.9472 B(  4-C , 15-H ) :   0.9407 B(  5-C ,  6-O ) :   2.1692
B(  5-C , 16-H ) :   0.9251

FINAL SINGLE POINT ENERGY      -309.216403665698

DIPOLE MOMENT
-------------
                                X             Y             Z
Electronic contribution:      4.89355      -1.79095       1.23008
Nuclear contribution   :     -5.63792       1.60462      -0.89547
                        -----------------------------------------
Total Dipole Moment    :     -0.74437      -0.18633       0.33461
                        -----------------------------------------
Magnitude (a.u.)       :      0.83712
Magnitude (Debye)      :      2.12780

                             ****ORCA TERMINATED NORMALLY****
TOTAL RUN TIME: 0 days 0 hours 0 minutes 7 seconds 980 msec
