                         Program Version 3.0.3 - RELEASE   -
|  1> ! RI PBE def2-SVP def2-SVP/J NBO PAL2
|  2> % maxcore 2000
|  3> % output
|  4>     # printlevel mini
|  5>     print[ P_Basis ] 0
|  6>     print[ P_SCFInfo ] 1
|  7>     print[ P_SCFIterInfo ] 1
|  8>     print[ P_OrbEn ] 0
|  9>     print[ P_Cartesian ] 0
| 10> end
| 11> *xyz 0 1
| 12>  C        3.1099090000     0.5930650000    -1.0992280000
| 13>  C        2.4592090000    -0.4694500000    -0.2291080000
| 14>  C        3.0246330000    -0.5729740000     1.1888530000
| 15>  C        2.2428800000    -1.5992770000     2.0008710000
| 16>  C        4.5333150000    -0.8366920000     1.2393120000
| 17>  C        5.0043970000    -2.1179740000     0.5750430000
| 18>  O        6.3908520000    -2.3349800000     0.7524390000
| 19>  H        2.5955040000     0.6837280000    -2.0586260000
| 20>  H        4.1564510000     0.3629720000    -1.3136990000
| 21>  H        3.0802580000     1.5733080000    -0.6142360000
| 22>  H        2.5280090000    -1.4448680000    -0.7244160000
| 23>  H        1.3873630000    -0.2571850000    -0.1474000000
| 24>  H        2.8715950000     0.4051080000     1.6646830000
| 25>  H        2.2951290000    -2.5941850000     1.5503970000
| 26>  H        1.1864230000    -1.3251310000     2.0599370000
| 27>  H        2.6263730000    -1.6756410000     3.0216840000
| 28>  H        4.8539930000    -0.8640160000     2.2861980000
| 29>  H        5.0636580000     0.0072050000     0.7801350000
| 30>  H        4.7490540000    -2.1172570000    -0.4937320000
| 31>  H        4.5166160000    -2.9872760000     1.0212180000
| 32>  H        6.8594800000    -1.5715730000     0.4053760000
| 33> *
| 34>
| 35>                          ****END OF INPUT****
 Total Charge           Charge          ....    0
 Multiplicity           Mult            ....    1
 Number of Electrons    NEL             ....   58
 Basis Dimension        Dim             ....  168

MULLIKEN ATOMIC CHARGES
-----------------------
   0 C :   -0.009216
   1 C :   -0.024349
   2 C :   -0.140945
   3 C :    0.030278
   4 C :   -0.017595
   5 C :    0.160913
   6 O :   -0.287393
   7 H :    0.019850
   8 H :    0.018339
   9 H :    0.018472
  10 H :    0.011949
  11 H :    0.007299
  12 H :   -0.000359
  13 H :    0.019743
  14 H :    0.013350
  15 H :    0.015765
  16 H :    0.010031
  17 H :   -0.005098
  18 H :    0.001347
  19 H :    0.007843
  20 H :    0.149777
Sum of atomic charges:   -0.0000000

LOEWDIN ATOMIC CHARGES
----------------------
   0 C :   -0.068245
   1 C :   -0.045332
   2 C :   -0.043896
   3 C :   -0.058650
   4 C :   -0.061453
   5 C :    0.053699
   6 O :   -0.123596
   7 H :    0.028844
   8 H :    0.021383
   9 H :    0.025308
  10 H :    0.019586
  11 H :    0.025161
  12 H :    0.024336
  13 H :    0.022687
  14 H :    0.025682
  15 H :    0.025958
  16 H :    0.025312
  17 H :    0.016202
  18 H :    0.002974
  19 H :    0.019541
  20 H :    0.064500

  Mayer bond orders larger than 0.1
B(  0-C ,  1-C ) :   1.1192 B(  0-C ,  7-H ) :   0.9560 B(  0-C ,  8-H ) :   0.9584
B(  0-C ,  9-H ) :   0.9627 B(  1-C ,  2-C ) :   1.0581 B(  1-C , 10-H ) :   0.9326
B(  1-C , 11-H ) :   0.9300 B(  2-C ,  3-C ) :   1.0864 B(  2-C ,  4-C ) :   1.0466
B(  2-C , 12-H ) :   0.9018 B(  3-C , 13-H ) :   0.9586 B(  3-C , 14-H ) :   0.9549
B(  3-C , 15-H ) :   0.9577 B(  4-C ,  5-C ) :   1.0759 B(  4-C , 16-H ) :   0.9227
B(  4-C , 17-H ) :   0.9214 B(  5-C ,  6-O ) :   1.0547 B(  5-C , 18-H ) :   0.9325
B(  5-C , 19-H ) :   0.9337 B(  6-O , 20-H ) :   0.9870

FINAL SINGLE POINT ENERGY      -311.631964851773

DIPOLE MOMENT
-------------
                                X             Y             Z
Electronic contribution:      4.86893      -2.42691       0.97595
Nuclear contribution   :     -5.12824       2.96299      -1.20681
                        -----------------------------------------
Total Dipole Moment    :     -0.25931       0.53608      -0.23085
                        -----------------------------------------
Magnitude (a.u.)       :      0.63869
Magnitude (Debye)      :      1.62341

                             ****ORCA TERMINATED NORMALLY****
TOTAL RUN TIME: 0 days 0 hours 0 minutes 8 seconds 943 msec
