                         Program Version 3.0.3 - RELEASE   -
|  1> ! RI PBE def2-SVP def2-SVP/J NBO PAL2
|  2> % maxcore 2000
|  3> % output
|  4>     # printlevel mini
|  5>     print[ P_Basis ] 0
|  6>     print[ P_SCFInfo ] 1
|  7>     print[ P_SCFIterInfo ] 1
|  8>     print[ P_OrbEn ] 0
|  9>     print[ P_Cartesian ] 0
| 10> end
| 11> *xyz 0 1
| 12>  C        2.0931600000    -1.4498500000     0.7060650000
| 13>  C        2.7934690000    -0.2811700000     0.0184790000
| 14>  C        3.0166000000    -0.4865530000    -1.4545960000
| 15>  C        1.7726300000    -0.6016840000    -2.2816660000
| 16>  C        4.2588440000    -0.5680410000    -1.9392680000
| 17>  C        4.6839980000    -0.7585160000    -3.3552450000
| 18>  O        5.5632980000     0.2690140000    -3.7863730000
| 19>  H        1.9799810000    -1.2566570000     1.7751600000
| 20>  H        2.6686500000    -2.3714670000     0.5889850000
| 21>  H        1.0952970000    -1.6233920000     0.2972600000
| 22>  H        3.7556640000    -0.0974080000     0.5037810000
| 23>  H        2.1899520000     0.6246320000     0.1611400000
| 24>  H        1.0652930000     0.1903080000    -2.0152250000
| 25>  H        1.2624720000    -1.5515310000    -2.0939470000
| 26>  H        1.9650370000    -0.5410190000    -3.3519440000
| 27>  H        5.0868350000    -0.4661640000    -1.2391630000
| 28>  H        3.8239630000    -0.8438950000    -4.0293220000
| 29>  H        5.2590850000    -1.6845180000    -3.4534510000
| 30>  H        5.1418820000     1.1099110000    -3.5890620000
| 31> *
| 32>
| 33>                          ****END OF INPUT****
 Total Charge           Charge          ....    0
 Multiplicity           Mult            ....    1
 Number of Electrons    NEL             ....   56
 Basis Dimension        Dim             ....  158

MULLIKEN ATOMIC CHARGES
-----------------------
   0 C :   -0.039109
   1 C :    0.041560
   2 C :   -0.164710
   3 C :    0.051162
   4 C :   -0.170176
   5 C :    0.273177
   6 O :   -0.298879
   7 H :    0.027929
   8 H :    0.026297
   9 H :    0.021542
  10 H :    0.002885
  11 H :    0.013393
  12 H :    0.023376
  13 H :    0.038602
  14 H :    0.018384
  15 H :   -0.011952
  16 H :   -0.010452
  17 H :    0.009484
  18 H :    0.147489
Sum of atomic charges:    0.0000000

LOEWDIN ATOMIC CHARGES
----------------------
   0 C :   -0.064003
   1 C :   -0.036195
   2 C :   -0.033828
   3 C :   -0.062812
   4 C :   -0.088020
   5 C :    0.053517
   6 O :   -0.126416
   7 H :    0.029339
   8 H :    0.027506
   9 H :    0.023411
  10 H :    0.026983
  11 H :    0.028591
  12 H :    0.034698
  13 H :    0.039330
  14 H :    0.028068
  15 H :    0.022510
  16 H :    0.005033
  17 H :    0.027909
  18 H :    0.064379

  Mayer bond orders larger than 0.1
B(  0-C ,  1-C ) :   1.1080 B(  0-C ,  7-H ) :   0.9602 B(  0-C ,  8-H ) :   0.9662
B(  0-C ,  9-H ) :   0.9633 B(  1-C ,  2-C ) :   1.0654 B(  1-C , 10-H ) :   0.9237
B(  1-C , 11-H ) :   0.9159 B(  2-C ,  3-C ) :   1.0973 B(  2-C ,  4-C ) :   1.8487
B(  3-C , 12-H ) :   0.9378 B(  3-C , 13-H ) :   0.9378 B(  3-C , 14-H ) :   0.9413
B(  4-C ,  5-C ) :   1.0712 B(  4-C , 15-H ) :   0.9405 B(  5-C ,  6-O ) :   1.0238
B(  5-C , 16-H ) :   0.9268 B(  5-C , 17-H ) :   0.9080 B(  6-O , 18-H ) :   0.9866

FINAL SINGLE POINT ENERGY      -310.417708515945

DIPOLE MOMENT
-------------
                                X             Y             Z
Electronic contribution:      5.27490       1.99484      -4.06602
Nuclear contribution   :     -5.99624      -1.89549       4.42711
                        -----------------------------------------
Total Dipole Moment    :     -0.72134       0.09935       0.36108
                        -----------------------------------------
Magnitude (a.u.)       :      0.81276
Magnitude (Debye)      :      2.06588

                             ****ORCA TERMINATED NORMALLY****
TOTAL RUN TIME: 0 days 0 hours 0 minutes 8 seconds 143 msec
