                         Program Version 3.0.3 - RELEASE   -
|  1> ! RI PBE def2-SVP def2-SVP/J NBO PAL2
|  2> % maxcore 2000
|  3> % output
|  4>     # printlevel mini
|  5>     print[ P_Basis ] 0
|  6>     print[ P_SCFInfo ] 1
|  7>     print[ P_SCFIterInfo ] 1
|  8>     print[ P_OrbEn ] 0
|  9>     print[ P_Cartesian ] 0
| 10> end
| 11> *xyz 0 1
| 12>  C        2.3611620000     1.3285590000    -0.1039900000
| 13>  C        2.7965310000    -0.0483870000     0.3934290000
| 14>  C        3.0985600000    -0.0919370000     1.8629640000
| 15>  C        1.9346620000     0.1606810000     2.7669320000
| 16>  C        4.3508830000    -0.3441100000     2.2789650000
| 17>  C        4.8062790000    -0.4120140000     3.6619860000
| 18>  O        5.9544920000    -0.6313600000     3.9721700000
| 19>  H        2.1920770000     1.3054110000    -1.1822930000
| 20>  H        3.1294880000     2.0777060000     0.1005500000
| 21>  H        1.4330060000     1.6588220000     0.3663630000
| 22>  H        3.6776070000    -0.3757080000    -0.1633120000
| 23>  H        1.9985990000    -0.7708460000     0.1805620000
| 24>  H        1.5636600000     1.1810680000     2.6333360000
| 25>  H        2.1611510000     0.0229030000     3.8212500000
| 26>  H        1.1085480000    -0.5070060000     2.5026030000
| 27>  H        5.1326030000    -0.5181790000     1.5443110000
| 28>  H        4.0454810000    -0.2505040000     4.4511740000
| 29> *
| 30>
| 31>                          ****END OF INPUT****
 Total Charge           Charge          ....    0
 Multiplicity           Mult            ....    1
 Number of Electrons    NEL             ....   54
 Basis Dimension        Dim             ....  148

MULLIKEN ATOMIC CHARGES
-----------------------
   0 C :   -0.042882
   1 C :    0.023379
   2 C :   -0.148888
   3 C :    0.062141
   4 C :   -0.038533
   5 C :    0.112512
   6 O :   -0.181135
   7 H :    0.035721
   8 H :    0.037193
   9 H :    0.024500
  10 H :    0.015563
  11 H :    0.030900
  12 H :    0.044493
  13 H :    0.027343
  14 H :    0.035086
  15 H :   -0.008947
  16 H :   -0.028446
Sum of atomic charges:   -0.0000000

LOEWDIN ATOMIC CHARGES
----------------------
   0 C :   -0.060610
   1 C :   -0.036730
   2 C :    0.015833
   3 C :   -0.057573
   4 C :   -0.093722
   5 C :    0.063474
   6 O :   -0.124569
   7 H :    0.033573
   8 H :    0.031464
   9 H :    0.024539
  10 H :    0.031777
  11 H :    0.036947
  12 H :    0.044757
  13 H :    0.030408
  14 H :    0.043230
  15 H :    0.031562
  16 H :   -0.014361

  Mayer bond orders larger than 0.1
B(  0-C ,  1-C ) :   1.1039 B(  0-C ,  7-H ) :   0.9589 B(  0-C ,  8-H ) :   0.9668
B(  0-C ,  9-H ) :   0.9634 B(  1-C ,  2-C ) :   1.0663 B(  1-C , 10-H ) :   0.9260
B(  1-C , 11-H ) :   0.9145 B(  2-C ,  3-C ) :   1.1026 B(  2-C ,  4-C ) :   1.7021
B(  3-C , 12-H ) :   0.9327 B(  3-C , 13-H ) :   0.9395 B(  3-C , 14-H ) :   0.9336
B(  4-C ,  5-C ) :   1.0543 B(  4-C , 15-H ) :   0.9483 B(  5-C ,  6-O ) :   2.0869
B(  5-C , 16-H ) :   0.9339

FINAL SINGLE POINT ENERGY      -309.230004916164

DIPOLE MOMENT
-------------
                                X             Y             Z
Electronic contribution:      7.63912      -3.18351       5.73987
Nuclear contribution   :     -9.02660       3.49434      -6.51690
                        -----------------------------------------
Total Dipole Moment    :     -1.38748       0.31083      -0.77703
                        -----------------------------------------
Magnitude (a.u.)       :      1.62034
Magnitude (Debye)      :      4.11857

                             ****ORCA TERMINATED NORMALLY****
TOTAL RUN TIME: 0 days 0 hours 0 minutes 7 seconds 886 msec
