                         Program Version 3.0.3 - RELEASE   -
|  1> ! RI PBE def2-SVP def2-SVP/J NBO PAL2
|  2> % maxcore 2000
|  3> % output
|  4>     # printlevel mini
|  5>     print[ P_Basis ] 0
|  6>     print[ P_SCFInfo ] 1
|  7>     print[ P_SCFIterInfo ] 1
|  8>     print[ P_OrbEn ] 0
|  9>     print[ P_Cartesian ] 0
| 10> end
| 11> *xyz 0 1
| 12>  C        2.9146850000    -0.2667830000    -1.2406330000
| 13>  C        2.5127680000     0.0291130000     0.1967350000
| 14>  C        3.0408610000    -0.9304330000     1.2752520000
| 15>  C        2.5838170000    -0.4187760000     2.6384790000
| 16>  C        2.5078230000    -2.3433150000     1.0560220000
| 17>  C        4.5715760000    -0.9997700000     1.2516970000
| 18>  O        5.2154090000     0.2437990000     1.4312400000
| 19>  H        2.4748160000     0.4683050000    -1.9185070000
| 20>  H        2.5752720000    -1.2521860000    -1.5671000000
| 21>  H        3.9979040000    -0.2312550000    -1.3878470000
| 22>  H        1.4193260000     0.0381050000     0.2669630000
| 23>  H        2.8252270000     1.0471290000     0.4585110000
| 24>  H        1.4950970000    -0.3200900000     2.6737090000
| 25>  H        3.0245580000     0.5567790000     2.8538170000
| 26>  H        2.8845510000    -1.1063800000     3.4341080000
| 27>  H        1.4144630000    -2.3523170000     1.0760460000
| 28>  H        2.8583060000    -3.0162290000     1.8439880000
| 29>  H        2.8299230000    -2.7606460000     0.0988170000
| 30>  H        4.9085210000    -1.4825180000     0.3240260000
| 31>  H        4.9089480000    -1.6305400000     2.0792700000
| 32>  H        5.0675620000     0.7783000000     0.6474270000
| 33> *
| 34>
| 35>                          ****END OF INPUT****
 Total Charge           Charge          ....    0
 Multiplicity           Mult            ....    1
 Number of Electrons    NEL             ....   58
 Basis Dimension        Dim             ....  168

MULLIKEN ATOMIC CHARGES
-----------------------
   0 C :   -0.003256
   1 C :   -0.019424
   2 C :   -0.339404
   3 C :    0.075493
   4 C :    0.048573
   5 C :    0.226468
   6 O :   -0.276492
   7 H :    0.024014
   8 H :    0.020342
   9 H :    0.012195
  10 H :    0.012294
  11 H :   -0.004042
  12 H :    0.009637
  13 H :    0.014202
  14 H :    0.006528
  15 H :    0.017237
  16 H :    0.014518
  17 H :    0.011401
  18 H :   -0.004161
  19 H :   -0.001380
  20 H :    0.155256
Sum of atomic charges:    0.0000000

LOEWDIN ATOMIC CHARGES
----------------------
   0 C :   -0.069987
   1 C :   -0.042839
   2 C :   -0.085909
   3 C :   -0.049511
   4 C :   -0.049853
   5 C :    0.063760
   6 O :   -0.112595
   7 H :    0.031110
   8 H :    0.025954
   9 H :    0.019147
  10 H :    0.026526
  11 H :    0.016890
  12 H :    0.022223
  13 H :    0.023619
  14 H :    0.023355
  15 H :    0.026580
  16 H :    0.025741
  17 H :    0.020593
  18 H :    0.001300
  19 H :    0.019279
  20 H :    0.064616

  Mayer bond orders larger than 0.1
B(  0-C ,  1-C ) :   1.1197 B(  0-C ,  7-H ) :   0.9543 B(  0-C ,  8-H ) :   0.9572
B(  0-C ,  9-H ) :   0.9564 B(  1-C ,  2-C ) :   1.0172 B(  1-C , 10-H ) :   0.9320
B(  1-C , 11-H ) :   0.9268 B(  2-C ,  3-C ) :   1.0462 B(  2-C ,  4-C ) :   1.0407
B(  2-C ,  5-C ) :   0.9860 B(  3-C , 12-H ) :   0.9582 B(  3-C , 13-H ) :   0.9465
B(  3-C , 14-H ) :   0.9550 B(  4-C , 15-H ) :   0.9561 B(  4-C , 16-H ) :   0.9539
B(  4-C , 17-H ) :   0.9516 B(  5-C ,  6-O ) :   1.0785 B(  5-C , 18-H ) :   0.9372
B(  5-C , 19-H ) :   0.9331 B(  6-O , 20-H ) :   0.9845

FINAL SINGLE POINT ENERGY      -311.635727105840

DIPOLE MOMENT
-------------
                                X             Y             Z
Electronic contribution:      3.85150       1.91036       1.61787
Nuclear contribution   :     -4.17854      -1.98415      -2.13002
                        -----------------------------------------
Total Dipole Moment    :     -0.32705      -0.07380      -0.51215
                        -----------------------------------------
Magnitude (a.u.)       :      0.61213
Magnitude (Debye)      :      1.55591

                             ****ORCA TERMINATED NORMALLY****
TOTAL RUN TIME: 0 days 0 hours 0 minutes 9 seconds 553 msec
