                         Program Version 3.0.3 - RELEASE   -
|  1> ! RI PBE def2-SVP def2-SVP/J NBO PAL2
|  2> % maxcore 2000
|  3> % output
|  4>     # printlevel mini
|  5>     print[ P_Basis ] 0
|  6>     print[ P_SCFInfo ] 1
|  7>     print[ P_SCFIterInfo ] 1
|  8>     print[ P_OrbEn ] 0
|  9>     print[ P_Cartesian ] 0
| 10> end
| 11> *xyz 0 1
| 12>  C        2.9352990000    -0.1728820000    -1.4470080000
| 13>  C        2.5934130000     0.0693200000     0.0142420000
| 14>  C        3.0612730000     1.4188200000     0.5894350000
| 15>  C        2.5340910000     2.6060360000    -0.1986800000
| 16>  C        2.6206950000     1.5022400000     2.0544280000
| 17>  C        4.5733950000     1.4052110000     0.5981850000
| 18>  O        5.2906870000     2.2097100000     0.0721770000
| 19>  H        2.6306890000    -1.1770910000    -1.7494240000
| 20>  H        4.0091730000    -0.0842520000    -1.6332220000
| 21>  H        2.4282320000     0.5352160000    -2.1049780000
| 22>  H        3.0238060000    -0.7320510000     0.6271710000
| 23>  H        1.5092120000     0.0059910000     0.1582900000
| 24>  H        1.4416330000     2.5837380000    -0.2339910000
| 25>  H        2.9161490000     2.6131540000    -1.2197640000
| 26>  H        2.8435150000     3.5437800000     0.2663120000
| 27>  H        1.5312110000     1.4434310000     2.1180350000
| 28>  H        2.9368430000     2.4432680000     2.5109030000
| 29>  H        3.0341500000     0.6795350000     2.6449210000
| 30>  H        5.0082460000     0.5489450000     1.1663780000
| 31> *
| 32>
| 33>                          ****END OF INPUT****
 Total Charge           Charge          ....    0
 Multiplicity           Mult            ....    1
 Number of Electrons    NEL             ....   56
 Basis Dimension        Dim             ....  158

MULLIKEN ATOMIC CHARGES
-----------------------
   0 C :    0.001235
   1 C :   -0.018688
   2 C :   -0.330425
   3 C :    0.076799
   4 C :    0.049291
   5 C :    0.153670
   6 O :   -0.148339
   7 H :    0.020420
   8 H :    0.030148
   9 H :    0.029196
  10 H :    0.011980
  11 H :    0.017579
  12 H :    0.013810
  13 H :    0.026184
  14 H :    0.018762
  15 H :    0.027834
  16 H :    0.027568
  17 H :    0.019075
  18 H :   -0.026101
Sum of atomic charges:   -0.0000000

LOEWDIN ATOMIC CHARGES
----------------------
   0 C :   -0.066885
   1 C :   -0.030076
   2 C :   -0.106824
   3 C :   -0.046960
   4 C :   -0.040806
   5 C :    0.101175
   6 O :   -0.104094
   7 H :    0.030572
   8 H :    0.028503
   9 H :    0.028053
  10 H :    0.023696
  11 H :    0.027074
  12 H :    0.026539
  13 H :    0.029037
  14 H :    0.030171
  15 H :    0.030922
  16 H :    0.029535
  17 H :    0.025880
  18 H :   -0.015514

  Mayer bond orders larger than 0.1
B(  0-C ,  1-C ) :   1.1162 B(  0-C ,  7-H ) :   0.9552 B(  0-C ,  8-H ) :   0.9589
B(  0-C ,  9-H ) :   0.9573 B(  1-C ,  2-C ) :   1.0096 B(  1-C , 10-H ) :   0.9307
B(  1-C , 11-H ) :   0.9314 B(  2-C ,  3-C ) :   1.0553 B(  2-C ,  4-C ) :   1.0331
B(  2-C ,  5-C ) :   0.8875 B(  3-C , 12-H ) :   0.9584 B(  3-C , 13-H ) :   0.9480
B(  3-C , 14-H ) :   0.9506 B(  4-C , 15-H ) :   0.9543 B(  4-C , 16-H ) :   0.9590
B(  4-C , 17-H ) :   0.9535 B(  5-C ,  6-O ) :   2.2109 B(  5-C , 18-H ) :   0.9254

FINAL SINGLE POINT ENERGY      -310.441406555928

DIPOLE MOMENT
-------------
                                X             Y             Z
Electronic contribution:      5.98072       2.42763       0.48352
Nuclear contribution   :     -6.73712      -2.94777      -0.20255
                        -----------------------------------------
Total Dipole Moment    :     -0.75640      -0.52014       0.28096
                        -----------------------------------------
Magnitude (a.u.)       :      0.96002
Magnitude (Debye)      :      2.44017

                             ****ORCA TERMINATED NORMALLY****
TOTAL RUN TIME: 0 days 0 hours 0 minutes 8 seconds 302 msec
