                         Program Version 3.0.3 - RELEASE   -
|  1> ! RI PBE def2-SVP def2-SVP/J NBO PAL2
|  2> % maxcore 2000
|  3> % output
|  4>     # printlevel mini
|  5>     print[ P_Basis ] 0
|  6>     print[ P_SCFInfo ] 1
|  7>     print[ P_SCFIterInfo ] 1
|  8>     print[ P_OrbEn ] 0
|  9>     print[ P_Cartesian ] 0
| 10> end
| 11> *xyz 0 1
| 12>  C        3.1384850000    -0.9411800000    -0.7713920000
| 13>  C        2.6735100000    -0.3570480000     0.5529330000
| 14>  C        3.1642950000     1.0611920000     0.8435230000
| 15>  C        2.4489490000     1.6211650000     2.0673060000
| 16>  C        4.6930660000     1.1222860000     0.9778780000
| 17>  C        5.2395280000     2.5340490000     1.0902830000
| 18>  O        5.1667610000     0.3081270000     2.0399770000
| 19>  H        2.6714470000    -1.9120140000    -0.9524230000
| 20>  H        4.2192770000    -1.0958240000    -0.7959460000
| 21>  H        2.8750400000    -0.2877640000    -1.6088780000
| 22>  H        2.9903490000    -1.0080930000     1.3743510000
| 23>  H        1.5781990000    -0.3466210000     0.5721100000
| 24>  H        2.9072450000     1.6910040000    -0.0196640000
| 25>  H        2.6511360000     1.0142120000     2.9559120000
| 26>  H        1.3670850000     1.6074290000     1.9167340000
| 27>  H        2.7344300000     2.6523220000     2.2856000000
| 28>  H        5.1244120000     0.6675730000     0.0814760000
| 29>  H        4.9061640000     3.0230520000     2.0104660000
| 30>  H        4.9148370000     3.1513200000     0.2486680000
| 31>  H        6.3307180000     2.5111670000     1.1001340000
| 32>  H        4.9256360000     0.7293180000     2.8697620000
| 33> *
| 34>
| 35>                          ****END OF INPUT****
 Total Charge           Charge          ....    0
 Multiplicity           Mult            ....    1
 Number of Electrons    NEL             ....   58
 Basis Dimension        Dim             ....  168

MULLIKEN ATOMIC CHARGES
-----------------------
   0 C :   -0.013375
   1 C :   -0.004943
   2 C :   -0.117457
   3 C :   -0.000463
   4 C :    0.097378
   5 C :    0.004417
   6 O :   -0.281793
   7 H :    0.015457
   8 H :    0.031801
   9 H :    0.012085
  10 H :    0.010053
  11 H :    0.007413
  12 H :   -0.006590
  13 H :    0.003983
  14 H :    0.023414
  15 H :    0.017202
  16 H :   -0.008048
  17 H :    0.009465
  18 H :    0.016899
  19 H :    0.032645
  20 H :    0.150456
Sum of atomic charges:   -0.0000000

LOEWDIN ATOMIC CHARGES
----------------------
   0 C :   -0.068732
   1 C :   -0.043957
   2 C :   -0.058779
   3 C :   -0.066055
   4 C :    0.047781
   5 C :   -0.079540
   6 O :   -0.110024
   7 H :    0.028418
   8 H :    0.025409
   9 H :    0.022763
  10 H :    0.022800
  11 H :    0.022515
  12 H :    0.022537
  13 H :    0.019277
  14 H :    0.030079
  15 H :    0.022738
  16 H :    0.019765
  17 H :    0.019979
  18 H :    0.030557
  19 H :    0.030824
  20 H :    0.061647

  Mayer bond orders larger than 0.1
B(  0-C ,  1-C ) :   1.1247 B(  0-C ,  7-H ) :   0.9533 B(  0-C ,  8-H ) :   0.9600
B(  0-C ,  9-H ) :   0.9615 B(  1-C ,  2-C ) :   1.0623 B(  1-C , 10-H ) :   0.9219
B(  1-C , 11-H ) :   0.9373 B(  2-C ,  3-C ) :   1.0680 B(  2-C ,  4-C ) :   1.0025
B(  2-C , 12-H ) :   0.8968 B(  3-C , 13-H ) :   0.9538 B(  3-C , 14-H ) :   0.9550
B(  3-C , 15-H ) :   0.9566 B(  4-C ,  5-C ) :   1.0984 B(  4-C ,  6-O ) :   1.0258
B(  4-C , 16-H ) :   0.9048 B(  5-C , 17-H ) :   0.9475 B(  5-C , 18-H ) :   0.9466
B(  5-C , 19-H ) :   0.9547 B(  6-O , 20-H ) :   0.9833

FINAL SINGLE POINT ENERGY      -311.639285003814

DIPOLE MOMENT
-------------
                                X             Y             Z
Electronic contribution:      2.72481      -1.13181       1.87908
Nuclear contribution   :     -2.99330       1.60156      -1.79595
                        -----------------------------------------
Total Dipole Moment    :     -0.26849       0.46974       0.08313
                        -----------------------------------------
Magnitude (a.u.)       :      0.54741
Magnitude (Debye)      :      1.39140

                             ****ORCA TERMINATED NORMALLY****
TOTAL RUN TIME: 0 days 0 hours 0 minutes 9 seconds 277 msec
