                         Program Version 3.0.3 - RELEASE   -
|  1> ! RI PBE def2-SVP def2-SVP/J NBO PAL2
|  2> % maxcore 2000
|  3> % output
|  4>     # printlevel mini
|  5>     print[ P_Basis ] 0
|  6>     print[ P_SCFInfo ] 1
|  7>     print[ P_SCFIterInfo ] 1
|  8>     print[ P_OrbEn ] 0
|  9>     print[ P_Cartesian ] 0
| 10> end
| 11> *xyz 0 1
| 12>  C        3.5033640000     0.2466770000    -1.2086960000
| 13>  C        2.6811360000    -0.6670250000    -0.3158880000
| 14>  C        3.1486920000    -0.6845820000     1.1338010000
| 15>  C        2.1869240000    -1.4746570000     2.0243150000
| 16>  C        4.5291190000    -1.3102480000     1.2763690000
| 17>  C        5.4277000000    -0.7311790000     2.3354450000
| 18>  O        4.8765070000    -2.2383030000     0.5879680000
| 19>  H        3.1185150000     0.2484270000    -2.2307470000
| 20>  H        4.5458850000    -0.0773890000    -1.2525870000
| 21>  H        3.4837930000     1.2791090000    -0.8468410000
| 22>  H        2.7169470000    -1.6906080000    -0.6995760000
| 23>  H        1.6309250000    -0.3568520000    -0.3344900000
| 24>  H        3.2018010000     0.3441590000     1.5121840000
| 25>  H        2.1071880000    -2.5055580000     1.6716770000
| 26>  H        1.1917380000    -1.0253350000     1.9973950000
| 27>  H        2.5153190000    -1.4976860000     3.0664610000
| 28>  H        4.8850930000    -0.5734260000     3.2710350000
| 29>  H        5.7732340000     0.2529070000     2.0017150000
| 30>  H        6.2884300000    -1.3772320000     2.4997400000
| 31> *
| 32>
| 33>                          ****END OF INPUT****
 Total Charge           Charge          ....    0
 Multiplicity           Mult            ....    1
 Number of Electrons    NEL             ....   56
 Basis Dimension        Dim             ....  158

MULLIKEN ATOMIC CHARGES
-----------------------
   0 C :   -0.011834
   1 C :    0.005237
   2 C :   -0.123284
   3 C :    0.034582
   4 C :   -0.052909
   5 C :    0.044354
   6 O :   -0.167209
   7 H :    0.022014
   8 H :    0.029870
   9 H :    0.012131
  10 H :    0.023427
  11 H :    0.000889
  12 H :   -0.005699
  13 H :    0.030851
  14 H :    0.027206
  15 H :    0.019354
  16 H :    0.031468
  17 H :    0.043106
  18 H :    0.036447
Sum of atomic charges:   -0.0000000

LOEWDIN ATOMIC CHARGES
----------------------
   0 C :   -0.067819
   1 C :   -0.036708
   2 C :   -0.072673
   3 C :   -0.044468
   4 C :    0.066453
   5 C :   -0.086780
   6 O :   -0.123817
   7 H :    0.029151
   8 H :    0.026905
   9 H :    0.021783
  10 H :    0.027854
  11 H :    0.023138
  12 H :    0.023295
  13 H :    0.031864
  14 H :    0.029726
  15 H :    0.025174
  16 H :    0.039477
  17 H :    0.050058
  18 H :    0.037386

  Mayer bond orders larger than 0.1
B(  0-C ,  1-C ) :   1.1205 B(  0-C ,  7-H ) :   0.9592 B(  0-C ,  8-H ) :   0.9615
B(  0-C ,  9-H ) :   0.9618 B(  1-C ,  2-C ) :   1.0605 B(  1-C , 10-H ) :   0.9226
B(  1-C , 11-H ) :   0.9331 B(  2-C ,  3-C ) :   1.0690 B(  2-C ,  4-C ) :   0.9082
B(  2-C , 12-H ) :   0.9041 B(  3-C , 13-H ) :   0.9559 B(  3-C , 14-H ) :   0.9570
B(  3-C , 15-H ) :   0.9576 B(  4-C ,  5-C ) :   1.0464 B(  4-C ,  6-O ) :   2.1732
B(  5-C , 16-H ) :   0.9368 B(  5-C , 17-H ) :   0.9299 B(  5-C , 18-H ) :   0.9461

FINAL SINGLE POINT ENERGY      -310.451574560244

DIPOLE MOMENT
-------------
                                X             Y             Z
Electronic contribution:      3.22477      -3.77274      -0.10355
Nuclear contribution   :     -3.54927       4.48787       0.64752
                        -----------------------------------------
Total Dipole Moment    :     -0.32450       0.71513       0.54397
                        -----------------------------------------
Magnitude (a.u.)       :      0.95531
Magnitude (Debye)      :      2.42820

                             ****ORCA TERMINATED NORMALLY****
TOTAL RUN TIME: 0 days 0 hours 0 minutes 8 seconds 88 msec
