                         Program Version 3.0.3 - RELEASE   -
|  1> ! RI PBE def2-SVP def2-SVP/J NBO PAL2
|  2> % maxcore 2000
|  3> % output
|  4>     # printlevel mini
|  5>     print[ P_Basis ] 0
|  6>     print[ P_SCFInfo ] 1
|  7>     print[ P_SCFIterInfo ] 1
|  8>     print[ P_OrbEn ] 0
|  9>     print[ P_Cartesian ] 0
| 10> end
| 11> *xyz 0 1
| 12>  C        3.0414860000     1.0692070000     0.6376640000
| 13>  C        2.5657490000     0.0451310000    -0.3796620000
| 14>  C        3.0995030000    -1.3707900000    -0.1623800000
| 15>  C        2.4771550000    -2.3448680000    -1.1558470000
| 16>  C        4.6378680000    -1.4275740000    -0.1746390000
| 17>  C        5.2499890000    -0.9041510000    -1.4385780000
| 18>  O        6.0017000000     0.0324640000    -1.4931760000
| 19>  H        2.5436210000     2.0289680000     0.4838640000
| 20>  H        4.1166510000     1.2453440000     0.5641480000
| 21>  H        2.8214740000     0.7429800000     1.6585760000
| 22>  H        2.8351390000     0.3806500000    -1.3890960000
| 23>  H        1.4713830000    -0.0021570000    -0.3641140000
| 24>  H        2.7979320000    -1.6865980000     0.8444010000
| 25>  H        2.6886390000    -2.0613580000    -2.1902020000
| 26>  H        1.3905540000    -2.3648130000    -1.0425250000
| 27>  H        2.8468800000    -3.3625670000    -1.0054210000
| 28>  H        4.9470650000    -2.4754010000    -0.0691700000
| 29>  H        5.0595620000    -0.8663480000     0.6608440000
| 30>  H        4.9711700000    -1.4429170000    -2.3702670000
| 31> *
| 32>
| 33>                          ****END OF INPUT****
 Total Charge           Charge          ....    0
 Multiplicity           Mult            ....    1
 Number of Electrons    NEL             ....   56
 Basis Dimension        Dim             ....  158

MULLIKEN ATOMIC CHARGES
-----------------------
   0 C :   -0.011843
   1 C :   -0.026892
   2 C :   -0.153700
   3 C :    0.014057
   4 C :    0.061731
   5 C :    0.066615
   6 O :   -0.167822
   7 H :    0.019437
   8 H :    0.038944
   9 H :    0.015241
  10 H :    0.015756
  11 H :    0.016700
  12 H :    0.007503
  13 H :    0.024382
  14 H :    0.025437
  15 H :    0.017006
  16 H :    0.028314
  17 H :    0.018884
  18 H :   -0.009747
Sum of atomic charges:    0.0000000

LOEWDIN ATOMIC CHARGES
----------------------
   0 C :   -0.067835
   1 C :   -0.044289
   2 C :   -0.036343
   3 C :   -0.061836
   4 C :   -0.071957
   5 C :    0.091590
   6 O :   -0.108946
   7 H :    0.029976
   8 H :    0.028114
   9 H :    0.024239
  10 H :    0.023275
  11 H :    0.026506
  12 H :    0.026563
  13 H :    0.023708
  14 H :    0.029684
  15 H :    0.025498
  16 H :    0.042572
  17 H :    0.032485
  18 H :   -0.013003

  Mayer bond orders larger than 0.1
B(  0-C ,  1-C ) :   1.1191 B(  0-C ,  7-H ) :   0.9555 B(  0-C ,  8-H ) :   0.9592
B(  0-C ,  9-H ) :   0.9640 B(  1-C ,  2-C ) :   1.0530 B(  1-C , 10-H ) :   0.9253
B(  1-C , 11-H ) :   0.9366 B(  2-C ,  3-C ) :   1.0765 B(  2-C ,  4-C ) :   1.0471
B(  2-C , 12-H ) :   0.9079 B(  3-C , 13-H ) :   0.9608 B(  3-C , 14-H ) :   0.9565
B(  3-C , 15-H ) :   0.9589 B(  4-C ,  5-C ) :   0.9769 B(  4-C , 16-H ) :   0.9052
B(  4-C , 17-H ) :   0.9154 B(  5-C ,  6-O ) :   2.1589 B(  5-C , 18-H ) :   0.9213

FINAL SINGLE POINT ENERGY      -310.437455591151

DIPOLE MOMENT
-------------
                                X             Y             Z
Electronic contribution:      6.74424       0.87512      -2.54578
Nuclear contribution   :     -7.45943      -1.52472       2.80110
                        -----------------------------------------
Total Dipole Moment    :     -0.71519      -0.64960       0.25533
                        -----------------------------------------
Magnitude (a.u.)       :      0.99933
Magnitude (Debye)      :      2.54011

                             ****ORCA TERMINATED NORMALLY****
TOTAL RUN TIME: 0 days 0 hours 0 minutes 8 seconds 135 msec
