                         Program Version 3.0.3 - RELEASE   -
|  1> ! RI PBE def2-SVP def2-SVP/J NBO PAL2
|  2> % maxcore 2000
|  3> % output
|  4>     # printlevel mini
|  5>     print[ P_Basis ] 0
|  6>     print[ P_SCFInfo ] 1
|  7>     print[ P_SCFIterInfo ] 1
|  8>     print[ P_OrbEn ] 0
|  9>     print[ P_Cartesian ] 0
| 10> end
| 11> *xyz 0 1
| 12>  C        2.9611580000    -0.1059810000     1.3095810000
| 13>  C        2.8218220000     0.4976830000    -0.0784140000
| 14>  C        3.3825840000    -0.3622870000    -1.2106980000
| 15>  C        2.9819160000     0.2190280000    -2.5678790000
| 16>  C        3.3954590000    -0.6083530000    -3.7751330000
| 17>  C        4.8902140000    -0.5628830000    -1.0873780000
| 18>  O        5.6315920000     0.6404180000    -1.1437090000
| 19>  H        2.4662160000     0.5185040000     2.0568660000
| 20>  H        4.0063960000    -0.2012330000     1.6115930000
| 21>  H        2.5072800000    -1.1004860000     1.3579930000
| 22>  H        3.3168880000     1.4740030000    -0.1045760000
| 23>  H        1.7617570000     0.6842570000    -0.2831150000
| 24>  H        2.9373040000    -1.3656350000    -1.1342470000
| 25>  H        3.3811410000     1.2376640000    -2.6583750000
| 26>  H        1.8937500000     0.3406900000    -2.5750340000
| 27>  H        4.4810230000    -0.6695070000    -3.8880250000
| 28>  H        2.9990830000    -0.1782450000    -4.6976870000
| 29>  H        3.0182750000    -1.6321480000    -3.6988550000
| 30>  H        5.2380210000    -1.2694940000    -1.8519990000
| 31>  H        5.1282800000    -1.0079590000    -0.1193720000
| 32>  H        5.5283290000     1.0204650000    -2.0194470000
| 33> *
| 34>
| 35>                          ****END OF INPUT****
 Total Charge           Charge          ....    0
 Multiplicity           Mult            ....    1
 Number of Electrons    NEL             ....   58
 Basis Dimension        Dim             ....  168

MULLIKEN ATOMIC CHARGES
-----------------------
   0 C :   -0.004910
   1 C :    0.006211
   2 C :   -0.141289
   3 C :   -0.048492
   4 C :    0.005007
   5 C :    0.202798
   6 O :   -0.288477
   7 H :    0.018874
   8 H :    0.026597
   9 H :    0.009056
  10 H :    0.005004
  11 H :    0.001341
  12 H :   -0.009249
  13 H :   -0.005305
  14 H :    0.015531
  15 H :    0.019783
  16 H :    0.017724
  17 H :    0.017285
  18 H :   -0.002900
  19 H :    0.001704
  20 H :    0.153706
Sum of atomic charges:   -0.0000000

LOEWDIN ATOMIC CHARGES
----------------------
   0 C :   -0.066976
   1 C :   -0.041530
   2 C :   -0.062735
   3 C :   -0.048695
   4 C :   -0.068325
   5 C :    0.061279
   6 O :   -0.118513
   7 H :    0.028519
   8 H :    0.024883
   9 H :    0.022489
  10 H :    0.021726
  11 H :    0.021037
  12 H :    0.023077
  13 H :    0.015451
  14 H :    0.027396
  15 H :    0.020338
  16 H :    0.028425
  17 H :    0.026643
  18 H :    0.002701
  19 H :    0.018594
  20 H :    0.064217

  Mayer bond orders larger than 0.1
B(  0-C ,  1-C ) :   1.1237 B(  0-C ,  7-H ) :   0.9556 B(  0-C ,  8-H ) :   0.9613
B(  0-C ,  9-H ) :   0.9599 B(  1-C ,  2-C ) :   1.0585 B(  1-C , 10-H ) :   0.9227
B(  1-C , 11-H ) :   0.9342 B(  2-C ,  3-C ) :   1.0556 B(  2-C ,  5-C ) :   1.0294
B(  2-C , 12-H ) :   0.8889 B(  3-C ,  4-C ) :   1.1163 B(  3-C , 13-H ) :   0.9257
B(  3-C , 14-H ) :   0.9326 B(  4-C , 15-H ) :   0.9599 B(  4-C , 16-H ) :   0.9560
B(  4-C , 17-H ) :   0.9594 B(  5-C ,  6-O ) :   1.0535 B(  5-C , 18-H ) :   0.9350
B(  5-C , 19-H ) :   0.9321 B(  6-O , 20-H ) :   0.9853

FINAL SINGLE POINT ENERGY      -311.634443942929

DIPOLE MOMENT
-------------
                                X             Y             Z
Electronic contribution:      3.41256       1.47068       0.29771
Nuclear contribution   :     -3.75294      -1.62021      -0.76420
                        -----------------------------------------
Total Dipole Moment    :     -0.34038      -0.14953      -0.46649
                        -----------------------------------------
Magnitude (a.u.)       :      0.59651
Magnitude (Debye)      :      1.51622

                             ****ORCA TERMINATED NORMALLY****
TOTAL RUN TIME: 0 days 0 hours 0 minutes 8 seconds 940 msec
