                         Program Version 3.0.3 - RELEASE   -
|  1> ! RI PBE def2-SVP def2-SVP/J NBO PAL2
|  2> % maxcore 2000
|  3> % output
|  4>     # printlevel mini
|  5>     print[ P_Basis ] 0
|  6>     print[ P_SCFInfo ] 1
|  7>     print[ P_SCFIterInfo ] 1
|  8>     print[ P_OrbEn ] 0
|  9>     print[ P_Cartesian ] 0
| 10> end
| 11> *xyz 0 1
| 12>  C        2.8625900000    -1.2065070000    -0.8396170000
| 13>  C        3.0813890000    -0.1148990000     0.1947940000
| 14>  C        3.3771090000     1.2603870000    -0.4090650000
| 15>  C        3.4360010000     2.3441000000     0.6705680000
| 16>  C        3.5778610000     3.7534600000     0.1200510000
| 17>  C        4.6966820000     1.2091690000    -1.1278720000
| 18>  O        4.8735740000     1.4099630000    -2.2974820000
| 19>  H        2.6409190000    -2.1620430000    -0.3596630000
| 20>  H        3.7425070000    -1.3494690000    -1.4720330000
| 21>  H        2.0257120000    -0.9610090000    -1.4984250000
| 22>  H        3.9036480000    -0.3930020000     0.8657430000
| 23>  H        2.1948230000    -0.0213980000     0.8302910000
| 24>  H        2.6098380000     1.5141060000    -1.1485120000
| 25>  H        4.2663590000     2.1221460000     1.3523790000
| 26>  H        2.5252870000     2.2701360000     1.2736660000
| 27>  H        4.4955060000     3.8721270000    -0.4617460000
| 28>  H        3.6000230000     4.4887440000     0.9271510000
| 29>  H        2.7417050000     4.0039760000    -0.5377830000
| 30>  H        5.5581780000     0.9562920000    -0.4630530000
| 31> *
| 32>
| 33>                          ****END OF INPUT****
 Total Charge           Charge          ....    0
 Multiplicity           Mult            ....    1
 Number of Electrons    NEL             ....   56
 Basis Dimension        Dim             ....  158

MULLIKEN ATOMIC CHARGES
-----------------------
   0 C :    0.002847
   1 C :   -0.037461
   2 C :   -0.081653
   3 C :   -0.039152
   4 C :    0.001044
   5 C :    0.102733
   6 O :   -0.152727
   7 H :    0.022526
   8 H :    0.032749
   9 H :    0.024232
  10 H :    0.013992
  11 H :    0.016985
  12 H :    0.003612
  13 H :    0.013351
  14 H :    0.017249
  15 H :    0.031331
  16 H :    0.027233
  17 H :    0.025481
  18 H :   -0.024372
Sum of atomic charges:   -0.0000000

LOEWDIN ATOMIC CHARGES
----------------------
   0 C :   -0.065619
   1 C :   -0.034784
   2 C :   -0.076683
   3 C :   -0.034935
   4 C :   -0.066552
   5 C :    0.093082
   6 O :   -0.104048
   7 H :    0.029467
   8 H :    0.028358
   9 H :    0.028844
  10 H :    0.024150
  11 H :    0.027537
  12 H :    0.028342
  13 H :    0.023985
  14 H :    0.027516
  15 H :    0.028225
  16 H :    0.030508
  17 H :    0.028898
  18 H :   -0.016292

  Mayer bond orders larger than 0.1
B(  0-C ,  1-C ) :   1.1151 B(  0-C ,  7-H ) :   0.9588 B(  0-C ,  8-H ) :   0.9597
B(  0-C ,  9-H ) :   0.9624 B(  1-C ,  2-C ) :   1.0409 B(  1-C , 10-H ) :   0.9314
B(  1-C , 11-H ) :   0.9304 B(  2-C ,  3-C ) :   1.0433 B(  2-C ,  5-C ) :   0.9258
B(  2-C , 12-H ) :   0.9000 B(  3-C ,  4-C ) :   1.1158 B(  3-C , 13-H ) :   0.9314
B(  3-C , 14-H ) :   0.9310 B(  4-C , 15-H ) :   0.9589 B(  4-C , 16-H ) :   0.9580
B(  4-C , 17-H ) :   0.9621 B(  5-C ,  6-O ) :   2.1826 B(  5-C , 18-H ) :   0.9119

FINAL SINGLE POINT ENERGY      -310.439638760669

DIPOLE MOMENT
-------------
                                X             Y             Z
Electronic contribution:      3.49961       0.36728      -4.51374
Nuclear contribution   :     -3.89410      -0.48574       5.41285
                        -----------------------------------------
Total Dipole Moment    :     -0.39449      -0.11846       0.89911
                        -----------------------------------------
Magnitude (a.u.)       :      0.98897
Magnitude (Debye)      :      2.51375

                             ****ORCA TERMINATED NORMALLY****
TOTAL RUN TIME: 0 days 0 hours 0 minutes 8 seconds 5 msec
