                         Program Version 3.0.3 - RELEASE   -
|  1> ! RI PBE def2-SVP def2-SVP/J NBO PAL2
|  2> % maxcore 2000
|  3> % output
|  4>     # printlevel mini
|  5>     print[ P_Basis ] 0
|  6>     print[ P_SCFInfo ] 1
|  7>     print[ P_SCFIterInfo ] 1
|  8>     print[ P_OrbEn ] 0
|  9>     print[ P_Cartesian ] 0
| 10> end
| 11> *xyz 0 1
| 12>  C        1.0805930000     0.2676080000     0.1228270000
| 13>  C        2.5437070000    -0.1145820000    -0.0868430000
| 14>  C        3.0066330000    -1.1365920000     0.8400480000
| 15>  C        3.3701840000    -1.9741200000     1.6239320000
| 16>  C        3.8104280000    -3.0165900000     2.5358070000
| 17>  C        3.7806840000    -4.4025000000     1.8924260000
| 18>  O        4.1640300000    -5.4161540000     2.7922880000
| 19>  H        0.7802430000     1.0364770000    -0.5922780000
| 20>  H        0.9212460000     0.6545530000     1.1307270000
| 21>  H        0.4303320000    -0.5986260000    -0.0106430000
| 22>  H        3.1767930000     0.7733400000     0.0171940000
| 23>  H        2.6895430000    -0.4709230000    -1.1123320000
| 24>  H        3.1778740000    -3.0326490000     3.4292400000
| 25>  H        4.8300090000    -2.7987420000     2.8777030000
| 26>  H        4.4062570000    -4.4029160000     0.9908880000
| 27>  H        2.7609810000    -4.6381110000     1.5826990000
| 28>  H        5.0941630000    -5.3030710000     3.0032170000
| 29> *
| 30>
| 31>                          ****END OF INPUT****
 Total Charge           Charge          ....    0
 Multiplicity           Mult            ....    1
 Number of Electrons    NEL             ....   54
 Basis Dimension        Dim             ....  148

MULLIKEN ATOMIC CHARGES
-----------------------
   0 C :   -0.038248
   1 C :    0.031686
   2 C :   -0.166489
   3 C :   -0.147949
   4 C :    0.067013
   5 C :    0.133904
   6 O :   -0.275901
   7 H :    0.023649
   8 H :    0.033575
   9 H :    0.035669
  10 H :    0.034996
  11 H :    0.032847
  12 H :    0.033953
  13 H :    0.013421
  14 H :    0.011546
  15 H :    0.021927
  16 H :    0.154398
Sum of atomic charges:    0.0000000

LOEWDIN ATOMIC CHARGES
----------------------
   0 C :   -0.055670
   1 C :   -0.051686
   2 C :   -0.062925
   3 C :   -0.071129
   4 C :   -0.068777
   5 C :    0.061942
   6 O :   -0.117884
   7 H :    0.027153
   8 H :    0.030176
   9 H :    0.030528
  10 H :    0.046359
  11 H :    0.045738
  12 H :    0.046663
  13 H :    0.038311
  14 H :    0.008074
  15 H :    0.024700
  16 H :    0.068426

  Mayer bond orders larger than 0.1
B(  0-C ,  1-C ) :   1.1067 B(  0-C ,  7-H ) :   0.9604 B(  0-C ,  8-H ) :   0.9699
B(  0-C ,  9-H ) :   0.9695 B(  1-C ,  2-C ) :   1.0873 B(  1-C , 10-H ) :   0.9036
B(  1-C , 11-H ) :   0.9031 B(  2-C ,  3-C ) :   2.6197 B(  3-C ,  4-C ) :   1.0374
B(  4-C ,  5-C ) :   1.0539 B(  4-C , 12-H ) :   0.8873 B(  4-C , 13-H ) :   0.8907
B(  5-C ,  6-O ) :   1.0714 B(  5-C , 14-H ) :   0.9471 B(  5-C , 15-H ) :   0.9410
B(  6-O , 16-H ) :   0.9859

FINAL SINGLE POINT ENERGY      -309.179236825800

DIPOLE MOMENT
-------------
                                X             Y             Z
Electronic contribution:      3.11688      -3.93966       2.48311
Nuclear contribution   :     -2.75513       4.34188      -2.67826
                        -----------------------------------------
Total Dipole Moment    :      0.36174       0.40222      -0.19515
                        -----------------------------------------
Magnitude (a.u.)       :      0.57509
Magnitude (Debye)      :      1.46175

                             ****ORCA TERMINATED NORMALLY****
TOTAL RUN TIME: 0 days 0 hours 0 minutes 6 seconds 991 msec
