                         Program Version 3.0.3 - RELEASE   -
|  1> ! RI PBE def2-SVP def2-SVP/J NBO PAL2
|  2> % maxcore 2000
|  3> % output
|  4>     # printlevel mini
|  5>     print[ P_Basis ] 0
|  6>     print[ P_SCFInfo ] 1
|  7>     print[ P_SCFIterInfo ] 1
|  8>     print[ P_OrbEn ] 0
|  9>     print[ P_Cartesian ] 0
| 10> end
| 11> *xyz 0 1
| 12>  C        1.0221580000    -0.0826470000    -0.0166720000
| 13>  C        2.5458760000    -0.0437610000     0.0716070000
| 14>  C        3.0342960000     0.0896380000     1.4360910000
| 15>  C        3.4083490000     0.1944870000     2.5750270000
| 16>  C        3.9069340000     0.3336920000     3.9330860000
| 17>  C        5.3673220000     0.7827310000     3.9719090000
| 18>  O        5.8636080000     0.8683850000     5.2873520000
| 19>  H        0.7022380000    -0.1824760000    -1.0560750000
| 20>  H        0.5861830000     0.8310670000     0.3908830000
| 21>  H        0.6222430000    -0.9262500000     0.5484930000
| 22>  H        2.9297090000     0.7886530000    -0.5280790000
| 23>  H        2.9650750000    -0.9540000000    -0.3706130000
| 24>  H        3.2910810000     1.0599370000     4.4781820000
| 25>  H        3.8197460000    -0.6163130000     4.4702100000
| 26>  H        5.4742950000     1.7340210000     3.4355260000
| 27>  H        5.9881760000     0.0465500000     3.4582700000
| 28>  H        5.4139100000     1.5869850000     5.7388010000
| 29> *
| 30>
| 31>                          ****END OF INPUT****
 Total Charge           Charge          ....    0
 Multiplicity           Mult            ....    1
 Number of Electrons    NEL             ....   54
 Basis Dimension        Dim             ....  148

MULLIKEN ATOMIC CHARGES
-----------------------
   0 C :   -0.028229
   1 C :    0.031125
   2 C :   -0.163001
   3 C :   -0.144152
   4 C :    0.053450
   5 C :    0.131171
   6 O :   -0.277028
   7 H :    0.020046
   8 H :    0.030613
   9 H :    0.033594
  10 H :    0.034920
  11 H :    0.032700
  12 H :    0.017986
  13 H :    0.034875
  14 H :    0.010921
  15 H :    0.026186
  16 H :    0.154823
Sum of atomic charges:   -0.0000000

LOEWDIN ATOMIC CHARGES
----------------------
   0 C :   -0.053368
   1 C :   -0.051454
   2 C :   -0.063195
   3 C :   -0.071072
   4 C :   -0.069438
   5 C :    0.062062
   6 O :   -0.118246
   7 H :    0.026701
   8 H :    0.029302
   9 H :    0.030087
  10 H :    0.045770
  11 H :    0.045489
  12 H :    0.038998
  13 H :    0.046216
  14 H :    0.007907
  15 H :    0.025614
  16 H :    0.068628

  Mayer bond orders larger than 0.1
B(  0-C ,  1-C ) :   1.1071 B(  0-C ,  7-H ) :   0.9606 B(  0-C ,  8-H ) :   0.9700
B(  0-C ,  9-H ) :   0.9706 B(  1-C ,  2-C ) :   1.0814 B(  1-C , 10-H ) :   0.9042
B(  1-C , 11-H ) :   0.9033 B(  2-C ,  3-C ) :   2.6213 B(  3-C ,  4-C ) :   1.0321
B(  4-C ,  5-C ) :   1.0543 B(  4-C , 12-H ) :   0.8913 B(  4-C , 13-H ) :   0.8924
B(  5-C ,  6-O ) :   1.0693 B(  5-C , 14-H ) :   0.9480 B(  5-C , 15-H ) :   0.9412
B(  6-O , 16-H ) :   0.9855

FINAL SINGLE POINT ENERGY      -309.179216478120

DIPOLE MOMENT
-------------
                                X             Y             Z
Electronic contribution:      3.88491       0.31949       4.27675
Nuclear contribution   :     -4.31283       0.05237      -4.47751
                        -----------------------------------------
Total Dipole Moment    :     -0.42791       0.37186      -0.20076
                        -----------------------------------------
Magnitude (a.u.)       :      0.60141
Magnitude (Debye)      :      1.52865

                             ****ORCA TERMINATED NORMALLY****
TOTAL RUN TIME: 0 days 0 hours 0 minutes 6 seconds 998 msec
