                         Program Version 3.0.3 - RELEASE   -
|  1> ! RI PBE def2-SVP def2-SVP/J NBO PAL2
|  2> % maxcore 2000
|  3> % output
|  4>     # printlevel mini
|  5>     print[ P_Basis ] 0
|  6>     print[ P_SCFInfo ] 1
|  7>     print[ P_SCFIterInfo ] 1
|  8>     print[ P_OrbEn ] 0
|  9>     print[ P_Cartesian ] 0
| 10> end
| 11> *xyz 0 1
| 12>  C        1.0772680000    -0.0074410000    -0.4119210000
| 13>  C        2.4821860000     0.1507010000     0.1626910000
| 14>  C        3.0468840000    -1.0860270000     0.6689350000
| 15>  C        3.5225520000    -2.1102310000     1.0917910000
| 16>  C        4.0825020000    -3.3474310000     1.5962560000
| 17>  C        3.1994830000    -4.5570180000     1.4704870000
| 18>  O        5.1879500000    -3.3887870000     2.0832390000
| 19>  H        0.7070020000     0.9528700000    -0.7754660000
| 20>  H        0.3857030000    -0.3766080000     0.3470170000
| 21>  H        1.0742920000    -0.7133760000    -1.2438910000
| 22>  H        2.4790340000     0.8848770000     0.9758980000
| 23>  H        3.1605330000     0.5515650000    -0.5985400000
| 24>  H        2.2598960000    -4.3880650000     2.0031270000
| 25>  H        3.7104920000    -5.4285700000     1.8764550000
| 26>  H        2.9451230000    -4.7236480000     0.4204230000
| 27> *
| 28>
| 29>                          ****END OF INPUT****
 Total Charge           Charge          ....    0
 Multiplicity           Mult            ....    1
 Number of Electrons    NEL             ....   52
 Basis Dimension        Dim             ....  138

MULLIKEN ATOMIC CHARGES
-----------------------
   0 C :   -0.039460
   1 C :    0.013162
   2 C :   -0.110313
   3 C :   -0.028361
   4 C :   -0.051856
   5 C :    0.019547
   6 O :   -0.151930
   7 H :    0.028791
   8 H :    0.041851
   9 H :    0.041978
  10 H :    0.055008
  11 H :    0.052146
  12 H :    0.047851
  13 H :    0.034952
  14 H :    0.046634
Sum of atomic charges:   -0.0000000

LOEWDIN ATOMIC CHARGES
----------------------
   0 C :   -0.054943
   1 C :   -0.052883
   2 C :   -0.001566
   3 C :   -0.084467
   4 C :    0.033865
   5 C :   -0.078506
   6 O :   -0.107329
   7 H :    0.031181
   8 H :    0.033056
   9 H :    0.032976
  10 H :    0.057174
  11 H :    0.056888
  12 H :    0.048433
  13 H :    0.038120
  14 H :    0.047998

  Mayer bond orders larger than 0.1
B(  0-C ,  1-C ) :   1.1050 B(  0-C ,  7-H ) :   0.9581 B(  0-C ,  8-H ) :   0.9701
B(  0-C ,  9-H ) :   0.9700 B(  1-C ,  2-C ) :   1.0884 B(  1-C , 10-H ) :   0.8973
B(  1-C , 11-H ) :   0.8953 B(  2-C ,  3-C ) :   2.5892 B(  2-C ,  6-O ) :   0.1122
B(  3-C ,  4-C ) :   0.8606 B(  4-C ,  5-C ) :   1.0481 B(  4-C ,  6-O ) :   2.1628
B(  5-C , 12-H ) :   0.9426 B(  5-C , 13-H ) :   0.9439 B(  5-C , 14-H ) :   0.9431

FINAL SINGLE POINT ENERGY      -307.993358866831

DIPOLE MOMENT
-------------
                                X             Y             Z
Electronic contribution:      7.21031      -2.63309       3.67913
Nuclear contribution   :     -8.40661       3.10897      -4.29613
                        -----------------------------------------
Total Dipole Moment    :     -1.19629       0.47588      -0.61700
                        -----------------------------------------
Magnitude (a.u.)       :      1.42768
Magnitude (Debye)      :      3.62888

                             ****ORCA TERMINATED NORMALLY****
TOTAL RUN TIME: 0 days 0 hours 0 minutes 6 seconds 730 msec
