                         Program Version 3.0.3 - RELEASE   -
|  1> ! RI PBE def2-SVP def2-SVP/J NBO PAL2
|  2> % maxcore 2000
|  3> % output
|  4>     # printlevel mini
|  5>     print[ P_Basis ] 0
|  6>     print[ P_SCFInfo ] 1
|  7>     print[ P_SCFIterInfo ] 1
|  8>     print[ P_OrbEn ] 0
|  9>     print[ P_Cartesian ] 0
| 10> end
| 11> *xyz 0 1
| 12>  C        0.9543300000    -0.0370080000    -0.0188780000
| 13>  C        2.4664160000     0.0904220000     0.1492990000
| 14>  C        2.9513770000     1.4477900000    -0.0471630000
| 15>  C        3.3351510000     2.5732270000    -0.2287180000
| 16>  C        3.8114160000     3.9345060000    -0.3924500000
| 17>  C        3.9512480000     4.6612270000     0.9312490000
| 18>  O        4.8342530000     5.4315770000     1.1740980000
| 19>  H        0.6397690000    -1.0709700000     0.1365840000
| 20>  H        0.6480670000     0.2684500000    -1.0206970000
| 21>  H        0.4290610000     0.5933550000     0.7005570000
| 22>  H        2.9764990000    -0.5714550000    -0.5586930000
| 23>  H        2.7600390000    -0.2506170000     1.1477200000
| 24>  H        3.0932560000     4.5134510000    -0.9903920000
| 25>  H        4.7706320000     3.9787320000    -0.9143730000
| 26>  H        3.1552870000     4.4368120000     1.6716570000
| 27> *
| 28>
| 29>                          ****END OF INPUT****
 Total Charge           Charge          ....    0
 Multiplicity           Mult            ....    1
 Number of Electrons    NEL             ....   52
 Basis Dimension        Dim             ....  138

MULLIKEN ATOMIC CHARGES
-----------------------
   0 C :   -0.030782
   1 C :    0.038359
   2 C :   -0.134924
   3 C :   -0.179863
   4 C :    0.101801
   5 C :    0.072387
   6 O :   -0.149214
   7 H :    0.023239
   8 H :    0.032037
   9 H :    0.035378
  10 H :    0.040275
  11 H :    0.034434
  12 H :    0.066211
  13 H :    0.046771
  14 H :    0.003889
Sum of atomic charges:   -0.0000000

LOEWDIN ATOMIC CHARGES
----------------------
   0 C :   -0.053197
   1 C :   -0.050498
   2 C :   -0.047816
   3 C :   -0.079263
   4 C :   -0.082666
   5 C :    0.103094
   6 O :   -0.095337
   7 H :    0.028309
   8 H :    0.030031
   9 H :    0.030639
  10 H :    0.049414
  11 H :    0.047519
  12 H :    0.069478
  13 H :    0.056561
  14 H :   -0.006268

  Mayer bond orders larger than 0.1
B(  0-C ,  1-C ) :   1.1033 B(  0-C ,  7-H ) :   0.9605 B(  0-C ,  8-H ) :   0.9707
B(  0-C ,  9-H ) :   0.9704 B(  1-C ,  2-C ) :   1.0865 B(  1-C , 10-H ) :   0.9028
B(  1-C , 11-H ) :   0.9008 B(  2-C ,  3-C ) :   2.6478 B(  3-C ,  4-C ) :   1.0280
B(  4-C ,  5-C ) :   0.9394 B(  4-C , 12-H ) :   0.8802 B(  4-C , 13-H ) :   0.8857
B(  5-C ,  6-O ) :   2.1908 B(  5-C , 14-H ) :   0.9266

FINAL SINGLE POINT ENERGY      -307.981714072824

DIPOLE MOMENT
-------------
                                X             Y             Z
Electronic contribution:      5.83780       7.67188       1.35451
Nuclear contribution   :     -6.52038      -8.39908      -1.67362
                        -----------------------------------------
Total Dipole Moment    :     -0.68257      -0.72720      -0.31911
                        -----------------------------------------
Magnitude (a.u.)       :      1.04716
Magnitude (Debye)      :      2.66168

                             ****ORCA TERMINATED NORMALLY****
TOTAL RUN TIME: 0 days 0 hours 0 minutes 6 seconds 534 msec
