                         Program Version 3.0.3 - RELEASE   -
|  1> ! RI PBE def2-SVP def2-SVP/J NBO PAL2
|  2> % maxcore 2000
|  3> % output
|  4>     # printlevel mini
|  5>     print[ P_Basis ] 0
|  6>     print[ P_SCFInfo ] 1
|  7>     print[ P_SCFIterInfo ] 1
|  8>     print[ P_OrbEn ] 0
|  9>     print[ P_Cartesian ] 0
| 10> end
| 11> *xyz 0 1
| 12>  C        1.3520270000     0.2022690000    -0.9129560000
| 13>  C        2.8203010000     0.1376190000    -0.5295240000
| 14>  C        3.0343610000     0.1030910000     0.9819280000
| 15>  C        4.4701180000    -0.0187930000     1.3659670000
| 16>  C        5.1463020000     0.8407170000     2.1206170000
| 17>  C        6.5872540000     0.6901690000     2.4740330000
| 18>  O        7.3678620000     1.7898190000     2.0378340000
| 19>  H        1.2227750000     0.2275940000    -1.9972420000
| 20>  H        0.8751640000     1.0960560000    -0.5010040000
| 21>  H        0.8067730000    -0.6662280000    -0.5329810000
| 22>  H        3.3532880000     0.9993220000    -0.9450370000
| 23>  H        3.2806010000    -0.7500600000    -0.9780630000
| 24>  H        2.4784360000    -0.7510150000     1.3914430000
| 25>  H        2.6043720000     1.0007980000     1.4385860000
| 26>  H        4.9956390000    -0.8953630000     0.9836010000
| 27>  H        4.6498780000     1.7298510000     2.5072630000
| 28>  H        6.9725340000    -0.2570110000     2.0715750000
| 29>  H        6.7161750000     0.6614970000     3.5600840000
| 30>  H        7.2054410000     1.9038750000     1.0973870000
| 31> *
| 32>
| 33>                          ****END OF INPUT****
 Total Charge           Charge          ....    0
 Multiplicity           Mult            ....    1
 Number of Electrons    NEL             ....   56
 Basis Dimension        Dim             ....  158

MULLIKEN ATOMIC CHARGES
-----------------------
   0 C :   -0.010955
   1 C :   -0.067798
   2 C :    0.060640
   3 C :   -0.050081
   4 C :   -0.139516
   5 C :    0.255020
   6 O :   -0.294590
   7 H :    0.026313
   8 H :    0.017320
   9 H :    0.017355
  10 H :    0.015285
  11 H :    0.012237
  12 H :    0.017508
  13 H :    0.002441
  14 H :   -0.009742
  15 H :   -0.002563
  16 H :   -0.014531
  17 H :    0.017738
  18 H :    0.147918
Sum of atomic charges:   -0.0000000

LOEWDIN ATOMIC CHARGES
----------------------
   0 C :   -0.067306
   1 C :   -0.043296
   2 C :   -0.041698
   3 C :   -0.031177
   4 C :   -0.073005
   5 C :    0.055040
   6 O :   -0.124816
   7 H :    0.028288
   8 H :    0.025099
   9 H :    0.024880
  10 H :    0.023930
  11 H :    0.022548
  12 H :    0.033598
  13 H :    0.026973
  14 H :    0.020306
  15 H :    0.023328
  16 H :    0.005014
  17 H :    0.027673
  18 H :    0.064619

  Mayer bond orders larger than 0.1
B(  0-C ,  1-C ) :   1.1155 B(  0-C ,  7-H ) :   0.9626 B(  0-C ,  8-H ) :   0.9641
B(  0-C ,  9-H ) :   0.9644 B(  1-C ,  2-C ) :   1.0778 B(  1-C , 10-H ) :   0.9420
B(  1-C , 11-H ) :   0.9406 B(  2-C ,  3-C ) :   1.0533 B(  2-C , 12-H ) :   0.9105
B(  2-C , 13-H ) :   0.9324 B(  3-C ,  4-C ) :   1.8827 B(  3-C , 14-H ) :   0.9459
B(  4-C ,  5-C ) :   1.0634 B(  4-C , 15-H ) :   0.9560 B(  5-C ,  6-O ) :   1.0333
B(  5-C , 16-H ) :   0.9314 B(  5-C , 17-H ) :   0.9177 B(  6-O , 18-H ) :   0.9866

FINAL SINGLE POINT ENERGY      -310.415993245052

DIPOLE MOMENT
-------------
                                X             Y             Z
Electronic contribution:      7.06249       1.98097       3.93638
Nuclear contribution   :     -7.55881      -2.29350      -4.39767
                        -----------------------------------------
Total Dipole Moment    :     -0.49631      -0.31253      -0.46129
                        -----------------------------------------
Magnitude (a.u.)       :      0.74618
Magnitude (Debye)      :      1.89665

                             ****ORCA TERMINATED NORMALLY****
TOTAL RUN TIME: 0 days 0 hours 0 minutes 7 seconds 860 msec
