                         Program Version 3.0.3 - RELEASE   -
|  1> ! RI PBE def2-SVP def2-SVP/J NBO PAL2
|  2> % maxcore 2000
|  3> % output
|  4>     # printlevel mini
|  5>     print[ P_Basis ] 0
|  6>     print[ P_SCFInfo ] 1
|  7>     print[ P_SCFIterInfo ] 1
|  8>     print[ P_OrbEn ] 0
|  9>     print[ P_Cartesian ] 0
| 10> end
| 11> *xyz 0 1
| 12>  C        1.3201080000    -0.1853520000     0.5474760000
| 13>  C        2.8147100000    -0.1190170000     0.2866700000
| 14>  C        3.1889280000     1.0021170000    -0.6831980000
| 15>  C        4.6541680000     1.1039130000    -0.9053260000
| 16>  C        5.2813720000     1.0038030000    -2.0786510000
| 17>  C        6.7362030000     1.1134650000    -2.1589400000
| 18>  O        7.3764980000     1.0357150000    -3.1777990000
| 19>  H        1.0740490000    -0.9944400000     1.2382620000
| 20>  H        0.7647680000    -0.3587350000    -0.3781990000
| 21>  H        0.9530820000     0.7480440000     0.9830830000
| 22>  H        3.1664440000    -1.0730290000    -0.1187670000
| 23>  H        3.3502100000     0.0282850000     1.2309580000
| 24>  H        2.8300670000     1.9534820000    -0.2678730000
| 25>  H        2.6740210000     0.8601190000    -1.6381200000
| 26>  H        5.2661580000     1.2643020000    -0.0161400000
| 27>  H        4.7452960000     0.8407620000    -3.0094220000
| 28>  H        7.2400380000     1.2799760000    -1.1805240000
| 29> *
| 30>
| 31>                          ****END OF INPUT****
 Total Charge           Charge          ....    0
 Multiplicity           Mult            ....    1
 Number of Electrons    NEL             ....   54
 Basis Dimension        Dim             ....  148

MULLIKEN ATOMIC CHARGES
-----------------------
   0 C :   -0.005986
   1 C :   -0.075313
   2 C :    0.062182
   3 C :   -0.043995
   4 C :   -0.021440
   5 C :    0.120492
   6 O :   -0.171129
   7 H :    0.028718
   8 H :    0.021935
   9 H :    0.019545
  10 H :    0.023301
  11 H :    0.019270
  12 H :    0.028405
  13 H :    0.012064
  14 H :    0.009822
  15 H :    0.005299
  16 H :   -0.033170
Sum of atomic charges:   -0.0000000

LOEWDIN ATOMIC CHARGES
----------------------
   0 C :   -0.065046
   1 C :   -0.038932
   2 C :   -0.040405
   3 C :    0.023879
   4 C :   -0.079343
   5 C :    0.066486
   6 O :   -0.119280
   7 H :    0.030388
   8 H :    0.027003
   9 H :    0.025957
  10 H :    0.027378
  11 H :    0.025447
  12 H :    0.041182
  13 H :    0.031202
  14 H :    0.027060
  15 H :    0.032896
  16 H :   -0.015873

  Mayer bond orders larger than 0.1
B(  0-C ,  1-C ) :   1.1185 B(  0-C ,  7-H ) :   0.9623 B(  0-C ,  8-H ) :   0.9633
B(  0-C ,  9-H ) :   0.9650 B(  1-C ,  2-C ) :   1.0702 B(  1-C , 10-H ) :   0.9446
B(  1-C , 11-H ) :   0.9397 B(  2-C ,  3-C ) :   1.0603 B(  2-C , 12-H ) :   0.9050
B(  2-C , 13-H ) :   0.9320 B(  3-C ,  4-C ) :   1.7476 B(  3-C ,  6-O ) :   0.1037
B(  3-C , 14-H ) :   0.9493 B(  4-C ,  5-C ) :   1.0407 B(  4-C , 15-H ) :   0.9649
B(  5-C ,  6-O ) :   2.1069 B(  5-C , 16-H ) :   0.9283

FINAL SINGLE POINT ENERGY      -309.228156896559

DIPOLE MOMENT
-------------
                                X             Y             Z
Electronic contribution:     10.64095       2.21957      -6.89437
Nuclear contribution   :    -11.79626      -2.24918       7.90425
                        -----------------------------------------
Total Dipole Moment    :     -1.15532      -0.02961       1.00988
                        -----------------------------------------
Magnitude (a.u.)       :      1.53476
Magnitude (Debye)      :      3.90106

                             ****ORCA TERMINATED NORMALLY****
TOTAL RUN TIME: 0 days 0 hours 0 minutes 7 seconds 148 msec
