                         Program Version 3.0.3 - RELEASE   -
|  1> ! RI PBE def2-SVP def2-SVP/J NBO PAL2
|  2> % maxcore 2000
|  3> % output
|  4>     # printlevel mini
|  5>     print[ P_Basis ] 0
|  6>     print[ P_SCFInfo ] 1
|  7>     print[ P_SCFIterInfo ] 1
|  8>     print[ P_OrbEn ] 0
|  9>     print[ P_Cartesian ] 0
| 10> end
| 11> *xyz 0 1
| 12>  C        1.3558590000     0.3371720000     0.0279310000
| 13>  C        2.7256650000     0.3150820000     0.6859300000
| 14>  C        3.8373110000     0.0365340000    -0.3088390000
| 15>  C        5.2338310000    -0.0239640000     0.2346330000
| 16>  C        5.5644980000     0.2240000000     1.4988380000
| 17>  C        6.2937720000    -0.4086980000    -0.7599260000
| 18>  O        6.1021380000    -1.7107040000    -1.2860090000
| 19>  H        0.5662780000     0.5375980000     0.7555540000
| 20>  H        1.1321310000    -0.6204110000    -0.4503720000
| 21>  H        1.3000230000     1.1104020000    -0.7435080000
| 22>  H        2.7423540000    -0.4459520000     1.4736630000
| 23>  H        2.9074950000     1.2742270000     1.1826290000
| 24>  H        3.8182480000     0.8005050000    -1.0993620000
| 25>  H        3.6391210000    -0.9065260000    -0.8328940000
| 26>  H        4.8326080000     0.5004120000     2.2484960000
| 27>  H        6.5981890000     0.1650190000     1.8238700000
| 28>  H        7.2862350000    -0.3093630000    -0.3027480000
| 29>  H        6.2587800000     0.2586750000    -1.6267290000
| 30>  H        6.1214750000    -2.3266890000    -0.5481700000
| 31> *
| 32>
| 33>                          ****END OF INPUT****
 Total Charge           Charge          ....    0
 Multiplicity           Mult            ....    1
 Number of Electrons    NEL             ....   56
 Basis Dimension        Dim             ....  158

MULLIKEN ATOMIC CHARGES
-----------------------
   0 C :   -0.004614
   1 C :   -0.073902
   2 C :    0.078140
   3 C :   -0.239834
   4 C :   -0.030956
   5 C :    0.268202
   6 O :   -0.287116
   7 H :    0.019577
   8 H :    0.017282
   9 H :    0.019237
  10 H :    0.024461
  11 H :    0.019577
  12 H :    0.014431
  13 H :    0.008625
  14 H :    0.015119
  15 H :    0.004322
  16 H :   -0.013898
  17 H :    0.009679
  18 H :    0.151667
Sum of atomic charges:   -0.0000000

LOEWDIN ATOMIC CHARGES
----------------------
   0 C :   -0.065426
   1 C :   -0.048668
   2 C :   -0.039698
   3 C :   -0.052956
   4 C :   -0.074604
   5 C :    0.065121
   6 O :   -0.119062
   7 H :    0.027208
   8 H :    0.024986
   9 H :    0.025153
  10 H :    0.025782
  11 H :    0.024118
  12 H :    0.036604
  13 H :    0.031675
  14 H :    0.020121
  15 H :    0.019527
  16 H :    0.006427
  17 H :    0.025449
  18 H :    0.068242

  Mayer bond orders larger than 0.1
B(  0-C ,  1-C ) :   1.1185 B(  0-C ,  7-H ) :   0.9594 B(  0-C ,  8-H ) :   0.9636
B(  0-C ,  9-H ) :   0.9650 B(  1-C ,  2-C ) :   1.1160 B(  1-C , 10-H ) :   0.9346
B(  1-C , 11-H ) :   0.9282 B(  2-C ,  3-C ) :   1.0166 B(  2-C , 12-H ) :   0.9050
B(  2-C , 13-H ) :   0.9026 B(  3-C ,  4-C ) :   1.9718 B(  3-C ,  5-C ) :   1.0544
B(  4-C , 14-H ) :   0.9246 B(  4-C , 15-H ) :   0.9279 B(  5-C ,  6-O ) :   1.0427
B(  5-C , 16-H ) :   0.9251 B(  5-C , 17-H ) :   0.9182 B(  6-O , 18-H ) :   0.9824

FINAL SINGLE POINT ENERGY      -310.416108133842

DIPOLE MOMENT
-------------
                                X             Y             Z
Electronic contribution:      5.71835      -2.39714      -1.56494
Nuclear contribution   :     -5.77809       2.43730       1.98392
                        -----------------------------------------
Total Dipole Moment    :     -0.05974       0.04016       0.41897
                        -----------------------------------------
Magnitude (a.u.)       :      0.42511
Magnitude (Debye)      :      1.08055

                             ****ORCA TERMINATED NORMALLY****
TOTAL RUN TIME: 0 days 0 hours 0 minutes 7 seconds 777 msec
