                         Program Version 3.0.3 - RELEASE   -
|  1> ! RI PBE def2-SVP def2-SVP/J NBO PAL2
|  2> % maxcore 2000
|  3> % output
|  4>     # printlevel mini
|  5>     print[ P_Basis ] 0
|  6>     print[ P_SCFInfo ] 1
|  7>     print[ P_SCFIterInfo ] 1
|  8>     print[ P_OrbEn ] 0
|  9>     print[ P_Cartesian ] 0
| 10> end
| 11> *xyz 0 1
| 12>  C        1.0172510000     0.0372610000    -0.0813790000
| 13>  C        2.4818840000     0.1803040000     0.2932890000
| 14>  C        3.4007570000    -0.5683480000    -0.6729020000
| 15>  C        4.8447060000    -0.4666210000    -0.3006970000
| 16>  C        5.7381120000     0.3172790000    -0.9057640000
| 17>  C        5.3350850000    -1.2922170000     0.8221500000
| 18>  O        4.6610200000    -2.0777130000     1.4382050000
| 19>  H        0.3747960000     0.5836910000     0.6126040000
| 20>  H        0.7084730000    -1.0114570000    -0.0644970000
| 21>  H        0.8247860000     0.4230500000    -1.0867900000
| 22>  H        2.6447320000    -0.1997790000     1.3054790000
| 23>  H        2.7634850000     1.2387020000     0.3050790000
| 24>  H        3.2571950000    -0.1844950000    -1.6874640000
| 25>  H        3.1150930000    -1.6254780000    -0.6772130000
| 26>  H        5.4777840000     0.9449800000    -1.7508990000
| 27>  H        6.7691410000     0.3479520000    -0.5663440000
| 28>  H        6.4094110000    -1.1463120000     1.0662630000
| 29> *
| 30>
| 31>                          ****END OF INPUT****
 Total Charge           Charge          ....    0
 Multiplicity           Mult            ....    1
 Number of Electrons    NEL             ....   54
 Basis Dimension        Dim             ....  148

MULLIKEN ATOMIC CHARGES
-----------------------
   0 C :   -0.001806
   1 C :   -0.061830
   2 C :    0.086885
   3 C :   -0.147142
   4 C :    0.000087
   5 C :    0.133618
   6 O :   -0.157964
   7 H :    0.024861
   8 H :    0.022320
   9 H :    0.013330
  10 H :    0.026458
  11 H :    0.011967
  12 H :   -0.004471
  13 H :    0.020535
  14 H :    0.030369
  15 H :    0.029019
  16 H :   -0.026236
Sum of atomic charges:   -0.0000000

LOEWDIN ATOMIC CHARGES
----------------------
   0 C :   -0.064860
   1 C :   -0.038752
   2 C :   -0.031678
   3 C :   -0.068199
   4 C :   -0.005083
   5 C :    0.080157
   6 O :   -0.109385
   7 H :    0.029032
   8 H :    0.027167
   9 H :    0.023472
  10 H :    0.027969
  11 H :    0.022667
  12 H :    0.027339
  13 H :    0.036032
  14 H :    0.028527
  15 H :    0.026704
  16 H :   -0.011110

  Mayer bond orders larger than 0.1
B(  0-C ,  1-C ) :   1.1236 B(  0-C ,  7-H ) :   0.9605 B(  0-C ,  8-H ) :   0.9654
B(  0-C ,  9-H ) :   0.9634 B(  1-C ,  2-C ) :   1.0817 B(  1-C , 10-H ) :   0.9379
B(  1-C , 11-H ) :   0.9395 B(  2-C ,  3-C ) :   1.0538 B(  2-C , 12-H ) :   0.9158
B(  2-C , 13-H ) :   0.9040 B(  3-C ,  4-C ) :   1.8780 B(  3-C ,  5-C ) :   0.9935
B(  4-C ,  6-O ) :   0.1002 B(  4-C , 14-H ) :   0.9376 B(  4-C , 15-H ) :   0.9297
B(  5-C ,  6-O ) :   2.1221 B(  5-C , 16-H ) :   0.9281

FINAL SINGLE POINT ENERGY      -309.227489345231

DIPOLE MOMENT
-------------
                                X             Y             Z
Electronic contribution:      6.28492      -3.97288       2.72040
Nuclear contribution   :     -6.08634       4.68342      -3.35069
                        -----------------------------------------
Total Dipole Moment    :      0.19858       0.71054      -0.63029
                        -----------------------------------------
Magnitude (a.u.)       :      0.97035
Magnitude (Debye)      :      2.46642

                             ****ORCA TERMINATED NORMALLY****
TOTAL RUN TIME: 0 days 0 hours 0 minutes 7 seconds 202 msec
