                         Program Version 3.0.3 - RELEASE   -
|  1> ! RI PBE def2-SVP def2-SVP/J NBO PAL2
|  2> % maxcore 2000
|  3> % output
|  4>     # printlevel mini
|  5>     print[ P_Basis ] 0
|  6>     print[ P_SCFInfo ] 1
|  7>     print[ P_SCFIterInfo ] 1
|  8>     print[ P_OrbEn ] 0
|  9>     print[ P_Cartesian ] 0
| 10> end
| 11> *xyz 0 1
| 12>  C        1.2791850000    -0.5977250000     1.7682900000
| 13>  C        2.5797960000    -0.3966380000     1.0085180000
| 14>  C        3.7859670000    -0.9455820000     1.7561240000
| 15>  C        5.1112360000    -0.8457330000     1.0053250000
| 16>  C        5.5360950000     0.5914660000     0.7433880000
| 17>  C        6.1919850000    -1.5998980000     1.7706680000
| 18>  O        7.4387650000    -1.6425110000     1.1084010000
| 19>  H        0.4256940000    -0.1977430000     1.2160430000
| 20>  H        1.3090470000    -0.0971050000     2.7402650000
| 21>  H        1.0886320000    -1.6589900000     1.9517710000
| 22>  H        2.7197000000     0.6700000000     0.8075840000
| 23>  H        2.5121610000    -0.8847560000     0.0288980000
| 24>  H        3.5947140000    -1.9980790000     2.0019010000
| 25>  H        3.8822890000    -0.4236940000     2.7177600000
| 26>  H        4.9854920000    -1.3542140000     0.0363520000
| 27>  H        5.5802620000     1.1535700000     1.6822880000
| 28>  H        4.8423280000     1.1071030000     0.0768610000
| 29>  H        6.5284960000     0.6234690000     0.2906430000
| 30>  H        5.8384140000    -2.6155020000     1.9999080000
| 31>  H        6.3828900000    -1.1006540000     2.7259790000
| 32>  H        7.3230540000    -2.1214750000     0.2837230000
| 33> *
| 34>
| 35>                          ****END OF INPUT****
 Total Charge           Charge          ....    0
 Multiplicity           Mult            ....    1
 Number of Electrons    NEL             ....   58
 Basis Dimension        Dim             ....  168

MULLIKEN ATOMIC CHARGES
-----------------------
   0 C :   -0.006257
   1 C :   -0.032048
   2 C :   -0.011801
   3 C :   -0.162342
   4 C :    0.037190
   5 C :    0.210959
   6 O :   -0.276469
   7 H :    0.017946
   8 H :    0.014258
   9 H :    0.017535
  10 H :    0.019279
  11 H :    0.003864
  12 H :   -0.002348
  13 H :   -0.000726
  14 H :   -0.014319
  15 H :    0.008950
  16 H :    0.019292
  17 H :    0.012824
  18 H :   -0.009444
  19 H :    0.000657
  20 H :    0.152999
Sum of atomic charges:   -0.0000000

LOEWDIN ATOMIC CHARGES
----------------------
   0 C :   -0.065858
   1 C :   -0.046925
   2 C :   -0.036676
   3 C :   -0.067482
   4 C :   -0.060253
   5 C :    0.057844
   6 O :   -0.117576
   7 H :    0.026295
   8 H :    0.024536
   9 H :    0.023617
  10 H :    0.023651
  11 H :    0.022216
  12 H :    0.019622
  13 H :    0.020985
  14 H :    0.016343
  15 H :    0.024875
  16 H :    0.022548
  17 H :    0.023743
  18 H :    0.002211
  19 H :    0.019138
  20 H :    0.067147

  Mayer bond orders larger than 0.1
B(  0-C ,  1-C ) :   1.1227 B(  0-C ,  7-H ) :   0.9595 B(  0-C ,  8-H ) :   0.9624
B(  0-C ,  9-H ) :   0.9658 B(  1-C ,  2-C ) :   1.0928 B(  1-C , 10-H ) :   0.9314
B(  1-C , 11-H ) :   0.9317 B(  2-C ,  3-C ) :   1.0509 B(  2-C , 12-H ) :   0.9296
B(  2-C , 13-H ) :   0.9261 B(  3-C ,  4-C ) :   1.0708 B(  3-C ,  5-C ) :   1.0426
B(  3-C , 14-H ) :   0.8981 B(  4-C , 15-H ) :   0.9581 B(  4-C , 16-H ) :   0.9592
B(  4-C , 17-H ) :   0.9461 B(  5-C ,  6-O ) :   1.0705 B(  5-C , 18-H ) :   0.9378
B(  5-C , 19-H ) :   0.9266 B(  6-O , 20-H ) :   0.9841

FINAL SINGLE POINT ENERGY      -311.636072776156

DIPOLE MOMENT
-------------
                                X             Y             Z
Electronic contribution:      6.48389      -2.26238      -0.57701
Nuclear contribution   :     -6.95873       2.02841       0.29268
                        -----------------------------------------
Total Dipole Moment    :     -0.47484      -0.23397      -0.28433
                        -----------------------------------------
Magnitude (a.u.)       :      0.60088
Magnitude (Debye)      :      1.52732

                             ****ORCA TERMINATED NORMALLY****
TOTAL RUN TIME: 0 days 0 hours 0 minutes 8 seconds 714 msec
