                         Program Version 3.0.3 - RELEASE   -
|  1> ! RI PBE def2-SVP def2-SVP/J NBO PAL2
|  2> % maxcore 2000
|  3> % output
|  4>     # printlevel mini
|  5>     print[ P_Basis ] 0
|  6>     print[ P_SCFInfo ] 1
|  7>     print[ P_SCFIterInfo ] 1
|  8>     print[ P_OrbEn ] 0
|  9>     print[ P_Cartesian ] 0
| 10> end
| 11> *xyz 0 1
| 12>  C        3.0848240000    -3.2447720000    -2.4939740000
| 13>  C        4.2955290000    -2.7426970000    -1.7239990000
| 14>  C        4.4123150000    -1.2269370000    -1.7670120000
| 15>  C        5.6820810000    -0.6380910000    -1.1549050000
| 16>  C        5.6602340000     0.8790680000    -1.2934190000
| 17>  C        5.8528840000    -1.0308400000     0.3074030000
| 18>  O        6.7609840000    -1.1686330000    -1.9247420000
| 19>  H        3.0063420000    -4.3335740000    -2.4501430000
| 20>  H        3.1425360000    -2.9582600000    -3.5478110000
| 21>  H        2.1563350000    -2.8292020000    -2.0910120000
| 22>  H        5.2081930000    -3.1804440000    -2.1373330000
| 23>  H        4.2274930000    -3.0848250000    -0.6862830000
| 24>  H        3.5477200000    -0.7745470000    -1.2677690000
| 25>  H        4.3754750000    -0.8978820000    -2.8118910000
| 26>  H        4.8272540000     1.3170400000    -0.7377940000
| 27>  H        5.5644010000     1.1611250000    -2.3439500000
| 28>  H        6.5855400000     1.3157960000    -0.9043700000
| 29>  H        4.9991530000    -0.7062440000     0.9077630000
| 30>  H        6.7490910000    -0.5608610000     0.7248970000
| 31>  H        5.9598140000    -2.1113900000     0.4094350000
| 32>  H        7.5819900000    -0.8188300000    -1.5677900000
| 33> *
| 34>
| 35>                          ****END OF INPUT****
 Total Charge           Charge          ....    0
 Multiplicity           Mult            ....    1
 Number of Electrons    NEL             ....   58
 Basis Dimension        Dim             ....  168

MULLIKEN ATOMIC CHARGES
-----------------------
   0 C :   -0.022866
   1 C :   -0.021243
   2 C :    0.038980
   3 C :   -0.139977
   4 C :    0.077738
   5 C :    0.046930
   6 O :   -0.260700
   7 H :    0.022743
   8 H :    0.020553
   9 H :    0.009219
  10 H :    0.019737
  11 H :    0.004719
  12 H :   -0.003681
  13 H :   -0.000149
  14 H :    0.007356
  15 H :    0.016763
  16 H :   -0.002906
  17 H :    0.012818
  18 H :   -0.001176
  19 H :    0.027979
  20 H :    0.147162
Sum of atomic charges:   -0.0000000

LOEWDIN ATOMIC CHARGES
----------------------
   0 C :   -0.067723
   1 C :   -0.046065
   2 C :   -0.038139
   3 C :    0.015934
   4 C :   -0.063795
   5 C :   -0.068591
   6 O :   -0.108470
   7 H :    0.026492
   8 H :    0.024779
   9 H :    0.021786
  10 H :    0.025990
  11 H :    0.019728
  12 H :    0.022888
  13 H :    0.024675
  14 H :    0.026544
  15 H :    0.026392
  16 H :    0.018650
  17 H :    0.028540
  18 H :    0.020275
  19 H :    0.027025
  20 H :    0.063086

  Mayer bond orders larger than 0.1
B(  0-C ,  1-C ) :   1.1201 B(  0-C ,  7-H ) :   0.9619 B(  0-C ,  8-H ) :   0.9658
B(  0-C ,  9-H ) :   0.9622 B(  1-C ,  2-C ) :   1.0949 B(  1-C , 10-H ) :   0.9307
B(  1-C , 11-H ) :   0.9293 B(  2-C ,  3-C ) :   1.0182 B(  2-C , 12-H ) :   0.9278
B(  2-C , 13-H ) :   0.9232 B(  3-C ,  4-C ) :   1.0639 B(  3-C ,  5-C ) :   1.0559
B(  3-C ,  6-O ) :   1.0244 B(  4-C , 14-H ) :   0.9474 B(  4-C , 15-H ) :   0.9536
B(  4-C , 16-H ) :   0.9476 B(  5-C , 17-H ) :   0.9497 B(  5-C , 18-H ) :   0.9463
B(  5-C , 19-H ) :   0.9510 B(  6-O , 20-H ) :   0.9810

FINAL SINGLE POINT ENERGY      -311.643574274283

DIPOLE MOMENT
-------------
                                X             Y             Z
Electronic contribution:      3.83586       0.49132      -1.12256
Nuclear contribution   :     -3.70766      -0.16469       1.53500
                        -----------------------------------------
Total Dipole Moment    :      0.12821       0.32663       0.41245
                        -----------------------------------------
Magnitude (a.u.)       :      0.54151
Magnitude (Debye)      :      1.37641

                             ****ORCA TERMINATED NORMALLY****
TOTAL RUN TIME: 0 days 0 hours 0 minutes 9 seconds 215 msec
