                         Program Version 3.0.3 - RELEASE   -
|  1> ! RI PBE def2-SVP def2-SVP/J NBO PAL2
|  2> % maxcore 2000
|  3> % output
|  4>     # printlevel mini
|  5>     print[ P_Basis ] 0
|  6>     print[ P_SCFInfo ] 1
|  7>     print[ P_SCFIterInfo ] 1
|  8>     print[ P_OrbEn ] 0
|  9>     print[ P_Cartesian ] 0
| 10> end
| 11> *xyz 0 1
| 12>  C        0.9350670000     0.2472480000     0.0365350000
| 13>  C        2.4518200000     0.2622730000     0.1156390000
| 14>  C        3.0870890000    -0.9537580000    -0.5414190000
| 15>  C        4.6137680000    -0.9741040000    -0.4704250000
| 16>  C        5.1819680000    -2.2783130000    -1.0261790000
| 17>  C        5.1780900000     0.1667540000    -1.2722430000
| 18>  O        5.9294780000     1.0079980000    -0.8637350000
| 19>  H        0.5012100000     1.1257730000     0.5188000000
| 20>  H        0.5223340000    -0.6387120000     0.5275000000
| 21>  H        0.5934040000     0.2364910000    -1.0022970000
| 22>  H        2.7680670000     0.3091720000     1.1636430000
| 23>  H        2.8348400000     1.1767390000    -0.3513470000
| 24>  H        2.7768460000    -1.0092380000    -1.5935910000
| 25>  H        2.7069180000    -1.8669960000    -0.0694740000
| 26>  H        4.9417500000    -0.8362420000     0.5644910000
| 27>  H        4.9218180000    -2.4022850000    -2.0818060000
| 28>  H        4.7712380000    -3.1314680000    -0.4817020000
| 29>  H        6.2699410000    -2.3101700000    -0.9392640000
| 30>  H        4.8475760000     0.1757390000    -2.3390170000
| 31> *
| 32>
| 33>                          ****END OF INPUT****
 Total Charge           Charge          ....    0
 Multiplicity           Mult            ....    1
 Number of Electrons    NEL             ....   56
 Basis Dimension        Dim             ....  158

MULLIKEN ATOMIC CHARGES
-----------------------
   0 C :   -0.004902
   1 C :   -0.028928
   2 C :   -0.025650
   3 C :   -0.089002
   4 C :    0.013059
   5 C :    0.107070
   6 O :   -0.153311
   7 H :    0.022770
   8 H :    0.018004
   9 H :    0.017379
  10 H :    0.015860
  11 H :    0.018812
  12 H :    0.006165
  13 H :    0.008181
  14 H :    0.011487
  15 H :    0.022142
  16 H :    0.028737
  17 H :    0.038667
  18 H :   -0.026539
Sum of atomic charges:    0.0000000

LOEWDIN ATOMIC CHARGES
----------------------
   0 C :   -0.063974
   1 C :   -0.046893
   2 C :   -0.032467
   3 C :   -0.079449
   4 C :   -0.049753
   5 C :    0.094555
   6 O :   -0.105224
   7 H :    0.028630
   8 H :    0.024788
   9 H :    0.024746
  10 H :    0.026623
  11 H :    0.025493
  12 H :    0.021809
  13 H :    0.025451
  14 H :    0.030626
  15 H :    0.027691
  16 H :    0.031956
  17 H :    0.032514
  18 H :   -0.017120

  Mayer bond orders larger than 0.1
B(  0-C ,  1-C ) :   1.1168 B(  0-C ,  7-H ) :   0.9613 B(  0-C ,  8-H ) :   0.9659
B(  0-C ,  9-H ) :   0.9664 B(  1-C ,  2-C ) :   1.0876 B(  1-C , 10-H ) :   0.9346
B(  1-C , 11-H ) :   0.9302 B(  2-C ,  3-C ) :   1.0350 B(  2-C , 12-H ) :   0.9308
B(  2-C , 13-H ) :   0.9304 B(  3-C ,  4-C ) :   1.0671 B(  3-C ,  5-C ) :   0.9298
B(  3-C , 14-H ) :   0.9003 B(  4-C , 15-H ) :   0.9558 B(  4-C , 16-H ) :   0.9548
B(  4-C , 17-H ) :   0.9607 B(  5-C ,  6-O ) :   2.1933 B(  5-C , 18-H ) :   0.9110

FINAL SINGLE POINT ENERGY      -310.439898421348

DIPOLE MOMENT
-------------
                                X             Y             Z
Electronic contribution:      7.21856       3.84420      -0.86069
Nuclear contribution   :     -7.86695      -4.59213       0.79396
                        -----------------------------------------
Total Dipole Moment    :     -0.64839      -0.74792      -0.06673
                        -----------------------------------------
Magnitude (a.u.)       :      0.99210
Magnitude (Debye)      :      2.52171

                             ****ORCA TERMINATED NORMALLY****
TOTAL RUN TIME: 0 days 0 hours 0 minutes 8 seconds 745 msec
