                         Program Version 3.0.3 - RELEASE   -
|  1> ! RI PBE def2-SVP def2-SVP/J NBO PAL2
|  2> % maxcore 2000
|  3> % output
|  4>     # printlevel mini
|  5>     print[ P_Basis ] 0
|  6>     print[ P_SCFInfo ] 1
|  7>     print[ P_SCFIterInfo ] 1
|  8>     print[ P_OrbEn ] 0
|  9>     print[ P_Cartesian ] 0
| 10> end
| 11> *xyz 0 1
| 12>  C        0.9795440000    -0.0861620000    -0.0100760000
| 13>  C        2.4972330000    -0.0950750000    -0.0160100000
| 14>  C        3.0652360000     0.5564210000    -1.2816980000
| 15>  C        4.5140110000     0.5541260000    -1.3089540000
| 16>  C        5.7199810000     0.5199630000    -1.3192640000
| 17>  C        7.1570890000     0.5391660000    -1.3023860000
| 18>  O        7.8565420000    -0.2990220000    -1.8126320000
| 19>  H        0.5891580000    -0.5535840000     0.8958130000
| 20>  H        0.5759270000    -0.6333080000    -0.8662420000
| 21>  H        0.5877760000     0.9337020000    -0.0529790000
| 22>  H        2.8712150000    -1.1201190000     0.0521380000
| 23>  H        2.8833390000     0.4350090000     0.8588810000
| 24>  H        2.7062420000     1.5891200000    -1.3554740000
| 25>  H        2.6904030000     0.0295210000    -2.1661330000
| 26>  H        7.5968550000     1.4052820000    -0.7707940000
| 27> *
| 28>
| 29>                          ****END OF INPUT****
 Total Charge           Charge          ....    0
 Multiplicity           Mult            ....    1
 Number of Electrons    NEL             ....   52
 Basis Dimension        Dim             ....  138

MULLIKEN ATOMIC CHARGES
-----------------------
   0 C :    0.003052
   1 C :   -0.086589
   2 C :    0.059691
   3 C :   -0.028076
   4 C :   -0.093089
   5 C :    0.066313
   6 O :   -0.157724
   7 H :    0.029733
   8 H :    0.023047
   9 H :    0.020234
  10 H :    0.037027
  11 H :    0.031449
  12 H :    0.039247
  13 H :    0.043184
  14 H :    0.012501
Sum of atomic charges:   -0.0000000

LOEWDIN ATOMIC CHARGES
----------------------
   0 C :   -0.063845
   1 C :   -0.030336
   2 C :   -0.046276
   3 C :    0.015089
   4 C :   -0.097868
   5 C :    0.065945
   6 O :   -0.097707
   7 H :    0.032774
   8 H :    0.027641
   9 H :    0.026666
  10 H :    0.032386
  11 H :    0.030720
  12 H :    0.051062
  13 H :    0.052244
  14 H :    0.001506

  Mayer bond orders larger than 0.1
B(  0-C ,  1-C ) :   1.1177 B(  0-C ,  7-H ) :   0.9606 B(  0-C ,  8-H ) :   0.9639
B(  0-C ,  9-H ) :   0.9638 B(  1-C ,  2-C ) :   1.0707 B(  1-C , 10-H ) :   0.9441
B(  1-C , 11-H ) :   0.9429 B(  2-C ,  3-C ) :   1.0612 B(  2-C , 12-H ) :   0.8942
B(  2-C , 13-H ) :   0.8955 B(  3-C ,  4-C ) :   2.5618 B(  3-C ,  6-O ) :   0.1184
B(  4-C ,  5-C ) :   0.8978 B(  5-C ,  6-O ) :   2.1356 B(  5-C , 14-H ) :   0.9438

FINAL SINGLE POINT ENERGY      -307.981271190668

DIPOLE MOMENT
-------------
                                X             Y             Z
Electronic contribution:     13.18794       0.21297      -3.78952
Nuclear contribution   :    -14.58837       0.29367       4.23821
                        -----------------------------------------
Total Dipole Moment    :     -1.40043       0.50664       0.44869
                        -----------------------------------------
Magnitude (a.u.)       :      1.55538
Magnitude (Debye)      :      3.95346

                             ****ORCA TERMINATED NORMALLY****
TOTAL RUN TIME: 0 days 0 hours 0 minutes 6 seconds 532 msec
