                         Program Version 3.0.3 - RELEASE   -
|  1> ! RI PBE def2-SVP def2-SVP/J NBO PAL2
|  2> % maxcore 2000
|  3> % output
|  4>     # printlevel mini
|  5>     print[ P_Basis ] 0
|  6>     print[ P_SCFInfo ] 1
|  7>     print[ P_SCFIterInfo ] 1
|  8>     print[ P_OrbEn ] 0
|  9>     print[ P_Cartesian ] 0
| 10> end
| 11> *xyz 0 1
| 12>  C        0.8856640000    -0.4656490000     0.0185680000
| 13>  C        2.4027780000    -0.5481470000     0.0241470000
| 14>  C        2.9558690000    -1.4058830000    -1.1029890000
| 15>  C        4.4730180000    -1.4851590000    -1.1116790000
| 16>  C        5.0366640000    -2.4010910000    -2.1891110000
| 17>  C        6.5523580000    -2.3604280000    -2.2409530000
| 18>  O        4.5690660000    -3.7332110000    -2.0389800000
| 19>  H        0.5126190000     0.1495170000     0.8407640000
| 20>  H        0.4375520000    -1.4585030000     0.1156000000
| 21>  H        0.5182280000    -0.0303660000    -0.9150830000
| 22>  H        2.7444390000    -0.9519860000     0.9846470000
| 23>  H        2.8256310000     0.4612500000    -0.0447600000
| 24>  H        2.6110540000    -1.0059610000    -2.0649960000
| 25>  H        2.5448140000    -2.4181490000    -1.0329020000
| 26>  H        4.8327800000    -1.8372800000    -0.1339430000
| 27>  H        4.8965880000    -0.4824630000    -1.2447420000
| 28>  H        4.6383500000    -2.0861500000    -3.1603160000
| 29>  H        6.9790620000    -2.6673140000    -1.2795980000
| 30>  H        6.9143580000    -1.3522860000    -2.4573420000
| 31>  H        6.9258650000    -3.0364270000    -3.0121370000
| 32>  H        4.9306240000    -4.0808030000    -1.2179780000
| 33> *
| 34>
| 35>                          ****END OF INPUT****
 Total Charge           Charge          ....    0
 Multiplicity           Mult            ....    1
 Number of Electrons    NEL             ....   58
 Basis Dimension        Dim             ....  168

MULLIKEN ATOMIC CHARGES
-----------------------
   0 C :    0.002252
   1 C :   -0.034579
   2 C :   -0.004180
   3 C :   -0.002753
   4 C :    0.073097
   5 C :    0.033326
   6 O :   -0.284770
   7 H :    0.016679
   8 H :    0.014874
   9 H :    0.014965
  10 H :    0.002650
  11 H :    0.004408
  12 H :   -0.002308
  13 H :    0.002557
  14 H :   -0.015784
  15 H :   -0.002042
  16 H :   -0.006117
  17 H :   -0.000024
  18 H :    0.012719
  19 H :    0.027009
  20 H :    0.148022
Sum of atomic charges:   -0.0000000

LOEWDIN ATOMIC CHARGES
----------------------
   0 C :   -0.065646
   1 C :   -0.046744
   2 C :   -0.043071
   3 C :   -0.055772
   4 C :    0.042464
   5 C :   -0.075867
   6 O :   -0.113992
   7 H :    0.025238
   8 H :    0.024059
   9 H :    0.023812
  10 H :    0.020401
  11 H :    0.020293
  12 H :    0.021500
  13 H :    0.020513
  14 H :    0.016356
  15 H :    0.024447
  16 H :    0.020742
  17 H :    0.020145
  18 H :    0.028848
  19 H :    0.028687
  20 H :    0.063586

  Mayer bond orders larger than 0.1
B(  0-C ,  1-C ) :   1.1183 B(  0-C ,  7-H ) :   0.9613 B(  0-C ,  8-H ) :   0.9643
B(  0-C ,  9-H ) :   0.9658 B(  1-C ,  2-C ) :   1.0928 B(  1-C , 10-H ) :   0.9364
B(  1-C , 11-H ) :   0.9353 B(  2-C ,  3-C ) :   1.0910 B(  2-C , 12-H ) :   0.9344
B(  2-C , 13-H ) :   0.9240 B(  3-C ,  4-C ) :   1.0444 B(  3-C , 14-H ) :   0.9163
B(  3-C , 15-H ) :   0.9194 B(  4-C ,  5-C ) :   1.0924 B(  4-C ,  6-O ) :   1.0131
B(  4-C , 16-H ) :   0.9040 B(  5-C , 17-H ) :   0.9500 B(  5-C , 18-H ) :   0.9484
B(  5-C , 19-H ) :   0.9568 B(  6-O , 20-H ) :   0.9845

FINAL SINGLE POINT ENERGY      -311.641597815652

DIPOLE MOMENT
-------------
                                X             Y             Z
Electronic contribution:      1.87970      -3.97588      -2.18902
Nuclear contribution   :     -1.52698       4.21346       2.55087
                        -----------------------------------------
Total Dipole Moment    :      0.35272       0.23758       0.36185
                        -----------------------------------------
Magnitude (a.u.)       :      0.55838
Magnitude (Debye)      :      1.41929

                             ****ORCA TERMINATED NORMALLY****
TOTAL RUN TIME: 0 days 0 hours 0 minutes 8 seconds 877 msec
