                         Program Version 3.0.3 - RELEASE   -
|  1> ! RI PBE def2-SVP def2-SVP/J NBO PAL2
|  2> % maxcore 2000
|  3> % output
|  4>     # printlevel mini
|  5>     print[ P_Basis ] 0
|  6>     print[ P_SCFInfo ] 1
|  7>     print[ P_SCFIterInfo ] 1
|  8>     print[ P_OrbEn ] 0
|  9>     print[ P_Cartesian ] 0
| 10> end
| 11> *xyz 0 1
| 12>  C        0.7293130000    -0.1266070000    -0.7204700000
| 13>  C        2.2169960000     0.1737820000    -0.6547540000
| 14>  C        3.0114410000    -0.9287790000     0.0273090000
| 15>  C        4.4954610000    -0.6317350000     0.0941990000
| 16>  C        5.3194100000    -1.7062100000     0.7662960000
| 17>  C        6.8024660000    -1.4511790000     0.8547410000
| 18>  O        4.8227110000    -2.7122700000     1.2090260000
| 19>  H        0.1783730000     0.6774670000    -1.2136770000
| 20>  H        0.3090400000    -0.2529050000     0.2811380000
| 21>  H        0.5386770000    -1.0498430000    -1.2746300000
| 22>  H        2.3770810000     1.1199550000    -0.1238600000
| 23>  H        2.6051110000     0.3285880000    -1.6687180000
| 24>  H        2.8579920000    -1.8777400000    -0.4962420000
| 25>  H        2.6310990000    -1.0903150000     1.0409260000
| 26>  H        4.6841740000     0.3116590000     0.6238650000
| 27>  H        4.9106600000    -0.4742580000    -0.9102670000
| 28>  H        6.9952000000    -0.5249870000     1.4035330000
| 29>  H        7.2242010000    -1.3197880000    -0.1457720000
| 30>  H        7.2948830000    -2.2834230000     1.3544550000
| 31> *
| 32>
| 33>                          ****END OF INPUT****
 Total Charge           Charge          ....    0
 Multiplicity           Mult            ....    1
 Number of Electrons    NEL             ....   56
 Basis Dimension        Dim             ....  158

MULLIKEN ATOMIC CHARGES
-----------------------
   0 C :   -0.004496
   1 C :   -0.044425
   2 C :   -0.013546
   3 C :    0.000228
   4 C :   -0.065649
   5 C :    0.029993
   6 O :   -0.163355
   7 H :    0.019161
   8 H :    0.019148
   9 H :    0.018391
  10 H :    0.005633
  11 H :    0.005850
  12 H :    0.015262
  13 H :    0.015532
  14 H :    0.022892
  15 H :    0.024155
  16 H :    0.038971
  17 H :    0.039164
  18 H :    0.037092
Sum of atomic charges:   -0.0000000

LOEWDIN ATOMIC CHARGES
----------------------
   0 C :   -0.066319
   1 C :   -0.047622
   2 C :   -0.039580
   3 C :   -0.073578
   4 C :    0.057064
   5 C :   -0.088733
   6 O :   -0.121396
   7 H :    0.026215
   8 H :    0.025385
   9 H :    0.025401
  10 H :    0.020982
  11 H :    0.021054
  12 H :    0.027691
  13 H :    0.027756
  14 H :    0.039604
  15 H :    0.039896
  16 H :    0.044171
  17 H :    0.044236
  18 H :    0.037773

  Mayer bond orders larger than 0.1
B(  0-C ,  1-C ) :   1.1230 B(  0-C ,  7-H ) :   0.9602 B(  0-C ,  8-H ) :   0.9645
B(  0-C ,  9-H ) :   0.9649 B(  1-C ,  2-C ) :   1.0937 B(  1-C , 10-H ) :   0.9357
B(  1-C , 11-H ) :   0.9345 B(  2-C ,  3-C ) :   1.0894 B(  2-C , 12-H ) :   0.9358
B(  2-C , 13-H ) :   0.9347 B(  3-C ,  4-C ) :   0.9407 B(  3-C , 14-H ) :   0.9100
B(  3-C , 15-H ) :   0.9077 B(  4-C ,  5-C ) :   1.0372 B(  4-C ,  6-O ) :   2.1884
B(  5-C , 16-H ) :   0.9440 B(  5-C , 17-H ) :   0.9433 B(  5-C , 18-H ) :   0.9470

FINAL SINGLE POINT ENERGY      -310.452663728454

DIPOLE MOMENT
-------------
                                X             Y             Z
Electronic contribution:      4.36967      -5.01271       3.21314
Nuclear contribution   :     -3.99121       5.85008      -3.58703
                        -----------------------------------------
Total Dipole Moment    :      0.37845       0.83737      -0.37388
                        -----------------------------------------
Magnitude (a.u.)       :      0.99207
Magnitude (Debye)      :      2.52165

                             ****ORCA TERMINATED NORMALLY****
TOTAL RUN TIME: 0 days 0 hours 0 minutes 7 seconds 966 msec
