                         Program Version 3.0.3 - RELEASE   -
|  1> ! RI PBE def2-SVP def2-SVP/J NBO PAL2
|  2> % maxcore 2000
|  3> % output
|  4>     # printlevel mini
|  5>     print[ P_Basis ] 0
|  6>     print[ P_SCFInfo ] 1
|  7>     print[ P_SCFIterInfo ] 1
|  8>     print[ P_OrbEn ] 0
|  9>     print[ P_Cartesian ] 0
| 10> end
| 11> *xyz 0 1
| 12>  C        0.9230360000    -0.1039270000     0.0446450000
| 13>  C        2.4407030000    -0.0443880000     0.0723590000
| 14>  C        2.9768100000     1.2147200000     0.7348100000
| 15>  C        4.4951540000     1.2786140000     0.7648500000
| 16>  C        5.0192130000     2.5365370000     1.4266600000
| 17>  C        6.5120560000     2.6485840000     1.4822190000
| 18>  O        7.2812410000     1.8338530000     1.0510520000
| 19>  H        0.5662530000    -1.0175820000    -0.4361440000
| 20>  H        0.5042900000     0.7445500000    -0.5040160000
| 21>  H        0.5080680000    -0.0779970000     1.0562870000
| 22>  H        2.8303770000    -0.1063140000    -0.9502710000
| 23>  H        2.8341240000    -0.9223100000     0.5976440000
| 24>  H        2.5866150000     1.2775240000     1.7589370000
| 25>  H        2.5828950000     2.0943720000     0.2093820000
| 26>  H        4.8922910000     1.2177200000    -0.2533880000
| 27>  H        4.8959900000     0.4049450000     1.2885520000
| 28>  H        4.6549940000     2.6323400000     2.4596880000
| 29>  H        4.6513860000     3.4422040000     0.9232230000
| 30>  H        6.8909150000     3.5749450000     1.9695980000
| 31> *
| 32>
| 33>                          ****END OF INPUT****
 Total Charge           Charge          ....    0
 Multiplicity           Mult            ....    1
 Number of Electrons    NEL             ....   56
 Basis Dimension        Dim             ....  158

MULLIKEN ATOMIC CHARGES
-----------------------
   0 C :   -0.002196
   1 C :   -0.033146
   2 C :   -0.036191
   3 C :   -0.003324
   4 C :   -0.009474
   5 C :    0.089312
   6 O :   -0.161124
   7 H :    0.018514
   8 H :    0.016498
   9 H :    0.014921
  10 H :    0.009832
  11 H :    0.009335
  12 H :    0.001611
  13 H :    0.000820
  14 H :    0.019420
  15 H :    0.017360
  16 H :    0.031418
  17 H :    0.030667
  18 H :   -0.014254
Sum of atomic charges:    0.0000000

LOEWDIN ATOMIC CHARGES
----------------------
   0 C :   -0.065640
   1 C :   -0.046051
   2 C :   -0.043198
   3 C :   -0.038807
   4 C :   -0.084187
   5 C :    0.091429
   6 O :   -0.110171
   7 H :    0.026893
   8 H :    0.023972
   9 H :    0.023601
  10 H :    0.023360
  11 H :    0.023443
  12 H :    0.020326
  13 H :    0.020313
  14 H :    0.029154
  15 H :    0.028917
  16 H :    0.045290
  17 H :    0.045116
  18 H :   -0.013761

  Mayer bond orders larger than 0.1
B(  0-C ,  1-C ) :   1.1150 B(  0-C ,  7-H ) :   0.9608 B(  0-C ,  8-H ) :   0.9661
B(  0-C ,  9-H ) :   0.9656 B(  1-C ,  2-C ) :   1.0992 B(  1-C , 10-H ) :   0.9366
B(  1-C , 11-H ) :   0.9361 B(  2-C ,  3-C ) :   1.0905 B(  2-C , 12-H ) :   0.9339
B(  2-C , 13-H ) :   0.9339 B(  3-C ,  4-C ) :   1.0790 B(  3-C , 14-H ) :   0.9336
B(  3-C , 15-H ) :   0.9328 B(  4-C ,  5-C ) :   0.9690 B(  4-C , 16-H ) :   0.9024
B(  4-C , 17-H ) :   0.9025 B(  5-C ,  6-O ) :   2.1885 B(  5-C , 18-H ) :   0.9273

FINAL SINGLE POINT ENERGY      -310.441711706342

DIPOLE MOMENT
-------------
                                X             Y             Z
Electronic contribution:     10.78889       2.94436       1.52608
Nuclear contribution   :    -11.57118      -2.51483      -1.29835
                        -----------------------------------------
Total Dipole Moment    :     -0.78229       0.42954       0.22773
                        -----------------------------------------
Magnitude (a.u.)       :      0.92105
Magnitude (Debye)      :      2.34113

                             ****ORCA TERMINATED NORMALLY****
TOTAL RUN TIME: 0 days 0 hours 0 minutes 8 seconds 23 msec
