                         Program Version 3.0.3 - RELEASE   -
|  1> ! RI PBE def2-SVP def2-SVP/J NBO PAL2
|  2> % maxcore 2000
|  3> % output
|  4>     # printlevel mini
|  5>     print[ P_Basis ] 0
|  6>     print[ P_SCFInfo ] 1
|  7>     print[ P_SCFIterInfo ] 1
|  8>     print[ P_OrbEn ] 0
|  9>     print[ P_Cartesian ] 0
| 10> end
| 11> *xyz 0 1
| 12>  C        1.5173370000     1.5856290000     0.9959410000
| 13>  C        1.6059270000     0.4660040000     2.0204580000
| 14>  C        2.0047790000    -0.8838310000     1.4311010000
| 15>  C        3.4030140000    -0.9787220000     0.8266560000
| 16>  C        4.5465850000    -0.8601750000     1.8242490000
| 17>  O        4.7728930000     0.4445660000     2.3128030000
| 18>  C        5.5213860000     1.2469190000     1.4435310000
| 19>  H        1.1641060000     2.5120070000     1.4549470000
| 20>  H        0.8239910000     1.3307240000     0.1883690000
| 21>  H        2.4885680000     1.7996800000     0.5435790000
| 22>  H        0.6297740000     0.3493510000     2.5037200000
| 23>  H        2.3113800000     0.7473380000     2.8063880000
| 24>  H        1.2751830000    -1.1569840000     0.6588950000
| 25>  H        1.9169500000    -1.6502050000     2.2108690000
| 26>  H        3.5321490000    -0.2409990000     0.0275450000
| 27>  H        3.5018030000    -1.9561670000     0.3405750000
| 28>  H        5.4740020000    -1.2457860000     1.3746210000
| 29>  H        4.3300800000    -1.4755840000     2.7036730000
| 30>  H        5.6608300000     2.2132300000     1.9294370000
| 31>  H        5.0176910000     1.4119670000     0.4818730000
| 32>  H        6.5081620000     0.8053490000     1.2428680000
| 33> *
| 34>
| 35>                          ****END OF INPUT****
 Total Charge           Charge          ....    0
 Multiplicity           Mult            ....    1
 Number of Electrons    NEL             ....   58
 Basis Dimension        Dim             ....  168

MULLIKEN ATOMIC CHARGES
-----------------------
   0 C :   -0.028218
   1 C :   -0.024125
   2 C :   -0.022527
   3 C :   -0.033432
   4 C :    0.176102
   5 O :   -0.342567
   6 C :    0.143804
   7 H :    0.016131
   8 H :    0.011814
   9 H :    0.013320
  10 H :    0.003977
  11 H :    0.024327
  12 H :    0.006288
  13 H :    0.004691
  14 H :    0.007452
  15 H :    0.005871
  16 H :   -0.010640
  17 H :    0.006595
  18 H :    0.030826
  19 H :    0.006847
  20 H :    0.003464
Sum of atomic charges:    0.0000000

LOEWDIN ATOMIC CHARGES
----------------------
   0 C :   -0.067905
   1 C :   -0.050452
   2 C :   -0.043924
   3 C :   -0.062966
   4 C :    0.058764
   5 O :   -0.146231
   6 C :    0.047453
   7 H :    0.026848
   8 H :    0.021915
   9 H :    0.020395
  10 H :    0.022348
  11 H :    0.023091
  12 H :    0.022142
  13 H :    0.022691
  14 H :    0.022156
  15 H :    0.030756
  16 H :    0.005199
  17 H :    0.019141
  18 H :    0.023717
  19 H :    0.000018
  20 H :    0.004843

  Mayer bond orders larger than 0.1
B(  0-C ,  1-C ) :   1.1189 B(  0-C ,  7-H ) :   0.9599 B(  0-C ,  8-H ) :   0.9646
B(  0-C ,  9-H ) :   0.9645 B(  1-C ,  2-C ) :   1.1001 B(  1-C , 10-H ) :   0.9312
B(  1-C , 11-H ) :   0.9329 B(  2-C ,  3-C ) :   1.1006 B(  2-C , 12-H ) :   0.9327
B(  2-C , 13-H ) :   0.9300 B(  3-C ,  4-C ) :   1.0796 B(  3-C , 14-H ) :   0.9246
B(  3-C , 15-H ) :   0.9153 B(  4-C ,  5-O ) :   1.0126 B(  4-C , 16-H ) :   0.9253
B(  4-C , 17-H ) :   0.9390 B(  5-O ,  6-C ) :   1.0229 B(  6-C , 18-H ) :   0.9753
B(  6-C , 19-H ) :   0.9466 B(  6-C , 20-H ) :   0.9534

FINAL SINGLE POINT ENERGY      -311.621674294409

DIPOLE MOMENT
-------------
                                X             Y             Z
Electronic contribution:      2.59339      -1.11149       2.62166
Nuclear contribution   :     -2.41995       0.98545      -3.00098
                        -----------------------------------------
Total Dipole Moment    :      0.17344      -0.12604      -0.37932
                        -----------------------------------------
Magnitude (a.u.)       :      0.43572
Magnitude (Debye)      :      1.10750

                             ****ORCA TERMINATED NORMALLY****
TOTAL RUN TIME: 0 days 0 hours 0 minutes 9 seconds 163 msec
