                         Program Version 3.0.3 - RELEASE   -
|  1> ! RI PBE def2-SVP def2-SVP/J NBO PAL2
|  2> % maxcore 2000
|  3> % output
|  4>     # printlevel mini
|  5>     print[ P_Basis ] 0
|  6>     print[ P_SCFInfo ] 1
|  7>     print[ P_SCFIterInfo ] 1
|  8>     print[ P_OrbEn ] 0
|  9>     print[ P_Cartesian ] 0
| 10> end
| 11> *xyz 0 1
| 12>  C        3.6876780000    -2.1450220000     0.2811280000
| 13>  C        3.6299050000    -0.6680980000     0.6570980000
| 14>  C        3.1745660000     0.1966780000    -0.4704570000
| 15>  C        3.8798160000     1.1767840000    -1.0202290000
| 16>  C        3.4188290000     1.9960000000    -2.1732400000
| 17>  O        3.4796500000     3.3614990000    -1.8329940000
| 18>  C        3.1391680000     4.1905060000    -2.9078230000
| 19>  H        3.9899220000    -2.7566870000     1.1342560000
| 20>  H        4.4016970000    -2.3143250000    -0.5282090000
| 21>  H        2.7120790000    -2.5044800000    -0.0571920000
| 22>  H        4.6111640000    -0.3299230000     1.0030470000
| 23>  H        2.9405400000    -0.5443670000     1.5014090000
| 24>  H        2.1831700000    -0.0198770000    -0.8704050000
| 25>  H        4.8678570000     1.4183330000    -0.6326250000
| 26>  H        2.3937630000     1.7134290000    -2.4585780000
| 27>  H        4.0632900000     1.8116320000    -3.0501410000
| 28>  H        3.2183130000     5.2229250000    -2.5662750000
| 29>  H        2.1105350000     4.0083310000    -3.2508140000
| 30>  H        3.8166480000     4.0449610000    -3.7617560000
| 31> *
| 32>
| 33>                          ****END OF INPUT****
 Total Charge           Charge          ....    0
 Multiplicity           Mult            ....    1
 Number of Electrons    NEL             ....   56
 Basis Dimension        Dim             ....  158

MULLIKEN ATOMIC CHARGES
-----------------------
   0 C :   -0.039967
   1 C :    0.034158
   2 C :   -0.072697
   3 C :   -0.060891
   4 C :    0.238253
   5 O :   -0.351677
   6 C :    0.148985
   7 H :    0.024249
   8 H :    0.027094
   9 H :    0.021447
  10 H :    0.004508
  11 H :    0.028183
  12 H :   -0.010157
  13 H :   -0.004777
  14 H :   -0.017824
  15 H :   -0.001656
  16 H :    0.032211
  17 H :   -0.001441
  18 H :    0.002000
Sum of atomic charges:   -0.0000000

LOEWDIN ATOMIC CHARGES
----------------------
   0 C :   -0.063065
   1 C :   -0.045230
   2 C :   -0.028351
   3 C :   -0.050843
   4 C :    0.060731
   5 O :   -0.152497
   6 C :    0.047834
   7 H :    0.027477
   8 H :    0.026585
   9 H :    0.024924
  10 H :    0.027664
  11 H :    0.035237
  12 H :    0.020554
  13 H :    0.024923
  14 H :    0.005097
  15 H :    0.009602
  16 H :    0.022804
  17 H :    0.003077
  18 H :    0.003477

  Mayer bond orders larger than 0.1
B(  0-C ,  1-C ) :   1.0987 B(  0-C ,  7-H ) :   0.9601 B(  0-C ,  8-H ) :   0.9696
B(  0-C ,  9-H ) :   0.9688 B(  1-C ,  2-C ) :   1.0630 B(  1-C , 10-H ) :   0.9329
B(  1-C , 11-H ) :   0.9199 B(  2-C ,  3-C ) :   1.9250 B(  2-C , 12-H ) :   0.9462
B(  3-C ,  4-C ) :   1.0420 B(  3-C , 13-H ) :   0.9537 B(  4-C ,  5-O ) :   0.9977
B(  4-C , 14-H ) :   0.9215 B(  4-C , 15-H ) :   0.9060 B(  5-O ,  6-C ) :   1.0238
B(  6-C , 16-H ) :   0.9767 B(  6-C , 17-H ) :   0.9539 B(  6-C , 18-H ) :   0.9538

FINAL SINGLE POINT ENERGY      -310.403284643344

DIPOLE MOMENT
-------------
                                X             Y             Z
Electronic contribution:      0.33244       4.13878      -0.01477
Nuclear contribution   :     -0.43888      -4.37897      -0.27563
                        -----------------------------------------
Total Dipole Moment    :     -0.10645      -0.24018      -0.29040
                        -----------------------------------------
Magnitude (a.u.)       :      0.39160
Magnitude (Debye)      :      0.99537

                             ****ORCA TERMINATED NORMALLY****
TOTAL RUN TIME: 0 days 0 hours 0 minutes 7 seconds 778 msec
