                         Program Version 3.0.3 - RELEASE   -
|  1> ! RI PBE def2-SVP def2-SVP/J NBO PAL2
|  2> % maxcore 2000
|  3> % output
|  4>     # printlevel mini
|  5>     print[ P_Basis ] 0
|  6>     print[ P_SCFInfo ] 1
|  7>     print[ P_SCFIterInfo ] 1
|  8>     print[ P_OrbEn ] 0
|  9>     print[ P_Cartesian ] 0
| 10> end
| 11> *xyz 0 1
| 12>  C        1.6525150000     1.3796790000     1.2074950000
| 13>  C        2.8480740000     0.5575460000     0.7529640000
| 14>  C        2.9805250000     0.5129580000    -0.7389870000
| 15>  C        3.9460130000    -0.1416760000    -1.3852990000
| 16>  C        5.0104110000    -0.9095930000    -0.6604730000
| 17>  O        3.9344200000    -0.0899520000    -2.7518490000
| 18>  C        4.9189850000    -0.7527820000    -3.4987680000
| 19>  H        1.5729190000     1.4003190000     2.2966080000
| 20>  H        0.7208530000     0.9675440000     0.8107930000
| 21>  H        1.7320230000     2.4122840000     0.8573110000
| 22>  H        2.7596170000    -0.4588980000     1.1603450000
| 23>  H        3.7597580000     0.9700390000     1.2064190000
| 24>  H        2.2459910000     1.0459610000    -1.3356400000
| 25>  H        5.5687100000    -0.2497830000     0.0096250000
| 26>  H        5.7268800000    -1.3896140000    -1.3232180000
| 27>  H        4.5624120000    -1.6880810000    -0.0365060000
| 28>  H        4.6824440000    -0.5536230000    -4.5437930000
| 29>  H        4.9051690000    -1.8374470000    -3.3413420000
| 30>  H        5.9267910000    -0.3737020000    -3.2935850000
| 31> *
| 32>
| 33>                          ****END OF INPUT****
 Total Charge           Charge          ....    0
 Multiplicity           Mult            ....    1
 Number of Electrons    NEL             ....   56
 Basis Dimension        Dim             ....  158

MULLIKEN ATOMIC CHARGES
-----------------------
   0 C :   -0.032110
   1 C :    0.027702
   2 C :   -0.139564
   3 C :    0.004937
   4 C :    0.039592
   5 O :   -0.278625
   6 C :    0.133771
   7 H :    0.019107
   8 H :    0.019775
   9 H :    0.024087
  10 H :    0.013036
  11 H :    0.013845
  12 H :   -0.021420
  13 H :    0.039316
  14 H :    0.008240
  15 H :    0.039842
  16 H :    0.037825
  17 H :    0.028292
  18 H :    0.022351
Sum of atomic charges:   -0.0000000

LOEWDIN ATOMIC CHARGES
----------------------
   0 C :   -0.066183
   1 C :   -0.046792
   2 C :   -0.112576
   3 C :    0.014422
   4 C :   -0.072992
   5 O :   -0.085838
   6 C :    0.052921
   7 H :    0.025320
   8 H :    0.025214
   9 H :    0.026101
  10 H :    0.025479
  11 H :    0.025575
  12 H :    0.023173
  13 H :    0.042353
  14 H :    0.030906
  15 H :    0.042217
  16 H :    0.028454
  17 H :    0.011583
  18 H :    0.010662

  Mayer bond orders larger than 0.1
B(  0-C ,  1-C ) :   1.1160 B(  0-C ,  7-H ) :   0.9617 B(  0-C ,  8-H ) :   0.9672
B(  0-C ,  9-H ) :   0.9679 B(  1-C ,  2-C ) :   1.0648 B(  1-C , 10-H ) :   0.9155
B(  1-C , 11-H ) :   0.9158 B(  2-C ,  3-C ) :   1.7901 B(  2-C , 12-H ) :   0.9574
B(  3-C ,  4-C ) :   1.0907 B(  3-C ,  5-O ) :   1.1248 B(  4-C , 13-H ) :   0.9349
B(  4-C , 14-H ) :   0.9325 B(  4-C , 15-H ) :   0.9373 B(  5-O ,  6-C ) :   0.9929
B(  6-C , 16-H ) :   0.9712 B(  6-C , 17-H ) :   0.9590 B(  6-C , 18-H ) :   0.9578

FINAL SINGLE POINT ENERGY      -310.407577126100

DIPOLE MOMENT
-------------
                                X             Y             Z
Electronic contribution:      0.08310       0.08505      -4.58233
Nuclear contribution   :      0.52659      -0.51075       4.54574
                        -----------------------------------------
Total Dipole Moment    :      0.60969      -0.42570      -0.03659
                        -----------------------------------------
Magnitude (a.u.)       :      0.74450
Magnitude (Debye)      :      1.89236

                             ****ORCA TERMINATED NORMALLY****
TOTAL RUN TIME: 0 days 0 hours 0 minutes 8 seconds 30 msec
