                         Program Version 3.0.3 - RELEASE   -
|  1> ! RI PBE def2-SVP def2-SVP/J NBO PAL2
|  2> % maxcore 2000
|  3> % output
|  4>     # printlevel mini
|  5>     print[ P_Basis ] 0
|  6>     print[ P_SCFInfo ] 1
|  7>     print[ P_SCFIterInfo ] 1
|  8>     print[ P_OrbEn ] 0
|  9>     print[ P_Cartesian ] 0
| 10> end
| 11> *xyz 0 1
| 12>  C        2.1984030000     1.2654930000     0.5098070000
| 13>  C        2.2199650000    -0.0386420000    -0.2845100000
| 14>  C        2.8831760000     0.0714420000    -1.6283640000
| 15>  C        2.2072330000    -0.0062680000    -2.7680900000
| 16>  C        4.3671670000     0.2684240000    -1.5970710000
| 17>  O        4.9120590000     0.3438470000    -2.8817120000
| 18>  C        6.2976160000     0.5391590000    -2.8615770000
| 19>  H        1.6656350000     1.1322830000     1.4541950000
| 20>  H        1.6951950000     2.0539700000    -0.0545360000
| 21>  H        3.2045210000     1.6163130000     0.7495640000
| 22>  H        1.1950030000    -0.3878380000    -0.4327200000
| 23>  H        2.7278450000    -0.8093290000     0.3090810000
| 24>  H        1.1338670000    -0.1626330000    -2.7665740000
| 25>  H        2.7062920000     0.0817850000    -3.7243890000
| 26>  H        4.8247150000    -0.5660790000    -1.0356340000
| 27>  H        4.6076760000     1.1843210000    -1.0311940000
| 28>  H        6.6382090000     0.5875850000    -3.8960560000
| 29>  H        6.8156830000    -0.2877500000    -2.3553210000
| 30>  H        6.5667310000     1.4766060000    -2.3544200000
| 31> *
| 32>
| 33>                          ****END OF INPUT****
 Total Charge           Charge          ....    0
 Multiplicity           Mult            ....    1
 Number of Electrons    NEL             ....   56
 Basis Dimension        Dim             ....  158

MULLIKEN ATOMIC CHARGES
-----------------------
   0 C :   -0.025652
   1 C :    0.032217
   2 C :   -0.218495
   3 C :   -0.010983
   4 C :    0.262028
   5 O :   -0.339007
   6 C :    0.157289
   7 H :    0.022427
   8 H :    0.027234
   9 H :    0.020141
  10 H :    0.004609
  11 H :    0.015721
  12 H :    0.004218
  13 H :    0.018756
  14 H :   -0.005718
  15 H :   -0.001188
  16 H :    0.030911
  17 H :    0.004174
  18 H :    0.001317
Sum of atomic charges:   -0.0000000

LOEWDIN ATOMIC CHARGES
----------------------
   0 C :   -0.062695
   1 C :   -0.036883
   2 C :   -0.047225
   3 C :   -0.068952
   4 C :    0.063471
   5 O :   -0.136424
   6 C :    0.052603
   7 H :    0.028352
   8 H :    0.028851
   9 H :    0.020858
  10 H :    0.030243
  11 H :    0.028647
  12 H :    0.019179
  13 H :    0.022786
  14 H :    0.012705
  15 H :    0.012324
  16 H :    0.023295
  17 H :    0.004830
  18 H :    0.004035

  Mayer bond orders larger than 0.1
B(  0-C ,  1-C ) :   1.1090 B(  0-C ,  7-H ) :   0.9565 B(  0-C ,  8-H ) :   0.9652
B(  0-C ,  9-H ) :   0.9656 B(  1-C ,  2-C ) :   1.0685 B(  1-C , 10-H ) :   0.9194
B(  1-C , 11-H ) :   0.9204 B(  2-C ,  3-C ) :   2.0102 B(  2-C ,  4-C ) :   1.0054
B(  3-C , 12-H ) :   0.9279 B(  3-C , 13-H ) :   0.9240 B(  4-C ,  5-O ) :   1.0432
B(  4-C , 14-H ) :   0.9018 B(  4-C , 15-H ) :   0.9089 B(  5-O ,  6-C ) :   1.0159
B(  6-C , 16-H ) :   0.9764 B(  6-C , 17-H ) :   0.9552 B(  6-C , 18-H ) :   0.9545

FINAL SINGLE POINT ENERGY      -310.403257756063

DIPOLE MOMENT
-------------
                                X             Y             Z
Electronic contribution:      0.29435      -1.36441      -3.85357
Nuclear contribution   :      0.06459       1.42942       4.32748
                        -----------------------------------------
Total Dipole Moment    :      0.35894       0.06501       0.47391
                        -----------------------------------------
Magnitude (a.u.)       :      0.59805
Magnitude (Debye)      :      1.52012

                             ****ORCA TERMINATED NORMALLY****
TOTAL RUN TIME: 0 days 0 hours 0 minutes 8 seconds 111 msec
