                         Program Version 3.0.3 - RELEASE   -
|  1> ! RI PBE def2-SVP def2-SVP/J NBO PAL2
|  2> % maxcore 2000
|  3> % output
|  4>     # printlevel mini
|  5>     print[ P_Basis ] 0
|  6>     print[ P_SCFInfo ] 1
|  7>     print[ P_SCFIterInfo ] 1
|  8>     print[ P_OrbEn ] 0
|  9>     print[ P_Cartesian ] 0
| 10> end
| 11> *xyz 0 1
| 12>  C        2.9589160000    -0.2252920000     1.3988300000
| 13>  C        2.6001260000     0.0688240000    -0.0496890000
| 14>  C        3.0692080000    -0.9737270000    -1.0639600000
| 15>  C        2.4507090000    -0.7183090000    -2.4309180000
| 16>  C        4.5831620000    -1.0118480000    -1.1580040000
| 17>  O        4.9779330000    -2.0569300000    -2.0105390000
| 18>  C        6.3671600000    -2.1417940000    -2.1463780000
| 19>  H        2.5118280000     0.5131440000     2.0684280000
| 20>  H        4.0370110000    -0.2069980000     1.5723880000
| 21>  H        2.5922460000    -1.2103740000     1.7012960000
| 22>  H        2.9949430000     1.0510900000    -0.3389390000
| 23>  H        1.5114150000     0.1509840000    -0.1350270000
| 24>  H        2.7452550000    -1.9630720000    -0.7149950000
| 25>  H        2.7254410000     0.2762020000    -2.7983080000
| 26>  H        1.3598860000    -0.7640570000    -2.3805870000
| 27>  H        2.7923170000    -1.4529570000    -3.1608740000
| 28>  H        5.0327980000    -1.1584560000    -0.1647680000
| 29>  H        4.9546530000    -0.0469890000    -1.5455160000
| 30>  H        6.5848190000    -2.9758320000    -2.8144250000
| 31>  H        6.8583710000    -2.3241090000    -1.1795880000
| 32>  H        6.7890020000    -1.2224700000    -2.5774150000
| 33> *
| 34>
| 35>                          ****END OF INPUT****
 Total Charge           Charge          ....    0
 Multiplicity           Mult            ....    1
 Number of Electrons    NEL             ....   58
 Basis Dimension        Dim             ....  168

MULLIKEN ATOMIC CHARGES
-----------------------
   0 C :   -0.008379
   1 C :   -0.033178
   2 C :   -0.125589
   3 C :    0.016278
   4 C :    0.213147
   5 O :   -0.346276
   6 C :    0.150831
   7 H :    0.019474
   8 H :    0.023240
   9 H :    0.017035
  10 H :    0.002471
  11 H :    0.013966
  12 H :    0.004653
  13 H :    0.004183
  14 H :    0.017786
  15 H :    0.030994
  16 H :   -0.010225
  17 H :   -0.024422
  18 H :    0.031491
  19 H :    0.000906
  20 H :    0.001615
Sum of atomic charges:    0.0000000

LOEWDIN ATOMIC CHARGES
----------------------
   0 C :   -0.069001
   1 C :   -0.040763
   2 C :   -0.053408
   3 C :   -0.060517
   4 C :    0.064979
   5 O :   -0.145805
   6 C :    0.049505
   7 H :    0.028582
   8 H :    0.021581
   9 H :    0.025835
  10 H :    0.020906
  11 H :    0.026379
  12 H :    0.025154
  13 H :    0.022248
  14 H :    0.024342
  15 H :    0.028087
  16 H :    0.002611
  17 H :    0.000030
  18 H :    0.022287
  19 H :    0.003189
  20 H :    0.003779

  Mayer bond orders larger than 0.1
B(  0-C ,  1-C ) :   1.1170 B(  0-C ,  7-H ) :   0.9556 B(  0-C ,  8-H ) :   0.9627
B(  0-C ,  9-H ) :   0.9631 B(  1-C ,  2-C ) :   1.0517 B(  1-C , 10-H ) :   0.9318
B(  1-C , 11-H ) :   0.9362 B(  2-C ,  3-C ) :   1.0835 B(  2-C ,  4-C ) :   1.0439
B(  2-C , 12-H ) :   0.9073 B(  3-C , 13-H ) :   0.9584 B(  3-C , 14-H ) :   0.9606
B(  3-C , 15-H ) :   0.9535 B(  4-C ,  5-O ) :   1.0217 B(  4-C , 16-H ) :   0.9269
B(  4-C , 17-H ) :   0.9145 B(  5-O ,  6-C ) :   1.0233 B(  6-C , 18-H ) :   0.9765
B(  6-C , 19-H ) :   0.9542 B(  6-C , 20-H ) :   0.9544

FINAL SINGLE POINT ENERGY      -311.625147958644

DIPOLE MOMENT
-------------
                                X             Y             Z
Electronic contribution:      1.23470      -2.56196      -2.24439
Nuclear contribution   :     -0.98211       2.77355       2.45401
                        -----------------------------------------
Total Dipole Moment    :      0.25258       0.21159       0.20962
                        -----------------------------------------
Magnitude (a.u.)       :      0.39053
Magnitude (Debye)      :      0.99264

                             ****ORCA TERMINATED NORMALLY****
TOTAL RUN TIME: 0 days 0 hours 0 minutes 8 seconds 712 msec
