                         Program Version 3.0.3 - RELEASE   -
|  1> ! RI PBE def2-SVP def2-SVP/J NBO PAL2
|  2> % maxcore 2000
|  3> % output
|  4>     # printlevel mini
|  5>     print[ P_Basis ] 0
|  6>     print[ P_SCFInfo ] 1
|  7>     print[ P_SCFIterInfo ] 1
|  8>     print[ P_OrbEn ] 0
|  9>     print[ P_Cartesian ] 0
| 10> end
| 11> *xyz 0 1
| 12>  C        1.6209650000     0.1927320000     1.1471870000
| 13>  C        2.5783500000     0.1765770000    -0.0411150000
| 14>  C        2.6075160000    -1.1268740000    -0.7824310000
| 15>  C        1.3590770000    -1.5751530000    -1.4717700000
| 16>  C        3.7255770000    -1.8497960000    -0.8022590000
| 17>  O        3.8134760000    -3.0653130000    -1.4020760000
| 18>  C        5.1269750000    -3.4897480000    -1.6739890000
| 19>  H        1.6408580000     1.1621230000     1.6512490000
| 20>  H        1.8931410000    -0.5746760000     1.8761630000
| 21>  H        0.5907390000     0.0056700000     0.8356380000
| 22>  H        3.5879860000     0.4199900000     0.3045420000
| 23>  H        2.2890870000     0.9756130000    -0.7365890000
| 24>  H        0.5822010000    -1.8595230000    -0.7543860000
| 25>  H        1.5481380000    -2.4346790000    -2.1141700000
| 26>  H        0.9444720000    -0.7658470000    -2.0824460000
| 27>  H        4.6330450000    -1.5083500000    -0.3053170000
| 28>  H        5.0605900000    -4.4998480000    -2.0765910000
| 29>  H        5.7355720000    -3.5096470000    -0.7616380000
| 30>  H        5.6135350000    -2.8408420000    -2.4114130000
| 31> *
| 32>
| 33>                          ****END OF INPUT****
 Total Charge           Charge          ....    0
 Multiplicity           Mult            ....    1
 Number of Electrons    NEL             ....   56
 Basis Dimension        Dim             ....  158

MULLIKEN ATOMIC CHARGES
-----------------------
   0 C :   -0.026279
   1 C :    0.033356
   2 C :   -0.205464
   3 C :    0.074562
   4 C :    0.085611
   5 O :   -0.276588
   6 C :    0.143821
   7 H :    0.017939
   8 H :    0.020715
   9 H :    0.021824
  10 H :   -0.006926
  11 H :    0.010105
  12 H :    0.026943
  13 H :    0.019617
  14 H :    0.014536
  15 H :   -0.030979
  16 H :    0.034954
  17 H :    0.021158
  18 H :    0.021094
Sum of atomic charges:   -0.0000000

LOEWDIN ATOMIC CHARGES
----------------------
   0 C :   -0.065878
   1 C :   -0.033408
   2 C :   -0.089014
   3 C :   -0.057487
   4 C :    0.003742
   5 O :   -0.088510
   6 C :    0.057895
   7 H :    0.025121
   8 H :    0.025588
   9 H :    0.023262
  10 H :    0.023398
  11 H :    0.026095
  12 H :    0.032953
  13 H :    0.031174
  14 H :    0.030346
  15 H :    0.005296
  16 H :    0.025696
  17 H :    0.012031
  18 H :    0.011702

  Mayer bond orders larger than 0.1
B(  0-C ,  1-C ) :   1.1011 B(  0-C ,  7-H ) :   0.9594 B(  0-C ,  8-H ) :   0.9649
B(  0-C ,  9-H ) :   0.9661 B(  1-C ,  2-C ) :   1.0854 B(  1-C , 10-H ) :   0.9234
B(  1-C , 11-H ) :   0.9181 B(  2-C ,  3-C ) :   1.1022 B(  2-C ,  4-C ) :   1.8078
B(  3-C , 12-H ) :   0.9411 B(  3-C , 13-H ) :   0.9409 B(  3-C , 14-H ) :   0.9425
B(  4-C ,  5-O ) :   1.1163 B(  4-C , 15-H ) :   0.9264 B(  5-O ,  6-C ) :   0.9890
B(  6-C , 16-H ) :   0.9764 B(  6-C , 17-H ) :   0.9577 B(  6-C , 18-H ) :   0.9623

FINAL SINGLE POINT ENERGY      -310.415005674708

DIPOLE MOMENT
-------------
                                X             Y             Z
Electronic contribution:      2.15678      -3.13233      -1.99692
Nuclear contribution   :     -1.67691       3.12012       1.98084
                        -----------------------------------------
Total Dipole Moment    :      0.47987      -0.01221      -0.01608
                        -----------------------------------------
Magnitude (a.u.)       :      0.48029
Magnitude (Debye)      :      1.22080

                             ****ORCA TERMINATED NORMALLY****
TOTAL RUN TIME: 0 days 0 hours 0 minutes 8 seconds 308 msec
