                         Program Version 3.0.3 - RELEASE   -
|  1> ! RI PBE def2-SVP def2-SVP/J NBO PAL2
|  2> % maxcore 2000
|  3> % output
|  4>     # printlevel mini
|  5>     print[ P_Basis ] 0
|  6>     print[ P_SCFInfo ] 1
|  7>     print[ P_SCFIterInfo ] 1
|  8>     print[ P_OrbEn ] 0
|  9>     print[ P_Cartesian ] 0
| 10> end
| 11> *xyz 0 1
| 12>  C        2.1476760000     0.0279410000    -1.3178880000
| 13>  C        1.7199570000    -0.1816430000     0.1245600000
| 14>  C        2.4332390000    -1.3277150000     0.8553370000
| 15>  C        1.9626140000    -1.3841380000     2.3047830000
| 16>  C        2.1674040000    -2.6646980000     0.1826510000
| 17>  O        3.8536270000    -1.1865830000     0.7801310000
| 18>  C        4.4218310000    -0.0610580000     1.3902930000
| 19>  H        1.6604240000     0.9096860000    -1.7403430000
| 20>  H        1.8850850000    -0.8241470000    -1.9480540000
| 21>  H        3.2278460000     0.1708110000    -1.3907750000
| 22>  H        0.6436490000    -0.3777830000     0.1728970000
| 23>  H        1.8725000000     0.7442040000     0.6897020000
| 24>  H        0.9062140000    -1.6585560000     2.3446580000
| 25>  H        2.0697300000    -0.4219420000     2.8105230000
| 26>  H        2.5316600000    -2.1345170000     2.8584870000
| 27>  H        1.0946310000    -2.8570530000     0.1115900000
| 28>  H        2.6288830000    -3.4691310000     0.7586510000
| 29>  H        2.5953020000    -2.6839230000    -0.8202100000
| 30>  H        5.4958520000    -0.1189300000     1.2079610000
| 31>  H        4.2595500000    -0.0420560000     2.4746930000
| 32>  H        4.0537450000     0.8824400000     0.9674640000
| 33> *
| 34>
| 35>                          ****END OF INPUT****
 Total Charge           Charge          ....    0
 Multiplicity           Mult            ....    1
 Number of Electrons    NEL             ....   58
 Basis Dimension        Dim             ....  168

MULLIKEN ATOMIC CHARGES
-----------------------
   0 C :    0.007153
   1 C :   -0.013055
   2 C :   -0.126029
   3 C :    0.061820
   4 C :    0.063466
   5 O :   -0.337789
   6 C :    0.143005
   7 H :    0.013958
   8 H :    0.021170
   9 H :    0.023140
  10 H :    0.007681
  11 H :    0.003677
  12 H :    0.011538
  13 H :    0.014500
  14 H :    0.019506
  15 H :    0.010494
  16 H :    0.013444
  17 H :    0.018948
  18 H :    0.032124
  19 H :    0.009946
  20 H :    0.001301
Sum of atomic charges:    0.0000000

LOEWDIN ATOMIC CHARGES
----------------------
   0 C :   -0.067390
   1 C :   -0.052752
   2 C :    0.020925
   3 C :   -0.064257
   4 C :   -0.055645
   5 O :   -0.144255
   6 C :    0.044993
   7 H :    0.026897
   8 H :    0.025296
   9 H :    0.026837
  10 H :    0.027258
  11 H :    0.020144
  12 H :    0.030036
  13 H :    0.022228
  14 H :    0.028375
  15 H :    0.026414
  16 H :    0.027626
  17 H :    0.026949
  18 H :    0.024465
  19 H :    0.004255
  20 H :    0.001601

  Mayer bond orders larger than 0.1
B(  0-C ,  1-C ) :   1.1156 B(  0-C ,  7-H ) :   0.9560 B(  0-C ,  8-H ) :   0.9600
B(  0-C ,  9-H ) :   0.9578 B(  1-C ,  2-C ) :   1.0221 B(  1-C , 10-H ) :   0.9265
B(  1-C , 11-H ) :   0.9231 B(  2-C ,  3-C ) :   1.0653 B(  2-C ,  4-C ) :   1.0490
B(  2-C ,  5-O ) :   1.0030 B(  3-C , 12-H ) :   0.9491 B(  3-C , 13-H ) :   0.9456
B(  3-C , 14-H ) :   0.9481 B(  4-C , 15-H ) :   0.9563 B(  4-C , 16-H ) :   0.9508
B(  4-C , 17-H ) :   0.9477 B(  5-O ,  6-C ) :   1.0233 B(  6-C , 18-H ) :   0.9750
B(  6-C , 19-H ) :   0.9542 B(  6-C , 20-H ) :   0.9477

FINAL SINGLE POINT ENERGY      -311.627740453951

DIPOLE MOMENT
-------------
                                X             Y             Z
Electronic contribution:      2.34434      -1.18662       0.39496
Nuclear contribution   :     -2.59993       1.46289      -0.19644
                        -----------------------------------------
Total Dipole Moment    :     -0.25558       0.27627       0.19852
                        -----------------------------------------
Magnitude (a.u.)       :      0.42551
Magnitude (Debye)      :      1.08155

                             ****ORCA TERMINATED NORMALLY****
TOTAL RUN TIME: 0 days 0 hours 0 minutes 9 seconds 392 msec
