                         Program Version 3.0.3 - RELEASE   -
|  1> ! RI PBE def2-SVP def2-SVP/J NBO PAL2
|  2> % maxcore 2000
|  3> % output
|  4>     # printlevel mini
|  5>     print[ P_Basis ] 0
|  6>     print[ P_SCFInfo ] 1
|  7>     print[ P_SCFIterInfo ] 1
|  8>     print[ P_OrbEn ] 0
|  9>     print[ P_Cartesian ] 0
| 10> end
| 11> *xyz 0 1
| 12>  C        1.8463820000    -0.4531720000     0.4770640000
| 13>  C        2.7399850000     0.2466910000    -0.5365430000
| 14>  C        3.0958600000    -0.5547150000    -1.7968300000
| 15>  C        2.0449740000    -0.5751250000    -2.8999730000
| 16>  C        0.7263720000    -1.2653960000    -2.5869520000
| 17>  O        3.4291010000    -1.8998340000    -1.5094210000
| 18>  C        4.6422430000    -2.0558390000    -0.8295620000
| 19>  H        1.7507610000     0.1549250000     1.3797750000
| 20>  H        2.2635310000    -1.4196740000     0.7662980000
| 21>  H        0.8427910000    -0.6370190000     0.0948720000
| 22>  H        3.6729980000     0.5289160000    -0.0368800000
| 23>  H        2.2867380000     1.1904850000    -0.8582710000
| 24>  H        3.9854150000    -0.0700230000    -2.2342160000
| 25>  H        1.8625510000     0.4603140000    -3.2069150000
| 26>  H        2.5085310000    -1.0728180000    -3.7577140000
| 27>  H        0.1180120000    -0.6941190000    -1.8839310000
| 28>  H        0.8947000000    -2.2578720000    -2.1653860000
| 29>  H        0.1378140000    -1.3841610000    -3.4997850000
| 30>  H        4.6114560000    -1.6459190000     0.1884720000
| 31>  H        5.4691270000    -1.5724310000    -1.3697290000
| 32>  H        4.8442480000    -3.1258150000    -0.7646920000
| 33> *
| 34>
| 35>                          ****END OF INPUT****
 Total Charge           Charge          ....    0
 Multiplicity           Mult            ....    1
 Number of Electrons    NEL             ....   58
 Basis Dimension        Dim             ....  168

MULLIKEN ATOMIC CHARGES
-----------------------
   0 C :   -0.002973
   1 C :   -0.036308
   2 C :    0.079538
   3 C :    0.012295
   4 C :   -0.035952
   5 O :   -0.339170
   6 C :    0.154408
   7 H :    0.017997
   8 H :    0.017058
   9 H :    0.015990
  10 H :    0.008247
  11 H :    0.004488
  12 H :   -0.019294
  13 H :    0.003189
  14 H :    0.007986
  15 H :    0.025933
  16 H :    0.035181
  17 H :    0.017207
  18 H :    0.006746
  19 H :   -0.002319
  20 H :    0.029753
Sum of atomic charges:   -0.0000000

LOEWDIN ATOMIC CHARGES
----------------------
   0 C :   -0.067664
   1 C :   -0.061670
   2 C :    0.047820
   3 C :   -0.047784
   4 C :   -0.070423
   5 O :   -0.143733
   6 C :    0.049892
   7 H :    0.026964
   8 H :    0.025857
   9 H :    0.024043
  10 H :    0.022864
  11 H :    0.028177
  12 H :    0.006019
  13 H :    0.025668
  14 H :    0.026978
  15 H :    0.021239
  16 H :    0.029744
  17 H :    0.027309
  18 H :    0.002079
  19 H :    0.003850
  20 H :    0.022772

  Mayer bond orders larger than 0.1
B(  0-C ,  1-C ) :   1.1219 B(  0-C ,  7-H ) :   0.9577 B(  0-C ,  8-H ) :   0.9555
B(  0-C ,  9-H ) :   0.9591 B(  1-C ,  2-C ) :   1.0422 B(  1-C , 10-H ) :   0.9283
B(  1-C , 11-H ) :   0.9250 B(  2-C ,  3-C ) :   1.0744 B(  2-C ,  5-O ) :   1.0120
B(  2-C , 12-H ) :   0.9027 B(  3-C ,  4-C ) :   1.1308 B(  3-C , 13-H ) :   0.9247
B(  3-C , 14-H ) :   0.9255 B(  4-C , 15-H ) :   0.9604 B(  4-C , 16-H ) :   0.9604
B(  4-C , 17-H ) :   0.9551 B(  5-O ,  6-C ) :   1.0245 B(  6-C , 18-H ) :   0.9512
B(  6-C , 19-H ) :   0.9516 B(  6-C , 20-H ) :   0.9758

FINAL SINGLE POINT ENERGY      -311.623457145861

DIPOLE MOMENT
-------------
                                X             Y             Z
Electronic contribution:      2.09740      -1.45406      -1.57921
Nuclear contribution   :     -1.84627       1.74895       1.69304
                        -----------------------------------------
Total Dipole Moment    :      0.25113       0.29489       0.11383
                        -----------------------------------------
Magnitude (a.u.)       :      0.40371
Magnitude (Debye)      :      1.02616

                             ****ORCA TERMINATED NORMALLY****
TOTAL RUN TIME: 0 days 0 hours 0 minutes 9 seconds 235 msec
