                         Program Version 3.0.3 - RELEASE   -
|  1> ! RI PBE def2-SVP def2-SVP/J NBO PAL2
|  2> % maxcore 2000
|  3> % output
|  4>     # printlevel mini
|  5>     print[ P_Basis ] 0
|  6>     print[ P_SCFInfo ] 1
|  7>     print[ P_SCFIterInfo ] 1
|  8>     print[ P_OrbEn ] 0
|  9>     print[ P_Cartesian ] 0
| 10> end
| 11> *xyz 0 1
| 12>  C        0.9622620000    -0.0352290000    -0.0853620000
| 13>  C        2.4741630000    -0.1351160000     0.0998300000
| 14>  C        2.9485720000     0.5039020000     1.3166930000
| 15>  C        3.3233690000     1.0275020000     2.3319040000
| 16>  C        3.7812760000     1.6841300000     3.5433060000
| 17>  O        3.9900940000     0.7439540000     4.5689900000
| 18>  C        4.4319910000     1.3579210000     5.7481840000
| 19>  H        0.6572480000    -0.5308740000    -1.0094480000
| 20>  H        0.6450900000     1.0078560000    -0.1345240000
| 21>  H        0.4380680000    -0.5068230000     0.7474310000
| 22>  H        2.9857200000     0.3125610000    -0.7591310000
| 23>  H        2.7785090000    -1.1871850000     0.1172570000
| 24>  H        3.0374470000     2.4328570000     3.8604940000
| 25>  H        4.7144470000     2.2321650000     3.3349180000
| 26>  H        4.5713120000     0.5730910000     6.4913320000
| 27>  H        3.6971160000     2.0819610000     6.1283570000
| 28>  H        5.3874160000     1.8812260000     5.5995680000
| 29> *
| 30>
| 31>                          ****END OF INPUT****
 Total Charge           Charge          ....    0
 Multiplicity           Mult            ....    1
 Number of Electrons    NEL             ....   54
 Basis Dimension        Dim             ....  148

MULLIKEN ATOMIC CHARGES
-----------------------
   0 C :   -0.033617
   1 C :    0.044882
   2 C :   -0.157549
   3 C :   -0.118276
   4 C :    0.219609
   5 O :   -0.336861
   6 C :    0.145363
   7 H :    0.020948
   8 H :    0.031584
   9 H :    0.038456
  10 H :    0.032310
  11 H :    0.039486
  12 H :    0.014605
  13 H :    0.013611
  14 H :    0.037658
  15 H :    0.005762
  16 H :    0.002029
Sum of atomic charges:   -0.0000000

LOEWDIN ATOMIC CHARGES
----------------------
   0 C :   -0.054443
   1 C :   -0.050619
   2 C :   -0.042120
   3 C :   -0.074563
   4 C :    0.052498
   5 O :   -0.144406
   6 C :    0.047472
   7 H :    0.027276
   8 H :    0.029369
   9 H :    0.031666
  10 H :    0.046856
  11 H :    0.049680
  12 H :    0.023106
  13 H :    0.023114
  14 H :    0.025597
  15 H :    0.004947
  16 H :    0.004569

  Mayer bond orders larger than 0.1
B(  0-C ,  1-C ) :   1.1028 B(  0-C ,  7-H ) :   0.9594 B(  0-C ,  8-H ) :   0.9710
B(  0-C ,  9-H ) :   0.9708 B(  1-C ,  2-C ) :   1.0844 B(  1-C , 10-H ) :   0.9007
B(  1-C , 11-H ) :   0.9011 B(  2-C ,  3-C ) :   2.6490 B(  3-C ,  4-C ) :   1.0093
B(  4-C ,  5-O ) :   1.0566 B(  4-C , 12-H ) :   0.9029 B(  4-C , 13-H ) :   0.9031
B(  5-O ,  6-C ) :   1.0212 B(  6-C , 14-H ) :   0.9762 B(  6-C , 15-H ) :   0.9541
B(  6-C , 16-H ) :   0.9528

FINAL SINGLE POINT ENERGY      -309.162724988814

DIPOLE MOMENT
-------------
                                X             Y             Z
Electronic contribution:      2.31414      -0.44026       1.21478
Nuclear contribution   :     -2.32726       0.79126      -1.31144
                        -----------------------------------------
Total Dipole Moment    :     -0.01312       0.35100      -0.09666
                        -----------------------------------------
Magnitude (a.u.)       :      0.36431
Magnitude (Debye)      :      0.92599

                             ****ORCA TERMINATED NORMALLY****
TOTAL RUN TIME: 0 days 0 hours 0 minutes 6 seconds 874 msec
