                         Program Version 3.0.3 - RELEASE   -
|  1> ! RI PBE def2-SVP def2-SVP/J NBO PAL2
|  2> % maxcore 2000
|  3> % output
|  4>     # printlevel mini
|  5>     print[ P_Basis ] 0
|  6>     print[ P_SCFInfo ] 1
|  7>     print[ P_SCFIterInfo ] 1
|  8>     print[ P_OrbEn ] 0
|  9>     print[ P_Cartesian ] 0
| 10> end
| 11> *xyz 0 1
| 12>  C        0.7018170000    -0.2252030000    -0.1544570000
| 13>  C        2.2098950000    -0.1349990000     0.0033490000
| 14>  C        2.8413660000     0.8993020000    -0.9251990000
| 15>  C        4.3195420000     1.0316650000    -0.7504720000
| 16>  C        5.1842990000     0.7699910000    -1.7282930000
| 17>  O        6.5307130000     0.8412130000    -1.6968040000
| 18>  C        7.1120310000     1.2372990000    -0.4796790000
| 19>  H        0.2717090000    -0.9713870000     0.5175230000
| 20>  H        0.4283000000    -0.5024820000    -1.1765470000
| 21>  H        0.2236170000     0.7339100000     0.0644350000
| 22>  H        2.6671650000    -1.1109900000    -0.1903740000
| 23>  H        2.4586730000     0.1154180000     1.0410300000
| 24>  H        2.3578350000     1.8687030000    -0.7442650000
| 25>  H        2.6160160000     0.6381450000    -1.9655470000
| 26>  H        4.6733270000     1.3433980000     0.2276170000
| 27>  H        4.8488500000     0.4551080000    -2.7120000000
| 28>  H        8.1897230000     1.2395990000    -0.6352290000
| 29>  H        6.8602640000     0.5375650000     0.3254110000
| 30>  H        6.7819380000     2.2420240000    -0.1919090000
| 31> *
| 32>
| 33>                          ****END OF INPUT****
 Total Charge           Charge          ....    0
 Multiplicity           Mult            ....    1
 Number of Electrons    NEL             ....   56
 Basis Dimension        Dim             ....  158

MULLIKEN ATOMIC CHARGES
-----------------------
   0 C :   -0.002286
   1 C :   -0.058586
   2 C :    0.048840
   3 C :   -0.133038
   4 C :    0.126620
   5 O :   -0.267008
   6 C :    0.124723
   7 H :    0.019923
   8 H :    0.014972
   9 H :    0.013234
  10 H :    0.009874
  11 H :    0.008347
  12 H :    0.009814
  13 H :   -0.000464
  14 H :   -0.009892
  15 H :   -0.000939
  16 H :    0.042041
  17 H :    0.028199
  18 H :    0.025627
Sum of atomic charges:   -0.0000000

LOEWDIN ATOMIC CHARGES
----------------------
   0 C :   -0.066969
   1 C :   -0.045962
   2 C :   -0.035627
   3 C :   -0.119874
   4 C :    0.017798
   5 O :   -0.071507
   6 C :    0.057188
   7 H :    0.026358
   8 H :    0.023943
   9 H :    0.023398
  10 H :    0.022490
  11 H :    0.020784
  12 H :    0.026680
  13 H :    0.025055
  14 H :    0.019669
  15 H :    0.019527
  16 H :    0.027159
  17 H :    0.014961
  18 H :    0.014927

  Mayer bond orders larger than 0.1
B(  0-C ,  1-C ) :   1.1142 B(  0-C ,  7-H ) :   0.9626 B(  0-C ,  8-H ) :   0.9653
B(  0-C ,  9-H ) :   0.9640 B(  1-C ,  2-C ) :   1.0711 B(  1-C , 10-H ) :   0.9404
B(  1-C , 11-H ) :   0.9427 B(  2-C ,  3-C ) :   1.0610 B(  2-C , 12-H ) :   0.9163
B(  2-C , 13-H ) :   0.9329 B(  3-C ,  4-C ) :   1.7742 B(  3-C , 14-H ) :   0.9516
B(  4-C ,  5-O ) :   1.1512 B(  4-C , 15-H ) :   0.9672 B(  5-O ,  6-C ) :   0.9955
B(  6-C , 16-H ) :   0.9727 B(  6-C , 17-H ) :   0.9579 B(  6-C , 18-H ) :   0.9566

FINAL SINGLE POINT ENERGY      -310.413816303460

DIPOLE MOMENT
-------------
                                X             Y             Z
Electronic contribution:      7.03373       1.00845      -3.63101
Nuclear contribution   :     -6.95174      -0.90501       3.99809
                        -----------------------------------------
Total Dipole Moment    :      0.08199       0.10344       0.36708
                        -----------------------------------------
Magnitude (a.u.)       :      0.39009
Magnitude (Debye)      :      0.99153

                             ****ORCA TERMINATED NORMALLY****
TOTAL RUN TIME: 0 days 0 hours 0 minutes 7 seconds 959 msec
