                         Program Version 3.0.3 - RELEASE   -
|  1> ! RI PBE def2-SVP def2-SVP/J NBO PAL2
|  2> % maxcore 2000
|  3> % output
|  4>     # printlevel mini
|  5>     print[ P_Basis ] 0
|  6>     print[ P_SCFInfo ] 1
|  7>     print[ P_SCFIterInfo ] 1
|  8>     print[ P_OrbEn ] 0
|  9>     print[ P_Cartesian ] 0
| 10> end
| 11> *xyz 0 1
| 12>  C        0.8079030000    -0.2353370000    -0.2016620000
| 13>  C        2.1619370000     0.4524430000    -0.2114910000
| 14>  C        3.1323520000    -0.1635620000     0.7935100000
| 15>  C        4.4687410000     0.5052080000     0.8171740000
| 16>  C        5.6074850000    -0.0804820000     0.4415980000
| 17>  O        4.3563630000     1.7787490000     1.2607110000
| 18>  C        5.5318210000     2.5476040000     1.3225530000
| 19>  H        0.1272170000     0.2144020000    -0.9280390000
| 20>  H        0.3363010000    -0.1652690000     0.7827180000
| 21>  H        0.9002350000    -1.2973050000    -0.4471290000
| 22>  H        2.0428400000     1.5158410000     0.0132670000
| 23>  H        2.6035030000     0.3937920000    -1.2119320000
| 24>  H        3.2763460000    -1.2236070000     0.5707620000
| 25>  H        2.6951870000    -0.1011210000     1.7973620000
| 26>  H        5.5841200000    -1.1073750000     0.1053700000
| 27>  H        6.5661720000     0.4182640000     0.4553380000
| 28>  H        5.2414140000     3.5286660000     1.6954390000
| 29>  H        5.9883910000     2.6528720000     0.3324100000
| 30>  H        6.2621410000     2.0989060000     2.0047310000
| 31> *
| 32>
| 33>                          ****END OF INPUT****
 Total Charge           Charge          ....    0
 Multiplicity           Mult            ....    1
 Number of Electrons    NEL             ....   56
 Basis Dimension        Dim             ....  158

MULLIKEN ATOMIC CHARGES
-----------------------
   0 C :   -0.010426
   1 C :   -0.066969
   2 C :    0.084843
   3 C :    0.022741
   4 C :   -0.109899
   5 O :   -0.272799
   6 C :    0.136806
   7 H :    0.022880
   8 H :    0.018984
   9 H :    0.017193
  10 H :    0.023938
  11 H :    0.012339
  12 H :   -0.002621
  13 H :    0.016384
  14 H :    0.008690
  15 H :    0.006223
  16 H :    0.034858
  17 H :    0.026598
  18 H :    0.030235
Sum of atomic charges:   -0.0000000

LOEWDIN ATOMIC CHARGES
----------------------
   0 C :   -0.068997
   1 C :   -0.042530
   2 C :   -0.039807
   3 C :    0.029090
   4 C :   -0.162909
   5 O :   -0.068750
   6 C :    0.060588
   7 H :    0.027753
   8 H :    0.024912
   9 H :    0.024352
  10 H :    0.025279
  11 H :    0.024387
  12 H :    0.031175
  13 H :    0.033112
  14 H :    0.026585
  15 H :    0.018310
  16 H :    0.025752
  17 H :    0.015543
  18 H :    0.016155

  Mayer bond orders larger than 0.1
B(  0-C ,  1-C ) :   1.1225 B(  0-C ,  7-H ) :   0.9606 B(  0-C ,  8-H ) :   0.9642
B(  0-C ,  9-H ) :   0.9618 B(  1-C ,  2-C ) :   1.0858 B(  1-C , 10-H ) :   0.9357
B(  1-C , 11-H ) :   0.9427 B(  2-C ,  3-C ) :   1.0503 B(  2-C , 12-H ) :   0.9173
B(  2-C , 13-H ) :   0.9079 B(  3-C ,  4-C ) :   1.8423 B(  3-C ,  5-O ) :   1.1445
B(  4-C , 14-H ) :   0.9196 B(  4-C , 15-H ) :   0.9402 B(  5-O ,  6-C ) :   0.9873
B(  6-C , 16-H ) :   0.9722 B(  6-C , 17-H ) :   0.9582 B(  6-C , 18-H ) :   0.9594

FINAL SINGLE POINT ENERGY      -310.418250438098

DIPOLE MOMENT
-------------
                                X             Y             Z
Electronic contribution:      2.94929       1.77999       2.00327
Nuclear contribution   :     -2.79967      -1.55325      -1.99101
                        -----------------------------------------
Total Dipole Moment    :      0.14962       0.22675       0.01226
                        -----------------------------------------
Magnitude (a.u.)       :      0.27194
Magnitude (Debye)      :      0.69122

                             ****ORCA TERMINATED NORMALLY****
TOTAL RUN TIME: 0 days 0 hours 0 minutes 8 seconds 671 msec
