                         Program Version 3.0.3 - RELEASE   -
|  1> ! RI PBE def2-SVP def2-SVP/J NBO PAL2
|  2> % maxcore 2000
|  3> % output
|  4>     # printlevel mini
|  5>     print[ P_Basis ] 0
|  6>     print[ P_SCFInfo ] 1
|  7>     print[ P_SCFIterInfo ] 1
|  8>     print[ P_OrbEn ] 0
|  9>     print[ P_Cartesian ] 0
| 10> end
| 11> *xyz 0 1
| 12>  C        1.4343160000     1.8040450000     1.2836420000
| 13>  C        2.9175880000     1.8836080000     0.9648010000
| 14>  C        3.3482270000     0.8718730000    -0.0843410000
| 15>  C        4.8210440000     0.9410820000    -0.4437320000
| 16>  C        5.2259110000    -0.1792180000    -1.3870290000
| 17>  O        5.0513080000     2.2166910000    -1.0149160000
| 18>  C        6.3943540000     2.6083620000    -1.0431840000
| 19>  H        1.1470940000     2.5381020000     2.0401030000
| 20>  H        1.1600280000     0.8144720000     1.6612300000
| 21>  H        0.8295980000     1.9938700000     0.3922620000
| 22>  H        3.4993720000     1.7218890000     1.8802650000
| 23>  H        3.1707580000     2.8871960000     0.6129020000
| 24>  H        2.7667870000     1.0190730000    -1.0026310000
| 25>  H        3.1259770000    -0.1424260000     0.2663690000
| 26>  H        5.4156960000     0.8626560000     0.4827550000
| 27>  H        4.6421550000    -0.1233180000    -2.3093400000
| 28>  H        5.0464950000    -1.1518080000    -0.9228000000
| 29>  H        6.2849340000    -0.1291370000    -1.6476940000
| 30>  H        6.4245820000     3.6364800000    -1.4062880000
| 31>  H        7.0020810000     1.9879510000    -1.7143110000
| 32>  H        6.8439850000     2.5754480000    -0.0404530000
| 33> *
| 34>
| 35>                          ****END OF INPUT****
 Total Charge           Charge          ....    0
 Multiplicity           Mult            ....    1
 Number of Electrons    NEL             ....   58
 Basis Dimension        Dim             ....  168

MULLIKEN ATOMIC CHARGES
-----------------------
   0 C :   -0.005766
   1 C :   -0.024878
   2 C :    0.004751
   3 C :    0.055388
   4 C :    0.038578
   5 O :   -0.342848
   6 C :    0.152265
   7 H :    0.018497
   8 H :    0.011632
   9 H :    0.016308
  10 H :   -0.001050
  11 H :    0.014221
  12 H :    0.005569
  13 H :   -0.002447
  14 H :   -0.022957
  15 H :    0.019579
  16 H :    0.012215
  17 H :    0.015888
  18 H :    0.028294
  19 H :    0.004689
  20 H :    0.002070
Sum of atomic charges:   -0.0000000

LOEWDIN ATOMIC CHARGES
----------------------
   0 C :   -0.066999
   1 C :   -0.045770
   2 C :   -0.045654
   3 C :    0.047381
   4 C :   -0.073069
   5 O :   -0.143952
   6 C :    0.047866
   7 H :    0.025655
   8 H :    0.021808
   9 H :    0.024416
  10 H :    0.020243
  11 H :    0.023696
  12 H :    0.025683
  13 H :    0.024294
  14 H :    0.002649
  15 H :    0.028829
  16 H :    0.029134
  17 H :    0.024139
  18 H :    0.022971
  19 H :    0.001929
  20 H :    0.004751

  Mayer bond orders larger than 0.1
B(  0-C ,  1-C ) :   1.1200 B(  0-C ,  7-H ) :   0.9621 B(  0-C ,  8-H ) :   0.9643
B(  0-C ,  9-H ) :   0.9639 B(  1-C ,  2-C ) :   1.0965 B(  1-C , 10-H ) :   0.9339
B(  1-C , 11-H ) :   0.9327 B(  2-C ,  3-C ) :   1.0494 B(  2-C , 12-H ) :   0.9211
B(  2-C , 13-H ) :   0.9297 B(  3-C ,  4-C ) :   1.0921 B(  3-C ,  5-O ) :   1.0022
B(  3-C , 14-H ) :   0.8993 B(  4-C , 15-H ) :   0.9501 B(  4-C , 16-H ) :   0.9502
B(  4-C , 17-H ) :   0.9486 B(  5-O ,  6-C ) :   1.0229 B(  6-C , 18-H ) :   0.9747
B(  6-C , 19-H ) :   0.9543 B(  6-C , 20-H ) :   0.9529

FINAL SINGLE POINT ENERGY      -311.628861228000

DIPOLE MOMENT
-------------
                                X             Y             Z
Electronic contribution:      1.60819       1.61788      -1.68126
Nuclear contribution   :     -1.26851      -1.83959       1.79129
                        -----------------------------------------
Total Dipole Moment    :      0.33967      -0.22171       0.11003
                        -----------------------------------------
Magnitude (a.u.)       :      0.42029
Magnitude (Debye)      :      1.06828

                             ****ORCA TERMINATED NORMALLY****
TOTAL RUN TIME: 0 days 0 hours 0 minutes 8 seconds 71 msec
