                         Program Version 3.0.3 - RELEASE   -
|  1> ! RI PBE def2-SVP def2-SVP/J NBO PAL2
|  2> % maxcore 2000
|  3> % output
|  4>     # printlevel mini
|  5>     print[ P_Basis ] 0
|  6>     print[ P_SCFInfo ] 1
|  7>     print[ P_SCFIterInfo ] 1
|  8>     print[ P_OrbEn ] 0
|  9>     print[ P_Cartesian ] 0
| 10> end
| 11> *xyz 0 1
| 12>  C        0.9846980000    -0.0930470000     0.0886080000
| 13>  C        2.4602240000    -0.0343770000    -0.0698340000
| 14>  C        3.1620750000     0.7311000000    -0.9131450000
| 15>  C        2.6046240000     1.7095890000    -1.8951360000
| 16>  C        4.6405480000     0.6462180000    -0.9223230000
| 17>  O        5.1646300000    -0.2312940000    -0.0431930000
| 18>  O        5.3433520000     1.3018230000    -1.6512500000
| 19>  H        0.7064790000     0.1491310000     1.1195680000
| 20>  H        0.6265160000    -1.1118720000    -0.0920680000
| 21>  H        0.4472140000     0.5805130000    -0.5769300000
| 22>  H        3.0253930000    -0.6948140000     0.5804970000
| 23>  H        1.5174110000     1.7480990000    -1.8637380000
| 24>  H        2.9157200000     1.4523970000    -2.9103710000
| 25>  H        2.9952310000     2.7112960000    -1.7011160000
| 26>  H        6.1220940000    -0.1773720000    -0.1624780000
| 27> *
| 28>
| 29>                          ****END OF INPUT****
 Total Charge           Charge          ....    0
 Multiplicity           Mult            ....    1
 Number of Electrons    NEL             ....   54
 Basis Dimension        Dim             ....  138

MULLIKEN ATOMIC CHARGES
-----------------------
   0 C :    0.056958
   1 C :   -0.099151
   2 C :   -0.181292
   3 C :    0.072532
   4 C :    0.101910
   5 O :   -0.138083
   6 O :   -0.181221
   7 H :    0.039257
   8 H :    0.039204
   9 H :    0.023235
  10 H :    0.013068
  11 H :    0.009606
  12 H :    0.040648
  13 H :    0.040210
  14 H :    0.163120
Sum of atomic charges:   -0.0000000

LOEWDIN ATOMIC CHARGES
----------------------
   0 C :   -0.063528
   1 C :   -0.001984
   2 C :   -0.087542
   3 C :   -0.054125
   4 C :    0.040711
   5 O :   -0.019053
   6 O :   -0.161767
   7 H :    0.044547
   8 H :    0.044507
   9 H :    0.030049
  10 H :    0.030009
  11 H :    0.027031
  12 H :    0.043676
  13 H :    0.043694
  14 H :    0.083775

  Mayer bond orders larger than 0.1
B(  0-C ,  1-C ) :   1.0932 B(  0-C ,  7-H ) :   0.9370 B(  0-C ,  8-H ) :   0.9378
B(  0-C ,  9-H ) :   0.9549 B(  1-C ,  2-C ) :   1.8262 B(  1-C , 10-H ) :   0.9307
B(  2-C ,  3-C ) :   1.1104 B(  2-C ,  4-C ) :   0.9709 B(  3-C , 11-H ) :   0.9437
B(  3-C , 12-H ) :   0.9376 B(  3-C , 13-H ) :   0.9369 B(  4-C ,  5-O ) :   1.2550
B(  4-C ,  6-O ) :   2.1025 B(  5-O , 14-H ) :   0.9472

FINAL SINGLE POINT ENERGY      -345.132760623957

DIPOLE MOMENT
-------------
                                X             Y             Z
Electronic contribution:      8.64167      -0.47639      -0.07443
Nuclear contribution   :     -9.19069       0.06762       0.53595
                        -----------------------------------------
Total Dipole Moment    :     -0.54902      -0.40877       0.46153
                        -----------------------------------------
Magnitude (a.u.)       :      0.82554
Magnitude (Debye)      :      2.09836

                             ****ORCA TERMINATED NORMALLY****
TOTAL RUN TIME: 0 days 0 hours 0 minutes 6 seconds 898 msec
