                         Program Version 3.0.3 - RELEASE   -
|  1> ! RI PBE def2-SVP def2-SVP/J NBO PAL2
|  2> % maxcore 2000
|  3> % output
|  4>     # printlevel mini
|  5>     print[ P_Basis ] 0
|  6>     print[ P_SCFInfo ] 1
|  7>     print[ P_SCFIterInfo ] 1
|  8>     print[ P_OrbEn ] 0
|  9>     print[ P_Cartesian ] 0
| 10> end
| 11> *xyz 0 1
| 12>  C        1.4969980000    -0.1148750000     0.3530210000
| 13>  C        2.4098780000     0.3979550000    -0.7071230000
| 14>  C        3.5755120000    -0.1054380000    -1.1020440000
| 15>  C        4.2507600000    -1.3258810000    -0.5520050000
| 16>  C        4.3376620000    -2.4321610000    -1.5714570000
| 17>  O        5.0776080000    -2.0751830000    -2.6366600000
| 18>  O        3.8218440000    -3.5111620000    -1.4758140000
| 19>  H        1.3540420000     0.6372800000     1.1353700000
| 20>  H        1.8553180000    -1.0298900000     0.8239540000
| 21>  H        0.5067490000    -0.3214510000    -0.0644290000
| 22>  H        2.0705500000     1.2987760000    -1.2140330000
| 23>  H        4.1079360000     0.3949940000    -1.9051800000
| 24>  H        5.2758130000    -1.0710570000    -0.2592260000
| 25>  H        3.7368960000    -1.7299540000     0.3169190000
| 26>  H        5.0683340000    -2.8284440000    -3.2436910000
| 27> *
| 28>
| 29>                          ****END OF INPUT****
 Total Charge           Charge          ....    0
 Multiplicity           Mult            ....    1
 Number of Electrons    NEL             ....   54
 Basis Dimension        Dim             ....  138

MULLIKEN ATOMIC CHARGES
-----------------------
   0 C :    0.041558
   1 C :   -0.103095
   2 C :   -0.096816
   3 C :    0.105918
   4 C :    0.033201
   5 O :   -0.141147
   6 O :   -0.174259
   7 H :    0.038722
   8 H :    0.019201
   9 H :    0.035853
  10 H :    0.003063
  11 H :    0.008708
  12 H :    0.043013
  13 H :    0.020293
  14 H :    0.165787
Sum of atomic charges:   -0.0000000

LOEWDIN ATOMIC CHARGES
----------------------
   0 C :   -0.067625
   1 C :   -0.040430
   2 C :   -0.049065
   3 C :   -0.061191
   4 C :    0.043965
   5 O :   -0.017966
   6 O :   -0.150722
   7 H :    0.039945
   8 H :    0.029672
   9 H :    0.041323
  10 H :    0.028083
  11 H :    0.027938
  12 H :    0.052296
  13 H :    0.038765
  14 H :    0.085013

  Mayer bond orders larger than 0.1
B(  0-C ,  1-C ) :   1.1018 B(  0-C ,  7-H ) :   0.9450 B(  0-C ,  8-H ) :   0.9529
B(  0-C ,  9-H ) :   0.9420 B(  1-C ,  2-C ) :   1.9535 B(  1-C , 10-H ) :   0.9466
B(  2-C ,  3-C ) :   1.0450 B(  2-C , 11-H ) :   0.9473 B(  3-C ,  4-C ) :   0.9680
B(  3-C , 12-H ) :   0.8936 B(  3-C , 13-H ) :   0.9182 B(  4-C ,  5-O ) :   1.2364
B(  4-C ,  6-O ) :   2.1341 B(  5-O , 14-H ) :   0.9501

FINAL SINGLE POINT ENERGY      -345.122282747344

DIPOLE MOMENT
-------------
                                X             Y             Z
Electronic contribution:      4.59245      -5.38642      -4.41608
Nuclear contribution   :     -4.43738       5.87102       4.32386
                        -----------------------------------------
Total Dipole Moment    :      0.15507       0.48460      -0.09223
                        -----------------------------------------
Magnitude (a.u.)       :      0.51709
Magnitude (Debye)      :      1.31434

                             ****ORCA TERMINATED NORMALLY****
TOTAL RUN TIME: 0 days 0 hours 0 minutes 6 seconds 863 msec
