                         Program Version 3.0.3 - RELEASE   -
|  1> ! RI PBE def2-SVP def2-SVP/J NBO PAL2
|  2> % maxcore 2000
|  3> % output
|  4>     # printlevel mini
|  5>     print[ P_Basis ] 0
|  6>     print[ P_SCFInfo ] 1
|  7>     print[ P_SCFIterInfo ] 1
|  8>     print[ P_OrbEn ] 0
|  9>     print[ P_Cartesian ] 0
| 10> end
| 11> *xyz 0 1
| 12>  C        1.5966890000    -0.3789820000    -0.4902240000
| 13>  C        2.5474960000     0.0571090000     0.5780080000
| 14>  C        2.6075680000    -0.5295700000     1.7685950000
| 15>  C        3.4532180000     1.2243330000     0.2587890000
| 16>  C        4.6449810000     0.8151000000    -0.5693990000
| 17>  O        4.3239820000     0.5947840000    -1.8584790000
| 18>  O        5.7630780000     0.6856210000    -0.1550260000
| 19>  H        2.1264800000    -0.6506480000    -1.4067570000
| 20>  H        0.9147480000     0.4363990000    -0.7541730000
| 21>  H        1.0015830000    -1.2323100000    -0.1635610000
| 22>  H        1.9647480000    -1.3676600000     2.0141530000
| 23>  H        3.2995140000    -0.1953560000     2.5333410000
| 24>  H        3.8457380000     1.6600380000     1.1758430000
| 25>  H        2.8954560000     1.9882860000    -0.2917530000
| 26>  H        5.1396130000     0.3173560000    -2.2996570000
| 27> *
| 28>
| 29>                          ****END OF INPUT****
 Total Charge           Charge          ....    0
 Multiplicity           Mult            ....    1
 Number of Electrons    NEL             ....   54
 Basis Dimension        Dim             ....  138

MULLIKEN ATOMIC CHARGES
-----------------------
   0 C :    0.081331
   1 C :   -0.236592
   2 C :   -0.015814
   3 C :    0.114557
   4 C :    0.046424
   5 O :   -0.141777
   6 O :   -0.175463
   7 H :    0.033939
   8 H :    0.027196
   9 H :    0.015367
  10 H :    0.012518
  11 H :    0.017983
  12 H :    0.021765
  13 H :    0.031314
  14 H :    0.167254
Sum of atomic charges:   -0.0000000

LOEWDIN ATOMIC CHARGES
----------------------
   0 C :   -0.057694
   1 C :   -0.029478
   2 C :   -0.066075
   3 C :   -0.051205
   4 C :    0.046341
   5 O :   -0.017476
   6 O :   -0.148800
   7 H :    0.034829
   8 H :    0.036994
   9 H :    0.031810
  10 H :    0.022459
  11 H :    0.024100
  12 H :    0.044944
  13 H :    0.043389
  14 H :    0.085864

  Mayer bond orders larger than 0.1
B(  0-C ,  1-C ) :   1.0841 B(  0-C ,  7-H ) :   0.9365 B(  0-C ,  8-H ) :   0.9399
B(  0-C ,  9-H ) :   0.9484 B(  1-C ,  2-C ) :   1.9931 B(  1-C ,  3-C ) :   1.0551
B(  2-C , 10-H ) :   0.9351 B(  2-C , 11-H ) :   0.9345 B(  3-C ,  4-C ) :   0.9665
B(  3-C , 12-H ) :   0.9092 B(  3-C , 13-H ) :   0.9022 B(  4-C ,  5-O ) :   1.2232
B(  4-C ,  6-O ) :   2.1337 B(  5-O , 14-H ) :   0.9477

FINAL SINGLE POINT ENERGY      -345.123121959268

DIPOLE MOMENT
-------------
                                X             Y             Z
Electronic contribution:      6.63773       1.78758      -2.15948
Nuclear contribution   :     -7.15013      -1.77226       1.69365
                        -----------------------------------------
Total Dipole Moment    :     -0.51240       0.01531      -0.46584
                        -----------------------------------------
Magnitude (a.u.)       :      0.69267
Magnitude (Debye)      :      1.76063

                             ****ORCA TERMINATED NORMALLY****
TOTAL RUN TIME: 0 days 0 hours 0 minutes 6 seconds 966 msec
