                         Program Version 3.0.3 - RELEASE   -
|  1> ! RI PBE def2-SVP def2-SVP/J NBO PAL2
|  2> % maxcore 2000
|  3> % output
|  4>     # printlevel mini
|  5>     print[ P_Basis ] 0
|  6>     print[ P_SCFInfo ] 1
|  7>     print[ P_SCFIterInfo ] 1
|  8>     print[ P_OrbEn ] 0
|  9>     print[ P_Cartesian ] 0
| 10> end
| 11> *xyz 0 1
| 12>  C        0.7563120000     0.0771900000    -0.1895820000
| 13>  C        2.2652960000     0.2178610000    -0.0127110000
| 14>  C        2.9302190000     0.6339460000    -1.2948940000
| 15>  C        3.8804060000    -0.0562680000    -1.9068250000
| 16>  C        2.5703420000     1.2724970000     1.0303120000
| 17>  O        3.5569690000     0.8960910000     1.8592970000
| 18>  O        2.0256060000     2.3395790000     1.1129470000
| 19>  H        0.5398260000    -0.6594760000    -0.9647270000
| 20>  H        0.3171570000     1.0326800000    -0.4799110000
| 21>  H        0.2803890000    -0.2448960000     0.7390800000
| 22>  H        2.7031910000    -0.7254190000     0.3210310000
| 23>  H        2.5718330000     1.5686830000    -1.7211900000
| 24>  H        4.2585080000    -0.9884300000    -1.4989680000
| 25>  H        4.3135820000     0.2856550000    -2.8395170000
| 26>  H        3.7116630000     1.6390980000     2.4603590000
| 27> *
| 28>
| 29>                          ****END OF INPUT****
 Total Charge           Charge          ....    0
 Multiplicity           Mult            ....    1
 Number of Electrons    NEL             ....   54
 Basis Dimension        Dim             ....  138

MULLIKEN ATOMIC CHARGES
-----------------------
   0 C :    0.030968
   1 C :   -0.068505
   2 C :   -0.048162
   3 C :   -0.015114
   4 C :    0.082121
   5 O :   -0.130152
   6 O :   -0.183521
   7 H :    0.027106
   8 H :    0.038763
   9 H :    0.026038
  10 H :    0.009881
  11 H :    0.016283
  12 H :    0.019494
  13 H :    0.029098
  14 H :    0.165700
Sum of atomic charges:   -0.0000000

LOEWDIN ATOMIC CHARGES
----------------------
   0 C :   -0.044937
   1 C :   -0.067739
   2 C :   -0.014656
   3 C :   -0.053326
   4 C :    0.049305
   5 O :   -0.009613
   6 O :   -0.155362
   7 H :    0.030812
   8 H :    0.032176
   9 H :    0.030801
  10 H :    0.034593
  11 H :    0.030620
  12 H :    0.024052
  13 H :    0.027843
  14 H :    0.085429

  Mayer bond orders larger than 0.1
B(  0-C ,  1-C ) :   1.0684 B(  0-C ,  7-H ) :   0.9614 B(  0-C ,  8-H ) :   0.9563
B(  0-C ,  9-H ) :   0.9605 B(  1-C ,  2-C ) :   1.0122 B(  1-C ,  4-C ) :   0.9083
B(  1-C , 10-H ) :   0.9017 B(  2-C ,  3-C ) :   2.0143 B(  2-C , 11-H ) :   0.9544
B(  3-C , 12-H ) :   0.9432 B(  3-C , 13-H ) :   0.9437 B(  4-C ,  5-O ) :   1.2746
B(  4-C ,  6-O ) :   2.1101 B(  5-O , 14-H ) :   0.9487

FINAL SINGLE POINT ENERGY      -345.118588738431

DIPOLE MOMENT
-------------
                                X             Y             Z
Electronic contribution:      2.00850       3.71578       4.88780
Nuclear contribution   :     -1.72913      -4.14228      -4.82453
                        -----------------------------------------
Total Dipole Moment    :      0.27937      -0.42650       0.06327
                        -----------------------------------------
Magnitude (a.u.)       :      0.51376
Magnitude (Debye)      :      1.30589

                             ****ORCA TERMINATED NORMALLY****
TOTAL RUN TIME: 0 days 0 hours 0 minutes 6 seconds 947 msec
