                         Program Version 3.0.3 - RELEASE   -
|  1> ! RI PBE def2-SVP def2-SVP/J NBO PAL2
|  2> % maxcore 2000
|  3> % output
|  4>     # printlevel mini
|  5>     print[ P_Basis ] 0
|  6>     print[ P_SCFInfo ] 1
|  7>     print[ P_SCFIterInfo ] 1
|  8>     print[ P_OrbEn ] 0
|  9>     print[ P_Cartesian ] 0
| 10> end
| 11> *xyz 0 1
| 12>  C        1.1218320000    -0.0020690000    -0.0966360000
| 13>  C        2.6093740000    -0.1547760000    -0.0376680000
| 14>  C        3.0731800000    -1.5698450000     0.0595880000
| 15>  C        3.3753170000     0.9456120000    -0.0753090000
| 16>  C        4.8325540000     1.1073900000    -0.0354420000
| 17>  O        5.5661440000    -0.0216150000     0.0535200000
| 18>  O        5.3637450000     2.1903980000    -0.0790240000
| 19>  H        0.7176150000    -0.5445150000    -0.9576000000
| 20>  H        0.8154270000     1.0413020000    -0.1672660000
| 21>  H        0.6586340000    -0.4434070000     0.7919370000
| 22>  H        2.6346220000    -2.0356720000     0.9484660000
| 23>  H        4.1516810000    -1.6709130000     0.1023540000
| 24>  H        2.6945550000    -2.1360720000    -0.7980110000
| 25>  H        2.8866070000     1.9109060000    -0.1473470000
| 26>  H        6.4871130000     0.2741650000     0.0678280000
| 27> *
| 28>
| 29>                          ****END OF INPUT****
 Total Charge           Charge          ....    0
 Multiplicity           Mult            ....    1
 Number of Electrons    NEL             ....   54
 Basis Dimension        Dim             ....  138

MULLIKEN ATOMIC CHARGES
-----------------------
   0 C :    0.045620
   1 C :   -0.169178
   2 C :    0.060564
   3 C :   -0.052721
   4 C :    0.088713
   5 O :   -0.139592
   6 O :   -0.190368
   7 H :    0.036170
   8 H :    0.023528
   9 H :    0.036335
  10 H :    0.028632
  11 H :    0.038387
  12 H :    0.031507
  13 H :    0.000278
  14 H :    0.162127
Sum of atomic charges:   -0.0000000

LOEWDIN ATOMIC CHARGES
----------------------
   0 C :   -0.050445
   1 C :    0.012562
   2 C :   -0.062566
   3 C :   -0.098297
   4 C :    0.033482
   5 O :   -0.018140
   6 O :   -0.163357
   7 H :    0.040488
   8 H :    0.032324
   9 H :    0.040465
  10 H :    0.041852
  11 H :    0.029476
  12 H :    0.042304
  13 H :    0.037839
  14 H :    0.082014

  Mayer bond orders larger than 0.1
B(  0-C ,  1-C ) :   1.0826 B(  0-C ,  7-H ) :   0.9438 B(  0-C ,  8-H ) :   0.9555
B(  0-C ,  9-H ) :   0.9438 B(  1-C ,  2-C ) :   1.1055 B(  1-C ,  3-C ) :   1.7352
B(  2-C , 10-H ) :   0.9332 B(  2-C , 11-H ) :   0.9316 B(  2-C , 12-H ) :   0.9338
B(  3-C ,  4-C ) :   1.0324 B(  3-C , 13-H ) :   0.9477 B(  4-C ,  5-O ) :   1.2265
B(  4-C ,  6-O ) :   2.0657 B(  5-O , 14-H ) :   0.9442

FINAL SINGLE POINT ENERGY      -345.131323794575

DIPOLE MOMENT
-------------
                                X             Y             Z
Electronic contribution:      7.89876       5.04129      -0.02571
Nuclear contribution   :     -8.42137      -5.98232       0.06033
                        -----------------------------------------
Total Dipole Moment    :     -0.52261      -0.94102       0.03462
                        -----------------------------------------
Magnitude (a.u.)       :      1.07696
Magnitude (Debye)      :      2.73742

                             ****ORCA TERMINATED NORMALLY****
TOTAL RUN TIME: 0 days 0 hours 0 minutes 6 seconds 924 msec
