                         Program Version 3.0.3 - RELEASE   -
|  1> ! RI PBE def2-SVP def2-SVP/J NBO PAL2
|  2> % maxcore 2000
|  3> % output
|  4>     # printlevel mini
|  5>     print[ P_Basis ] 0
|  6>     print[ P_SCFInfo ] 1
|  7>     print[ P_SCFIterInfo ] 1
|  8>     print[ P_OrbEn ] 0
|  9>     print[ P_Cartesian ] 0
| 10> end
| 11> *xyz 0 1
| 12>  C        0.9710560000    -0.1845870000     0.0084370000
| 13>  C        2.4975580000    -0.0628600000     0.0419580000
| 14>  C        3.0841890000    -0.5329910000    -1.2925750000
| 15>  C        2.9056060000     1.3775570000     0.3189910000
| 16>  C        3.0344950000    -0.9503140000     1.1517900000
| 17>  O        2.7115980000    -2.2462300000     0.9740680000
| 18>  O        3.6774020000    -0.5842360000     2.0983320000
| 19>  H        0.5731030000     0.4625650000    -0.7771180000
| 20>  H        0.5282900000     0.1280340000     0.9574300000
| 21>  H        0.6577470000    -1.2088640000    -0.1971580000
| 22>  H        2.7161220000     0.1092520000    -2.0965150000
| 23>  H        2.7962520000    -1.5614460000    -1.5138130000
| 24>  H        4.1754170000    -0.4733100000    -1.2880300000
| 25>  H        2.5240700000     2.0251420000    -0.4741240000
| 26>  H        3.9910800000     1.4809730000     0.3586910000
| 27>  H        2.5063030000     1.7257690000     1.2728400000
| 28>  H        3.0933230000    -2.7253540000     1.7225160000
| 29> *
| 30>
| 31>                          ****END OF INPUT****
 Total Charge           Charge          ....    0
 Multiplicity           Mult            ....    1
 Number of Electrons    NEL             ....   56
 Basis Dimension        Dim             ....  148

MULLIKEN ATOMIC CHARGES
-----------------------
   0 C :    0.067186
   1 C :   -0.378672
   2 C :    0.055457
   3 C :    0.088354
   4 C :    0.125065
   5 O :   -0.140560
   6 O :   -0.172150
   7 H :    0.017434
   8 H :    0.020260
   9 H :    0.028567
  10 H :    0.018248
  11 H :    0.027907
  12 H :    0.024246
  13 H :    0.009118
  14 H :    0.024135
  15 H :    0.019626
  16 H :    0.165776
Sum of atomic charges:   -0.0000000

LOEWDIN ATOMIC CHARGES
----------------------
   0 C :   -0.039961
   1 C :   -0.096250
   2 C :   -0.042549
   3 C :   -0.043875
   4 C :    0.054224
   5 O :   -0.014578
   6 O :   -0.151190
   7 H :    0.027425
   8 H :    0.027956
   9 H :    0.027138
  10 H :    0.027668
  11 H :    0.027365
  12 H :    0.028762
  13 H :    0.024605
  14 H :    0.029381
  15 H :    0.029063
  16 H :    0.084815

  Mayer bond orders larger than 0.1
B(  0-C ,  1-C ) :   1.0350 B(  0-C ,  7-H ) :   0.9586 B(  0-C ,  8-H ) :   0.9609
B(  0-C ,  9-H ) :   0.9575 B(  1-C ,  2-C ) :   1.0377 B(  1-C ,  3-C ) :   1.0695
B(  1-C ,  4-C ) :   0.8904 B(  2-C , 10-H ) :   0.9572 B(  2-C , 11-H ) :   0.9544
B(  2-C , 12-H ) :   0.9608 B(  3-C , 13-H ) :   0.9545 B(  3-C , 14-H ) :   0.9549
B(  3-C , 15-H ) :   0.9521 B(  4-C ,  5-O ) :   1.2465 B(  4-C ,  6-O ) :   2.1398
B(  5-O , 16-H ) :   0.9481

FINAL SINGLE POINT ENERGY      -346.344764643330

DIPOLE MOMENT
-------------
                                X             Y             Z
Electronic contribution:      2.93033      -4.79353       6.05207
Nuclear contribution   :     -3.23515       4.49046      -6.45754
                        -----------------------------------------
Total Dipole Moment    :     -0.30482      -0.30308      -0.40547
                        -----------------------------------------
Magnitude (a.u.)       :      0.59091
Magnitude (Debye)      :      1.50197

                             ****ORCA TERMINATED NORMALLY****
TOTAL RUN TIME: 0 days 0 hours 0 minutes 8 seconds 239 msec
