                         Program Version 3.0.3 - RELEASE   -
|  1> ! RI PBE def2-SVP def2-SVP/J NBO PAL2
|  2> % maxcore 2000
|  3> % output
|  4>     # printlevel mini
|  5>     print[ P_Basis ] 0
|  6>     print[ P_SCFInfo ] 1
|  7>     print[ P_SCFIterInfo ] 1
|  8>     print[ P_OrbEn ] 0
|  9>     print[ P_Cartesian ] 0
| 10> end
| 11> *xyz 0 1
| 12>  C        1.0069310000    -0.2326880000    -0.0505160000
| 13>  C        2.5250850000    -0.2820500000     0.0384480000
| 14>  C        3.0306150000    -1.7171490000     0.0015240000
| 15>  C        3.1398010000     0.5558820000    -1.0879170000
| 16>  C        4.6369760000     0.6365150000    -1.0335440000
| 17>  O        5.0709460000     1.2013370000     0.1105530000
| 18>  O        5.3950030000     0.2569610000    -1.8845730000
| 19>  H        0.5500710000    -0.8071400000     0.7588990000
| 20>  H        0.6574780000    -0.6577220000    -0.9966710000
| 21>  H        0.6344730000     0.7929210000     0.0133980000
| 22>  H        2.8305630000     0.1681720000     0.9890330000
| 23>  H        4.1187780000    -1.7696130000     0.0883690000
| 24>  H        2.6029730000    -2.2997570000     0.8209200000
| 25>  H        2.7500430000    -2.2043380000    -0.9373780000
| 26>  H        2.7487200000     1.5771720000    -1.0330840000
| 27>  H        2.8741850000     0.1417980000    -2.0624330000
| 28>  H        6.0370590000     1.2100980000     0.0608820000
| 29> *
| 30>
| 31>                          ****END OF INPUT****
 Total Charge           Charge          ....    0
 Multiplicity           Mult            ....    1
 Number of Electrons    NEL             ....   56
 Basis Dimension        Dim             ....  148

MULLIKEN ATOMIC CHARGES
-----------------------
   0 C :    0.039423
   1 C :   -0.187273
   2 C :    0.011281
   3 C :    0.076020
   4 C :    0.028088
   5 O :   -0.144259
   6 O :   -0.176671
   7 H :    0.018967
   8 H :    0.012150
   9 H :    0.014077
  10 H :    0.020784
  11 H :    0.033539
  12 H :    0.020177
  13 H :    0.019353
  14 H :    0.033213
  15 H :    0.018200
  16 H :    0.162932
Sum of atomic charges:   -0.0000000

LOEWDIN ATOMIC CHARGES
----------------------
   0 C :   -0.055540
   1 C :   -0.041849
   2 C :   -0.059838
   3 C :   -0.056400
   4 C :    0.038612
   5 O :   -0.020478
   6 O :   -0.153650
   7 H :    0.027119
   8 H :    0.024484
   9 H :    0.024827
  10 H :    0.026753
  11 H :    0.027698
  12 H :    0.027699
  13 H :    0.026955
  14 H :    0.043881
  15 H :    0.036815
  16 H :    0.082913

  Mayer bond orders larger than 0.1
B(  0-C ,  1-C ) :   1.0910 B(  0-C ,  7-H ) :   0.9604 B(  0-C ,  8-H ) :   0.9593
B(  0-C ,  9-H ) :   0.9600 B(  1-C ,  2-C ) :   1.0790 B(  1-C ,  3-C ) :   1.0564
B(  1-C , 10-H ) :   0.9112 B(  2-C , 11-H ) :   0.9561 B(  2-C , 12-H ) :   0.9593
B(  2-C , 13-H ) :   0.9603 B(  3-C ,  4-C ) :   0.9838 B(  3-C , 14-H ) :   0.9039
B(  3-C , 15-H ) :   0.9224 B(  4-C ,  5-O ) :   1.2277 B(  4-C ,  6-O ) :   2.1247
B(  5-O , 16-H ) :   0.9509

FINAL SINGLE POINT ENERGY      -346.344205310315

DIPOLE MOMENT
-------------
                                X             Y             Z
Electronic contribution:      9.00805       4.39658      -2.44592
Nuclear contribution   :     -9.33340      -4.23090       3.00630
                        -----------------------------------------
Total Dipole Moment    :     -0.32535       0.16568       0.56038
                        -----------------------------------------
Magnitude (a.u.)       :      0.66883
Magnitude (Debye)      :      1.70002

                             ****ORCA TERMINATED NORMALLY****
TOTAL RUN TIME: 0 days 0 hours 0 minutes 8 seconds 30 msec
