                         Program Version 3.0.3 - RELEASE   -
|  1> ! RI PBE def2-SVP def2-SVP/J NBO PAL2
|  2> % maxcore 2000
|  3> % output
|  4>     # printlevel mini
|  5>     print[ P_Basis ] 0
|  6>     print[ P_SCFInfo ] 1
|  7>     print[ P_SCFIterInfo ] 1
|  8>     print[ P_OrbEn ] 0
|  9>     print[ P_Cartesian ] 0
| 10> end
| 11> *xyz 0 1
| 12>  C        0.9068510000    -0.0763210000    -0.0909180000
| 13>  C        2.4426360000    -0.0760490000    -0.0124660000
| 14>  C        2.9613730000     1.2196330000     0.3919510000
| 15>  C        3.3669640000     2.3050550000     0.6995360000
| 16>  C        2.8847950000    -1.1813910000     0.9319360000
| 17>  O        2.8714100000    -2.3688410000     0.2995750000
| 18>  O        3.1690490000    -1.0592030000     2.0870710000
| 19>  H        0.5755500000     0.6895650000    -0.7920930000
| 20>  H        0.4786980000     0.1433950000     0.8878690000
| 21>  H        0.5455630000    -1.0476110000    -0.4311180000
| 22>  H        2.8372630000    -0.3239860000    -1.0031170000
| 23>  H        3.7339110000     3.2627520000     0.9839070000
| 24>  H        3.1108380000    -3.0358870000     0.9583660000
| 25> *
| 26>
| 27>                          ****END OF INPUT****
 Total Charge           Charge          ....    0
 Multiplicity           Mult            ....    1
 Number of Electrons    NEL             ....   52
 Basis Dimension        Dim             ....  128

MULLIKEN ATOMIC CHARGES
-----------------------
   0 C :    0.020795
   1 C :   -0.071095
   2 C :    0.421337
   3 C :   -0.498840
   4 C :    0.082042
   5 O :   -0.138570
   6 O :   -0.156846
   7 H :    0.045837
   8 H :    0.041624
   9 H :    0.033860
  10 H :    0.050744
  11 H :    0.000100
  12 H :    0.169015
Sum of atomic charges:    0.0000000

LOEWDIN ATOMIC CHARGES
----------------------
   0 C :   -0.031559
   1 C :   -0.076949
   2 C :   -0.012309
   3 C :   -0.068021
   4 C :    0.051920
   5 O :   -0.015399
   6 O :   -0.134578
   7 H :    0.036994
   8 H :    0.035857
   9 H :    0.031316
  10 H :    0.057932
  11 H :    0.036412
  12 H :    0.088385

  Mayer bond orders larger than 0.1
B(  0-C ,  1-C ) :   1.0621 B(  0-C ,  7-H ) :   0.9656 B(  0-C ,  8-H ) :   0.9622
B(  0-C ,  9-H ) :   0.9552 B(  1-C ,  2-C ) :   0.9775 B(  1-C ,  4-C ) :   0.8967
B(  1-C , 10-H ) :   0.8745 B(  2-C ,  3-C ) :   2.3321 B(  2-C , 11-H ) :  -0.1147
B(  3-C , 11-H ) :   1.1045 B(  4-C ,  5-O ) :   1.2480 B(  4-C ,  6-O ) :   2.1584
B(  5-O , 12-H ) :   0.9485

FINAL SINGLE POINT ENERGY      -343.871239276286

DIPOLE MOMENT
-------------
                                X             Y             Z
Electronic contribution:      3.97899      -1.70453       2.42264
Nuclear contribution   :     -4.26030       1.32060      -2.96608
                        -----------------------------------------
Total Dipole Moment    :     -0.28131      -0.38393      -0.54344
                        -----------------------------------------
Magnitude (a.u.)       :      0.72241
Magnitude (Debye)      :      1.83621

                             ****ORCA TERMINATED NORMALLY****
TOTAL RUN TIME: 0 days 0 hours 0 minutes 6 seconds 100 msec
