                         Program Version 3.0.3 - RELEASE   -
|  1> ! RI PBE def2-SVP def2-SVP/J NBO PAL2
|  2> % maxcore 2000
|  3> % output
|  4>     # printlevel mini
|  5>     print[ P_Basis ] 0
|  6>     print[ P_SCFInfo ] 1
|  7>     print[ P_SCFIterInfo ] 1
|  8>     print[ P_OrbEn ] 0
|  9>     print[ P_Cartesian ] 0
| 10> end
| 11> *xyz 0 1
| 12>  C        0.9565790000    -0.1017160000    -0.0553960000
| 13>  C        2.3957220000     0.0714270000    -0.0878180000
| 14>  C        3.5871670000     0.2117030000    -0.1308250000
| 15>  C        5.0243190000     0.3832710000    -0.1702310000
| 16>  C        5.6389950000     0.2000050000    -1.5405760000
| 17>  O        6.9717390000     0.3791600000    -1.4714370000
| 18>  O        5.0670620000    -0.0638950000    -2.5565050000
| 19>  H        0.6733350000    -0.9156730000     0.6164440000
| 20>  H        0.5751470000    -0.3389500000    -1.0515590000
| 21>  H        0.4585330000     0.8082580000     0.2881460000
| 22>  H        5.5250700000    -0.3193730000     0.5051780000
| 23>  H        5.3134400000     1.3793750000     0.1830710000
| 24>  H        7.3137920000     0.2519190000    -2.3671910000
| 25> *
| 26>
| 27>                          ****END OF INPUT****
 Total Charge           Charge          ....    0
 Multiplicity           Mult            ....    1
 Number of Electrons    NEL             ....   52
 Basis Dimension        Dim             ....  128

MULLIKEN ATOMIC CHARGES
-----------------------
   0 C :    0.049604
   1 C :   -0.215341
   2 C :   -0.082735
   3 C :    0.062263
   4 C :    0.045909
   5 O :   -0.143171
   6 O :   -0.155161
   7 H :    0.047156
   8 H :    0.053220
   9 H :    0.047705
  10 H :    0.064240
  11 H :    0.058768
  12 H :    0.167542
Sum of atomic charges:   -0.0000000

LOEWDIN ATOMIC CHARGES
----------------------
   0 C :   -0.067982
   1 C :   -0.048868
   2 C :   -0.069326
   3 C :   -0.075474
   4 C :    0.045876
   5 O :   -0.021675
   6 O :   -0.135686
   7 H :    0.050319
   8 H :    0.053855
   9 H :    0.050530
  10 H :    0.066277
  11 H :    0.065246
  12 H :    0.086908

  Mayer bond orders larger than 0.1
B(  0-C ,  1-C ) :   1.1371 B(  0-C ,  7-H ) :   0.9327 B(  0-C ,  8-H ) :   0.9305
B(  0-C ,  9-H ) :   0.9327 B(  1-C ,  2-C ) :   2.6273 B(  2-C ,  3-C ) :   1.0340
B(  3-C ,  4-C ) :   0.9302 B(  3-C , 10-H ) :   0.8833 B(  3-C , 11-H ) :   0.8835
B(  4-C ,  5-O ) :   1.2415 B(  4-C ,  6-O ) :   2.1642 B(  5-O , 12-H ) :   0.9484

FINAL SINGLE POINT ENERGY      -343.884689567774

DIPOLE MOMENT
-------------
                                X             Y             Z
Electronic contribution:      5.87263       0.15300      -3.05138
Nuclear contribution   :     -5.65059      -0.05435       3.42589
                        -----------------------------------------
Total Dipole Moment    :      0.22204       0.09865       0.37451
                        -----------------------------------------
Magnitude (a.u.)       :      0.44642
Magnitude (Debye)      :      1.13471

                             ****ORCA TERMINATED NORMALLY****
TOTAL RUN TIME: 0 days 0 hours 0 minutes 5 seconds 785 msec
