                         Program Version 3.0.3 - RELEASE   -
|  1> ! RI PBE def2-SVP def2-SVP/J NBO PAL2
|  2> % maxcore 2000
|  3> % output
|  4>     # printlevel mini
|  5>     print[ P_Basis ] 0
|  6>     print[ P_SCFInfo ] 1
|  7>     print[ P_SCFIterInfo ] 1
|  8>     print[ P_OrbEn ] 0
|  9>     print[ P_Cartesian ] 0
| 10> end
| 11> *xyz 0 1
| 12>  C        2.1993670000    -0.4238300000     1.3323400000
| 13>  C        3.0962150000     0.0759540000     0.2029400000
| 14>  C        3.1367620000    -0.8680100000    -0.9443450000
| 15>  C        4.2334530000    -1.4331270000    -1.4422400000
| 16>  C        4.1480210000    -2.3597650000    -2.5819240000
| 17>  O        5.3649760000    -2.8217040000    -2.9323760000
| 18>  O        3.1442530000    -2.6923650000    -3.1588470000
| 19>  H        2.1553670000     0.3058360000     2.1432450000
| 20>  H        2.5729480000    -1.3647740000     1.7416950000
| 21>  H        1.1796030000    -0.5952750000     0.9792410000
| 22>  H        4.1085740000     0.2607500000     0.5725930000
| 23>  H        2.7087270000     1.0377960000    -0.1556760000
| 24>  H        2.1871220000    -1.1263860000    -1.4111170000
| 25>  H        5.2190810000    -1.2352240000    -1.0353370000
| 26>  H        5.2227230000    -3.4177760000    -3.6805820000
| 27> *
| 28>
| 29>                          ****END OF INPUT****
 Total Charge           Charge          ....    0
 Multiplicity           Mult            ....    1
 Number of Electrons    NEL             ....   54
 Basis Dimension        Dim             ....  138

MULLIKEN ATOMIC CHARGES
-----------------------
   0 C :   -0.052767
   1 C :    0.048157
   2 C :   -0.032305
   3 C :   -0.062079
   4 C :    0.097566
   5 O :   -0.140724
   6 O :   -0.187082
   7 H :    0.034377
   8 H :    0.031548
   9 H :    0.032157
  10 H :    0.011569
  11 H :    0.033718
  12 H :    0.020806
  13 H :    0.003437
  14 H :    0.161622
Sum of atomic charges:   -0.0000000

LOEWDIN ATOMIC CHARGES
----------------------
   0 C :   -0.060096
   1 C :   -0.042699
   2 C :    0.034427
   3 C :   -0.088334
   4 C :    0.032940
   5 O :   -0.019038
   6 O :   -0.166024
   7 H :    0.031115
   8 H :    0.029387
   9 H :    0.029105
  10 H :    0.029886
  11 H :    0.042370
  12 H :    0.033389
  13 H :    0.030239
  14 H :    0.083332

  Mayer bond orders larger than 0.1
B(  0-C ,  1-C ) :   1.0940 B(  0-C ,  7-H ) :   0.9610 B(  0-C ,  8-H ) :   0.9696
B(  0-C ,  9-H ) :   0.9693 B(  1-C ,  2-C ) :   1.0636 B(  1-C , 10-H ) :   0.9338
B(  1-C , 11-H ) :   0.9100 B(  2-C ,  3-C ) :   1.8255 B(  2-C , 12-H ) :   0.9448
B(  3-C ,  4-C ) :   0.9758 B(  3-C , 13-H ) :   0.9549 B(  4-C ,  5-O ) :   1.2385
B(  4-C ,  6-O ) :   2.0977 B(  5-O , 14-H ) :   0.9496

FINAL SINGLE POINT ENERGY      -345.128702905213

DIPOLE MOMENT
-------------
                                X             Y             Z
Electronic contribution:      3.71974      -5.44916      -9.11567
Nuclear contribution   :     -3.45623       5.79547       9.61852
                        -----------------------------------------
Total Dipole Moment    :      0.26351       0.34631       0.50284
                        -----------------------------------------
Magnitude (a.u.)       :      0.66500
Magnitude (Debye)      :      1.69028

                             ****ORCA TERMINATED NORMALLY****
TOTAL RUN TIME: 0 days 0 hours 0 minutes 6 seconds 538 msec
