                         Program Version 3.0.3 - RELEASE   -
|  1> ! RI PBE def2-SVP def2-SVP/J NBO PAL2
|  2> % maxcore 2000
|  3> % output
|  4>     # printlevel mini
|  5>     print[ P_Basis ] 0
|  6>     print[ P_SCFInfo ] 1
|  7>     print[ P_SCFIterInfo ] 1
|  8>     print[ P_OrbEn ] 0
|  9>     print[ P_Cartesian ] 0
| 10> end
| 11> *xyz 0 1
| 12>  C        3.0706660000     0.9417670000     1.0627380000
| 13>  C        3.0226570000     0.0120740000    -0.1462790000
| 14>  C        3.4315650000     0.6866960000    -1.4205260000
| 15>  C        2.5800080000     1.0235830000    -2.3867430000
| 16>  C        4.8841310000     0.9634060000    -1.5672400000
| 17>  O        5.2026880000     1.6692970000    -2.6670500000
| 18>  O        5.7224180000     0.5905600000    -0.7858590000
| 19>  H        2.7695290000     0.4092170000     1.9674840000
| 20>  H        2.3966080000     1.7914170000     0.9297340000
| 21>  H        4.0803270000     1.3244610000     1.2192410000
| 22>  H        2.0114110000    -0.3830100000    -0.2720400000
| 23>  H        3.6874630000    -0.8378840000     0.0312450000
| 24>  H        1.5219110000     0.8036540000    -2.2939460000
| 25>  H        2.9126920000     1.5194770000    -3.2891750000
| 26>  H        6.1645240000     1.7649540000    -2.6516040000
| 27> *
| 28>
| 29>                          ****END OF INPUT****
 Total Charge           Charge          ....    0
 Multiplicity           Mult            ....    1
 Number of Electrons    NEL             ....   54
 Basis Dimension        Dim             ....  138

MULLIKEN ATOMIC CHARGES
-----------------------
   0 C :   -0.025561
   1 C :    0.069285
   2 C :   -0.199309
   3 C :    0.018909
   4 C :    0.117154
   5 O :   -0.132318
   6 O :   -0.178188
   7 H :    0.023387
   8 H :    0.019189
   9 H :    0.033895
  10 H :   -0.000928
  11 H :    0.030604
  12 H :    0.023672
  13 H :    0.034266
  14 H :    0.165940
Sum of atomic charges:    0.0000000

LOEWDIN ATOMIC CHARGES
----------------------
   0 C :   -0.058545
   1 C :   -0.032675
   2 C :   -0.066780
   3 C :   -0.009042
   4 C :    0.042869
   5 O :   -0.011604
   6 O :   -0.154409
   7 H :    0.028539
   8 H :    0.024411
   9 H :    0.028543
  10 H :    0.028378
  11 H :    0.038241
  12 H :    0.027069
  13 H :    0.029208
  14 H :    0.085797

  Mayer bond orders larger than 0.1
B(  0-C ,  1-C ) :   1.1017 B(  0-C ,  7-H ) :   0.9611 B(  0-C ,  8-H ) :   0.9653
B(  0-C ,  9-H ) :   0.9671 B(  1-C ,  2-C ) :   1.0742 B(  1-C , 10-H ) :   0.9181
B(  1-C , 11-H ) :   0.9120 B(  2-C ,  3-C ) :   1.9549 B(  2-C ,  4-C ) :   0.9480
B(  3-C , 12-H ) :   0.9256 B(  3-C , 13-H ) :   0.9246 B(  4-C ,  5-O ) :   1.2687
B(  4-C ,  6-O ) :   2.0791 B(  5-O , 14-H ) :   0.9468

FINAL SINGLE POINT ENERGY      -345.126057076919

DIPOLE MOMENT
-------------
                                X             Y             Z
Electronic contribution:      5.98388       0.64728      -4.75375
Nuclear contribution   :     -6.32376      -0.45473       4.37770
                        -----------------------------------------
Total Dipole Moment    :     -0.33988       0.19255      -0.37604
                        -----------------------------------------
Magnitude (a.u.)       :      0.54222
Magnitude (Debye)      :      1.37821

                             ****ORCA TERMINATED NORMALLY****
TOTAL RUN TIME: 0 days 0 hours 0 minutes 6 seconds 528 msec
