                         Program Version 3.0.3 - RELEASE   -
|  1> ! RI PBE def2-SVP def2-SVP/J NBO PAL2
|  2> % maxcore 2000
|  3> % output
|  4>     # printlevel mini
|  5>     print[ P_Basis ] 0
|  6>     print[ P_SCFInfo ] 1
|  7>     print[ P_SCFIterInfo ] 1
|  8>     print[ P_OrbEn ] 0
|  9>     print[ P_Cartesian ] 0
| 10> end
| 11> *xyz 0 1
| 12>  C        3.2918520000    -1.2972550000    -0.5644300000
| 13>  C        2.8029850000    -0.1844710000     0.3468160000
| 14>  C        3.2568950000     1.2040750000    -0.0834850000
| 15>  C        2.6103980000     2.3040670000     0.7614470000
| 16>  C        4.7548430000     1.3500330000     0.0304770000
| 17>  O        5.2499820000     2.2071190000    -0.8814710000
| 18>  O        5.4522160000     0.8150130000     0.8498860000
| 19>  H        2.9173690000    -2.2680710000    -0.2330270000
| 20>  H        4.3829450000    -1.3516870000    -0.5711870000
| 21>  H        2.9534480000    -1.1452870000    -1.5934740000
| 22>  H        3.1491930000    -0.3613350000     1.3692940000
| 23>  H        1.7085330000    -0.1843120000     0.3781590000
| 24>  H        2.9926140000     1.3718470000    -1.1326600000
| 25>  H        2.8662370000     2.1766870000     1.8159650000
| 26>  H        1.5236960000     2.2557410000     0.6665220000
| 27>  H        2.9360300000     3.2965450000     0.4444200000
| 28>  H        6.1988550000     2.2789690000    -0.7046600000
| 29> *
| 30>
| 31>                          ****END OF INPUT****
 Total Charge           Charge          ....    0
 Multiplicity           Mult            ....    1
 Number of Electrons    NEL             ....   56
 Basis Dimension        Dim             ....  148

MULLIKEN ATOMIC CHARGES
-----------------------
   0 C :   -0.008066
   1 C :   -0.008121
   2 C :   -0.125590
   3 C :    0.018249
   4 C :    0.069512
   5 O :   -0.135691
   6 O :   -0.183484
   7 H :    0.018408
   8 H :    0.035621
   9 H :    0.013218
  10 H :    0.020903
  11 H :    0.011128
  12 H :    0.015911
  13 H :    0.033167
  14 H :    0.033847
  15 H :    0.027674
  16 H :    0.163313
Sum of atomic charges:   -0.0000000

LOEWDIN ATOMIC CHARGES
----------------------
   0 C :   -0.067148
   1 C :   -0.037424
   2 C :   -0.069742
   3 C :   -0.046405
   4 C :    0.048607
   5 O :   -0.015299
   6 O :   -0.156050
   7 H :    0.028939
   8 H :    0.028244
   9 H :    0.023294
  10 H :    0.028790
  11 H :    0.025791
  12 H :    0.032930
  13 H :    0.031470
  14 H :    0.031059
  15 H :    0.029426
  16 H :    0.083520

  Mayer bond orders larger than 0.1
B(  0-C ,  1-C ) :   1.1166 B(  0-C ,  7-H ) :   0.9586 B(  0-C ,  8-H ) :   0.9639
B(  0-C ,  9-H ) :   0.9614 B(  1-C ,  2-C ) :   1.0656 B(  1-C , 10-H ) :   0.9214
B(  1-C , 11-H ) :   0.9346 B(  2-C ,  3-C ) :   1.0707 B(  2-C ,  4-C ) :   0.9243
B(  2-C , 12-H ) :   0.8991 B(  3-C , 13-H ) :   0.9602 B(  3-C , 14-H ) :   0.9622
B(  3-C , 15-H ) :   0.9571 B(  4-C ,  5-O ) :   1.2554 B(  4-C ,  6-O ) :   2.1050
B(  5-O , 16-H ) :   0.9489

FINAL SINGLE POINT ENERGY      -346.344604893997

DIPOLE MOMENT
-------------
                                X             Y             Z
Electronic contribution:      7.13135       3.34332      -0.22791
Nuclear contribution   :     -7.38620      -3.01762      -0.12576
                        -----------------------------------------
Total Dipole Moment    :     -0.25485       0.32571      -0.35367
                        -----------------------------------------
Magnitude (a.u.)       :      0.54416
Magnitude (Debye)      :      1.38315

                             ****ORCA TERMINATED NORMALLY****
TOTAL RUN TIME: 0 days 0 hours 0 minutes 8 seconds 74 msec
