                         Program Version 3.0.3 - RELEASE   -
|  1> ! RI PBE def2-SVP def2-SVP/J NBO PAL2
|  2> % maxcore 2000
|  3> % output
|  4>     # printlevel mini
|  5>     print[ P_Basis ] 0
|  6>     print[ P_SCFInfo ] 1
|  7>     print[ P_SCFIterInfo ] 1
|  8>     print[ P_OrbEn ] 0
|  9>     print[ P_Cartesian ] 0
| 10> end
| 11> *xyz 0 1
| 12>  C        0.9874650000    -0.0204010000    -0.3328240000
| 13>  C        2.4550920000    -0.0134720000     0.0871590000
| 14>  C        2.9274790000     1.2937770000     0.4999110000
| 15>  C        3.3010520000     2.3861770000     0.8387870000
| 16>  C        3.6886940000     3.7137950000     1.2316090000
| 17>  O        4.9753580000     3.7708620000     1.6114260000
| 18>  O        2.9587260000     4.6689380000     1.2259070000
| 19>  H        0.6863640000    -1.0258120000    -0.6324610000
| 20>  H        0.8209540000     0.6544700000    -1.1734840000
| 21>  H        0.3467520000     0.3008890000     0.4894560000
| 22>  H        3.0880800000    -0.3644070000    -0.7351480000
| 23>  H        2.6181920000    -0.7148850000     0.9126510000
| 24>  H        5.1431910000     4.6926720000     1.8552130000
| 25> *
| 26>
| 27>                          ****END OF INPUT****
 Total Charge           Charge          ....    0
 Multiplicity           Mult            ....    1
 Number of Electrons    NEL             ....   52
 Basis Dimension        Dim             ....  128

MULLIKEN ATOMIC CHARGES
-----------------------
   0 C :   -0.036323
   1 C :    0.016108
   2 C :   -0.112271
   3 C :   -0.020436
   4 C :    0.059323
   5 O :   -0.129872
   6 O :   -0.166732
   7 H :    0.028388
   8 H :    0.044186
   9 H :    0.046050
  10 H :    0.050486
  11 H :    0.052615
  12 H :    0.168479
Sum of atomic charges:   -0.0000000

LOEWDIN ATOMIC CHARGES
----------------------
   0 C :   -0.052455
   1 C :   -0.051841
   2 C :    0.011415
   3 C :   -0.088014
   4 C :    0.021118
   5 O :   -0.003406
   6 O :   -0.136893
   7 H :    0.030809
   8 H :    0.034594
   9 H :    0.035089
  10 H :    0.056321
  11 H :    0.056318
  12 H :    0.086945

  Mayer bond orders larger than 0.1
B(  0-C ,  1-C ) :   1.1014 B(  0-C ,  7-H ) :   0.9585 B(  0-C ,  8-H ) :   0.9705
B(  0-C ,  9-H ) :   0.9703 B(  1-C ,  2-C ) :   1.0876 B(  1-C , 10-H ) :   0.8958
B(  1-C , 11-H ) :   0.8995 B(  2-C ,  3-C ) :   2.6210 B(  3-C ,  4-C ) :   0.8664
B(  4-C ,  5-O ) :   1.2822 B(  4-C ,  6-O ) :   2.0990 B(  5-O , 12-H ) :   0.9492

FINAL SINGLE POINT ENERGY      -343.881171474821

DIPOLE MOMENT
-------------
                                X             Y             Z
Electronic contribution:      5.48657       8.79734       3.43567
Nuclear contribution   :     -5.28096      -9.64500      -3.55672
                        -----------------------------------------
Total Dipole Moment    :      0.20561      -0.84766      -0.12105
                        -----------------------------------------
Magnitude (a.u.)       :      0.88060
Magnitude (Debye)      :      2.23830

                             ****ORCA TERMINATED NORMALLY****
TOTAL RUN TIME: 0 days 0 hours 0 minutes 5 seconds 764 msec
