                         Program Version 3.0.3 - RELEASE   -
|  1> ! RI PBE def2-SVP def2-SVP/J NBO PAL2
|  2> % maxcore 2000
|  3> % output
|  4>     # printlevel mini
|  5>     print[ P_Basis ] 0
|  6>     print[ P_SCFInfo ] 1
|  7>     print[ P_SCFIterInfo ] 1
|  8>     print[ P_OrbEn ] 0
|  9>     print[ P_Cartesian ] 0
| 10> end
| 11> *xyz 0 1
| 12>  C        0.9092310000    -0.2252900000    -0.1545750000
| 13>  C        2.4209130000    -0.3446410000    -0.0645720000
| 14>  C        3.1210340000     1.0042580000    -0.1079330000
| 15>  C        4.6289570000     0.8802000000    -0.0178480000
| 16>  C        5.3441360000     2.1989590000    -0.0585580000
| 17>  O        6.6791030000     2.0411800000     0.0240920000
| 18>  O        4.8306930000     3.2803270000    -0.1521450000
| 19>  H        0.4269310000    -1.2047370000    -0.1216690000
| 20>  H        0.6077740000     0.2633010000    -1.0852000000
| 21>  H        0.5115470000     0.3697270000     0.6721420000
| 22>  H        2.7895450000    -0.9722920000    -0.8845920000
| 23>  H        2.6940050000    -0.8666160000     0.8602140000
| 24>  H        2.7610100000     1.6373980000     0.7089870000
| 25>  H        2.8562000000     1.5321100000    -1.0293870000
| 26>  H        5.0286820000     0.2652280000    -0.8319690000
| 27>  H        4.9336790000     0.3703080000     0.9029770000
| 28>  H        7.0624630000     2.9287920000    -0.0086650000
| 29> *
| 30>
| 31>                          ****END OF INPUT****
 Total Charge           Charge          ....    0
 Multiplicity           Mult            ....    1
 Number of Electrons    NEL             ....   56
 Basis Dimension        Dim             ....  148

MULLIKEN ATOMIC CHARGES
-----------------------
   0 C :    0.006884
   1 C :   -0.053831
   2 C :   -0.032387
   3 C :   -0.008721
   4 C :    0.058495
   5 O :   -0.142092
   6 O :   -0.182368
   7 H :    0.017033
   8 H :    0.016830
   9 H :    0.018569
  10 H :    0.009821
  11 H :    0.008494
  12 H :    0.020930
  13 H :    0.019862
  14 H :    0.039865
  15 H :    0.038402
  16 H :    0.164215
Sum of atomic charges:   -0.0000000

LOEWDIN ATOMIC CHARGES
----------------------
   0 C :   -0.064095
   1 C :   -0.047706
   2 C :   -0.038249
   3 C :   -0.069994
   4 C :    0.042799
   5 O :   -0.021949
   6 O :   -0.154330
   7 H :    0.026182
   8 H :    0.025181
   9 H :    0.025467
  10 H :    0.022484
  11 H :    0.022074
  12 H :    0.028753
  13 H :    0.028350
  14 H :    0.045897
  15 H :    0.045552
  16 H :    0.083585

  Mayer bond orders larger than 0.1
B(  0-C ,  1-C ) :   1.1228 B(  0-C ,  7-H ) :   0.9603 B(  0-C ,  8-H ) :   0.9647
B(  0-C ,  9-H ) :   0.9649 B(  1-C ,  2-C ) :   1.0938 B(  1-C , 10-H ) :   0.9352
B(  1-C , 11-H ) :   0.9360 B(  2-C ,  3-C ) :   1.0856 B(  2-C , 12-H ) :   0.9364
B(  2-C , 13-H ) :   0.9375 B(  3-C ,  4-C ) :   0.9607 B(  3-C , 14-H ) :   0.9111
B(  3-C , 15-H ) :   0.9119 B(  4-C ,  5-O ) :   1.2507 B(  4-C ,  6-O ) :   2.1166
B(  5-O , 16-H ) :   0.9485

FINAL SINGLE POINT ENERGY      -346.344784643546

DIPOLE MOMENT
-------------
                                X             Y             Z
Electronic contribution:     10.17797       7.52749       0.10133
Nuclear contribution   :     -9.89523      -8.00097      -0.05727
                        -----------------------------------------
Total Dipole Moment    :      0.28275      -0.47347       0.04406
                        -----------------------------------------
Magnitude (a.u.)       :      0.55323
Magnitude (Debye)      :      1.40620

                             ****ORCA TERMINATED NORMALLY****
TOTAL RUN TIME: 0 days 0 hours 0 minutes 7 seconds 780 msec
