                         Program Version 3.0.3 - RELEASE   -
|  1> ! RI PBE def2-SVP def2-SVP/J NBO PAL2
|  2> % maxcore 2000
|  3> % output
|  4>     # printlevel mini
|  5>     print[ P_Basis ] 0
|  6>     print[ P_SCFInfo ] 1
|  7>     print[ P_SCFIterInfo ] 1
|  8>     print[ P_OrbEn ] 0
|  9>     print[ P_Cartesian ] 0
| 10> end
| 11> *xyz 0 1
| 12>  C        3.9163760000     0.8875800000    -3.1338830000
| 13>  C        4.3896390000     0.1376570000    -1.9000750000
| 14>  C        3.3854240000     0.1877350000    -0.7596300000
| 15>  C        3.8571590000    -0.5583130000     0.4664910000
| 16>  O        2.8810010000    -0.4667960000     1.4712680000
| 17>  C        3.2446170000    -1.1384240000     2.6503440000
| 18>  C        2.1391160000    -0.9836190000     3.6638390000
| 19>  H        4.6520880000     0.8387980000    -3.9398820000
| 20>  H        3.7385260000     1.9427880000    -2.9088490000
| 21>  H        2.9793450000     0.4701990000    -3.5127020000
| 22>  H        5.3454680000     0.5549930000    -1.5625370000
| 23>  H        4.5915090000    -0.9074450000    -2.1622240000
| 24>  H        2.4294180000    -0.2374160000    -1.0837450000
| 25>  H        3.1851900000     1.2283690000    -0.4826120000
| 26>  H        4.8106210000    -0.1368510000     0.8255570000
| 27>  H        4.0478310000    -1.6157330000     0.2192040000
| 28>  H        4.1880530000    -0.7258190000     3.0418370000
| 29>  H        3.4250510000    -2.2036850000     2.4353050000
| 30>  H        1.9697540000     0.0710140000     3.8896620000
| 31>  H        2.3985360000    -1.4985880000     4.5914560000
| 32>  H        1.2070080000    -1.4057420000     3.2831550000
| 33> *
| 34>
| 35>                          ****END OF INPUT****
 Total Charge           Charge          ....    0
 Multiplicity           Mult            ....    1
 Number of Electrons    NEL             ....   58
 Basis Dimension        Dim             ....  168

MULLIKEN ATOMIC CHARGES
-----------------------
   0 C :   -0.014797
   1 C :   -0.066918
   2 C :   -0.017692
   3 C :    0.184485
   4 O :   -0.344342
   5 C :    0.136021
   6 C :   -0.012604
   7 H :    0.024906
   8 H :    0.020776
   9 H :    0.016577
  10 H :    0.009034
  11 H :    0.012370
  12 H :    0.011091
  13 H :    0.015788
  14 H :   -0.017419
  15 H :   -0.014124
  16 H :   -0.011253
  17 H :   -0.005703
  18 H :    0.028987
  19 H :    0.016400
  20 H :    0.028415
Sum of atomic charges:   -0.0000000

LOEWDIN ATOMIC CHARGES
----------------------
   0 C :   -0.067861
   1 C :   -0.045058
   2 C :   -0.050758
   3 C :    0.059984
   4 O :   -0.149313
   5 C :    0.056385
   6 C :   -0.073206
   7 H :    0.027101
   8 H :    0.025635
   9 H :    0.025126
  10 H :    0.021913
  11 H :    0.022370
  12 H :    0.025416
  13 H :    0.026130
  14 H :    0.000799
  15 H :    0.001314
  16 H :    0.001488
  17 H :    0.002404
  18 H :    0.029536
  19 H :    0.031136
  20 H :    0.029457

  Mayer bond orders larger than 0.1
B(  0-C ,  1-C ) :   1.1237 B(  0-C ,  7-H ) :   0.9624 B(  0-C ,  8-H ) :   0.9641
B(  0-C ,  9-H ) :   0.9632 B(  1-C ,  2-C ) :   1.0797 B(  1-C , 10-H ) :   0.9382
B(  1-C , 11-H ) :   0.9399 B(  2-C ,  3-C ) :   1.0801 B(  2-C , 12-H ) :   0.9320
B(  2-C , 13-H ) :   0.9337 B(  3-C ,  4-O ) :   1.0332 B(  3-C , 14-H ) :   0.9237
B(  3-C , 15-H ) :   0.9242 B(  4-O ,  5-C ) :   1.0068 B(  5-C ,  6-C ) :   1.1184
B(  5-C , 16-H ) :   0.9292 B(  5-C , 17-H ) :   0.9307 B(  6-C , 18-H ) :   0.9646
B(  6-C , 19-H ) :   0.9524 B(  6-C , 20-H ) :   0.9638

FINAL SINGLE POINT ENERGY      -311.630148998415

DIPOLE MOMENT
-------------
                                X             Y             Z
Electronic contribution:     -1.02871      -0.46824       2.43539
Nuclear contribution   :      1.34437       0.29159      -2.40405
                        -----------------------------------------
Total Dipole Moment    :      0.31566      -0.17665       0.03134
                        -----------------------------------------
Magnitude (a.u.)       :      0.36308
Magnitude (Debye)      :      0.92288

                             ****ORCA TERMINATED NORMALLY****
TOTAL RUN TIME: 0 days 0 hours 0 minutes 8 seconds 165 msec
