                         Program Version 3.0.3 - RELEASE   -
|  1> ! RI PBE def2-SVP def2-SVP/J NBO PAL2
|  2> % maxcore 2000
|  3> % output
|  4>     # printlevel mini
|  5>     print[ P_Basis ] 0
|  6>     print[ P_SCFInfo ] 1
|  7>     print[ P_SCFIterInfo ] 1
|  8>     print[ P_OrbEn ] 0
|  9>     print[ P_Cartesian ] 0
| 10> end
| 11> *xyz 0 1
| 12>  C        0.7937030000    -0.0874400000     0.1783720000
| 13>  C        2.1223180000    -0.0730220000     0.0508530000
| 14>  C        2.8692170000    -1.1522690000    -0.6885550000
| 15>  C        3.5024340000    -0.6510210000    -1.9643740000
| 16>  O        3.4852200000    -1.2589890000    -2.9973310000
| 17>  C        2.9093040000     0.9804550000     0.6001640000
| 18>  C        3.6158370000     1.8438850000     1.0504700000
| 19>  H        0.2044180000    -0.8925950000    -0.2443170000
| 20>  H        0.2719750000     0.6984850000     0.7093050000
| 21>  H        2.2190320000    -1.9939890000    -0.9286060000
| 22>  H        3.6893060000    -1.5186490000    -0.0567660000
| 23>  H        4.0070210000     0.3345630000    -1.8870950000
| 24>  H        4.2271040000     2.6161740000     1.4544910000
| 25> *
| 26>
| 27>                          ****END OF INPUT****
 Total Charge           Charge          ....    0
 Multiplicity           Mult            ....    1
 Number of Electrons    NEL             ....   50
 Basis Dimension        Dim             ....  128

MULLIKEN ATOMIC CHARGES
-----------------------
   0 C :    0.019865
   1 C :   -0.185047
   2 C :    0.099714
   3 C :    0.083058
   4 O :   -0.157253
   5 C :    0.419703
   6 C :   -0.446214
   7 H :    0.028196
   8 H :    0.034231
   9 H :    0.022570
  10 H :    0.062236
  11 H :    0.008398
  12 H :    0.010543
Sum of atomic charges:    0.0000000

LOEWDIN ATOMIC CHARGES
----------------------
   0 C :   -0.019645
   1 C :   -0.050976
   2 C :   -0.059870
   3 C :    0.101220
   4 O :   -0.099340
   5 C :   -0.016845
   6 C :   -0.055576
   7 H :    0.029453
   8 H :    0.034188
   9 H :    0.041867
  10 H :    0.061104
  11 H :   -0.004755
  12 H :    0.039175

  Mayer bond orders larger than 0.1
B(  0-C ,  1-C ) :   1.9191 B(  0-C ,  6-C ) :   0.1275 B(  0-C ,  7-H ) :   0.9290
B(  0-C ,  8-H ) :   0.9391 B(  1-C ,  2-C ) :   1.0288 B(  1-C ,  5-C ) :   0.9952
B(  2-C ,  3-C ) :   0.9506 B(  2-C ,  9-H ) :   0.9059 B(  2-C , 10-H ) :   0.8946
B(  3-C ,  4-O ) :   2.1849 B(  3-C , 11-H ) :   0.9250 B(  5-C ,  6-C ) :   2.2542
B(  5-C , 12-H ) :  -0.1051 B(  6-C , 12-H ) :   1.0954

FINAL SINGLE POINT ENERGY      -306.754643023398

DIPOLE MOMENT
-------------
                                X             Y             Z
Electronic contribution:      1.76994       0.34727      -1.73949
Nuclear contribution   :     -1.85069      -0.09413       2.55180
                        -----------------------------------------
Total Dipole Moment    :     -0.08074       0.25313       0.81231
                        -----------------------------------------
Magnitude (a.u.)       :      0.85466
Magnitude (Debye)      :      2.17237

                             ****ORCA TERMINATED NORMALLY****
TOTAL RUN TIME: 0 days 0 hours 0 minutes 5 seconds 949 msec
