                         Program Version 3.0.3 - RELEASE   -
|  1> ! RI PBE def2-SVP def2-SVP/J NBO PAL2
|  2> % maxcore 2000
|  3> % output
|  4>     # printlevel mini
|  5>     print[ P_Basis ] 0
|  6>     print[ P_SCFInfo ] 1
|  7>     print[ P_SCFIterInfo ] 1
|  8>     print[ P_OrbEn ] 0
|  9>     print[ P_Cartesian ] 0
| 10> end
| 11> *xyz 0 1
| 12>  C        1.1627920000     0.2309300000     0.1131360000
| 13>  C        2.4194790000     0.6232310000    -0.0324010000
| 14>  C        3.5329540000     0.3128420000     0.9488040000
| 15>  C        3.2611210000    -1.0255650000     1.6264060000
| 16>  O        2.8894130000    -1.1333500000     2.7579640000
| 17>  C        4.8324490000     0.2610580000     0.2960580000
| 18>  C        5.9033390000     0.1805690000    -0.2393360000
| 19>  H        0.4120300000     0.5024580000    -0.6190710000
| 20>  H        0.8311300000    -0.3575610000     0.9623310000
| 21>  H        2.7146630000     1.2115300000    -0.8956810000
| 22>  H        3.5503540000     1.0752250000     1.7365600000
| 23>  H        3.4171640000    -1.9062070000     0.9710980000
| 24>  H        6.8558020000     0.1217610000    -0.7112670000
| 25> *
| 26>
| 27>                          ****END OF INPUT****
 Total Charge           Charge          ....    0
 Multiplicity           Mult            ....    1
 Number of Electrons    NEL             ....   50
 Basis Dimension        Dim             ....  128

MULLIKEN ATOMIC CHARGES
-----------------------
   0 C :   -0.011789
   1 C :   -0.066121
   2 C :    0.060209
   3 C :    0.104185
   4 O :   -0.145039
   5 C :    0.371530
   6 C :   -0.494048
   7 H :    0.039236
   8 H :    0.041934
   9 H :    0.024852
  10 H :    0.064106
  11 H :    0.005874
  12 H :    0.005071
Sum of atomic charges:    0.0000000

LOEWDIN ATOMIC CHARGES
----------------------
   0 C :   -0.047024
   1 C :   -0.010392
   2 C :   -0.083590
   3 C :    0.115361
   4 O :   -0.090505
   5 C :   -0.020189
   6 C :   -0.066060
   7 H :    0.034094
   8 H :    0.029556
   9 H :    0.035268
  10 H :    0.066700
  11 H :   -0.002088
  12 H :    0.038869

  Mayer bond orders larger than 0.1
B(  0-C ,  1-C ) :   2.0104 B(  0-C ,  7-H ) :   0.9431 B(  0-C ,  8-H ) :   0.9289
B(  1-C ,  2-C ) :   0.9903 B(  1-C ,  9-H ) :   0.9590 B(  2-C ,  3-C ) :   0.9050
B(  2-C ,  5-C ) :   0.9510 B(  2-C , 10-H ) :   0.8452 B(  3-C ,  4-O ) :   2.1730
B(  3-C , 11-H ) :   0.9282 B(  5-C ,  6-C ) :   2.3359 B(  5-C , 12-H ) :  -0.1185
B(  6-C , 12-H ) :   1.1085

FINAL SINGLE POINT ENERGY      -306.741955218126

DIPOLE MOMENT
-------------
                                X             Y             Z
Electronic contribution:      2.39819      -0.96305       2.54773
Nuclear contribution   :     -2.32926       1.21872      -3.29180
                        -----------------------------------------
Total Dipole Moment    :      0.06893       0.25567      -0.74407
                        -----------------------------------------
Magnitude (a.u.)       :      0.78978
Magnitude (Debye)      :      2.00746

                             ****ORCA TERMINATED NORMALLY****
TOTAL RUN TIME: 0 days 0 hours 0 minutes 6 seconds 6 msec
