                         Program Version 3.0.3 - RELEASE   -
|  1> ! RI PBE def2-SVP def2-SVP/J NBO PAL2
|  2> % maxcore 2000
|  3> % output
|  4>     # printlevel mini
|  5>     print[ P_Basis ] 0
|  6>     print[ P_SCFInfo ] 1
|  7>     print[ P_SCFIterInfo ] 1
|  8>     print[ P_OrbEn ] 0
|  9>     print[ P_Cartesian ] 0
| 10> end
| 11> *xyz 0 1
| 12>  C        1.6101500000     0.7238680000     1.1908320000
| 13>  C        2.3462770000     0.2842510000     0.1797490000
| 14>  C        3.0631010000    -1.0294220000     0.1472230000
| 15>  C        4.5649960000    -0.8282460000     0.0323330000
| 16>  O        5.1609600000    -1.0899150000    -0.9857430000
| 17>  C        5.2449160000    -0.2809490000     1.2358360000
| 18>  C        6.5611660000    -0.1096310000     1.2641780000
| 19>  H        1.1161920000     1.6877250000     1.1530450000
| 20>  H        1.4664380000     0.1310520000     2.0891630000
| 21>  H        2.4634620000     0.9058500000    -0.7053270000
| 22>  H        2.7522520000    -1.6179880000    -0.7190580000
| 23>  H        2.8427590000    -1.5932850000     1.0595870000
| 24>  H        4.6252780000    -0.0318700000     2.0913070000
| 25>  H        7.1578700000    -0.3614540000     0.3935970000
| 26>  H        7.0689940000     0.2785130000     2.1390670000
| 27> *
| 28>
| 29>                          ****END OF INPUT****
 Total Charge           Charge          ....    0
 Multiplicity           Mult            ....    1
 Number of Electrons    NEL             ....   52
 Basis Dimension        Dim             ....  138

MULLIKEN ATOMIC CHARGES
-----------------------
   0 C :   -0.023893
   1 C :   -0.099510
   2 C :    0.117353
   3 C :   -0.016305
   4 O :   -0.154863
   5 C :   -0.052376
   6 C :    0.026551
   7 H :    0.031754
   8 H :    0.020540
   9 H :    0.018070
  10 H :    0.028029
  11 H :    0.020153
  12 H :    0.000906
  13 H :    0.046522
  14 H :    0.037068
Sum of atomic charges:    0.0000000

LOEWDIN ATOMIC CHARGES
----------------------
   0 C :   -0.058751
   1 C :   -0.023648
   2 C :   -0.061590
   3 C :    0.052791
   4 O :   -0.118250
   5 C :   -0.070423
   6 C :    0.019672
   7 H :    0.028494
   8 H :    0.022516
   9 H :    0.031742
  10 H :    0.044278
  11 H :    0.039941
  12 H :    0.028210
  13 H :    0.033479
  14 H :    0.031538

  Mayer bond orders larger than 0.1
B(  0-C ,  1-C ) :   1.9943 B(  0-C ,  7-H ) :   0.9414 B(  0-C ,  8-H ) :   0.9487
B(  1-C ,  2-C ) :   1.0628 B(  1-C ,  9-H ) :   0.9549 B(  2-C ,  3-C ) :   0.9782
B(  2-C , 10-H ) :   0.8923 B(  2-C , 11-H ) :   0.9122 B(  3-C ,  4-O ) :   2.1582
B(  3-C ,  5-C ) :   0.9709 B(  5-C ,  6-C ) :   1.9459 B(  5-C , 12-H ) :   0.9464
B(  6-C , 13-H ) :   0.9317 B(  6-C , 14-H ) :   0.9407

FINAL SINGLE POINT ENERGY      -308.003872255626

DIPOLE MOMENT
-------------
                                X             Y             Z
Electronic contribution:      2.73132      -1.74321      -3.04430
Nuclear contribution   :     -3.01740       1.99644       3.85965
                        -----------------------------------------
Total Dipole Moment    :     -0.28608       0.25323       0.81535
                        -----------------------------------------
Magnitude (a.u.)       :      0.90042
Magnitude (Debye)      :      2.28869

                             ****ORCA TERMINATED NORMALLY****
TOTAL RUN TIME: 0 days 0 hours 0 minutes 6 seconds 884 msec
