                         Program Version 3.0.3 - RELEASE   -
|  1> ! RI PBE def2-SVP def2-SVP/J NBO PAL2
|  2> % maxcore 2000
|  3> % output
|  4>     # printlevel mini
|  5>     print[ P_Basis ] 0
|  6>     print[ P_SCFInfo ] 1
|  7>     print[ P_SCFIterInfo ] 1
|  8>     print[ P_OrbEn ] 0
|  9>     print[ P_Cartesian ] 0
| 10> end
| 11> *xyz 0 1
| 12>  C        1.4425330000    -0.9891700000     0.1463700000
| 13>  C        2.3864660000    -0.1085910000    -0.1492520000
| 14>  C        3.3098330000     0.4921860000     0.8539360000
| 15>  C        4.7638290000     0.4598910000     0.4417430000
| 16>  O        5.1481310000     0.0935090000    -0.6403310000
| 17>  C        5.6952480000     0.9317550000     1.4538630000
| 18>  C        6.4472650000     1.3205540000     2.3064870000
| 19>  H        0.7852680000    -1.3890410000    -0.6165930000
| 20>  H        1.2916280000    -1.3451030000     1.1610940000
| 21>  H        2.5227650000     0.2156120000    -1.1765160000
| 22>  H        3.2132620000     0.0144030000     1.8341980000
| 23>  H        3.0707620000     1.5527120000     1.0229250000
| 24>  H        7.1297100000     1.6625840000     3.0497650000
| 25> *
| 26>
| 27>                          ****END OF INPUT****
 Total Charge           Charge          ....    0
 Multiplicity           Mult            ....    1
 Number of Electrons    NEL             ....   50
 Basis Dimension        Dim             ....  128

MULLIKEN ATOMIC CHARGES
-----------------------
   0 C :   -0.030706
   1 C :   -0.055446
   2 C :    0.052278
   3 C :   -0.021024
   4 O :   -0.137961
   5 C :    0.409770
   6 C :   -0.403970
   7 H :    0.032353
   8 H :    0.018229
   9 H :    0.017464
  10 H :    0.036505
  11 H :    0.060534
  12 H :    0.021973
Sum of atomic charges:   -0.0000000

LOEWDIN ATOMIC CHARGES
----------------------
   0 C :   -0.053702
   1 C :   -0.023749
   2 C :   -0.063067
   3 C :    0.043509
   4 O :   -0.088987
   5 C :   -0.037415
   6 C :   -0.013480
   7 H :    0.028180
   8 H :    0.021879
   9 H :    0.031920
  10 H :    0.049903
  11 H :    0.061544
  12 H :    0.043464

  Mayer bond orders larger than 0.1
B(  0-C ,  1-C ) :   2.0144 B(  0-C ,  7-H ) :   0.9451 B(  0-C ,  8-H ) :   0.9499
B(  1-C ,  2-C ) :   1.0451 B(  1-C ,  9-H ) :   0.9540 B(  2-C ,  3-C ) :   0.9522
B(  2-C , 10-H ) :   0.9126 B(  2-C , 11-H ) :   0.8877 B(  3-C ,  4-O ) :   2.1593
B(  3-C ,  5-C ) :   0.9040 B(  4-O ,  6-C ) :   0.1035 B(  5-C ,  6-C ) :   2.3352
B(  6-C , 12-H ) :   1.0864

FINAL SINGLE POINT ENERGY      -306.753667248752

DIPOLE MOMENT
-------------
                                X             Y             Z
Electronic contribution:      6.10357       1.36899      -0.66177
Nuclear contribution   :     -6.37173      -0.98149       1.59508
                        -----------------------------------------
Total Dipole Moment    :     -0.26816       0.38750       0.93332
                        -----------------------------------------
Magnitude (a.u.)       :      1.04554
Magnitude (Debye)      :      2.65754

                             ****ORCA TERMINATED NORMALLY****
TOTAL RUN TIME: 0 days 0 hours 0 minutes 6 seconds 276 msec
