                         Program Version 3.0.3 - RELEASE   -
|  1> ! RI PBE def2-SVP def2-SVP/J NBO PAL2
|  2> % maxcore 2000
|  3> % output
|  4>     # printlevel mini
|  5>     print[ P_Basis ] 0
|  6>     print[ P_SCFInfo ] 1
|  7>     print[ P_SCFIterInfo ] 1
|  8>     print[ P_OrbEn ] 0
|  9>     print[ P_Cartesian ] 0
| 10> end
| 11> *xyz 0 1
| 12>  C        1.6154310000    -0.7156450000     0.9646850000
| 13>  C        2.4723520000     0.1327400000     0.4148640000
| 14>  C        2.9028350000     0.1072120000    -1.0143310000
| 15>  C        4.3943130000    -0.1255380000    -1.1480240000
| 16>  O        4.7326880000    -0.0370620000    -2.5169850000
| 17>  C        6.0245850000    -0.2259460000    -2.8375480000
| 18>  C        7.0446780000    -0.4858770000    -2.0246920000
| 19>  H        1.3393310000    -0.6460940000     2.0104020000
| 20>  H        1.1532960000    -1.5085760000     0.3844840000
| 21>  H        2.9112990000     0.9133380000     1.0347140000
| 22>  H        2.6663020000     1.0646800000    -1.4926200000
| 23>  H        2.3628850000    -0.6705270000    -1.5606550000
| 24>  H        4.6685620000    -1.1143940000    -0.7600990000
| 25>  H        4.9593680000     0.6254050000    -0.5797780000
| 26>  H        6.1597340000    -0.1370330000    -3.9104770000
| 27>  H        6.9473280000    -0.5817390000    -0.9521190000
| 28>  H        8.0292220000    -0.6100340000    -2.4534100000
| 29> *
| 30>
| 31>                          ****END OF INPUT****
 Total Charge           Charge          ....    0
 Multiplicity           Mult            ....    1
 Number of Electrons    NEL             ....   54
 Basis Dimension        Dim             ....  148

MULLIKEN ATOMIC CHARGES
-----------------------
   0 C :   -0.034235
   1 C :   -0.101802
   2 C :    0.067105
   3 C :    0.127609
   4 O :   -0.258620
   5 C :    0.101985
   6 C :   -0.116589
   7 H :    0.027906
   8 H :    0.021539
   9 H :    0.008285
  10 H :    0.030802
  11 H :    0.017912
  12 H :    0.021587
  13 H :    0.020885
  14 H :    0.014430
  15 H :    0.029604
  16 H :    0.021596
Sum of atomic charges:   -0.0000000

LOEWDIN ATOMIC CHARGES
----------------------
   0 C :   -0.060203
   1 C :   -0.029586
   2 C :   -0.047120
   3 C :    0.073685
   4 O :   -0.066237
   5 C :    0.030875
   6 C :   -0.157920
   7 H :    0.026194
   8 H :    0.023295
   9 H :    0.025853
  10 H :    0.039462
  11 H :    0.033323
  12 H :    0.016138
  13 H :    0.014560
  14 H :    0.023710
  15 H :    0.022515
  16 H :    0.031456

  Mayer bond orders larger than 0.1
B(  0-C ,  1-C ) :   2.0200 B(  0-C ,  7-H ) :   0.9446 B(  0-C ,  8-H ) :   0.9497
B(  1-C ,  2-C ) :   1.0447 B(  1-C ,  9-H ) :   0.9512 B(  2-C ,  3-C ) :   1.0632
B(  2-C , 10-H ) :   0.9121 B(  2-C , 11-H ) :   0.9293 B(  3-C ,  4-O ) :   0.9770
B(  3-C , 12-H ) :   0.9337 B(  3-C , 13-H ) :   0.9350 B(  4-O ,  5-C ) :   1.1616
B(  4-O ,  6-C ) :   0.1038 B(  5-C ,  6-C ) :   1.8603 B(  5-C , 14-H ) :   0.9658
B(  6-C , 15-H ) :   0.9528 B(  6-C , 16-H ) :   0.9359

FINAL SINGLE POINT ENERGY      -309.190668633409

DIPOLE MOMENT
-------------
                                X             Y             Z
Electronic contribution:      0.52339       0.70320      -3.07723
Nuclear contribution   :     -0.62602      -0.67685       3.34110
                        -----------------------------------------
Total Dipole Moment    :     -0.10263       0.02634       0.26386
                        -----------------------------------------
Magnitude (a.u.)       :      0.28434
Magnitude (Debye)      :      0.72275

                             ****ORCA TERMINATED NORMALLY****
TOTAL RUN TIME: 0 days 0 hours 0 minutes 7 seconds 192 msec
