                         Program Version 3.0.3 - RELEASE   -
|  1> ! RI PBE def2-SVP def2-SVP/J NBO PAL2
|  2> % maxcore 2000
|  3> % output
|  4>     # printlevel mini
|  5>     print[ P_Basis ] 0
|  6>     print[ P_SCFInfo ] 1
|  7>     print[ P_SCFIterInfo ] 1
|  8>     print[ P_OrbEn ] 0
|  9>     print[ P_Cartesian ] 0
| 10> end
| 11> *xyz 0 1
| 12>  C        0.9061590000    -0.3184690000    -0.0380120000
| 13>  C        2.3744740000    -0.1272050000     0.0680520000
| 14>  C        3.0585500000     0.8896530000     0.6304710000
| 15>  C        2.3855710000     2.0444700000     1.2688920000
| 16>  O        2.9638910000     2.9668680000     1.7790780000
| 17>  C        4.4824650000     0.8914850000     0.6317880000
| 18>  C        5.6837420000     0.9067110000     0.6405010000
| 19>  H        0.6237860000    -0.4159570000    -1.0914640000
| 20>  H        0.3119030000     0.4782940000     0.4024210000
| 21>  H        0.6234650000    -1.2624540000     0.4394560000
| 22>  H        2.9721310000    -0.9222600000    -0.3714440000
| 23>  H        1.2803460000     2.0152780000     1.2525330000
| 24>  H        6.7478180000     0.9247960000     0.6510390000
| 25> *
| 26>
| 27>                          ****END OF INPUT****
 Total Charge           Charge          ....    0
 Multiplicity           Mult            ....    1
 Number of Electrons    NEL             ....   50
 Basis Dimension        Dim             ....  128

MULLIKEN ATOMIC CHARGES
-----------------------
   0 C :    0.043142
   1 C :   -0.075089
   2 C :   -0.081324
   3 C :    0.129845
   4 O :   -0.135367
   5 C :    0.407949
   6 C :   -0.428774
   7 H :    0.050752
   8 H :    0.037233
   9 H :    0.049197
  10 H :    0.021411
  11 H :   -0.025608
  12 H :    0.006633
Sum of atomic charges:   -0.0000000

LOEWDIN ATOMIC CHARGES
----------------------
   0 C :   -0.062962
   1 C :    0.038178
   2 C :   -0.107548
   3 C :    0.083088
   4 O :   -0.094727
   5 C :   -0.007776
   6 C :   -0.048275
   7 H :    0.050828
   8 H :    0.031947
   9 H :    0.050776
  10 H :    0.038599
  11 H :   -0.009471
  12 H :    0.037342

  Mayer bond orders larger than 0.1
B(  0-C ,  1-C ) :   1.1103 B(  0-C ,  7-H ) :   0.9326 B(  0-C ,  8-H ) :   0.9526
B(  0-C ,  9-H ) :   0.9312 B(  1-C ,  2-C ) :   1.7239 B(  1-C ,  6-C ) :   0.1071
B(  1-C , 10-H ) :   0.9450 B(  2-C ,  3-C ) :   0.9770 B(  2-C ,  5-C ) :   0.9893
B(  3-C ,  4-O ) :   2.1860 B(  3-C , 11-H ) :   0.9349 B(  5-C ,  6-C ) :   2.2963
B(  5-C , 12-H ) :  -0.1047 B(  6-C , 12-H ) :   1.0951

FINAL SINGLE POINT ENERGY      -306.762112723946

DIPOLE MOMENT
-------------
                                X             Y             Z
Electronic contribution:      4.74613       4.06927       2.25167
Nuclear contribution   :     -5.38296      -5.17255      -2.86102
                        -----------------------------------------
Total Dipole Moment    :     -0.63683      -1.10328      -0.60935
                        -----------------------------------------
Magnitude (a.u.)       :      1.41212
Magnitude (Debye)      :      3.58933

                             ****ORCA TERMINATED NORMALLY****
TOTAL RUN TIME: 0 days 0 hours 0 minutes 6 seconds 135 msec
