                         Program Version 3.0.3 - RELEASE   -
|  1> ! RI PBE def2-SVP def2-SVP/J NBO PAL2
|  2> % maxcore 2000
|  3> % output
|  4>     # printlevel mini
|  5>     print[ P_Basis ] 0
|  6>     print[ P_SCFInfo ] 1
|  7>     print[ P_SCFIterInfo ] 1
|  8>     print[ P_OrbEn ] 0
|  9>     print[ P_Cartesian ] 0
| 10> end
| 11> *xyz 0 1
| 12>  C        0.6319320000    -0.3840600000     0.2203170000
| 13>  C        2.0513440000     0.0334320000    -0.0110100000
| 14>  C        2.4827400000     0.7805300000    -1.0257100000
| 15>  C        1.6191480000     1.3291350000    -2.1069410000
| 16>  O        3.8307310000     1.0499170000    -1.0510980000
| 17>  C        4.4032640000     1.7948100000    -2.0198890000
| 18>  C        5.7066130000     2.0412010000    -2.0244550000
| 19>  H        0.5585160000    -0.9907420000     1.1234200000
| 20>  H        0.2323950000    -0.9867300000    -0.6014460000
| 21>  H       -0.0401390000     0.4694110000     0.3546040000
| 22>  H        2.8021840000    -0.2934720000     0.7008510000
| 23>  H        0.5883860000     1.0242000000    -1.9372100000
| 24>  H        1.9192900000     0.9639830000    -3.0940090000
| 25>  H        1.6455210000     2.4228710000    -2.1352630000
| 26>  H        3.7470210000     2.1803720000    -2.7913200000
| 27>  H        6.3601610000     1.6550500000    -1.2528570000
| 28>  H        6.1301250000     2.6418820000    -2.8163850000
| 29> *
| 30>
| 31>                          ****END OF INPUT****
 Total Charge           Charge          ....    0
 Multiplicity           Mult            ....    1
 Number of Electrons    NEL             ....   54
 Basis Dimension        Dim             ....  148

MULLIKEN ATOMIC CHARGES
-----------------------
   0 C :    0.011728
   1 C :   -0.140203
   2 C :    0.011128
   3 C :    0.036153
   4 O :   -0.198673
   5 C :    0.092801
   6 C :   -0.079417
   7 H :    0.023244
   8 H :    0.038276
   9 H :    0.040050
  10 H :   -0.000729
  11 H :    0.024222
  12 H :    0.043428
  13 H :    0.049402
  14 H :   -0.005357
  15 H :    0.029221
  16 H :    0.024727
Sum of atomic charges:   -0.0000000

LOEWDIN ATOMIC CHARGES
----------------------
   0 C :   -0.071577
   1 C :   -0.096544
   2 C :    0.020487
   3 C :   -0.072681
   4 O :   -0.016078
   5 C :    0.030626
   6 C :   -0.124084
   7 H :    0.035677
   8 H :    0.033255
   9 H :    0.033991
  10 H :    0.029037
  11 H :    0.042487
  12 H :    0.041010
  13 H :    0.041703
  14 H :    0.013311
  15 H :    0.028833
  16 H :    0.030548

  Mayer bond orders larger than 0.1
B(  0-C ,  1-C ) :   1.0828 B(  0-C ,  7-H ) :   0.9519 B(  0-C ,  8-H ) :   0.9509
B(  0-C ,  9-H ) :   0.9496 B(  1-C ,  2-C ) :   1.8477 B(  1-C , 10-H ) :   0.9343
B(  2-C ,  3-C ) :   1.1076 B(  2-C ,  4-O ) :   1.0699 B(  3-C , 11-H ) :   0.9251
B(  3-C , 12-H ) :   0.9296 B(  3-C , 13-H ) :   0.9312 B(  4-O ,  5-C ) :   1.0966
B(  5-C ,  6-C ) :   1.9167 B(  5-C , 14-H ) :   0.9381 B(  6-C , 15-H ) :   0.9469
B(  6-C , 16-H ) :   0.9382

FINAL SINGLE POINT ENERGY      -309.198292631528

DIPOLE MOMENT
-------------
                                X             Y             Z
Electronic contribution:      4.46357       0.49078       0.51905
Nuclear contribution   :     -5.08715      -0.37864      -0.87146
                        -----------------------------------------
Total Dipole Moment    :     -0.62358       0.11214      -0.35241
                        -----------------------------------------
Magnitude (a.u.)       :      0.72499
Magnitude (Debye)      :      1.84279

                             ****ORCA TERMINATED NORMALLY****
TOTAL RUN TIME: 0 days 0 hours 0 minutes 7 seconds 516 msec
