                         Program Version 3.0.3 - RELEASE   -
|  1> ! RI PBE def2-SVP def2-SVP/J NBO PAL2
|  2> % maxcore 2000
|  3> % output
|  4>     # printlevel mini
|  5>     print[ P_Basis ] 0
|  6>     print[ P_SCFInfo ] 1
|  7>     print[ P_SCFIterInfo ] 1
|  8>     print[ P_OrbEn ] 0
|  9>     print[ P_Cartesian ] 0
| 10> end
| 11> *xyz 0 1
| 12>  C        0.9745890000    -0.6144070000     0.3586600000
| 13>  C        2.3679860000    -0.1709930000     0.0926960000
| 14>  C        2.7900960000     0.8589440000    -0.6558040000
| 15>  C        1.8744250000     1.8007850000    -1.3830960000
| 16>  O        1.8087950000     3.0776010000    -0.7714600000
| 17>  C        4.2244550000     1.1174260000    -0.7519790000
| 18>  C        4.8151800000     2.0461560000    -1.5066240000
| 19>  H        0.7861950000    -0.6381640000     1.4369090000
| 20>  H        0.8193990000    -1.6365910000    -0.0028570000
| 21>  H        0.2215430000     0.0263590000    -0.0975440000
| 22>  H        3.1392910000    -0.7680170000     0.5781080000
| 23>  H        0.8530740000     1.4236850000    -1.4022640000
| 24>  H        2.2025020000     1.8899080000    -2.4286170000
| 25>  H        2.7058860000     3.3422220000    -0.5478570000
| 26>  H        4.8528310000     0.4795040000    -0.1337750000
| 27>  H        4.2586340000     2.7115630000    -2.1586360000
| 28>  H        5.8922200000     2.1587970000    -1.5080500000
| 29> *
| 30>
| 31>                          ****END OF INPUT****
 Total Charge           Charge          ....    0
 Multiplicity           Mult            ....    1
 Number of Electrons    NEL             ....   54
 Basis Dimension        Dim             ....  148

MULLIKEN ATOMIC CHARGES
-----------------------
   0 C :    0.050905
   1 C :   -0.139259
   2 C :   -0.088794
   3 C :    0.251184
   4 O :   -0.286020
   5 C :   -0.009393
   6 C :   -0.070924
   7 H :    0.040105
   8 H :    0.037368
   9 H :    0.024511
  10 H :   -0.004109
  11 H :   -0.005939
  12 H :    0.001531
  13 H :    0.152342
  14 H :   -0.011689
  15 H :    0.027900
  16 H :    0.030281
Sum of atomic charges:   -0.0000000

LOEWDIN ATOMIC CHARGES
----------------------
   0 C :   -0.066193
   1 C :   -0.015456
   2 C :   -0.073748
   3 C :    0.065299
   4 O :   -0.120946
   5 C :   -0.022716
   6 C :   -0.077775
   7 H :    0.043812
   8 H :    0.042274
   9 H :    0.031815
  10 H :    0.024392
  11 H :    0.020065
  12 H :    0.008570
  13 H :    0.062222
  14 H :    0.029441
  15 H :    0.020927
  16 H :    0.028018

  Mayer bond orders larger than 0.1
B(  0-C ,  1-C ) :   1.1019 B(  0-C ,  7-H ) :   0.9371 B(  0-C ,  8-H ) :   0.9373
B(  0-C ,  9-H ) :   0.9506 B(  1-C ,  2-C ) :   1.7887 B(  1-C ,  6-C ) :   0.1329
B(  1-C , 10-H ) :   0.9442 B(  2-C ,  3-C ) :   1.0618 B(  2-C ,  5-C ) :   1.1166
B(  3-C ,  4-O ) :   1.0708 B(  3-C , 11-H ) :   0.9139 B(  3-C , 12-H ) :   0.8985
B(  4-O , 13-H ) :   0.9803 B(  5-C ,  6-C ) :   1.8744 B(  5-C , 14-H ) :   0.9547
B(  6-C , 15-H ) :   0.9345 B(  6-C , 16-H ) :   0.9423

FINAL SINGLE POINT ENERGY      -309.200469218212

DIPOLE MOMENT
-------------
                                X             Y             Z
Electronic contribution:      0.97410       2.36833      -0.21059
Nuclear contribution   :     -0.68935      -2.89603       0.32047
                        -----------------------------------------
Total Dipole Moment    :      0.28475      -0.52770       0.10988
                        -----------------------------------------
Magnitude (a.u.)       :      0.60961
Magnitude (Debye)      :      1.54950

                             ****ORCA TERMINATED NORMALLY****
TOTAL RUN TIME: 0 days 0 hours 0 minutes 7 seconds 323 msec
