                         Program Version 3.0.3 - RELEASE   -
|  1> ! RI PBE def2-SVP def2-SVP/J NBO PAL2
|  2> % maxcore 2000
|  3> % output
|  4>     # printlevel mini
|  5>     print[ P_Basis ] 0
|  6>     print[ P_SCFInfo ] 1
|  7>     print[ P_SCFIterInfo ] 1
|  8>     print[ P_OrbEn ] 0
|  9>     print[ P_Cartesian ] 0
| 10> end
| 11> *xyz 0 1
| 12>  C        1.0239820000    -0.1339770000     0.2911760000
| 13>  C        2.4930960000    -0.2102200000     0.0728720000
| 14>  C        3.1494920000    -0.6325530000    -1.0193960000
| 15>  C        2.4888660000    -1.1156330000    -2.2847210000
| 16>  O        2.7484320000    -0.2748780000    -3.3893260000
| 17>  C        4.5752180000    -0.6252820000    -1.0341970000
| 18>  C        5.7774890000    -0.6416260000    -1.0767540000
| 19>  H        0.7421060000     0.8746080000     0.6096800000
| 20>  H        0.7245610000    -0.8055860000     1.1028930000
| 21>  H        0.4362100000    -0.3893660000    -0.5893340000
| 22>  H        3.1042380000     0.1134860000     0.9118190000
| 23>  H        1.4124410000    -1.2398880000    -2.1269680000
| 24>  H        2.8967330000    -2.0922440000    -2.5557100000
| 25>  H        2.5339970000     0.6267020000    -3.1349140000
| 26>  H        6.8409570000    -0.6512620000    -1.1116000000
| 27> *
| 28>
| 29>                          ****END OF INPUT****
 Total Charge           Charge          ....    0
 Multiplicity           Mult            ....    1
 Number of Electrons    NEL             ....   52
 Basis Dimension        Dim             ....  138

MULLIKEN ATOMIC CHARGES
-----------------------
   0 C :    0.040307
   1 C :   -0.080485
   2 C :   -0.222024
   3 C :    0.294657
   4 O :   -0.276317
   5 C :    0.429368
   6 C :   -0.453982
   7 H :    0.035659
   8 H :    0.045041
   9 H :    0.025900
  10 H :    0.005061
  11 H :   -0.012238
  12 H :    0.015095
  13 H :    0.153126
  14 H :    0.000831
Sum of atomic charges:    0.0000000

LOEWDIN ATOMIC CHARGES
----------------------
   0 C :   -0.067224
   1 C :   -0.007935
   2 C :   -0.093138
   3 C :    0.071584
   4 O :   -0.112753
   5 C :   -0.010192
   6 C :   -0.071589
   7 H :    0.041971
   8 H :    0.045387
   9 H :    0.029505
  10 H :    0.033091
  11 H :    0.005492
  12 H :    0.032155
  13 H :    0.069129
  14 H :    0.034517

  Mayer bond orders larger than 0.1
B(  0-C ,  1-C ) :   1.1004 B(  0-C ,  7-H ) :   0.9373 B(  0-C ,  8-H ) :   0.9390
B(  0-C ,  9-H ) :   0.9537 B(  1-C ,  2-C ) :   1.8061 B(  1-C ,  6-C ) :   0.1172
B(  1-C , 10-H ) :   0.9404 B(  2-C ,  3-C ) :   1.0555 B(  2-C ,  5-C ) :   1.0073
B(  3-C ,  4-O ) :   1.0700 B(  3-C , 11-H ) :   0.9128 B(  3-C , 12-H ) :   0.9069
B(  4-O , 13-H ) :   0.9810 B(  5-C ,  6-C ) :   2.2643 B(  5-C , 14-H ) :  -0.1063
B(  6-C , 14-H ) :   1.0971

FINAL SINGLE POINT ENERGY      -307.954590161885

DIPOLE MOMENT
-------------
                                X             Y             Z
Electronic contribution:      5.11428      -0.15577      -2.40660
Nuclear contribution   :     -5.66787       0.43421       3.01377
                        -----------------------------------------
Total Dipole Moment    :     -0.55359       0.27844       0.60717
                        -----------------------------------------
Magnitude (a.u.)       :      0.86755
Magnitude (Debye)      :      2.20513

                             ****ORCA TERMINATED NORMALLY****
TOTAL RUN TIME: 0 days 0 hours 0 minutes 7 seconds 68 msec
