                         Program Version 3.0.3 - RELEASE   -
|  1> ! RI PBE def2-SVP def2-SVP/J NBO PAL2
|  2> % maxcore 2000
|  3> % output
|  4>     # printlevel mini
|  5>     print[ P_Basis ] 0
|  6>     print[ P_SCFInfo ] 1
|  7>     print[ P_SCFIterInfo ] 1
|  8>     print[ P_OrbEn ] 0
|  9>     print[ P_Cartesian ] 0
| 10> end
| 11> *xyz 0 1
| 12>  C        0.7039070000     0.1684020000     0.2888040000
| 13>  C        2.1735020000    -0.0237660000     0.3173610000
| 14>  C        3.0732970000     0.9104930000     0.6235000000
| 15>  C        4.5224330000     0.6139930000     0.6223080000
| 16>  O        4.9634980000    -0.4839610000     0.3455450000
| 17>  C        5.4180220000     1.7464060000     0.9830480000
| 18>  C        6.7372310000     1.6000520000     1.0163500000
| 19>  H        0.3065500000    -0.0617990000    -0.7053180000
| 20>  H        0.4158520000     1.1871790000     0.5523570000
| 21>  H        0.2133180000    -0.5243030000     0.9806480000
| 22>  H        2.5581510000    -1.0111100000     0.0677020000
| 23>  H        2.7601210000     1.9183540000     0.8827520000
| 24>  H        4.9553600000     2.7001020000     1.2190990000
| 25>  H        7.1780710000     0.6380340000     0.7768150000
| 26>  H        7.3977570000     2.4181360000     1.2777180000
| 27> *
| 28>
| 29>                          ****END OF INPUT****
 Total Charge           Charge          ....    0
 Multiplicity           Mult            ....    1
 Number of Electrons    NEL             ....   52
 Basis Dimension        Dim             ....  138

MULLIKEN ATOMIC CHARGES
-----------------------
   0 C :    0.049854
   1 C :   -0.054424
   2 C :   -0.052893
   3 C :    0.081328
   4 O :   -0.174823
   5 C :   -0.070113
   6 C :    0.034180
   7 H :    0.043905
   8 H :    0.023872
   9 H :    0.046923
  10 H :    0.019271
  11 H :   -0.015584
  12 H :   -0.007573
  13 H :    0.042138
  14 H :    0.033938
Sum of atomic charges:   -0.0000000

LOEWDIN ATOMIC CHARGES
----------------------
   0 C :   -0.061717
   1 C :    0.034713
   2 C :   -0.089732
   3 C :    0.039249
   4 O :   -0.138128
   5 C :   -0.070088
   6 C :    0.015971
   7 H :    0.046280
   8 H :    0.032743
   9 H :    0.047035
  10 H :    0.032565
  11 H :    0.022452
  12 H :    0.025327
  13 H :    0.033013
  14 H :    0.030318

  Mayer bond orders larger than 0.1
B(  0-C ,  1-C ) :   1.0900 B(  0-C ,  7-H ) :   0.9379 B(  0-C ,  8-H ) :   0.9595
B(  0-C ,  9-H ) :   0.9373 B(  1-C ,  2-C ) :   1.8182 B(  1-C , 10-H ) :   0.9390
B(  2-C ,  3-C ) :   0.9949 B(  2-C , 11-H ) :   0.9533 B(  3-C ,  4-O ) :   2.1054
B(  3-C ,  5-C ) :   0.9854 B(  5-C ,  6-C ) :   1.9410 B(  5-C , 12-H ) :   0.9517
B(  6-C , 13-H ) :   0.9277 B(  6-C , 14-H ) :   0.9377

FINAL SINGLE POINT ENERGY      -308.015996714808

DIPOLE MOMENT
-------------
                                X             Y             Z
Electronic contribution:      4.57619      -1.43976      -0.13891
Nuclear contribution   :     -5.24340       2.12842       0.29487
                        -----------------------------------------
Total Dipole Moment    :     -0.66721       0.68866       0.15597
                        -----------------------------------------
Magnitude (a.u.)       :      0.97147
Magnitude (Debye)      :      2.46927

                             ****ORCA TERMINATED NORMALLY****
TOTAL RUN TIME: 0 days 0 hours 0 minutes 6 seconds 491 msec
