                         Program Version 3.0.3 - RELEASE   -
|  1> ! RI PBE def2-SVP def2-SVP/J NBO PAL2
|  2> % maxcore 2000
|  3> % output
|  4>     # printlevel mini
|  5>     print[ P_Basis ] 0
|  6>     print[ P_SCFInfo ] 1
|  7>     print[ P_SCFIterInfo ] 1
|  8>     print[ P_OrbEn ] 0
|  9>     print[ P_Cartesian ] 0
| 10> end
| 11> *xyz 0 1
| 12>  C        0.8763210000    -0.0447330000    -0.0215770000
| 13>  C        2.3565690000    -0.0049520000     0.0616790000
| 14>  C        3.1312460000    -1.0261840000     0.4294370000
| 15>  C        4.5947380000    -0.9604390000     0.5037050000
| 16>  O        5.2679680000    -1.9107350000     0.8429920000
| 17>  C        5.2353530000     0.3008650000     0.1526930000
| 18>  C        5.7969320000     1.3248160000    -0.1295840000
| 19>  H        0.5431850000     0.1956130000    -1.0363510000
| 20>  H        0.4354480000     0.7135890000     0.6335000000
| 21>  H        0.4770960000    -1.0208950000     0.2555160000
| 22>  H        2.8392410000     0.9350520000    -0.1995120000
| 23>  H        2.7140960000    -1.9911010000     0.7025810000
| 24>  H        6.3111080000     2.2246030000    -0.3762910000
| 25> *
| 26>
| 27>                          ****END OF INPUT****
 Total Charge           Charge          ....    0
 Multiplicity           Mult            ....    1
 Number of Electrons    NEL             ....   50
 Basis Dimension        Dim             ....  128

MULLIKEN ATOMIC CHARGES
-----------------------
   0 C :    0.050701
   1 C :   -0.059844
   2 C :   -0.010075
   3 C :    0.079461
   4 O :   -0.146458
   5 C :    0.366063
   6 C :   -0.441726
   7 H :    0.045141
   8 H :    0.047626
   9 H :    0.032359
  10 H :    0.026304
  11 H :   -0.006295
  12 H :    0.016743
Sum of atomic charges:   -0.0000000

LOEWDIN ATOMIC CHARGES
----------------------
   0 C :   -0.058604
   1 C :    0.020947
   2 C :   -0.064586
   3 C :    0.025585
   4 O :   -0.103480
   5 C :   -0.032839
   6 C :   -0.029208
   7 H :    0.047145
   8 H :    0.047798
   9 H :    0.035813
  10 H :    0.034515
  11 H :    0.035425
  12 H :    0.041488

  Mayer bond orders larger than 0.1
B(  0-C ,  1-C ) :   1.0920 B(  0-C ,  7-H ) :   0.9385 B(  0-C ,  8-H ) :   0.9381
B(  0-C ,  9-H ) :   0.9635 B(  1-C ,  2-C ) :   1.7675 B(  1-C , 10-H ) :   0.9245
B(  2-C ,  3-C ) :   1.0526 B(  2-C , 11-H ) :   0.9679 B(  3-C ,  4-O ) :   2.0829
B(  3-C ,  5-C ) :   0.8623 B(  5-C ,  6-C ) :   2.3317 B(  5-C , 12-H ) :  -0.1030
B(  6-C , 12-H ) :   1.0908

FINAL SINGLE POINT ENERGY      -306.765694234952

DIPOLE MOMENT
-------------
                                X             Y             Z
Electronic contribution:      8.06644      -2.00020       1.14516
Nuclear contribution   :     -9.12483       3.02839      -1.53204
                        -----------------------------------------
Total Dipole Moment    :     -1.05839       1.02819      -0.38688
                        -----------------------------------------
Magnitude (a.u.)       :      1.52546
Magnitude (Debye)      :      3.87741

                             ****ORCA TERMINATED NORMALLY****
TOTAL RUN TIME: 0 days 0 hours 0 minutes 6 seconds 299 msec
