                         Program Version 3.0.3 - RELEASE   -
|  1> ! RI PBE def2-SVP def2-SVP/J NBO PAL2
|  2> % maxcore 2000
|  3> % output
|  4>     # printlevel mini
|  5>     print[ P_Basis ] 0
|  6>     print[ P_SCFInfo ] 1
|  7>     print[ P_SCFIterInfo ] 1
|  8>     print[ P_OrbEn ] 0
|  9>     print[ P_Cartesian ] 0
| 10> end
| 11> *xyz 0 1
| 12>  C        1.6897500000    -1.8575440000    -3.5614250000
| 13>  C        2.9714300000    -1.1805050000    -3.2187980000
| 14>  C        3.1929050000    -0.4938550000    -2.1034810000
| 15>  C        4.4922070000     0.1522970000    -1.7090680000
| 16>  O        5.0198380000    -0.4874000000    -0.5598500000
| 17>  C        5.4804460000     0.2645270000    -2.8317590000
| 18>  C        6.7232170000    -0.1909280000    -2.7969530000
| 19>  H        1.2731360000    -1.4603290000    -4.4925370000
| 20>  H        0.9453600000    -1.7325840000    -2.7729610000
| 21>  H        1.8438420000    -2.9292400000    -3.7222990000
| 22>  H        3.7744130000    -1.2662670000    -3.9487210000
| 23>  H        2.4033480000    -0.4113770000    -1.3584330000
| 24>  H        4.2686890000     1.1738750000    -1.3713360000
| 25>  H        5.0354970000    -1.4319780000    -0.7433120000
| 26>  H        5.1190860000     0.7873000000    -3.7143830000
| 27>  H        7.1134300000    -0.6906380000    -1.9174170000
| 28>  H        7.3941930000    -0.0595530000    -3.6375760000
| 29> *
| 30>
| 31>                          ****END OF INPUT****
 Total Charge           Charge          ....    0
 Multiplicity           Mult            ....    1
 Number of Electrons    NEL             ....   54
 Basis Dimension        Dim             ....  148

MULLIKEN ATOMIC CHARGES
-----------------------
   0 C :    0.043109
   1 C :   -0.087107
   2 C :   -0.139545
   3 C :    0.263880
   4 O :   -0.264203
   5 C :   -0.100013
   6 C :   -0.032285
   7 H :    0.032778
   8 H :    0.026299
   9 H :    0.035839
  10 H :    0.011072
  11 H :   -0.001713
  12 H :    0.015279
  13 H :    0.151472
  14 H :    0.005818
  15 H :    0.012919
  16 H :    0.026401
Sum of atomic charges:   -0.0000000

LOEWDIN ATOMIC CHARGES
----------------------
   0 C :   -0.065235
   1 C :   -0.035874
   2 C :   -0.068793
   3 C :    0.043177
   4 O :   -0.098512
   5 C :   -0.045916
   6 C :   -0.064671
   7 H :    0.038601
   8 H :    0.032119
   9 H :    0.039033
  10 H :    0.025376
  11 H :    0.023895
  12 H :    0.039156
  13 H :    0.066295
  14 H :    0.027624
  15 H :    0.018187
  16 H :    0.025539

  Mayer bond orders larger than 0.1
B(  0-C ,  1-C ) :   1.0857 B(  0-C ,  7-H ) :   0.9437 B(  0-C ,  8-H ) :   0.9619
B(  0-C ,  9-H ) :   0.9417 B(  1-C ,  2-C ) :   1.9088 B(  1-C , 10-H ) :   0.9309
B(  2-C ,  3-C ) :   1.0136 B(  2-C , 11-H ) :   0.9573 B(  3-C ,  4-O ) :   1.0632
B(  3-C ,  5-C ) :   0.9928 B(  3-C , 12-H ) :   0.8724 B(  4-O , 13-H ) :   0.9760
B(  5-C ,  6-C ) :   2.0031 B(  5-C , 14-H ) :   0.9386 B(  6-C , 15-H ) :   0.9331
B(  6-C , 16-H ) :   0.9424

FINAL SINGLE POINT ENERGY      -309.196177668086

DIPOLE MOMENT
-------------
                                X             Y             Z
Electronic contribution:      2.50747       1.84437       3.28384
Nuclear contribution   :     -2.87724      -2.20973      -3.79333
                        -----------------------------------------
Total Dipole Moment    :     -0.36977      -0.36535      -0.50949
                        -----------------------------------------
Magnitude (a.u.)       :      0.72787
Magnitude (Debye)      :      1.85010

                             ****ORCA TERMINATED NORMALLY****
TOTAL RUN TIME: 0 days 0 hours 0 minutes 7 seconds 341 msec
