                         Program Version 3.0.3 - RELEASE   -
|  1> ! RI PBE def2-SVP def2-SVP/J NBO PAL2
|  2> % maxcore 2000
|  3> % output
|  4>     # printlevel mini
|  5>     print[ P_Basis ] 0
|  6>     print[ P_SCFInfo ] 1
|  7>     print[ P_SCFIterInfo ] 1
|  8>     print[ P_OrbEn ] 0
|  9>     print[ P_Cartesian ] 0
| 10> end
| 11> *xyz 0 1
| 12>  C        0.9275500000     0.0456530000    -0.0798080000
| 13>  C        2.4122310000    -0.0457140000    -0.1332930000
| 14>  C        3.1471820000    -0.9465120000     0.5045540000
| 15>  C        4.6464770000    -0.9933070000     0.4375450000
| 16>  O        5.2508220000    -0.6787610000     1.6838360000
| 17>  C        5.1041570000    -2.2928530000    -0.0583240000
| 18>  C        5.4619440000    -3.3762110000    -0.4327830000
| 19>  H        0.6100060000     1.0227210000     0.2976010000
| 20>  H        0.5004690000    -0.7257460000     0.5633270000
| 21>  H        0.4922780000    -0.0607200000    -1.0784540000
| 22>  H        2.9215840000     0.6930610000    -0.7511710000
| 23>  H        2.6739430000    -1.7047080000     1.1262700000
| 24>  H        4.9902210000    -0.2154240000    -0.2514670000
| 25>  H        5.1643660000    -1.4455240000     2.2581520000
| 26>  H        5.7863780000    -4.3308650000    -0.7741670000
| 27> *
| 28>
| 29>                          ****END OF INPUT****
 Total Charge           Charge          ....    0
 Multiplicity           Mult            ....    1
 Number of Electrons    NEL             ....   52
 Basis Dimension        Dim             ....  138

MULLIKEN ATOMIC CHARGES
-----------------------
   0 C :    0.040852
   1 C :   -0.108379
   2 C :   -0.007280
   3 C :    0.222874
   4 O :   -0.263654
   5 C :    0.334773
   6 C :   -0.485702
   7 H :    0.035075
   8 H :    0.024508
   9 H :    0.035951
  10 H :    0.002991
  11 H :   -0.010673
  12 H :    0.020357
  13 H :    0.155650
  14 H :    0.002658
Sum of atomic charges:   -0.0000000

LOEWDIN ATOMIC CHARGES
----------------------
   0 C :   -0.062952
   1 C :   -0.028774
   2 C :   -0.050657
   3 C :    0.038498
   4 O :   -0.095807
   5 C :   -0.035720
   6 C :   -0.073160
   7 H :    0.039260
   8 H :    0.032579
   9 H :    0.039323
  10 H :    0.024732
  11 H :    0.022288
  12 H :    0.044636
  13 H :    0.069178
  14 H :    0.036576

  Mayer bond orders larger than 0.1
B(  0-C ,  1-C ) :   1.0873 B(  0-C ,  7-H ) :   0.9451 B(  0-C ,  8-H ) :   0.9627
B(  0-C ,  9-H ) :   0.9460 B(  1-C ,  2-C ) :   1.9061 B(  1-C , 10-H ) :   0.9535
B(  2-C ,  3-C ) :   1.0068 B(  2-C , 11-H ) :   0.9425 B(  3-C ,  4-O ) :   1.0169
B(  3-C ,  5-C ) :   0.9643 B(  3-C , 12-H ) :   0.8763 B(  4-O , 13-H ) :   0.9799
B(  5-C ,  6-C ) :   2.3630 B(  5-C , 14-H ) :  -0.1109 B(  6-C , 14-H ) :   1.1007

FINAL SINGLE POINT ENERGY      -307.947684049533

DIPOLE MOMENT
-------------
                                X             Y             Z
Electronic contribution:      6.50885      -2.47143       1.02922
Nuclear contribution   :     -6.99970       2.17385      -1.11159
                        -----------------------------------------
Total Dipole Moment    :     -0.49085      -0.29757      -0.08237
                        -----------------------------------------
Magnitude (a.u.)       :      0.57988
Magnitude (Debye)      :      1.47395

                             ****ORCA TERMINATED NORMALLY****
TOTAL RUN TIME: 0 days 0 hours 0 minutes 6 seconds 932 msec
