                         Program Version 3.0.3 - RELEASE   -
|  1> ! RI PBE def2-SVP def2-SVP/J NBO PAL2
|  2> % maxcore 2000
|  3> % output
|  4>     # printlevel mini
|  5>     print[ P_Basis ] 0
|  6>     print[ P_SCFInfo ] 1
|  7>     print[ P_SCFIterInfo ] 1
|  8>     print[ P_OrbEn ] 0
|  9>     print[ P_Cartesian ] 0
| 10> end
| 11> *xyz 0 1
| 12>  C        0.2675290000     0.4725330000    -0.0421960000
| 13>  C        1.7313700000     0.6589710000    -0.2394590000
| 14>  C        2.4840400000    -0.0365630000    -1.0819750000
| 15>  C        3.9517550000     0.1475190000    -1.2256670000
| 16>  O        4.2463910000     0.4236280000    -2.5864160000
| 17>  C        5.5435570000     0.5722200000    -2.9027530000
| 18>  C        6.6015970000     0.5105160000    -2.0983710000
| 19>  H        0.0414990000     0.2014230000     0.9939650000
| 20>  H       -0.1283110000    -0.3083880000    -0.6938500000
| 21>  H       -0.2753430000     1.4003370000    -0.2479120000
| 22>  H        2.2076900000     1.4300430000     0.3652290000
| 23>  H        2.0342180000    -0.8054950000    -1.7068170000
| 24>  H        4.4914190000    -0.7631930000    -0.9290780000
| 25>  H        4.3068500000     0.9698440000    -0.5924740000
| 26>  H        5.6486100000     0.7649940000    -3.9655080000
| 27>  H        6.5373710000     0.3243060000    -1.0352930000
| 28>  H        7.5845700000     0.6550240000    -2.5244230000
| 29> *
| 30>
| 31>                          ****END OF INPUT****
 Total Charge           Charge          ....    0
 Multiplicity           Mult            ....    1
 Number of Electrons    NEL             ....   54
 Basis Dimension        Dim             ....  148

MULLIKEN ATOMIC CHARGES
-----------------------
   0 C :    0.036396
   1 C :   -0.106317
   2 C :   -0.059976
   3 C :    0.201699
   4 O :   -0.261990
   5 C :    0.103423
   6 C :   -0.120245
   7 H :    0.035300
   8 H :    0.024388
   9 H :    0.037910
  10 H :    0.001105
  11 H :    0.002468
  12 H :    0.025266
  13 H :    0.018301
  14 H :    0.012824
  15 H :    0.029186
  16 H :    0.020263
Sum of atomic charges:   -0.0000000

LOEWDIN ATOMIC CHARGES
----------------------
   0 C :   -0.064063
   1 C :   -0.029247
   2 C :   -0.055332
   3 C :    0.069900
   4 O :   -0.067252
   5 C :    0.030422
   6 C :   -0.162142
   7 H :    0.038696
   8 H :    0.032776
   9 H :    0.039768
  10 H :    0.023515
  11 H :    0.026211
  12 H :    0.021887
  13 H :    0.018628
  14 H :    0.023560
  15 H :    0.021887
  16 H :    0.030785

  Mayer bond orders larger than 0.1
B(  0-C ,  1-C ) :   1.0887 B(  0-C ,  7-H ) :   0.9464 B(  0-C ,  8-H ) :   0.9623
B(  0-C ,  9-H ) :   0.9467 B(  1-C ,  2-C ) :   1.9246 B(  1-C , 10-H ) :   0.9527
B(  2-C ,  3-C ) :   1.0491 B(  2-C , 11-H ) :   0.9551 B(  3-C ,  4-O ) :   0.9451
B(  3-C , 12-H ) :   0.9114 B(  3-C , 13-H ) :   0.9313 B(  4-O ,  5-C ) :   1.1700
B(  4-O ,  6-C ) :   0.1062 B(  5-C ,  6-C ) :   1.8537 B(  5-C , 14-H ) :   0.9647
B(  6-C , 15-H ) :   0.9523 B(  6-C , 16-H ) :   0.9362

FINAL SINGLE POINT ENERGY      -309.194619816402

DIPOLE MOMENT
-------------
                                X             Y             Z
Electronic contribution:      2.47707       0.02200      -3.52862
Nuclear contribution   :     -2.79656      -0.06017       3.95253
                        -----------------------------------------
Total Dipole Moment    :     -0.31950      -0.03817       0.42392
                        -----------------------------------------
Magnitude (a.u.)       :      0.53220
Magnitude (Debye)      :      1.35275

                             ****ORCA TERMINATED NORMALLY****
TOTAL RUN TIME: 0 days 0 hours 0 minutes 7 seconds 81 msec
