                         Program Version 3.0.3 - RELEASE   -
|  1> ! RI PBE def2-SVP def2-SVP/J NBO PAL2
|  2> % maxcore 2000
|  3> % output
|  4>     # printlevel mini
|  5>     print[ P_Basis ] 0
|  6>     print[ P_SCFInfo ] 1
|  7>     print[ P_SCFIterInfo ] 1
|  8>     print[ P_OrbEn ] 0
|  9>     print[ P_Cartesian ] 0
| 10> end
| 11> *xyz 0 1
| 12>  C        0.9557310000     0.1961130000     0.0179080000
| 13>  C        2.2971000000    -0.4200150000     0.2458750000
| 14>  C        2.4502180000    -1.6018170000     0.8454140000
| 15>  C        3.4524970000     0.3866210000    -0.2472060000
| 16>  O        3.2404910000     1.4564320000    -0.7825380000
| 17>  C        4.8421640000    -0.1185250000    -0.0817200000
| 18>  C        5.8729740000     0.5959410000    -0.5175470000
| 19>  H        0.1602990000    -0.4434930000     0.4009240000
| 20>  H        0.7917750000     0.3755560000    -1.0471900000
| 21>  H        0.8953950000     1.1739900000     0.5012480000
| 22>  H        1.5884950000    -2.1620040000     1.1921760000
| 23>  H        3.4164330000    -2.0566920000     1.0156720000
| 24>  H        5.0086230000    -1.0746230000     0.3971630000
| 25>  H        5.7044570000     1.5540190000    -0.9974300000
| 26>  H        6.8930470000     0.2477950000    -0.4078400000
| 27> *
| 28>
| 29>                          ****END OF INPUT****
 Total Charge           Charge          ....    0
 Multiplicity           Mult            ....    1
 Number of Electrons    NEL             ....   52
 Basis Dimension        Dim             ....  138

MULLIKEN ATOMIC CHARGES
-----------------------
   0 C :    0.087307
   1 C :   -0.161976
   2 C :   -0.016183
   3 C :    0.089972
   4 O :   -0.160226
   5 C :   -0.072421
   6 C :    0.033167
   7 H :    0.006092
   8 H :    0.042013
   9 H :    0.039971
  10 H :    0.023903
  11 H :    0.024197
  12 H :   -0.008967
  13 H :    0.042854
  14 H :    0.030297
Sum of atomic charges:   -0.0000000

LOEWDIN ATOMIC CHARGES
----------------------
   0 C :   -0.050654
   1 C :   -0.055657
   2 C :   -0.019940
   3 C :    0.047602
   4 O :   -0.124595
   5 C :   -0.068021
   6 C :    0.016229
   7 H :    0.028222
   8 H :    0.044381
   9 H :    0.044391
  10 H :    0.027958
  11 H :    0.023413
  12 H :    0.024807
  13 H :    0.032248
  14 H :    0.029615

  Mayer bond orders larger than 0.1
B(  0-C ,  1-C ) :   1.0929 B(  0-C ,  7-H ) :   0.9439 B(  0-C ,  8-H ) :   0.9394
B(  0-C ,  9-H ) :   0.9379 B(  1-C ,  2-C ) :   1.9169 B(  1-C ,  3-C ) :   0.9568
B(  2-C , 10-H ) :   0.9272 B(  2-C , 11-H ) :   0.9269 B(  3-C ,  4-O ) :   2.1232
B(  3-C ,  5-C ) :   1.0055 B(  5-C ,  6-C ) :   1.9512 B(  5-C , 12-H ) :   0.9436
B(  6-C , 13-H ) :   0.9295 B(  6-C , 14-H ) :   0.9377

FINAL SINGLE POINT ENERGY      -308.012456145514

DIPOLE MOMENT
-------------
                                X             Y             Z
Electronic contribution:      1.80911       2.15642      -1.22800
Nuclear contribution   :     -1.66116      -2.94759       1.62734
                        -----------------------------------------
Total Dipole Moment    :      0.14795      -0.79116       0.39934
                        -----------------------------------------
Magnitude (a.u.)       :      0.89850
Magnitude (Debye)      :      2.28380

                             ****ORCA TERMINATED NORMALLY****
TOTAL RUN TIME: 0 days 0 hours 0 minutes 6 seconds 924 msec
