                         Program Version 3.0.3 - RELEASE   -
|  1> ! RI PBE def2-SVP def2-SVP/J NBO PAL2
|  2> % maxcore 2000
|  3> % output
|  4>     # printlevel mini
|  5>     print[ P_Basis ] 0
|  6>     print[ P_SCFInfo ] 1
|  7>     print[ P_SCFIterInfo ] 1
|  8>     print[ P_OrbEn ] 0
|  9>     print[ P_Cartesian ] 0
| 10> end
| 11> *xyz 0 1
| 12>  C        0.8976700000    -0.0476790000    -0.0653790000
| 13>  C        2.3726680000     0.1648930000    -0.0005540000
| 14>  C        3.0410350000     1.0413590000    -0.7500940000
| 15>  C        3.0963990000    -0.6819290000     0.9806510000
| 16>  O        2.5185650000    -1.4881870000     1.6768200000
| 17>  C        4.5384440000    -0.5240600000     1.0941150000
| 18>  C        5.7290150000    -0.4320450000     1.2260580000
| 19>  H        0.4413510000     0.6091530000    -0.8058580000
| 20>  H        0.4390550000     0.1372920000     0.9088630000
| 21>  H        0.6692650000    -1.0858090000    -0.3180170000
| 22>  H        2.5310620000     1.6689260000    -1.4723880000
| 23>  H        4.1151640000     1.1523170000    -0.6592010000
| 24>  H        6.7843970000    -0.3591210000     1.3515850000
| 25> *
| 26>
| 27>                          ****END OF INPUT****
 Total Charge           Charge          ....    0
 Multiplicity           Mult            ....    1
 Number of Electrons    NEL             ....   50
 Basis Dimension        Dim             ....  128

MULLIKEN ATOMIC CHARGES
-----------------------
   0 C :    0.077538
   1 C :   -0.160343
   2 C :    0.002689
   3 C :    0.085143
   4 O :   -0.138363
   5 C :    0.382911
   6 C :   -0.438343
   7 H :    0.016234
   8 H :    0.045219
   9 H :    0.043562
  10 H :    0.024993
  11 H :    0.040971
  12 H :    0.017789
Sum of atomic charges:   -0.0000000

LOEWDIN ATOMIC CHARGES
----------------------
   0 C :   -0.051277
   1 C :   -0.057308
   2 C :   -0.004850
   3 C :    0.035697
   4 O :   -0.096818
   5 C :   -0.032421
   6 C :   -0.021757
   7 H :    0.032493
   8 H :    0.046174
   9 H :    0.045941
  10 H :    0.029016
  11 H :    0.033221
  12 H :    0.041890

  Mayer bond orders larger than 0.1
B(  0-C ,  1-C ) :   1.0791 B(  0-C ,  7-H ) :   0.9472 B(  0-C ,  8-H ) :   0.9419
B(  0-C ,  9-H ) :   0.9410 B(  1-C ,  2-C ) :   1.9051 B(  1-C ,  3-C ) :   0.9804
B(  2-C , 10-H ) :   0.9330 B(  2-C , 11-H ) :   0.9100 B(  3-C ,  4-O ) :   2.1226
B(  3-C ,  5-C ) :   0.8773 B(  4-O ,  6-C ) :   0.1001 B(  5-C ,  6-C ) :   2.2987
B(  5-C , 12-H ) :  -0.1047 B(  6-C , 12-H ) :   1.0929

FINAL SINGLE POINT ENERGY      -306.764502946516

DIPOLE MOMENT
-------------
                                X             Y             Z
Electronic contribution:      3.75260      -2.88414       3.59157
Nuclear contribution   :     -3.40234       3.61437      -4.24713
                        -----------------------------------------
Total Dipole Moment    :      0.35026       0.73023      -0.65556
                        -----------------------------------------
Magnitude (a.u.)       :      1.04196
Magnitude (Debye)      :      2.64846

                             ****ORCA TERMINATED NORMALLY****
TOTAL RUN TIME: 0 days 0 hours 0 minutes 6 seconds 434 msec
