                         Program Version 3.0.3 - RELEASE   -
|  1> ! RI PBE def2-SVP def2-SVP/J NBO PAL2
|  2> % maxcore 2000
|  3> % output
|  4>     # printlevel mini
|  5>     print[ P_Basis ] 0
|  6>     print[ P_SCFInfo ] 1
|  7>     print[ P_SCFIterInfo ] 1
|  8>     print[ P_OrbEn ] 0
|  9>     print[ P_Cartesian ] 0
| 10> end
| 11> *xyz 0 1
| 12>  C        1.8052920000    -0.8753010000     0.5609440000
| 13>  C        3.0658860000    -0.0822670000     0.6943080000
| 14>  C        3.7138770000     0.0567330000     1.8466050000
| 15>  C        3.5204540000     0.6103890000    -0.5757900000
| 16>  O        2.6243520000     1.6597780000    -0.8956910000
| 17>  C        4.9555040000     1.0432250000    -0.5575120000
| 18>  C        5.3821530000     2.2659790000    -0.8339910000
| 19>  H        1.4581780000    -1.2461900000     1.5259830000
| 20>  H        1.9593560000    -1.7335420000    -0.1019230000
| 21>  H        1.0155980000    -0.2676520000     0.1109980000
| 22>  H        3.3469520000    -0.4076260000     2.7557480000
| 23>  H        4.6256980000     0.6383860000     1.9217610000
| 24>  H        3.4055540000    -0.1059490000    -1.4014130000
| 25>  H        2.6019270000     2.2526160000    -0.1372890000
| 26>  H        5.6701410000     0.2602130000    -0.3159830000
| 27>  H        4.6903950000     3.0561630000    -1.1033860000
| 28>  H        6.4377920000     2.5096370000    -0.8199690000
| 29> *
| 30>
| 31>                          ****END OF INPUT****
 Total Charge           Charge          ....    0
 Multiplicity           Mult            ....    1
 Number of Electrons    NEL             ....   54
 Basis Dimension        Dim             ....  148

MULLIKEN ATOMIC CHARGES
-----------------------
   0 C :    0.083813
   1 C :   -0.246424
   2 C :   -0.016528
   3 C :    0.250795
   4 O :   -0.260831
   5 C :   -0.096673
   6 C :   -0.028758
   7 H :    0.010619
   8 H :    0.028653
   9 H :    0.031814
  10 H :    0.007509
  11 H :    0.019547
  12 H :    0.012612
  13 H :    0.155175
  14 H :    0.010783
  15 H :    0.012707
  16 H :    0.025186
Sum of atomic charges:    0.0000000

LOEWDIN ATOMIC CHARGES
----------------------
   0 C :   -0.055909
   1 C :   -0.051072
   2 C :   -0.066758
   3 C :    0.049322
   4 O :   -0.095214
   5 C :   -0.045753
   6 C :   -0.061974
   7 H :    0.029622
   8 H :    0.037768
   9 H :    0.036458
  10 H :    0.021681
  11 H :    0.022364
  12 H :    0.036736
  13 H :    0.068621
  14 H :    0.030027
  15 H :    0.018319
  16 H :    0.025759

  Mayer bond orders larger than 0.1
B(  0-C ,  1-C ) :   1.0843 B(  0-C ,  7-H ) :   0.9508 B(  0-C ,  8-H ) :   0.9407
B(  0-C ,  9-H ) :   0.9387 B(  1-C ,  2-C ) :   1.9857 B(  1-C ,  3-C ) :   0.9799
B(  2-C , 10-H ) :   0.9294 B(  2-C , 11-H ) :   0.9194 B(  3-C ,  4-O ) :   1.0609
B(  3-C ,  5-C ) :   0.9883 B(  3-C , 12-H ) :   0.8796 B(  4-O , 13-H ) :   0.9718
B(  5-C ,  6-C ) :   1.9961 B(  5-C , 14-H ) :   0.9438 B(  6-C , 15-H ) :   0.9341
B(  6-C , 16-H ) :   0.9432

FINAL SINGLE POINT ENERGY      -309.196249752745

DIPOLE MOMENT
-------------
                                X             Y             Z
Electronic contribution:      0.22176       1.68702      -1.70453
Nuclear contribution   :     -0.15314      -1.81792       2.10312
                        -----------------------------------------
Total Dipole Moment    :      0.06862      -0.13090       0.39859
                        -----------------------------------------
Magnitude (a.u.)       :      0.42511
Magnitude (Debye)      :      1.08053

                             ****ORCA TERMINATED NORMALLY****
TOTAL RUN TIME: 0 days 0 hours 0 minutes 7 seconds 509 msec
