                         Program Version 3.0.3 - RELEASE   -
|  1> ! RI PBE def2-SVP def2-SVP/J NBO PAL2
|  2> % maxcore 2000
|  3> % output
|  4>     # printlevel mini
|  5>     print[ P_Basis ] 0
|  6>     print[ P_SCFInfo ] 1
|  7>     print[ P_SCFIterInfo ] 1
|  8>     print[ P_OrbEn ] 0
|  9>     print[ P_Cartesian ] 0
| 10> end
| 11> *xyz 0 1
| 12>  C        1.0112720000     0.2236330000     0.2542400000
| 13>  C        2.4539980000    -0.0753050000     0.0001790000
| 14>  C        2.9809040000    -1.2873800000     0.1237210000
| 15>  C        3.2755990000     1.1345270000    -0.4016680000
| 16>  O        3.2494450000     2.1264110000     0.6160170000
| 17>  C        4.6469850000     0.8233180000    -0.7999520000
| 18>  C        5.7850690000     0.5993310000    -1.1081770000
| 19>  H        0.4806360000    -0.6607300000     0.6075690000
| 20>  H        0.5233100000     0.5744600000    -0.6616440000
| 21>  H        0.9031420000     1.0211540000     0.9930260000
| 22>  H        2.3706890000    -2.1313120000     0.4262480000
| 23>  H        4.0284810000    -1.4732460000    -0.0815400000
| 24>  H        2.7786320000     1.6122020000    -1.2550820000
| 25>  H        3.7426360000     1.7789090000     1.3662300000
| 26>  H        6.7936930000     0.4046270000    -1.3876680000
| 27> *
| 28>
| 29>                          ****END OF INPUT****
 Total Charge           Charge          ....    0
 Multiplicity           Mult            ....    1
 Number of Electrons    NEL             ....   52
 Basis Dimension        Dim             ....  138

MULLIKEN ATOMIC CHARGES
-----------------------
   0 C :    0.080578
   1 C :   -0.246442
   2 C :    0.004646
   3 C :    0.296684
   4 O :   -0.267784
   5 C :    0.349237
   6 C :   -0.508082
   7 H :    0.017547
   8 H :    0.028006
   9 H :    0.033002
  10 H :    0.005834
  11 H :    0.022996
  12 H :    0.022658
  13 H :    0.157465
  14 H :    0.003655
Sum of atomic charges:   -0.0000000

LOEWDIN ATOMIC CHARGES
----------------------
   0 C :   -0.056533
   1 C :   -0.048856
   2 C :   -0.058905
   3 C :    0.044703
   4 O :   -0.093722
   5 C :   -0.029348
   6 C :   -0.071547
   7 H :    0.032032
   8 H :    0.038463
   9 H :    0.036685
  10 H :    0.022706
  11 H :    0.026860
  12 H :    0.047429
  13 H :    0.073124
  14 H :    0.036911

  Mayer bond orders larger than 0.1
B(  0-C ,  1-C ) :   1.0884 B(  0-C ,  7-H ) :   0.9507 B(  0-C ,  8-H ) :   0.9389
B(  0-C ,  9-H ) :   0.9378 B(  1-C ,  2-C ) :   1.9973 B(  1-C ,  3-C ) :   0.9537
B(  2-C , 10-H ) :   0.9285 B(  2-C , 11-H ) :   0.9101 B(  3-C ,  4-O ) :   1.0124
B(  3-C ,  5-C ) :   0.9508 B(  3-C , 12-H ) :   0.8565 B(  4-O , 13-H ) :   0.9777
B(  5-C ,  6-C ) :   2.3145 B(  5-C , 14-H ) :  -0.1123 B(  6-C , 14-H ) :   1.1016

FINAL SINGLE POINT ENERGY      -307.949136996473

DIPOLE MOMENT
-------------
                                X             Y             Z
Electronic contribution:      4.42138       2.62248      -0.92416
Nuclear contribution   :     -4.37644      -2.99484       1.05927
                        -----------------------------------------
Total Dipole Moment    :      0.04494      -0.37236       0.13511
                        -----------------------------------------
Magnitude (a.u.)       :      0.39865
Magnitude (Debye)      :      1.01329

                             ****ORCA TERMINATED NORMALLY****
TOTAL RUN TIME: 0 days 0 hours 0 minutes 7 seconds 152 msec
