                         Program Version 3.0.3 - RELEASE   -
|  1> ! RI PBE def2-SVP def2-SVP/J NBO PAL2
|  2> % maxcore 2000
|  3> % output
|  4>     # printlevel mini
|  5>     print[ P_Basis ] 0
|  6>     print[ P_SCFInfo ] 1
|  7>     print[ P_SCFIterInfo ] 1
|  8>     print[ P_OrbEn ] 0
|  9>     print[ P_Cartesian ] 0
| 10> end
| 11> *xyz 0 1
| 12>  C        1.0453760000    -2.6999900000    -1.8195920000
| 13>  C        1.4489950000    -1.8982320000    -0.6255550000
| 14>  C        0.9592640000    -2.1042290000     0.5917330000
| 15>  C        2.4251170000    -0.7904690000    -0.8694040000
| 16>  O        3.5739340000    -1.3152650000    -1.5125270000
| 17>  C        4.5346270000    -0.4348850000    -1.8421460000
| 18>  C        4.5539510000     0.8787880000    -1.6345380000
| 19>  H        0.3106590000    -3.4615030000    -1.5567560000
| 20>  H        1.9151650000    -3.1897100000    -2.2645010000
| 21>  H        0.6175180000    -2.0550230000    -2.5945420000
| 22>  H        0.2146150000    -2.8699440000     0.7793190000
| 23>  H        1.2832460000    -1.5116370000     1.4403910000
| 24>  H        2.7119930000    -0.3083520000     0.0716480000
| 25>  H        1.9748660000    -0.0261210000    -1.5204670000
| 26>  H        5.3571570000    -0.9461710000    -2.3314800000
| 27>  H        3.7558520000     1.4210890000    -1.1466870000
| 28>  H        5.4139670000     1.4424720000    -1.9679870000
| 29> *
| 30>
| 31>                          ****END OF INPUT****
 Total Charge           Charge          ....    0
 Multiplicity           Mult            ....    1
 Number of Electrons    NEL             ....   54
 Basis Dimension        Dim             ....  148

MULLIKEN ATOMIC CHARGES
-----------------------
   0 C :    0.072847
   1 C :   -0.205411
   2 C :   -0.024770
   3 C :    0.215598
   4 O :   -0.260123
   5 C :    0.104055
   6 C :   -0.117022
   7 H :    0.017452
   8 H :    0.042631
   9 H :    0.026419
  10 H :    0.014771
  11 H :    0.011776
  12 H :    0.011462
  13 H :    0.024184
  14 H :    0.012380
  15 H :    0.029336
  16 H :    0.024415
Sum of atomic charges:    0.0000000

LOEWDIN ATOMIC CHARGES
----------------------
   0 C :   -0.056211
   1 C :   -0.041528
   2 C :   -0.061991
   3 C :    0.078434
   4 O :   -0.064152
   5 C :    0.030945
   6 C :   -0.158881
   7 H :    0.031706
   8 H :    0.040913
   9 H :    0.037510
  10 H :    0.022725
  11 H :    0.021625
  12 H :    0.018972
  13 H :    0.021193
  14 H :    0.023813
  15 H :    0.022540
  16 H :    0.032388

  Mayer bond orders larger than 0.1
B(  0-C ,  1-C ) :   1.0802 B(  0-C ,  7-H ) :   0.9509 B(  0-C ,  8-H ) :   0.9384
B(  0-C ,  9-H ) :   0.9409 B(  1-C ,  2-C ) :   1.9911 B(  1-C ,  3-C ) :   1.0438
B(  2-C , 10-H ) :   0.9377 B(  2-C , 11-H ) :   0.9324 B(  3-C ,  4-O ) :   0.9640
B(  3-C , 12-H ) :   0.9216 B(  3-C , 13-H ) :   0.9126 B(  4-O ,  5-C ) :   1.1621
B(  4-O ,  6-C ) :   0.1034 B(  5-C ,  6-C ) :   1.8613 B(  5-C , 14-H ) :   0.9634
B(  6-C , 15-H ) :   0.9512 B(  6-C , 16-H ) :   0.9337

FINAL SINGLE POINT ENERGY      -309.194919577480

DIPOLE MOMENT
-------------
                                X             Y             Z
Electronic contribution:      2.54402      -0.35750      -0.09716
Nuclear contribution   :     -2.80775       0.41794       0.08860
                        -----------------------------------------
Total Dipole Moment    :     -0.26373       0.06044      -0.00856
                        -----------------------------------------
Magnitude (a.u.)       :      0.27070
Magnitude (Debye)      :      0.68807

                             ****ORCA TERMINATED NORMALLY****
TOTAL RUN TIME: 0 days 0 hours 0 minutes 7 seconds 322 msec
