                         Program Version 3.0.3 - RELEASE   -
|  1> ! RI PBE def2-SVP def2-SVP/J NBO PAL2
|  2> % maxcore 2000
|  3> % output
|  4>     # printlevel mini
|  5>     print[ P_Basis ] 0
|  6>     print[ P_SCFInfo ] 1
|  7>     print[ P_SCFIterInfo ] 1
|  8>     print[ P_OrbEn ] 0
|  9>     print[ P_Cartesian ] 0
| 10> end
| 11> *xyz 0 1
| 12>  C        1.0823490000     0.1205290000    -0.0648520000
| 13>  C        2.5775210000     0.0445180000     0.0182340000
| 14>  C        3.2939800000    -0.9056650000     0.6531250000
| 15>  C        2.7400080000    -2.0420540000     1.3807060000
| 16>  O        3.4307780000    -2.8660660000     1.9325460000
| 17>  C        3.2667840000     1.0941350000    -0.6501220000
| 18>  C        3.8106320000     1.9989060000    -1.2273950000
| 19>  H        0.5839050000    -0.6942140000     0.4540930000
| 20>  H        0.7720880000     0.1114570000    -1.1127810000
| 21>  H        0.7390770000     1.0682370000     0.3576700000
| 22>  H        4.3773620000    -0.8520270000     0.6424090000
| 23>  H        1.6372040000    -2.1317090000     1.4145820000
| 24>  H        4.3067020000     2.7932430000    -1.7340150000
| 25> *
| 26>
| 27>                          ****END OF INPUT****
 Total Charge           Charge          ....    0
 Multiplicity           Mult            ....    1
 Number of Electrons    NEL             ....   50
 Basis Dimension        Dim             ....  128

MULLIKEN ATOMIC CHARGES
-----------------------
   0 C :    0.085144
   1 C :   -0.134558
   2 C :   -0.010214
   3 C :    0.115661
   4 O :   -0.173242
   5 C :    0.388093
   6 C :   -0.406505
   7 H :    0.025789
   8 H :    0.049781
   9 H :    0.049862
  10 H :    0.013356
  11 H :   -0.019349
  12 H :    0.016180
Sum of atomic charges:    0.0000000

LOEWDIN ATOMIC CHARGES
----------------------
   0 C :   -0.042629
   1 C :   -0.010677
   2 C :   -0.055933
   3 C :    0.063252
   4 O :   -0.113525
   5 C :   -0.008318
   6 C :   -0.036305
   7 H :    0.031082
   8 H :    0.050078
   9 H :    0.050308
  10 H :    0.042427
  11 H :   -0.011334
  12 H :    0.041574

  Mayer bond orders larger than 0.1
B(  0-C ,  1-C ) :   1.0854 B(  0-C ,  7-H ) :   0.9402 B(  0-C ,  8-H ) :   0.9386
B(  0-C ,  9-H ) :   0.9372 B(  1-C ,  2-C ) :   1.6304 B(  1-C ,  5-C ) :   1.0457
B(  2-C ,  3-C ) :   1.0477 B(  2-C ,  6-C ) :   0.1071 B(  2-C , 10-H ) :   0.9559
B(  3-C ,  4-O ) :   2.0788 B(  3-C , 11-H ) :   0.9369 B(  5-C ,  6-C ) :   2.2752
B(  6-C , 12-H ) :   1.0893

FINAL SINGLE POINT ENERGY      -306.765760045721

DIPOLE MOMENT
-------------
                                X             Y             Z
Electronic contribution:      3.81583      -1.67447       1.17847
Nuclear contribution   :     -4.42284       2.74280      -1.88532
                        -----------------------------------------
Total Dipole Moment    :     -0.60701       1.06833      -0.70685
                        -----------------------------------------
Magnitude (a.u.)       :      1.41755
Magnitude (Debye)      :      3.60312

                             ****ORCA TERMINATED NORMALLY****
TOTAL RUN TIME: 0 days 0 hours 0 minutes 6 seconds 117 msec
