                         Program Version 3.0.3 - RELEASE   -
|  1> ! RI PBE def2-SVP def2-SVP/J NBO PAL2
|  2> % maxcore 2000
|  3> % output
|  4>     # printlevel mini
|  5>     print[ P_Basis ] 0
|  6>     print[ P_SCFInfo ] 1
|  7>     print[ P_SCFIterInfo ] 1
|  8>     print[ P_OrbEn ] 0
|  9>     print[ P_Cartesian ] 0
| 10> end
| 11> *xyz 0 1
| 12>  C        0.8484790000     0.1081540000     0.4627690000
| 13>  C        2.3115540000     0.0767410000     0.1260140000
| 14>  C        2.8805490000    -0.6473470000    -0.8496730000
| 15>  C        2.2040900000    -1.5496950000    -1.8227570000
| 16>  O        2.5673560000    -1.2448190000    -3.1576150000
| 17>  C        3.1361730000     0.8939960000     0.9552780000
| 18>  C        3.7917220000     1.5970080000     1.6792980000
| 19>  H        0.2434630000    -0.4405800000    -0.2570160000
| 20>  H        0.4944250000     1.1408580000     0.5052070000
| 21>  H        0.6801660000    -0.3258430000     1.4521170000
| 22>  H        3.9573720000    -0.5724790000    -0.9758490000
| 23>  H        1.1154610000    -1.5421310000    -1.6997190000
| 24>  H        2.5375620000    -2.5801360000    -1.6630230000
| 25>  H        2.3754750000    -0.3154280000    -3.3100500000
| 26>  H        4.3849620000     2.2142100000     2.3115390000
| 27> *
| 28>
| 29>                          ****END OF INPUT****
 Total Charge           Charge          ....    0
 Multiplicity           Mult            ....    1
 Number of Electrons    NEL             ....   52
 Basis Dimension        Dim             ....  138

MULLIKEN ATOMIC CHARGES
-----------------------
   0 C :    0.082548
   1 C :   -0.152405
   2 C :   -0.133108
   3 C :    0.261918
   4 O :   -0.293911
   5 C :    0.392741
   6 C :   -0.439660
   7 H :    0.012949
   8 H :    0.037545
   9 H :    0.041929
  10 H :    0.009200
  11 H :    0.001725
  12 H :    0.021459
  13 H :    0.153028
  14 H :    0.004041
Sum of atomic charges:    0.0000000

LOEWDIN ATOMIC CHARGES
----------------------
   0 C :   -0.047396
   1 C :   -0.055281
   2 C :   -0.046723
   3 C :    0.053464
   4 O :   -0.118808
   5 C :   -0.010144
   6 C :   -0.070776
   7 H :    0.027581
   8 H :    0.042081
   9 H :    0.045052
  10 H :    0.034424
  11 H :    0.008555
  12 H :    0.033993
  13 H :    0.068062
  14 H :    0.035915

  Mayer bond orders larger than 0.1
B(  0-C ,  1-C ) :   1.0890 B(  0-C ,  7-H ) :   0.9399 B(  0-C ,  8-H ) :   0.9413
B(  0-C ,  9-H ) :   0.9404 B(  1-C ,  2-C ) :   1.7650 B(  1-C ,  5-C ) :   1.0266
B(  2-C ,  3-C ) :   1.0602 B(  2-C ,  6-C ) :   0.1172 B(  2-C , 10-H ) :   0.9471
B(  3-C ,  4-O ) :   1.0207 B(  3-C , 11-H ) :   0.9320 B(  3-C , 12-H ) :   0.9057
B(  4-O , 13-H ) :   0.9854 B(  5-C ,  6-C ) :   2.2850 B(  5-C , 14-H ) :  -0.1023
B(  6-C , 14-H ) :   1.0931

FINAL SINGLE POINT ENERGY      -307.955242241336

DIPOLE MOMENT
-------------
                                X             Y             Z
Electronic contribution:      3.45401       1.29345       0.01187
Nuclear contribution   :     -3.86415      -0.99120       0.26256
                        -----------------------------------------
Total Dipole Moment    :     -0.41014       0.30225       0.27442
                        -----------------------------------------
Magnitude (a.u.)       :      0.57868
Magnitude (Debye)      :      1.47090

                             ****ORCA TERMINATED NORMALLY****
TOTAL RUN TIME: 0 days 0 hours 0 minutes 7 seconds 12 msec
