                         Program Version 3.0.3 - RELEASE   -
|  1> ! RI PBE def2-SVP def2-SVP/J NBO PAL2
|  2> % maxcore 2000
|  3> % output
|  4>     # printlevel mini
|  5>     print[ P_Basis ] 0
|  6>     print[ P_SCFInfo ] 1
|  7>     print[ P_SCFIterInfo ] 1
|  8>     print[ P_OrbEn ] 0
|  9>     print[ P_Cartesian ] 0
| 10> end
| 11> *xyz 0 1
| 12>  C        0.7349840000    -0.0897270000    -0.1670900000
| 13>  C        2.2225560000    -0.1468020000    -0.0373250000
| 14>  C        2.9182080000    -1.3141050000    -0.6566200000
| 15>  C        2.8692040000     0.8178030000     0.6089110000
| 16>  O        4.2261190000     0.8158720000     0.7571280000
| 17>  C        4.7917820000     1.8421150000     1.4315790000
| 18>  C        6.0990440000     1.9277290000     1.6261280000
| 19>  H        0.2683010000    -0.9730160000     0.2825230000
| 20>  H        0.4337720000    -0.0770650000    -1.2203020000
| 21>  H        0.3154110000     0.7955890000     0.3145160000
| 22>  H        2.5496060000    -2.2532020000    -0.2299170000
| 23>  H        3.9965430000    -1.2702020000    -0.5116720000
| 24>  H        2.7150720000    -1.3576250000    -1.7321150000
| 25>  H        2.3550970000     1.6642240000     1.0568790000
| 26>  H        4.0956120000     2.5913860000     1.8022950000
| 27>  H        6.7798060000     1.1743890000     1.2512900000
| 28>  H        6.4998950000     2.7692360000     2.1722820000
| 29> *
| 30>
| 31>                          ****END OF INPUT****
 Total Charge           Charge          ....    0
 Multiplicity           Mult            ....    1
 Number of Electrons    NEL             ....   54
 Basis Dimension        Dim             ....  148

MULLIKEN ATOMIC CHARGES
-----------------------
   0 C :    0.050006
   1 C :   -0.227635
   2 C :    0.063638
   3 C :    0.100941
   4 O :   -0.197291
   5 C :    0.104455
   6 C :   -0.080817
   7 H :    0.026721
   8 H :    0.025994
   9 H :    0.011472
  10 H :    0.020723
  11 H :    0.029973
  12 H :    0.027208
  13 H :   -0.017233
  14 H :    0.002981
  15 H :    0.031830
  16 H :    0.027035
Sum of atomic charges:   -0.0000000

LOEWDIN ATOMIC CHARGES
----------------------
   0 C :   -0.049507
   1 C :   -0.084965
   2 C :   -0.056287
   3 C :    0.010172
   4 O :   -0.015373
   5 C :    0.036524
   6 C :   -0.122977
   7 H :    0.032186
   8 H :    0.031948
   9 H :    0.028546
  10 H :    0.034267
  11 H :    0.032424
  12 H :    0.035256
  13 H :    0.010514
  14 H :    0.013987
  15 H :    0.030554
  16 H :    0.032732

  Mayer bond orders larger than 0.1
B(  0-C ,  1-C ) :   1.0914 B(  0-C ,  7-H ) :   0.9479 B(  0-C ,  8-H ) :   0.9481
B(  0-C ,  9-H ) :   0.9526 B(  1-C ,  2-C ) :   1.1015 B(  1-C ,  3-C ) :   1.8039
B(  2-C , 10-H ) :   0.9432 B(  2-C , 11-H ) :   0.9483 B(  2-C , 12-H ) :   0.9443
B(  3-C ,  4-O ) :   1.0667 B(  3-C , 13-H ) :   0.9356 B(  4-O ,  5-C ) :   1.0860
B(  5-C ,  6-C ) :   1.9255 B(  5-C , 14-H ) :   0.9440 B(  6-C , 15-H ) :   0.9469
B(  6-C , 16-H ) :   0.9340

FINAL SINGLE POINT ENERGY      -309.203378661150

DIPOLE MOMENT
-------------
                                X             Y             Z
Electronic contribution:      3.30237       2.29704       1.72687
Nuclear contribution   :     -3.73339      -2.15145      -1.69346
                        -----------------------------------------
Total Dipole Moment    :     -0.43102       0.14559       0.03341
                        -----------------------------------------
Magnitude (a.u.)       :      0.45617
Magnitude (Debye)      :      1.15949

                             ****ORCA TERMINATED NORMALLY****
TOTAL RUN TIME: 0 days 0 hours 0 minutes 7 seconds 445 msec
