                         Program Version 3.0.3 - RELEASE   -
|  1> ! RI PBE def2-SVP def2-SVP/J NBO PAL2
|  2> % maxcore 2000
|  3> % output
|  4>     # printlevel mini
|  5>     print[ P_Basis ] 0
|  6>     print[ P_SCFInfo ] 1
|  7>     print[ P_SCFIterInfo ] 1
|  8>     print[ P_OrbEn ] 0
|  9>     print[ P_Cartesian ] 0
| 10> end
| 11> *xyz 0 1
| 12>  C        1.0656930000    -0.0028140000    -0.0241470000
| 13>  C        2.6016850000    -0.0512330000    -0.0221890000
| 14>  C        3.1709240000     1.3711140000    -0.1417220000
| 15>  C        3.0273700000    -0.5869100000     1.3420140000
| 16>  O        3.6772950000    -1.5651000000     1.5551300000
| 17>  C        3.0912310000    -0.8939710000    -1.1028730000
| 18>  C        3.4858820000    -1.5762330000    -2.0070580000
| 19>  H        0.7035160000     0.5926500000     0.8183200000
| 20>  H        0.6419980000    -1.0056530000     0.0452390000
| 21>  H        0.7124550000     0.4584170000    -0.9476060000
| 22>  H        2.8380180000     1.9852640000     0.6994180000
| 23>  H        2.8181680000     1.8332300000    -1.0649290000
| 24>  H        4.2615950000     1.3566320000    -0.1574040000
| 25>  H        2.6566310000     0.0527200000     2.1759840000
| 26>  H        3.8418390000    -2.1896110000    -2.8006770000
| 27> *
| 28>
| 29>                          ****END OF INPUT****
 Total Charge           Charge          ....    0
 Multiplicity           Mult            ....    1
 Number of Electrons    NEL             ....   52
 Basis Dimension        Dim             ....  138

MULLIKEN ATOMIC CHARGES
-----------------------
   0 C :    0.055193
   1 C :   -0.307278
   2 C :    0.043847
   3 C :    0.142380
   4 O :   -0.117842
   5 C :    0.518851
   6 C :   -0.537630
   7 H :    0.023081
   8 H :    0.042863
   9 H :    0.037675
  10 H :    0.025597
  11 H :    0.038865
  12 H :    0.047385
  13 H :   -0.010412
  14 H :   -0.002574
Sum of atomic charges:    0.0000000

LOEWDIN ATOMIC CHARGES
----------------------
   0 C :   -0.027736
   1 C :   -0.115014
   2 C :   -0.030182
   3 C :    0.105608
   4 O :   -0.082018
   5 C :   -0.005814
   6 C :   -0.070901
   7 H :    0.027592
   8 H :    0.035923
   9 H :    0.036168
  10 H :    0.028009
  11 H :    0.036350
  12 H :    0.036807
  13 H :   -0.010990
  14 H :    0.036200

  Mayer bond orders larger than 0.1
B(  0-C ,  1-C ) :   1.0253 B(  0-C ,  7-H ) :   0.9546 B(  0-C ,  8-H ) :   0.9615
B(  0-C ,  9-H ) :   0.9557 B(  1-C ,  2-C ) :   1.0280 B(  1-C ,  3-C ) :   0.8417
B(  1-C ,  5-C ) :   0.9103 B(  2-C , 10-H ) :   0.9530 B(  2-C , 11-H ) :   0.9553
B(  2-C , 12-H ) :   0.9604 B(  3-C ,  4-O ) :   2.2673 B(  3-C , 13-H ) :   0.9274
B(  5-C ,  6-C ) :   2.2611 B(  5-C , 14-H ) :  -0.1282 B(  6-C , 14-H ) :   1.1172

FINAL SINGLE POINT ENERGY      -307.969797174382

DIPOLE MOMENT
-------------
                                X             Y             Z
Electronic contribution:      3.56847      -5.39421       0.90535
Nuclear contribution   :     -4.12291       6.22058      -1.14392
                        -----------------------------------------
Total Dipole Moment    :     -0.55444       0.82637      -0.23857
                        -----------------------------------------
Magnitude (a.u.)       :      1.02333
Magnitude (Debye)      :      2.60109

                             ****ORCA TERMINATED NORMALLY****
TOTAL RUN TIME: 0 days 0 hours 0 minutes 6 seconds 542 msec
