                         Program Version 3.0.3 - RELEASE   -
|  1> ! RI PBE def2-SVP def2-SVP/J NBO PAL2
|  2> % maxcore 2000
|  3> % output
|  4>     # printlevel mini
|  5>     print[ P_Basis ] 0
|  6>     print[ P_SCFInfo ] 1
|  7>     print[ P_SCFIterInfo ] 1
|  8>     print[ P_OrbEn ] 0
|  9>     print[ P_Cartesian ] 0
| 10> end
| 11> *xyz 0 1
| 12>  C        0.8416140000    -0.1777870000    -0.2778530000
| 13>  C        2.3563980000    -0.1196530000    -0.3569580000
| 14>  C        2.9446360000    -1.5218280000    -0.2770390000
| 15>  C        2.7927820000     0.5999230000    -1.6259270000
| 16>  O        2.7284750000     0.6462790000     0.8059220000
| 17>  C        4.0339800000     0.8838260000     1.0325630000
| 18>  C        4.4627070000     1.5797140000     2.0783340000
| 19>  H        0.4362490000    -0.7420140000    -1.1197820000
| 20>  H        0.4232430000     0.8301010000    -0.2980130000
| 21>  H        0.5299630000    -0.6609880000     0.6498700000
| 22>  H        2.5792860000    -2.1287000000    -1.1083310000
| 23>  H        2.6493720000    -2.0025680000     0.6577750000
| 24>  H        4.0353990000    -1.5130410000    -0.3293290000
| 25>  H        2.4222420000     0.0671160000    -2.5043550000
| 26>  H        3.8798850000     0.6599610000    -1.7106400000
| 27>  H        2.3903740000     1.6148020000    -1.6420240000
| 28>  H        4.7340140000     0.4739520000     0.3095910000
| 29>  H        3.7746670000     1.9928660000     2.8051290000
| 30>  H        5.5227030000     1.7410380000     2.2128690000
| 31> *
| 32>
| 33>                          ****END OF INPUT****
 Total Charge           Charge          ....    0
 Multiplicity           Mult            ....    1
 Number of Electrons    NEL             ....   56
 Basis Dimension        Dim             ....  158

MULLIKEN ATOMIC CHARGES
-----------------------
   0 C :    0.064864
   1 C :   -0.158312
   2 C :    0.049645
   3 C :    0.057261
   4 O :   -0.257213
   5 C :    0.098499
   6 C :   -0.086756
   7 H :    0.013713
   8 H :    0.022738
   9 H :    0.022702
  10 H :    0.020316
  11 H :    0.030536
  12 H :    0.021749
  13 H :    0.017570
  14 H :    0.019366
  15 H :    0.026356
  16 H :   -0.000655
  17 H :    0.019915
  18 H :    0.017706
Sum of atomic charges:   -0.0000000

LOEWDIN ATOMIC CHARGES
----------------------
   0 C :   -0.052861
   1 C :    0.024908
   2 C :   -0.062284
   3 C :   -0.060849
   4 O :   -0.070189
   5 C :    0.027786
   6 C :   -0.136275
   7 H :    0.028549
   8 H :    0.029501
   9 H :    0.029835
  10 H :    0.032146
  11 H :    0.032787
  12 H :    0.026260
  13 H :    0.031802
  14 H :    0.025943
  15 H :    0.032312
  16 H :    0.007998
  17 H :    0.025090
  18 H :    0.027540

  Mayer bond orders larger than 0.1
B(  0-C ,  1-C ) :   1.0581 B(  0-C ,  7-H ) :   0.9557 B(  0-C ,  8-H ) :   0.9549
B(  0-C ,  9-H ) :   0.9537 B(  1-C ,  2-C ) :   1.0605 B(  1-C ,  3-C ) :   1.0613
B(  1-C ,  4-O ) :   0.9312 B(  2-C , 10-H ) :   0.9518 B(  2-C , 11-H ) :   0.9498
B(  2-C , 12-H ) :   0.9511 B(  3-C , 13-H ) :   0.9515 B(  3-C , 14-H ) :   0.9504
B(  3-C , 15-H ) :   0.9492 B(  4-O ,  5-C ) :   1.1265 B(  5-C ,  6-C ) :   1.9282
B(  5-C , 16-H ) :   0.9347 B(  6-C , 17-H ) :   0.9486 B(  6-C , 18-H ) :   0.9381

FINAL SINGLE POINT ENERGY      -310.417582316816

DIPOLE MOMENT
-------------
                                X             Y             Z
Electronic contribution:      0.85074       2.13494       3.26147
Nuclear contribution   :     -0.91036      -2.56184      -3.92718
                        -----------------------------------------
Total Dipole Moment    :     -0.05961      -0.42690      -0.66570
                        -----------------------------------------
Magnitude (a.u.)       :      0.79307
Magnitude (Debye)      :      2.01582

                             ****ORCA TERMINATED NORMALLY****
TOTAL RUN TIME: 0 days 0 hours 0 minutes 8 seconds 350 msec
