                         Program Version 3.0.3 - RELEASE   -
|  1> ! RI PBE def2-SVP def2-SVP/J NBO PAL2
|  2> % maxcore 2000
|  3> % output
|  4>     # printlevel mini
|  5>     print[ P_Basis ] 0
|  6>     print[ P_SCFInfo ] 1
|  7>     print[ P_SCFIterInfo ] 1
|  8>     print[ P_OrbEn ] 0
|  9>     print[ P_Cartesian ] 0
| 10> end
| 11> *xyz 0 1
| 12>  C        0.8949320000     0.0172140000    -0.0484840000
| 13>  C        2.4232340000     0.0442380000    -0.0759940000
| 14>  C        2.9126870000     1.2763310000    -0.8246910000
| 15>  C        2.9236620000     0.0875880000     1.3803460000
| 16>  O        4.3235230000     0.1143000000     1.4948500000
| 17>  C        2.9261230000    -1.2427290000    -0.6709990000
| 18>  C        3.8795910000    -1.3867190000    -1.5834090000
| 19>  H        0.5032850000     0.9098960000     0.4469980000
| 20>  H        0.5217730000    -0.8592410000     0.4888390000
| 21>  H        0.4885980000    -0.0120250000    -1.0620570000
| 22>  H        2.4763570000     2.1769040000    -0.3851430000
| 23>  H        2.6211880000     1.2384670000    -1.8769550000
| 24>  H        3.9976140000     1.3753600000    -0.7654410000
| 25>  H        2.4975520000    -0.7663930000     1.9287770000
| 26>  H        2.5574950000     1.0012160000     1.8575320000
| 27>  H        4.6708660000    -0.6117730000     0.9641760000
| 28>  H        2.4620900000    -2.1400240000    -0.2602710000
| 29>  H        4.3780930000    -0.5365860000    -2.0357940000
| 30>  H        4.1824360000    -2.3700240000    -1.9250900000
| 31> *
| 32>
| 33>                          ****END OF INPUT****
 Total Charge           Charge          ....    0
 Multiplicity           Mult            ....    1
 Number of Electrons    NEL             ....   56
 Basis Dimension        Dim             ....  158

MULLIKEN ATOMIC CHARGES
-----------------------
   0 C :    0.057762
   1 C :   -0.327403
   2 C :    0.078491
   3 C :    0.240025
   4 O :   -0.272003
   5 C :   -0.037851
   6 C :   -0.032013
   7 H :    0.014754
   8 H :    0.013322
   9 H :    0.021900
  10 H :    0.007036
  11 H :    0.018676
  12 H :    0.020833
  13 H :   -0.008977
  14 H :    0.004940
  15 H :    0.150011
  16 H :    0.000875
  17 H :    0.026336
  18 H :    0.023287
Sum of atomic charges:    0.0000000

LOEWDIN ATOMIC CHARGES
----------------------
   0 C :   -0.041216
   1 C :   -0.089062
   2 C :   -0.048469
   3 C :    0.069765
   4 O :   -0.113342
   5 C :   -0.023452
   6 C :   -0.066373
   7 H :    0.026023
   8 H :    0.023044
   9 H :    0.028607
  10 H :    0.027387
  11 H :    0.025484
  12 H :    0.023584
  13 H :    0.000900
  14 H :    0.019201
  15 H :    0.061289
  16 H :    0.025752
  17 H :    0.024541
  18 H :    0.026336

  Mayer bond orders larger than 0.1
B(  0-C ,  1-C ) :   1.0315 B(  0-C ,  7-H ) :   0.9554 B(  0-C ,  8-H ) :   0.9553
B(  0-C ,  9-H ) :   0.9603 B(  1-C ,  2-C ) :   1.0675 B(  1-C ,  3-C ) :   0.9731
B(  1-C ,  5-C ) :   0.9657 B(  2-C , 10-H ) :   0.9525 B(  2-C , 11-H ) :   0.9517
B(  2-C , 12-H ) :   0.9382 B(  3-C ,  4-O ) :   1.0911 B(  3-C , 13-H ) :   0.9315
B(  3-C , 14-H ) :   0.9315 B(  4-O , 15-H ) :   0.9708 B(  5-C ,  6-C ) :   1.9944
B(  5-C , 16-H ) :   0.9558 B(  6-C , 17-H ) :   0.9316 B(  6-C , 18-H ) :   0.9392

FINAL SINGLE POINT ENERGY      -310.415150274253

DIPOLE MOMENT
-------------
                                X             Y             Z
Electronic contribution:      3.09885      -1.26446       2.03593
Nuclear contribution   :     -3.43517       0.93349      -2.36937
                        -----------------------------------------
Total Dipole Moment    :     -0.33632      -0.33097      -0.33345
                        -----------------------------------------
Magnitude (a.u.)       :      0.57779
Magnitude (Debye)      :      1.46862

                             ****ORCA TERMINATED NORMALLY****
TOTAL RUN TIME: 0 days 0 hours 0 minutes 8 seconds 582 msec
