                         Program Version 3.0.3 - RELEASE   -
|  1> ! RI PBE def2-SVP def2-SVP/J NBO PAL2
|  2> % maxcore 2000
|  3> % output
|  4>     # printlevel mini
|  5>     print[ P_Basis ] 0
|  6>     print[ P_SCFInfo ] 1
|  7>     print[ P_SCFIterInfo ] 1
|  8>     print[ P_OrbEn ] 0
|  9>     print[ P_Cartesian ] 0
| 10> end
| 11> *xyz 0 1
| 12>  C        0.9489290000     0.0375930000    -0.0857710000
| 13>  C        2.4782130000     0.0551750000    -0.1235660000
| 14>  C        2.9778580000     0.6807790000    -1.4285820000
| 15>  C        2.9964240000     0.8639720000     1.0820800000
| 16>  O        4.3947940000     0.8878420000     1.1832380000
| 17>  C        2.9975420000    -1.3069940000     0.0026620000
| 18>  C        3.4573490000    -2.4093520000     0.1391290000
| 19>  H        0.5635830000     1.0593560000    -0.1400700000
| 20>  H        0.5817360000    -0.4235720000     0.8331630000
| 21>  H        0.5486840000    -0.5236610000    -0.9317080000
| 22>  H        2.5559630000     1.6830530000    -1.5407900000
| 23>  H        2.6753710000     0.0799770000    -2.2880280000
| 24>  H        4.0649030000     0.7629460000    -1.4238320000
| 25>  H        2.5357980000     0.4660430000     1.9968430000
| 26>  H        2.6748250000     1.9027100000     0.9661110000
| 27>  H        4.6952250000    -0.0253220000     1.2525400000
| 28>  H        3.8476040000    -3.3942450000     0.2436820000
| 29> *
| 30>
| 31>                          ****END OF INPUT****
 Total Charge           Charge          ....    0
 Multiplicity           Mult            ....    1
 Number of Electrons    NEL             ....   54
 Basis Dimension        Dim             ....  148

MULLIKEN ATOMIC CHARGES
-----------------------
   0 C :    0.071142
   1 C :   -0.362335
   2 C :    0.087986
   3 C :    0.247791
   4 O :   -0.271627
   5 C :    0.471242
   6 C :   -0.537303
   7 H :    0.018032
   8 H :    0.025762
   9 H :    0.029006
  10 H :    0.011062
  11 H :    0.022738
  12 H :    0.026575
  13 H :    0.001291
  14 H :    0.004936
  15 H :    0.156287
  16 H :   -0.002586
Sum of atomic charges:   -0.0000000

LOEWDIN ATOMIC CHARGES
----------------------
   0 C :   -0.034030
   1 C :   -0.095808
   2 C :   -0.035444
   3 C :    0.074205
   4 O :   -0.109134
   5 C :   -0.007301
   6 C :   -0.095810
   7 H :    0.027365
   8 H :    0.029271
   9 H :    0.031981
  10 H :    0.026560
  11 H :    0.028614
  12 H :    0.028700
  13 H :    0.006146
  14 H :    0.020562
  15 H :    0.068068
  16 H :    0.036055

  Mayer bond orders larger than 0.1
B(  0-C ,  1-C ) :   1.0378 B(  0-C ,  7-H ) :   0.9563 B(  0-C ,  8-H ) :   0.9555
B(  0-C ,  9-H ) :   0.9581 B(  1-C ,  2-C ) :   1.0336 B(  1-C ,  3-C ) :   0.9767
B(  1-C ,  5-C ) :   0.9263 B(  2-C , 10-H ) :   0.9534 B(  2-C , 11-H ) :   0.9586
B(  2-C , 12-H ) :   0.9504 B(  3-C ,  4-O ) :   1.0872 B(  3-C , 13-H ) :   0.9326
B(  3-C , 14-H ) :   0.9317 B(  4-O , 15-H ) :   0.9731 B(  5-C ,  6-C ) :   2.2607
B(  5-C , 16-H ) :  -0.1280 B(  6-C , 16-H ) :   1.1175

FINAL SINGLE POINT ENERGY      -309.172625160734

DIPOLE MOMENT
-------------
                                X             Y             Z
Electronic contribution:      3.70559      -2.69139       2.12725
Nuclear contribution   :     -4.07481       2.37968      -2.18749
                        -----------------------------------------
Total Dipole Moment    :     -0.36922      -0.31171      -0.06024
                        -----------------------------------------
Magnitude (a.u.)       :      0.48694
Magnitude (Debye)      :      1.23771

                             ****ORCA TERMINATED NORMALLY****
TOTAL RUN TIME: 0 days 0 hours 0 minutes 7 seconds 636 msec
