                         Program Version 3.0.3 - RELEASE   -
|  1> ! RI PBE def2-SVP def2-SVP/J NBO PAL2
|  2> % maxcore 2000
|  3> % output
|  4>     # printlevel mini
|  5>     print[ P_Basis ] 0
|  6>     print[ P_SCFInfo ] 1
|  7>     print[ P_SCFIterInfo ] 1
|  8>     print[ P_OrbEn ] 0
|  9>     print[ P_Cartesian ] 0
| 10> end
| 11> *xyz 0 1
| 12>  C        0.8818540000    -0.3765000000    -0.6717180000
| 13>  C        2.2529020000    -0.0941800000    -0.0646770000
| 14>  C        2.8926560000     1.1404210000    -0.6927100000
| 15>  C        2.1062640000     0.1208510000     1.4337770000
| 16>  O        1.4284220000     1.0263190000     1.8648730000
| 17>  C        2.8223040000    -0.8171980000     2.3414820000
| 18>  C        2.7430500000    -0.6940940000     3.6614750000
| 19>  H        0.9658900000    -0.5124690000    -1.7524030000
| 20>  H        0.2092160000     0.4611910000    -0.4774180000
| 21>  H        0.4306930000    -1.2784820000    -0.2509870000
| 22>  H        2.9033400000    -0.9587490000    -0.2324880000
| 23>  H        2.2744960000     2.0191990000    -0.4989430000
| 24>  H        2.9859120000     1.0114450000    -1.7734980000
| 25>  H        3.8893670000     1.3306540000    -0.2871130000
| 26>  H        3.4128700000    -1.6071840000     1.8879820000
| 27>  H        2.1468870000     0.1030340000     4.0935770000
| 28>  H        3.2595760000    -1.3705560000     4.3320710000
| 29> *
| 30>
| 31>                          ****END OF INPUT****
 Total Charge           Charge          ....    0
 Multiplicity           Mult            ....    1
 Number of Electrons    NEL             ....   54
 Basis Dimension        Dim             ....  148

MULLIKEN ATOMIC CHARGES
-----------------------
   0 C :    0.017175
   1 C :   -0.115466
   2 C :    0.020207
   3 C :    0.040707
   4 O :   -0.165779
   5 C :   -0.072592
   6 C :    0.038388
   7 H :    0.023667
   8 H :    0.038871
   9 H :    0.017357
  10 H :   -0.003115
  11 H :    0.035949
  12 H :    0.022934
  13 H :    0.019665
  14 H :    0.000897
  15 H :    0.045673
  16 H :    0.035462
Sum of atomic charges:   -0.0000000

LOEWDIN ATOMIC CHARGES
----------------------
   0 C :   -0.049300
   1 C :   -0.073629
   2 C :   -0.048470
   3 C :    0.061513
   4 O :   -0.123924
   5 C :   -0.076534
   6 C :    0.024825
   7 H :    0.027750
   8 H :    0.031260
   9 H :    0.026909
  10 H :    0.021730
  11 H :    0.030862
  12 H :    0.027574
  13 H :    0.027443
  14 H :    0.026658
  15 H :    0.033853
  16 H :    0.031480

  Mayer bond orders larger than 0.1
B(  0-C ,  1-C ) :   1.0722 B(  0-C ,  7-H ) :   0.9594 B(  0-C ,  8-H ) :   0.9589
B(  0-C ,  9-H ) :   0.9609 B(  1-C ,  2-C ) :   1.0748 B(  1-C ,  3-C ) :   0.9373
B(  1-C , 10-H ) :   0.9076 B(  2-C , 11-H ) :   0.9588 B(  2-C , 12-H ) :   0.9599
B(  2-C , 13-H ) :   0.9599 B(  3-C ,  4-O ) :   2.1433 B(  3-C ,  5-C ) :   0.9868
B(  5-C ,  6-C ) :   1.9486 B(  5-C , 14-H ) :   0.9487 B(  6-C , 15-H ) :   0.9312
B(  6-C , 16-H ) :   0.9385

FINAL SINGLE POINT ENERGY      -309.228275412007

DIPOLE MOMENT
-------------
                                X             Y             Z
Electronic contribution:     -0.47922       0.71641       5.32406
Nuclear contribution   :      0.99913      -1.40308      -5.49479
                        -----------------------------------------
Total Dipole Moment    :      0.51991      -0.68667      -0.17073
                        -----------------------------------------
Magnitude (a.u.)       :      0.87805
Magnitude (Debye)      :      2.23182

                             ****ORCA TERMINATED NORMALLY****
TOTAL RUN TIME: 0 days 0 hours 0 minutes 7 seconds 455 msec
