                         Program Version 3.0.3 - RELEASE   -
|  1> ! RI PBE def2-SVP def2-SVP/J NBO PAL2
|  2> % maxcore 2000
|  3> % output
|  4>     # printlevel mini
|  5>     print[ P_Basis ] 0
|  6>     print[ P_SCFInfo ] 1
|  7>     print[ P_SCFIterInfo ] 1
|  8>     print[ P_OrbEn ] 0
|  9>     print[ P_Cartesian ] 0
| 10> end
| 11> *xyz 0 1
| 12>  C        1.0406820000    -0.3057120000    -0.0110280000
| 13>  C        2.5519920000    -0.0955270000    -0.0339950000
| 14>  C        3.2195390000    -0.6904650000     1.2025830000
| 15>  C        3.1520710000    -0.6769020000    -1.2954540000
| 16>  O        3.7302030000    -0.0136170000    -2.1218920000
| 17>  C        2.9999160000    -2.1146210000    -1.4793210000
| 18>  C        2.8731020000    -3.3003980000    -1.6286680000
| 19>  H        0.6157620000     0.1578710000     0.8821260000
| 20>  H        0.7928540000    -1.3697360000     0.0108670000
| 21>  H        0.5603050000     0.1394010000    -0.8849730000
| 22>  H        2.7716180000     0.9742840000    -0.0891750000
| 23>  H        3.0430960000    -1.7671060000     1.2639990000
| 24>  H        2.8083350000    -0.2295750000     2.1035220000
| 25>  H        4.2983150000    -0.5205110000     1.1972400000
| 26>  H        2.7711290000    -4.3501760000    -1.7794200000
| 27> *
| 28>
| 29>                          ****END OF INPUT****
 Total Charge           Charge          ....    0
 Multiplicity           Mult            ....    1
 Number of Electrons    NEL             ....   52
 Basis Dimension        Dim             ....  138

MULLIKEN ATOMIC CHARGES
-----------------------
   0 C :    0.008643
   1 C :   -0.104259
   2 C :    0.000049
   3 C :    0.020139
   4 O :   -0.134093
   5 C :    0.417124
   6 C :   -0.434443
   7 H :    0.028070
   8 H :    0.031628
   9 H :    0.033507
  10 H :    0.017678
  11 H :    0.036403
  12 H :    0.026358
  13 H :    0.035276
  14 H :    0.017920
Sum of atomic charges:   -0.0000000

LOEWDIN ATOMIC CHARGES
----------------------
   0 C :   -0.049528
   1 C :   -0.065524
   2 C :   -0.051789
   3 C :    0.046852
   4 O :   -0.091379
   5 C :   -0.033769
   6 C :   -0.019721
   7 H :    0.031708
   8 H :    0.029309
   9 H :    0.031859
  10 H :    0.035501
  11 H :    0.030298
  12 H :    0.031542
  13 H :    0.032183
  14 H :    0.042459

  Mayer bond orders larger than 0.1
B(  0-C ,  1-C ) :   1.0614 B(  0-C ,  7-H ) :   0.9585 B(  0-C ,  8-H ) :   0.9603
B(  0-C ,  9-H ) :   0.9606 B(  1-C ,  2-C ) :   1.0643 B(  1-C ,  3-C ) :   0.9875
B(  1-C , 10-H ) :   0.8864 B(  2-C , 11-H ) :   0.9588 B(  2-C , 12-H ) :   0.9568
B(  2-C , 13-H ) :   0.9600 B(  3-C ,  4-O ) :   2.1756 B(  3-C ,  5-C ) :   0.8435
B(  4-O ,  6-C ) :   0.1089 B(  5-C ,  6-C ) :   2.2968 B(  5-C , 14-H ) :  -0.1083
B(  6-C , 14-H ) :   1.0965

FINAL SINGLE POINT ENERGY      -307.978586411545

DIPOLE MOMENT
-------------
                                X             Y             Z
Electronic contribution:      3.78221      -1.36203      -7.23738
Nuclear contribution   :     -4.31788       0.78111       7.99806
                        -----------------------------------------
Total Dipole Moment    :     -0.53567      -0.58092       0.76069
                        -----------------------------------------
Magnitude (a.u.)       :      1.09684
Magnitude (Debye)      :      2.78795

                             ****ORCA TERMINATED NORMALLY****
TOTAL RUN TIME: 0 days 0 hours 0 minutes 6 seconds 721 msec
