                         Program Version 3.0.3 - RELEASE   -
|  1> ! RI PBE def2-SVP def2-SVP/J NBO PAL2
|  2> % maxcore 2000
|  3> % output
|  4>     # printlevel mini
|  5>     print[ P_Basis ] 0
|  6>     print[ P_SCFInfo ] 1
|  7>     print[ P_SCFIterInfo ] 1
|  8>     print[ P_OrbEn ] 0
|  9>     print[ P_Cartesian ] 0
| 10> end
| 11> *xyz 0 1
| 12>  C        0.9186490000     0.2133650000    -0.6708470000
| 13>  C        2.3553670000     0.2055050000    -0.1656420000
| 14>  C        2.8441870000     1.6159390000     0.1260350000
| 15>  C        2.5282920000    -0.6965960000     1.0698150000
| 16>  O        1.7559560000    -0.2604940000     2.1660380000
| 17>  C        2.3078070000    -2.1429490000     0.7398770000
| 18>  C        1.5783780000    -2.9908860000     1.4504450000
| 19>  H        0.8392500000     0.7872040000    -1.5967980000
| 20>  H        0.2496300000     0.6880540000     0.0540420000
| 21>  H        0.5479800000    -0.7958370000    -0.8677300000
| 22>  H        2.9908040000    -0.2267830000    -0.9494560000
| 23>  H        2.2743470000     2.0563580000     0.9474460000
| 24>  H        2.7308810000     2.2590220000    -0.7501870000
| 25>  H        3.8992640000     1.6200120000     0.4122370000
| 26>  H        3.5691060000    -0.5863480000     1.4027690000
| 27>  H        0.8325610000    -0.4416100000     1.9646340000
| 28>  H        2.8059770000    -2.4918550000    -0.1627820000
| 29>  H        1.0898350000    -2.6863420000     2.3697840000
| 30>  H        1.4641280000    -4.0249590000     1.1479300000
| 31> *
| 32>
| 33>                          ****END OF INPUT****
 Total Charge           Charge          ....    0
 Multiplicity           Mult            ....    1
 Number of Electrons    NEL             ....   56
 Basis Dimension        Dim             ....  158

MULLIKEN ATOMIC CHARGES
-----------------------
   0 C :    0.005044
   1 C :   -0.172193
   2 C :    0.044397
   3 C :    0.185149
   4 O :   -0.265230
   5 C :   -0.072939
   6 C :   -0.033122
   7 H :    0.021453
   8 H :    0.011595
   9 H :    0.018384
  10 H :    0.007329
  11 H :    0.018436
  12 H :    0.017197
  13 H :    0.008978
  14 H :    0.012991
  15 H :    0.153686
  16 H :   -0.000394
  17 H :    0.012514
  18 H :    0.026724
Sum of atomic charges:   -0.0000000

LOEWDIN ATOMIC CHARGES
----------------------
   0 C :   -0.065392
   1 C :   -0.059917
   2 C :   -0.059722
   3 C :    0.046673
   4 O :   -0.094499
   5 C :   -0.044848
   6 C :   -0.067087
   7 H :    0.029540
   8 H :    0.020655
   9 H :    0.024999
  10 H :    0.025584
  11 H :    0.025508
  12 H :    0.024873
  13 H :    0.024797
  14 H :    0.033544
  15 H :    0.063378
  16 H :    0.027510
  17 H :    0.017955
  18 H :    0.026451

  Mayer bond orders larger than 0.1
B(  0-C ,  1-C ) :   1.0758 B(  0-C ,  7-H ) :   0.9587 B(  0-C ,  8-H ) :   0.9539
B(  0-C ,  9-H ) :   0.9554 B(  1-C ,  2-C ) :   1.0844 B(  1-C ,  3-C ) :   0.9964
B(  1-C , 10-H ) :   0.9018 B(  2-C , 11-H ) :   0.9518 B(  2-C , 12-H ) :   0.9611
B(  2-C , 13-H ) :   0.9547 B(  3-C ,  4-O ) :   1.0663 B(  3-C ,  5-C ) :   1.0052
B(  3-C , 14-H ) :   0.8883 B(  4-O , 15-H ) :   0.9721 B(  5-C ,  6-C ) :   1.9979
B(  5-C , 16-H ) :   0.9433 B(  6-C , 17-H ) :   0.9339 B(  6-C , 18-H ) :   0.9391

FINAL SINGLE POINT ENERGY      -310.417478810567

DIPOLE MOMENT
-------------
                                X             Y             Z
Electronic contribution:      0.69083      -2.55492       3.54137
Nuclear contribution   :     -0.86671       2.42668      -4.03921
                        -----------------------------------------
Total Dipole Moment    :     -0.17588      -0.12824      -0.49785
                        -----------------------------------------
Magnitude (a.u.)       :      0.54335
Magnitude (Debye)      :      1.38108

                             ****ORCA TERMINATED NORMALLY****
TOTAL RUN TIME: 0 days 0 hours 0 minutes 8 seconds 390 msec
