                         Program Version 3.0.3 - RELEASE   -
|  1> ! RI PBE def2-SVP def2-SVP/J NBO PAL2
|  2> % maxcore 2000
|  3> % output
|  4>     # printlevel mini
|  5>     print[ P_Basis ] 0
|  6>     print[ P_SCFInfo ] 1
|  7>     print[ P_SCFIterInfo ] 1
|  8>     print[ P_OrbEn ] 0
|  9>     print[ P_Cartesian ] 0
| 10> end
| 11> *xyz 0 1
| 12>  C        0.9571760000     0.0915270000     0.0610770000
| 13>  C        2.4714560000     0.0070850000     0.1684810000
| 14>  C        2.9159020000    -0.3492010000     1.5776020000
| 15>  C        3.0451230000    -0.9586560000    -0.8832140000
| 16>  O        4.4580180000    -0.8956420000    -0.9511400000
| 17>  C        2.5844110000    -2.3341490000    -0.6894990000
| 18>  C        2.2300750000    -3.4672900000    -0.5085240000
| 19>  H        0.5653690000     0.8476730000     0.7449920000
| 20>  H        0.4925410000    -0.8647420000     0.3156580000
| 21>  H        0.6403320000     0.3600180000    -0.9504520000
| 22>  H        2.8994300000     0.9810310000    -0.0953300000
| 23>  H        2.5380250000    -1.3329540000     1.8700510000
| 24>  H        2.5359310000     0.3818280000     2.2949240000
| 25>  H        4.0049710000    -0.3557480000     1.6690750000
| 26>  H        2.6971460000    -0.6224320000    -1.8663940000
| 27>  H        4.8161090000    -1.4570850000    -0.2581090000
| 28>  H        1.9155630000    -4.4736640000    -0.3612070000
| 29> *
| 30>
| 31>                          ****END OF INPUT****
 Total Charge           Charge          ....    0
 Multiplicity           Mult            ....    1
 Number of Electrons    NEL             ....   54
 Basis Dimension        Dim             ....  148

MULLIKEN ATOMIC CHARGES
-----------------------
   0 C :    0.019540
   1 C :   -0.106496
   2 C :   -0.003723
   3 C :    0.190654
   4 O :   -0.256593
   5 C :    0.356472
   6 C :   -0.507911
   7 H :    0.019041
   8 H :    0.027904
   9 H :    0.014355
  10 H :    0.011300
  11 H :    0.022407
  12 H :    0.023711
  13 H :    0.009554
  14 H :    0.018807
  15 H :    0.159478
  16 H :    0.001499
Sum of atomic charges:   -0.0000000

LOEWDIN ATOMIC CHARGES
----------------------
   0 C :   -0.056420
   1 C :   -0.052556
   2 C :   -0.064385
   3 C :    0.042060
   4 O :   -0.093088
   5 C :   -0.033492
   6 C :   -0.077304
   7 H :    0.027927
   8 H :    0.028585
   9 H :    0.025621
  10 H :    0.029526
  11 H :    0.027445
  12 H :    0.030076
  13 H :    0.020368
  14 H :    0.040475
  15 H :    0.068482
  16 H :    0.036680

  Mayer bond orders larger than 0.1
B(  0-C ,  1-C ) :   1.0659 B(  0-C ,  7-H ) :   0.9570 B(  0-C ,  8-H ) :   0.9592
B(  0-C ,  9-H ) :   0.9581 B(  1-C ,  2-C ) :   1.0642 B(  1-C ,  3-C ) :   1.0012
B(  1-C , 10-H ) :   0.9002 B(  2-C , 11-H ) :   0.9589 B(  2-C , 12-H ) :   0.9595
B(  2-C , 13-H ) :   0.9537 B(  3-C ,  4-O ) :   1.0624 B(  3-C ,  5-C ) :   0.9717
B(  3-C , 14-H ) :   0.8764 B(  4-O , 15-H ) :   0.9770 B(  5-C ,  6-C ) :   2.3100
B(  5-C , 16-H ) :  -0.1182 B(  6-C , 16-H ) :   1.1081

FINAL SINGLE POINT ENERGY      -309.171034529265

DIPOLE MOMENT
-------------
                                X             Y             Z
Electronic contribution:      3.40326      -4.06457      -4.16891
Nuclear contribution   :     -3.64969       3.91941       4.58874
                        -----------------------------------------
Total Dipole Moment    :     -0.24643      -0.14516       0.41983
                        -----------------------------------------
Magnitude (a.u.)       :      0.50799
Magnitude (Debye)      :      1.29122

                             ****ORCA TERMINATED NORMALLY****
TOTAL RUN TIME: 0 days 0 hours 0 minutes 7 seconds 553 msec
