                         Program Version 3.0.3 - RELEASE   -
|  1> ! RI PBE def2-SVP def2-SVP/J NBO PAL2
|  2> % maxcore 2000
|  3> % output
|  4>     # printlevel mini
|  5>     print[ P_Basis ] 0
|  6>     print[ P_SCFInfo ] 1
|  7>     print[ P_SCFIterInfo ] 1
|  8>     print[ P_OrbEn ] 0
|  9>     print[ P_Cartesian ] 0
| 10> end
| 11> *xyz 0 1
| 12>  C        0.8978730000     0.2358840000    -2.2538540000
| 13>  C        2.0533260000     0.7877050000    -1.4325090000
| 14>  C        2.1396850000     2.3033720000    -1.5402370000
| 15>  C        1.9407370000     0.3888640000     0.0250800000
| 16>  O        1.9981590000    -1.0201370000     0.1274680000
| 17>  C        1.9054650000    -1.5466820000     1.3600430000
| 18>  C        1.7617000000    -0.9095590000     2.5189540000
| 19>  H        1.0126000000     0.4931400000    -3.3096360000
| 20>  H       -0.0538250000     0.6547790000    -1.9106260000
| 21>  H        0.8370520000    -0.8502850000    -2.1723770000
| 22>  H        2.9879410000     0.3570350000    -1.8119010000
| 23>  H        1.2320070000     2.7763780000    -1.1519310000
| 24>  H        2.2495920000     2.6117260000    -2.5821890000
| 25>  H        2.9909100000     2.7017560000    -0.9818960000
| 26>  H        0.9922870000     0.7490330000     0.4492490000
| 27>  H        2.7583320000     0.8291560000     0.6108950000
| 28>  H        1.9657320000    -2.6290290000     1.3101170000
| 29>  H        1.6984370000     0.1660990000     2.6070780000
| 30>  H        1.7039920000    -1.4936350000     3.4267820000
| 31> *
| 32>
| 33>                          ****END OF INPUT****
 Total Charge           Charge          ....    0
 Multiplicity           Mult            ....    1
 Number of Electrons    NEL             ....   56
 Basis Dimension        Dim             ....  158

MULLIKEN ATOMIC CHARGES
-----------------------
   0 C :    0.001542
   1 C :   -0.136142
   2 C :    0.010029
   3 C :    0.165737
   4 O :   -0.254763
   5 C :    0.106192
   6 C :   -0.121900
   7 H :    0.021699
   8 H :    0.008891
   9 H :    0.036586
  10 H :    0.011909
  11 H :    0.015253
  12 H :    0.022068
  13 H :    0.018218
  14 H :    0.009461
  15 H :    0.019572
  16 H :    0.015037
  17 H :    0.028681
  18 H :    0.021931
Sum of atomic charges:   -0.0000000

LOEWDIN ATOMIC CHARGES
----------------------
   0 C :   -0.060961
   1 C :   -0.056319
   2 C :   -0.055065
   3 C :    0.073012
   4 O :   -0.061715
   5 C :    0.031056
   6 C :   -0.159946
   7 H :    0.026691
   8 H :    0.023781
   9 H :    0.029001
  10 H :    0.028491
  11 H :    0.024260
  12 H :    0.028814
  13 H :    0.025340
  14 H :    0.012301
  15 H :    0.014541
  16 H :    0.023347
  17 H :    0.022139
  18 H :    0.031232

  Mayer bond orders larger than 0.1
B(  0-C ,  1-C ) :   1.0795 B(  0-C ,  7-H ) :   0.9637 B(  0-C ,  8-H ) :   0.9601
B(  0-C ,  9-H ) :   0.9594 B(  1-C ,  2-C ) :   1.0760 B(  1-C ,  3-C ) :   1.0419
B(  1-C , 10-H ) :   0.9078 B(  2-C , 11-H ) :   0.9617 B(  2-C , 12-H ) :   0.9622
B(  2-C , 13-H ) :   0.9600 B(  3-C ,  4-O ) :   0.9795 B(  3-C , 14-H ) :   0.9262
B(  3-C , 15-H ) :   0.9338 B(  4-O ,  5-C ) :   1.1625 B(  4-O ,  6-C ) :   0.1036
B(  5-C ,  6-C ) :   1.8555 B(  5-C , 16-H ) :   0.9658 B(  6-C , 17-H ) :   0.9546
B(  6-C , 18-H ) :   0.9372

FINAL SINGLE POINT ENERGY      -310.417156636787

DIPOLE MOMENT
-------------
                                X             Y             Z
Electronic contribution:      1.24411      -5.03366       2.85555
Nuclear contribution   :     -1.22731       5.36945      -2.98940
                        -----------------------------------------
Total Dipole Moment    :      0.01680       0.33579      -0.13385
                        -----------------------------------------
Magnitude (a.u.)       :      0.36188
Magnitude (Debye)      :      0.91981

                             ****ORCA TERMINATED NORMALLY****
TOTAL RUN TIME: 0 days 0 hours 0 minutes 7 seconds 931 msec
