                         Program Version 3.0.3 - RELEASE   -
|  1> ! RI PBE def2-SVP def2-SVP/J NBO PAL2
|  2> % maxcore 2000
|  3> % output
|  4>     # printlevel mini
|  5>     print[ P_Basis ] 0
|  6>     print[ P_SCFInfo ] 1
|  7>     print[ P_SCFIterInfo ] 1
|  8>     print[ P_OrbEn ] 0
|  9>     print[ P_Cartesian ] 0
| 10> end
| 11> *xyz 0 1
| 12>  C        1.1605160000     0.3207670000     0.0354590000
| 13>  C        2.5332310000    -0.1779790000    -0.4097090000
| 14>  C        2.6560650000    -1.6840540000    -0.1251040000
| 15>  C        4.0330360000    -2.2249320000    -0.3705530000
| 16>  O        4.6738010000    -2.8367540000     0.4411630000
| 17>  C        2.7556860000     0.1331900000    -1.8580990000
| 18>  C        3.6957890000     0.9349210000    -2.3374880000
| 19>  H        0.9943770000     0.1126350000     1.0951600000
| 20>  H        0.3651060000    -0.1713790000    -0.5320300000
| 21>  H        1.0692100000     1.3970190000    -0.1229480000
| 22>  H        3.2978720000     0.3457980000     0.1759890000
| 23>  H        1.9639560000    -2.2238260000    -0.7867720000
| 24>  H        2.3769290000    -1.9083780000     0.9067870000
| 25>  H        4.4512610000    -2.0202590000    -1.3788780000
| 26>  H        2.0564350000    -0.3375960000    -2.5500180000
| 27>  H        4.4113800000     1.4239350000    -1.6832760000
| 28>  H        3.7858410000     1.1330940000    -3.3992030000
| 29> *
| 30>
| 31>                          ****END OF INPUT****
 Total Charge           Charge          ....    0
 Multiplicity           Mult            ....    1
 Number of Electrons    NEL             ....   54
 Basis Dimension        Dim             ....  148

MULLIKEN ATOMIC CHARGES
-----------------------
   0 C :    0.034373
   1 C :   -0.118744
   2 C :    0.055850
   3 C :    0.085829
   4 O :   -0.161975
   5 C :   -0.047281
   6 C :   -0.026314
   7 H :    0.026836
   8 H :    0.014117
   9 H :    0.032705
  10 H :    0.015072
  11 H :    0.030207
  12 H :    0.013569
  13 H :   -0.006017
  14 H :    0.000121
  15 H :    0.023292
  16 H :    0.028360
Sum of atomic charges:   -0.0000000

LOEWDIN ATOMIC CHARGES
----------------------
   0 C :   -0.051229
   1 C :   -0.038865
   2 C :   -0.066985
   3 C :    0.092054
   4 O :   -0.107240
   5 C :   -0.027076
   6 C :   -0.060383
   7 H :    0.029323
   8 H :    0.026281
   9 H :    0.031244
  10 H :    0.031697
  11 H :    0.042851
  12 H :    0.032661
  13 H :   -0.010258
  14 H :    0.024587
  15 H :    0.024210
  16 H :    0.027127

  Mayer bond orders larger than 0.1
B(  0-C ,  1-C ) :   1.0729 B(  0-C ,  7-H ) :   0.9563 B(  0-C ,  8-H ) :   0.9556
B(  0-C ,  9-H ) :   0.9607 B(  1-C ,  2-C ) :   1.0263 B(  1-C ,  5-C ) :   1.0185
B(  1-C , 10-H ) :   0.9136 B(  2-C ,  3-C ) :   0.9714 B(  2-C , 11-H ) :   0.9029
B(  2-C , 12-H ) :   0.9184 B(  3-C ,  4-O ) :   2.1830 B(  3-C , 13-H ) :   0.9210
B(  5-C ,  6-C ) :   2.0024 B(  5-C , 14-H ) :   0.9494 B(  6-C , 15-H ) :   0.9479
B(  6-C , 16-H ) :   0.9421

FINAL SINGLE POINT ENERGY      -309.214309396867

DIPOLE MOMENT
-------------
                                X             Y             Z
Electronic contribution:      4.87533      -4.94151       1.36522
Nuclear contribution   :     -5.59859       5.51309      -1.80913
                        -----------------------------------------
Total Dipole Moment    :     -0.72326       0.57158      -0.44391
                        -----------------------------------------
Magnitude (a.u.)       :      1.02316
Magnitude (Debye)      :      2.60067

                             ****ORCA TERMINATED NORMALLY****
TOTAL RUN TIME: 0 days 0 hours 0 minutes 7 seconds 688 msec
