                         Program Version 3.0.3 - RELEASE   -
|  1> ! RI PBE def2-SVP def2-SVP/J NBO PAL2
|  2> % maxcore 2000
|  3> % output
|  4>     # printlevel mini
|  5>     print[ P_Basis ] 0
|  6>     print[ P_SCFInfo ] 1
|  7>     print[ P_SCFIterInfo ] 1
|  8>     print[ P_OrbEn ] 0
|  9>     print[ P_Cartesian ] 0
| 10> end
| 11> *xyz 0 1
| 12>  C        0.9745270000    -0.1142430000    -0.0620110000
| 13>  C        2.4961690000    -0.1357350000     0.0859230000
| 14>  C        2.9291990000     0.6069590000     1.3606760000
| 15>  C        4.4187530000     0.7272810000     1.5073190000
| 16>  O        4.9881670000     1.7538040000     1.7610660000
| 17>  C        2.9994520000    -1.5047550000     0.0662400000
| 18>  C        3.3910620000    -2.6399050000     0.0600420000
| 19>  H        0.6130260000     0.9156760000    -0.0966420000
| 20>  H        0.5007040000    -0.6193850000     0.7822740000
| 21>  H        0.6674630000    -0.6215470000    -0.9774310000
| 22>  H        2.9296740000     0.3891810000    -0.7747160000
| 23>  H        2.5547440000     0.0516000000     2.2301170000
| 24>  H        2.4958280000     1.6088000000     1.3832130000
| 25>  H        4.9859030000    -0.2167350000     1.3667970000
| 26>  H        3.7418190000    -3.6448860000     0.0484120000
| 27> *
| 28>
| 29>                          ****END OF INPUT****
 Total Charge           Charge          ....    0
 Multiplicity           Mult            ....    1
 Number of Electrons    NEL             ....   52
 Basis Dimension        Dim             ....  138

MULLIKEN ATOMIC CHARGES
-----------------------
   0 C :    0.045604
   1 C :   -0.121857
   2 C :    0.045975
   3 C :    0.080963
   4 O :   -0.158109
   5 C :    0.398629
   6 C :   -0.501009
   7 H :    0.025496
   8 H :    0.028819
   9 H :    0.035451
  10 H :    0.045168
  11 H :    0.046072
  12 H :    0.022956
  13 H :    0.004646
  14 H :    0.001195
Sum of atomic charges:    0.0000000

LOEWDIN ATOMIC CHARGES
----------------------
   0 C :   -0.040023
   1 C :   -0.045812
   2 C :   -0.061942
   3 C :    0.092219
   4 O :   -0.104130
   5 C :   -0.020605
   6 C :   -0.082552
   7 H :    0.029610
   8 H :    0.031498
   9 H :    0.034291
  10 H :    0.050086
  11 H :    0.049716
  12 H :    0.035803
  13 H :   -0.004844
  14 H :    0.036687

  Mayer bond orders larger than 0.1
B(  0-C ,  1-C ) :   1.0752 B(  0-C ,  7-H ) :   0.9574 B(  0-C ,  8-H ) :   0.9602
B(  0-C ,  9-H ) :   0.9600 B(  1-C ,  2-C ) :   1.0283 B(  1-C ,  5-C ) :   0.9920
B(  1-C , 10-H ) :   0.8852 B(  2-C ,  3-C ) :   0.9672 B(  2-C , 11-H ) :   0.9060
B(  2-C , 12-H ) :   0.9188 B(  3-C ,  4-O ) :   2.1861 B(  3-C , 13-H ) :   0.9242
B(  5-C ,  6-C ) :   2.3100 B(  5-C , 14-H ) :  -0.1175 B(  6-C , 14-H ) :   1.1080

FINAL SINGLE POINT ENERGY      -307.970770626486

DIPOLE MOMENT
-------------
                                X             Y             Z
Electronic contribution:      5.69438       0.58617       1.36983
Nuclear contribution   :     -6.45148      -1.13013      -1.60943
                        -----------------------------------------
Total Dipole Moment    :     -0.75710      -0.54397      -0.23960
                        -----------------------------------------
Magnitude (a.u.)       :      0.96256
Magnitude (Debye)      :      2.44662

                             ****ORCA TERMINATED NORMALLY****
TOTAL RUN TIME: 0 days 0 hours 0 minutes 6 seconds 898 msec
