                         Program Version 3.0.3 - RELEASE   -
|  1> ! RI PBE def2-SVP def2-SVP/J NBO PAL2
|  2> % maxcore 2000
|  3> % output
|  4>     # printlevel mini
|  5>     print[ P_Basis ] 0
|  6>     print[ P_SCFInfo ] 1
|  7>     print[ P_SCFIterInfo ] 1
|  8>     print[ P_OrbEn ] 0
|  9>     print[ P_Cartesian ] 0
| 10> end
| 11> *xyz 0 1
| 12>  C        1.1542000000     0.3576670000     0.0019540000
| 13>  C        2.5306270000    -0.2229130000    -0.3162590000
| 14>  C        2.5932150000    -1.6992660000     0.0831310000
| 15>  C        3.9755920000    -2.3111750000    -0.0395910000
| 16>  O        3.9998310000    -3.6822440000     0.2998600000
| 17>  C        2.8476350000    -0.0378360000    -1.7682050000
| 18>  C        3.8341390000     0.7018140000    -2.2544740000
| 19>  H        0.9198960000     0.2460900000     1.0638730000
| 20>  H        0.3748960000    -0.1577180000    -0.5673670000
| 21>  H        1.1065840000     1.4188030000    -0.2504890000
| 22>  H        3.2813450000     0.3260330000     0.2664840000
| 23>  H        1.8939100000    -2.2784970000    -0.5309930000
| 24>  H        2.2504430000    -1.7955450000     1.1217290000
| 25>  H        4.6902090000    -1.7415700000     0.5733640000
| 26>  H        4.3254610000    -2.2532150000    -1.0722800000
| 27>  H        3.6964600000    -3.7737230000     1.2066440000
| 28>  H        2.1853160000    -0.5588430000    -2.4605510000
| 29>  H        4.5161610000     1.2365900000    -1.6000190000
| 30>  H        3.9973680000     0.8022380000    -3.3213230000
| 31> *
| 32>
| 33>                          ****END OF INPUT****
 Total Charge           Charge          ....    0
 Multiplicity           Mult            ....    1
 Number of Electrons    NEL             ....   56
 Basis Dimension        Dim             ....  158

MULLIKEN ATOMIC CHARGES
-----------------------
   0 C :    0.034316
   1 C :   -0.096022
   2 C :   -0.032115
   3 C :    0.200648
   4 O :   -0.285823
   5 C :   -0.039791
   6 C :   -0.032781
   7 H :    0.018246
   8 H :    0.013271
   9 H :    0.026177
  10 H :   -0.002292
  11 H :    0.010275
  12 H :   -0.008208
  13 H :   -0.008590
  14 H :    0.011951
  15 H :    0.149470
  16 H :   -0.001652
  17 H :    0.018278
  18 H :    0.024640
Sum of atomic charges:    0.0000000

LOEWDIN ATOMIC CHARGES
----------------------
   0 C :   -0.052445
   1 C :   -0.043867
   2 C :   -0.055891
   3 C :    0.054719
   4 O :   -0.123356
   5 C :   -0.019739
   6 C :   -0.067339
   7 H :    0.025488
   8 H :    0.025521
   9 H :    0.028457
  10 H :    0.026062
  11 H :    0.024317
  12 H :    0.017171
  13 H :    0.002754
  14 H :    0.021192
  15 H :    0.064911
  16 H :    0.025033
  17 H :    0.021790
  18 H :    0.025224

  Mayer bond orders larger than 0.1
B(  0-C ,  1-C ) :   1.0679 B(  0-C ,  7-H ) :   0.9576 B(  0-C ,  8-H ) :   0.9567
B(  0-C ,  9-H ) :   0.9602 B(  1-C ,  2-C ) :   1.0236 B(  1-C ,  5-C ) :   1.0304
B(  1-C , 10-H ) :   0.9063 B(  2-C ,  3-C ) :   1.0731 B(  2-C , 11-H ) :   0.9235
B(  2-C , 12-H ) :   0.9269 B(  3-C ,  4-O ) :   1.0590 B(  3-C , 13-H ) :   0.9331
B(  3-C , 14-H ) :   0.9291 B(  4-O , 15-H ) :   0.9874 B(  5-C ,  6-C ) :   2.0016
B(  5-C , 16-H ) :   0.9487 B(  6-C , 17-H ) :   0.9472 B(  6-C , 18-H ) :   0.9421

FINAL SINGLE POINT ENERGY      -310.410835614610

DIPOLE MOMENT
-------------
                                X             Y             Z
Electronic contribution:      2.34228      -3.49649      -0.21821
Nuclear contribution   :     -2.62429       3.88321       0.67392
                        -----------------------------------------
Total Dipole Moment    :     -0.28201       0.38673       0.45571
                        -----------------------------------------
Magnitude (a.u.)       :      0.66088
Magnitude (Debye)      :      1.67981

                             ****ORCA TERMINATED NORMALLY****
TOTAL RUN TIME: 0 days 0 hours 0 minutes 8 seconds 255 msec
