                         Program Version 3.0.3 - RELEASE   -
|  1> ! RI PBE def2-SVP def2-SVP/J NBO PAL2
|  2> % maxcore 2000
|  3> % output
|  4>     # printlevel mini
|  5>     print[ P_Basis ] 0
|  6>     print[ P_SCFInfo ] 1
|  7>     print[ P_SCFIterInfo ] 1
|  8>     print[ P_OrbEn ] 0
|  9>     print[ P_Cartesian ] 0
| 10> end
| 11> *xyz 0 1
| 12>  C        1.2112950000    -0.4721890000    -0.4781010000
| 13>  C        2.5644760000    -0.0225820000     0.0782150000
| 14>  C        2.5427890000     1.4161430000     0.6176680000
| 15>  C        1.5930530000     1.6468050000     1.7790980000
| 16>  O        1.6441470000     2.9777390000     2.2509550000
| 17>  C        3.0600670000    -0.9631630000     1.0785170000
| 18>  C        3.4645230000    -1.7392450000     1.9014040000
| 19>  H        0.8533680000     0.2446120000    -1.2210480000
| 20>  H        0.4626610000    -0.5542870000     0.3111510000
| 21>  H        1.2981040000    -1.4492830000    -0.9553760000
| 22>  H        3.2831090000    -0.0360470000    -0.7503290000
| 23>  H        2.2752630000     2.0933230000    -0.1995720000
| 24>  H        3.5578000000     1.6815030000     0.9344840000
| 25>  H        1.8051230000     0.9309460000     2.5840920000
| 26>  H        0.5585020000     1.4893920000     1.4674110000
| 27>  H        2.5261260000     3.1408060000     2.5948110000
| 28>  H        3.8238940000    -2.4297730000     2.6271200000
| 29> *
| 30>
| 31>                          ****END OF INPUT****
 Total Charge           Charge          ....    0
 Multiplicity           Mult            ....    1
 Number of Electrons    NEL             ....   54
 Basis Dimension        Dim             ....  148

MULLIKEN ATOMIC CHARGES
-----------------------
   0 C :    0.014164
   1 C :   -0.101972
   2 C :   -0.010328
   3 C :    0.171355
   4 O :   -0.289145
   5 C :    0.407177
   6 C :   -0.515276
   7 H :    0.025693
   8 H :    0.037844
   9 H :    0.032198
  10 H :    0.038574
  11 H :    0.017315
  12 H :    0.005866
  13 H :    0.010705
  14 H :    0.007632
  15 H :    0.152617
  16 H :   -0.004419
Sum of atomic charges:    0.0000000

LOEWDIN ATOMIC CHARGES
----------------------
   0 C :   -0.047270
   1 C :   -0.051421
   2 C :   -0.047971
   3 C :    0.054816
   4 O :   -0.122619
   5 C :   -0.015715
   6 C :   -0.094712
   7 H :    0.029183
   8 H :    0.030145
   9 H :    0.033532
  10 H :    0.051383
  11 H :    0.027212
  12 H :    0.023292
  13 H :    0.009507
  14 H :    0.019737
  15 H :    0.066890
  16 H :    0.034014

  Mayer bond orders larger than 0.1
B(  0-C ,  1-C ) :   1.0707 B(  0-C ,  7-H ) :   0.9584 B(  0-C ,  8-H ) :   0.9588
B(  0-C ,  9-H ) :   0.9578 B(  1-C ,  2-C ) :   1.0347 B(  1-C ,  5-C ) :   1.0021
B(  1-C , 10-H ) :   0.8735 B(  2-C ,  3-C ) :   1.0665 B(  2-C , 11-H ) :   0.9230
B(  2-C , 12-H ) :   0.9283 B(  3-C ,  4-O ) :   1.0527 B(  3-C , 13-H ) :   0.9418
B(  3-C , 14-H ) :   0.9306 B(  4-O , 15-H ) :   0.9864 B(  5-C ,  6-C ) :   2.2933
B(  5-C , 16-H ) :  -0.1208 B(  6-C , 16-H ) :   1.1111

FINAL SINGLE POINT ENERGY      -309.166513996763

DIPOLE MOMENT
-------------
                                X             Y             Z
Electronic contribution:      2.26638      -0.12775       2.74562
Nuclear contribution   :     -1.88803      -0.06088      -2.91549
                        -----------------------------------------
Total Dipole Moment    :      0.37834      -0.18863      -0.16987
                        -----------------------------------------
Magnitude (a.u.)       :      0.45561
Magnitude (Debye)      :      1.15806

                             ****ORCA TERMINATED NORMALLY****
TOTAL RUN TIME: 0 days 0 hours 0 minutes 7 seconds 481 msec
