                         Program Version 3.0.3 - RELEASE   -
|  1> ! RI PBE def2-SVP def2-SVP/J NBO PAL2
|  2> % maxcore 2000
|  3> % output
|  4>     # printlevel mini
|  5>     print[ P_Basis ] 0
|  6>     print[ P_SCFInfo ] 1
|  7>     print[ P_SCFIterInfo ] 1
|  8>     print[ P_OrbEn ] 0
|  9>     print[ P_Cartesian ] 0
| 10> end
| 11> *xyz 0 1
| 12>  C        0.9423210000    -0.0574560000    -0.0080300000
| 13>  C        2.3890950000    -0.0481070000     0.0017970000
| 14>  C        3.5936260000    -0.0305950000    -0.0048640000
| 15>  C        5.0410750000     0.0171680000    -0.0484940000
| 16>  O        5.6227740000     0.6519320000    -0.9035580000
| 17>  C        5.7846060000    -0.7333900000     0.9838160000
| 18>  C        5.2085000000    -1.4468230000     1.9446520000
| 19>  H        0.5665280000    -1.0601110000    -0.2273310000
| 20>  H        0.5521130000     0.6266560000    -0.7647610000
| 21>  H        0.5461770000     0.2434950000     0.9649750000
| 22>  H        6.8633330000    -0.6543640000     0.8933300000
| 23>  H        4.1281720000    -1.5138790000     2.0185640000
| 24>  H        5.7959790000    -1.9819170000     2.6814250000
| 25> *
| 26>
| 27>                          ****END OF INPUT****
 Total Charge           Charge          ....    0
 Multiplicity           Mult            ....    1
 Number of Electrons    NEL             ....   50
 Basis Dimension        Dim             ....  128

MULLIKEN ATOMIC CHARGES
-----------------------
   0 C :    0.054673
   1 C :   -0.218319
   2 C :   -0.013821
   3 C :    0.064763
   4 O :   -0.148537
   5 C :   -0.034522
   6 C :    0.024661
   7 H :    0.058479
   8 H :    0.062745
   9 H :    0.057487
  10 H :    0.011920
  11 H :    0.041080
  12 H :    0.039390
Sum of atomic charges:   -0.0000000

LOEWDIN ATOMIC CHARGES
----------------------
   0 C :   -0.064359
   1 C :   -0.010943
   2 C :   -0.077968
   3 C :    0.025975
   4 O :   -0.105551
   5 C :   -0.047371
   6 C :    0.002551
   7 H :    0.059023
   8 H :    0.057541
   9 H :    0.057771
  10 H :    0.038028
  11 H :    0.032188
  12 H :    0.033115

  Mayer bond orders larger than 0.1
B(  0-C ,  1-C ) :   1.1337 B(  0-C ,  7-H ) :   0.9266 B(  0-C ,  8-H ) :   0.9302
B(  0-C ,  9-H ) :   0.9279 B(  1-C ,  2-C ) :   2.5818 B(  1-C ,  4-O ) :   0.1049
B(  2-C ,  3-C ) :   0.8511 B(  3-C ,  4-O ) :   2.0952 B(  3-C ,  5-C ) :   1.0462
B(  5-C ,  6-C ) :   1.8947 B(  5-C , 10-H ) :   0.9574 B(  6-C , 11-H ) :   0.9230
B(  6-C , 12-H ) :   0.9400

FINAL SINGLE POINT ENERGY      -306.772175496932

DIPOLE MOMENT
-------------
                                X             Y             Z
Electronic contribution:      4.60889       2.13988      -2.83771
Nuclear contribution   :     -5.65267      -2.76921       3.67275
                        -----------------------------------------
Total Dipole Moment    :     -1.04378      -0.62933       0.83503
                        -----------------------------------------
Magnitude (a.u.)       :      1.47743
Magnitude (Debye)      :      3.75534

                             ****ORCA TERMINATED NORMALLY****
TOTAL RUN TIME: 0 days 0 hours 0 minutes 6 seconds 179 msec
