                         Program Version 3.0.3 - RELEASE   -
|  1> ! RI PBE def2-SVP def2-SVP/J NBO PAL2
|  2> % maxcore 2000
|  3> % output
|  4>     # printlevel mini
|  5>     print[ P_Basis ] 0
|  6>     print[ P_SCFInfo ] 1
|  7>     print[ P_SCFIterInfo ] 1
|  8>     print[ P_OrbEn ] 0
|  9>     print[ P_Cartesian ] 0
| 10> end
| 11> *xyz 0 1
| 12>  C        0.9666060000     0.0531930000     0.0347600000
| 13>  C        2.4099060000    -0.0037100000     0.0731980000
| 14>  C        3.6129240000    -0.0517630000     0.1201520000
| 15>  C        5.0505930000    -0.1089780000     0.1718380000
| 16>  O        5.6779610000    -0.1258310000     1.2066500000
| 17>  C        5.7031600000    -0.1455110000    -1.1221480000
| 18>  C        6.2477890000    -0.1759720000    -2.1924960000
| 19>  H        0.6008240000     0.1332990000    -0.9911070000
| 20>  H        0.6033620000     0.9142520000     0.6012950000
| 21>  H        0.5393840000    -0.8467180000     0.4845400000
| 22>  H        6.7412910000    -0.2033710000    -3.1361710000
| 23> *
| 24>
| 25>                          ****END OF INPUT****
 Total Charge           Charge          ....    0
 Multiplicity           Mult            ....    1
 Number of Electrons    NEL             ....   48
 Basis Dimension        Dim             ....  118

MULLIKEN ATOMIC CHARGES
-----------------------
   0 C :    0.051508
   1 C :   -0.178280
   2 C :    0.024323
   3 C :    0.036351
   4 O :   -0.135318
   5 C :    0.401305
   6 C :   -0.410956
   7 H :    0.059796
   8 H :    0.065676
   9 H :    0.065602
  10 H :    0.019993
Sum of atomic charges:   -0.0000000

LOEWDIN ATOMIC CHARGES
----------------------
   0 C :   -0.062727
   1 C :    0.011479
   2 C :   -0.071580
   3 C :    0.017123
   4 O :   -0.085207
   5 C :   -0.025536
   6 C :   -0.008942
   7 H :    0.056693
   8 H :    0.062360
   9 H :    0.063023
  10 H :    0.043315

  Mayer bond orders larger than 0.1
B(  0-C ,  1-C ) :   1.1372 B(  0-C ,  7-H ) :   0.9308 B(  0-C ,  8-H ) :   0.9251
B(  0-C ,  9-H ) :   0.9242 B(  1-C ,  2-C ) :   2.5647 B(  1-C ,  4-O ) :   0.1082
B(  2-C ,  3-C ) :   0.9031 B(  3-C ,  4-O ) :   2.1336 B(  3-C ,  5-C ) :   0.9158
B(  4-O ,  6-C ) :   0.1034 B(  5-C ,  6-C ) :   2.3365 B(  5-C , 10-H ) :  -0.1011
B(  6-C , 10-H ) :   1.0897

FINAL SINGLE POINT ENERGY      -305.519282809513

DIPOLE MOMENT
-------------
                                X             Y             Z
Electronic contribution:      6.63271      -0.25364       1.11876
Nuclear contribution   :     -7.80959       0.29084      -2.06776
                        -----------------------------------------
Total Dipole Moment    :     -1.17688       0.03721      -0.94900
                        -----------------------------------------
Magnitude (a.u.)       :      1.51229
Magnitude (Debye)      :      3.84395

                             ****ORCA TERMINATED NORMALLY****
TOTAL RUN TIME: 0 days 0 hours 0 minutes 5 seconds 468 msec
