                         Program Version 3.0.3 - RELEASE   -
|  1> ! RI PBE def2-SVP def2-SVP/J NBO PAL2
|  2> % maxcore 2000
|  3> % output
|  4>     # printlevel mini
|  5>     print[ P_Basis ] 0
|  6>     print[ P_SCFInfo ] 1
|  7>     print[ P_SCFIterInfo ] 1
|  8>     print[ P_OrbEn ] 0
|  9>     print[ P_Cartesian ] 0
| 10> end
| 11> *xyz 0 1
| 12>  C        0.9289490000    -0.0299040000    -0.0958020000
| 13>  C        2.3788770000    -0.0172770000    -0.0887230000
| 14>  C        3.5817640000    -0.0061790000    -0.0670760000
| 15>  C        5.0438180000     0.0034730000    -0.0875340000
| 16>  O        5.5692950000    -1.2500260000    -0.5040720000
| 17>  C        5.5573460000     1.1261370000    -0.9463440000
| 18>  C        6.3339990000     2.0992040000    -0.4977780000
| 19>  H        0.5321840000     0.6728190000    -0.8325720000
| 20>  H        0.5330440000     0.2483260000     0.8839850000
| 21>  H        0.5491230000    -1.0251550000    -0.3397900000
| 22>  H        5.4157400000     0.1481280000     0.9320620000
| 23>  H        5.0376520000    -1.5601410000    -1.2429820000
| 24>  H        5.2550370000     1.0929960000    -1.9907230000
| 25>  H        6.6389240000     2.1431140000     0.5432520000
| 26>  H        6.6920680000     2.8878730000    -1.1490010000
| 27> *
| 28>
| 29>                          ****END OF INPUT****
 Total Charge           Charge          ....    0
 Multiplicity           Mult            ....    1
 Number of Electrons    NEL             ....   52
 Basis Dimension        Dim             ....  138

MULLIKEN ATOMIC CHARGES
-----------------------
   0 C :    0.056689
   1 C :   -0.236151
   2 C :   -0.077999
   3 C :    0.214075
   4 O :   -0.264733
   5 C :   -0.024683
   6 C :   -0.032831
   7 H :    0.050975
   8 H :    0.050950
   9 H :    0.048286
  10 H :    0.010075
  11 H :    0.154906
  12 H :   -0.001556
  13 H :    0.023315
  14 H :    0.028682
Sum of atomic charges:   -0.0000000

LOEWDIN ATOMIC CHARGES
----------------------
   0 C :   -0.066794
   1 C :   -0.052473
   2 C :   -0.082481
   3 C :    0.040401
   4 O :   -0.098692
   5 C :   -0.031399
   6 C :   -0.051059
   7 H :    0.051682
   8 H :    0.053153
   9 H :    0.052507
  10 H :    0.040724
  11 H :    0.067960
  12 H :    0.025177
  13 H :    0.024247
  14 H :    0.027048

  Mayer bond orders larger than 0.1
B(  0-C ,  1-C ) :   1.1355 B(  0-C ,  7-H ) :   0.9320 B(  0-C ,  8-H ) :   0.9326
B(  0-C ,  9-H ) :   0.9296 B(  1-C ,  2-C ) :   2.6539 B(  2-C ,  3-C ) :   0.9529
B(  3-C ,  4-O ) :   1.0258 B(  3-C ,  5-C ) :   1.0125 B(  3-C , 10-H ) :   0.8746
B(  4-O , 11-H ) :   0.9797 B(  5-C ,  6-C ) :   1.9995 B(  5-C , 12-H ) :   0.9433
B(  6-C , 13-H ) :   0.9469 B(  6-C , 14-H ) :   0.9436

FINAL SINGLE POINT ENERGY      -307.953992541958

DIPOLE MOMENT
-------------
                                X             Y             Z
Electronic contribution:      2.17081      -2.32631       0.17384
Nuclear contribution   :     -2.93311       2.52203      -0.44715
                        -----------------------------------------
Total Dipole Moment    :     -0.76229       0.19572      -0.27331
                        -----------------------------------------
Magnitude (a.u.)       :      0.83312
Magnitude (Debye)      :      2.11763

                             ****ORCA TERMINATED NORMALLY****
TOTAL RUN TIME: 0 days 0 hours 0 minutes 6 seconds 837 msec
