                         Program Version 3.0.3 - RELEASE   -
|  1> ! RI PBE def2-SVP def2-SVP/J NBO PAL2
|  2> % maxcore 2000
|  3> % output
|  4>     # printlevel mini
|  5>     print[ P_Basis ] 0
|  6>     print[ P_SCFInfo ] 1
|  7>     print[ P_SCFIterInfo ] 1
|  8>     print[ P_OrbEn ] 0
|  9>     print[ P_Cartesian ] 0
| 10> end
| 11> *xyz 0 1
| 12>  C        0.8720030000     0.0137260000     0.0505950000
| 13>  C        2.3211790000    -0.0081200000     0.0577610000
| 14>  C        3.5226840000    -0.0255110000     0.0608330000
| 15>  C        4.9875580000    -0.0374070000     0.0858780000
| 16>  O        5.5173250000     0.5716130000     1.2473860000
| 17>  C        5.4981240000    -1.4011580000    -0.1013410000
| 18>  C        5.9287810000    -2.5122820000    -0.2371650000
| 19>  H        0.4645570000    -0.9993580000     0.0888910000
| 20>  H        0.4942770000     0.4977800000    -0.8532040000
| 21>  H        0.4885530000     0.5656320000     0.9122680000
| 22>  H        5.3561920000     0.5784520000    -0.7423740000
| 23>  H        5.1967680000     0.0762010000     2.0078720000
| 24>  H        6.3113990000    -3.4980690000    -0.3595110000
| 25> *
| 26>
| 27>                          ****END OF INPUT****
 Total Charge           Charge          ....    0
 Multiplicity           Mult            ....    1
 Number of Electrons    NEL             ....   50
 Basis Dimension        Dim             ....  128

MULLIKEN ATOMIC CHARGES
-----------------------
   0 C :    0.054532
   1 C :   -0.235125
   2 C :   -0.064168
   3 C :    0.275515
   4 O :   -0.260707
   5 C :    0.348678
   6 C :   -0.482310
   7 H :    0.051139
   8 H :    0.052212
   9 H :    0.052210
  10 H :    0.043343
  11 H :    0.160421
  12 H :    0.004259
Sum of atomic charges:    0.0000000

LOEWDIN ATOMIC CHARGES
----------------------
   0 C :   -0.065942
   1 C :   -0.041449
   2 C :   -0.078988
   3 C :    0.035528
   4 O :   -0.087772
   5 C :   -0.029721
   6 C :   -0.063897
   7 H :    0.052583
   8 H :    0.053629
   9 H :    0.054208
  10 H :    0.060733
  11 H :    0.073791
  12 H :    0.037298

  Mayer bond orders larger than 0.1
B(  0-C ,  1-C ) :   1.1348 B(  0-C ,  7-H ) :   0.9320 B(  0-C ,  8-H ) :   0.9326
B(  0-C ,  9-H ) :   0.9290 B(  1-C ,  2-C ) :   2.6898 B(  2-C ,  3-C ) :   0.9374
B(  3-C ,  4-O ) :   1.0436 B(  3-C ,  5-C ) :   0.9546 B(  3-C , 10-H ) :   0.8501
B(  4-O , 11-H ) :   0.9793 B(  5-C ,  6-C ) :   2.3865 B(  5-C , 12-H ) :  -0.1114
B(  6-C , 12-H ) :   1.1008

FINAL SINGLE POINT ENERGY      -306.706005314682

DIPOLE MOMENT
-------------
                                X             Y             Z
Electronic contribution:      5.08984      -0.22225       0.25545
Nuclear contribution   :     -5.79967      -0.11942      -0.19317
                        -----------------------------------------
Total Dipole Moment    :     -0.70984      -0.34167       0.06228
                        -----------------------------------------
Magnitude (a.u.)       :      0.79024
Magnitude (Debye)      :      2.00864

                             ****ORCA TERMINATED NORMALLY****
TOTAL RUN TIME: 0 days 0 hours 0 minutes 5 seconds 985 msec
