                         Program Version 3.0.3 - RELEASE   -
|  1> ! RI PBE def2-SVP def2-SVP/J NBO PAL2
|  2> % maxcore 2000
|  3> % output
|  4>     # printlevel mini
|  5>     print[ P_Basis ] 0
|  6>     print[ P_SCFInfo ] 1
|  7>     print[ P_SCFIterInfo ] 1
|  8>     print[ P_OrbEn ] 0
|  9>     print[ P_Cartesian ] 0
| 10> end
| 11> *xyz 0 1
| 12>  C        1.0054050000     0.0391540000    -0.0286300000
| 13>  C        2.4527730000     0.1181530000    -0.0118000000
| 14>  C        3.6516560000     0.1897650000     0.0066630000
| 15>  C        5.1006240000     0.2433720000     0.0063770000
| 16>  O        5.5405180000     1.3571980000     0.7624960000
| 17>  C        6.8731450000     1.5231890000     0.8426780000
| 18>  C        7.8328070000     0.7764650000     0.3035350000
| 19>  H        0.5700400000     0.9097080000    -0.5250430000
| 20>  H        0.6038320000    -0.0092090000     0.9863940000
| 21>  H        0.6733370000    -0.8539440000    -0.5637920000
| 22>  H        5.4777770000     0.3254510000    -1.0219240000
| 23>  H        5.5151850000    -0.6787350000     0.4356170000
| 24>  H        7.1001200000     2.3993740000     1.4405830000
| 25>  H        7.6478590000    -0.1029610000    -0.2976890000
| 26>  H        8.8625220000     1.0592210000     0.4719440000
| 27> *
| 28>
| 29>                          ****END OF INPUT****
 Total Charge           Charge          ....    0
 Multiplicity           Mult            ....    1
 Number of Electrons    NEL             ....   52
 Basis Dimension        Dim             ....  138

MULLIKEN ATOMIC CHARGES
-----------------------
   0 C :    0.050362
   1 C :   -0.229053
   2 C :   -0.056925
   3 C :    0.190911
   4 O :   -0.249905
   5 C :    0.106966
   6 C :   -0.116829
   7 H :    0.053023
   8 H :    0.051250
   9 H :    0.050808
  10 H :    0.041647
  11 H :    0.037776
  12 H :    0.014765
  13 H :    0.030460
  14 H :    0.024745
Sum of atomic charges:   -0.0000000

LOEWDIN ATOMIC CHARGES
----------------------
   0 C :   -0.066651
   1 C :   -0.041998
   2 C :   -0.077983
   3 C :    0.064754
   4 O :   -0.059729
   5 C :    0.033800
   6 C :   -0.160590
   7 H :    0.052625
   8 H :    0.052618
   9 H :    0.053623
  10 H :    0.034722
  11 H :    0.034217
  12 H :    0.025376
  13 H :    0.022282
  14 H :    0.032934

  Mayer bond orders larger than 0.1
B(  0-C ,  1-C ) :   1.1291 B(  0-C ,  7-H ) :   0.9325 B(  0-C ,  8-H ) :   0.9321
B(  0-C ,  9-H ) :   0.9330 B(  1-C ,  2-C ) :   2.6324 B(  2-C ,  3-C ) :   0.9876
B(  3-C ,  4-O ) :   0.9981 B(  3-C , 10-H ) :   0.9127 B(  3-C , 11-H ) :   0.9106
B(  4-O ,  5-C ) :   1.1635 B(  4-O ,  6-C ) :   0.1033 B(  5-C ,  6-C ) :   1.8512
B(  5-C , 12-H ) :   0.9653 B(  6-C , 13-H ) :   0.9500 B(  6-C , 14-H ) :   0.9357

FINAL SINGLE POINT ENERGY      -307.953907988275

DIPOLE MOMENT
-------------
                                X             Y             Z
Electronic contribution:      0.42834       1.47704       1.00765
Nuclear contribution   :     -0.82112      -1.77423      -1.19853
                        -----------------------------------------
Total Dipole Moment    :     -0.39277      -0.29718      -0.19088
                        -----------------------------------------
Magnitude (a.u.)       :      0.52823
Magnitude (Debye)      :      1.34265

                             ****ORCA TERMINATED NORMALLY****
TOTAL RUN TIME: 0 days 0 hours 0 minutes 6 seconds 515 msec
