                         Program Version 3.0.3 - RELEASE   -
|  1> ! RI PBE def2-SVP def2-SVP/J NBO PAL2
|  2> % maxcore 2000
|  3> % output
|  4>     # printlevel mini
|  5>     print[ P_Basis ] 0
|  6>     print[ P_SCFInfo ] 1
|  7>     print[ P_SCFIterInfo ] 1
|  8>     print[ P_OrbEn ] 0
|  9>     print[ P_Cartesian ] 0
| 10> end
| 11> *xyz 0 1
| 12>  C        1.5264850000     0.9570560000     0.3636700000
| 13>  C        2.5892620000    -0.0048960000    -0.1565690000
| 14>  C        3.0347750000    -0.9899490000     0.8720220000
| 15>  C        4.2845900000    -1.0821830000     1.3013010000
| 16>  O        4.6574330000    -1.9874110000     2.2466570000
| 17>  C        5.9555420000    -2.0080390000     2.6297100000
| 18>  C        6.4093640000    -2.8525770000     3.5426660000
| 19>  H        1.1973470000     1.6423560000    -0.4211580000
| 20>  H        1.9110460000     1.5504490000     1.1963330000
| 21>  H        0.6479300000     0.4144450000     0.7225290000
| 22>  H        3.4535580000     0.5593040000    -0.5219500000
| 23>  H        2.1863780000    -0.5422240000    -1.0238440000
| 24>  H        2.2902320000    -1.6572220000     1.2990000000
| 25>  H        5.0835970000    -0.4463780000     0.9245890000
| 26>  H        6.5957500000    -1.2820380000     2.1332630000
| 27>  H        5.7580530000    -3.5686450000     4.0268280000
| 28>  H        7.4549400000    -2.8294500000     3.8135420000
| 29> *
| 30>
| 31>                          ****END OF INPUT****
 Total Charge           Charge          ....    0
 Multiplicity           Mult            ....    1
 Number of Electrons    NEL             ....   54
 Basis Dimension        Dim             ....  148

MULLIKEN ATOMIC CHARGES
-----------------------
   0 C :   -0.032251
   1 C :    0.016929
   2 C :   -0.093012
   3 C :    0.123314
   4 O :   -0.193393
   5 C :    0.099893
   6 C :   -0.077069
   7 H :    0.021873
   8 H :    0.023591
   9 H :    0.023523
  10 H :    0.004741
  11 H :    0.024587
  12 H :    0.003875
  13 H :   -0.010119
  14 H :    0.002359
  15 H :    0.032709
  16 H :    0.028451
Sum of atomic charges:   -0.0000000

LOEWDIN ATOMIC CHARGES
----------------------
   0 C :   -0.064272
   1 C :   -0.040126
   2 C :   -0.078629
   3 C :    0.024429
   4 O :   -0.014227
   5 C :    0.036247
   6 C :   -0.118776
   7 H :    0.026317
   8 H :    0.025630
   9 H :    0.025799
  10 H :    0.026186
  11 H :    0.032039
  12 H :    0.029861
  13 H :    0.011009
  14 H :    0.013752
  15 H :    0.031380
  16 H :    0.033380

  Mayer bond orders larger than 0.1
B(  0-C ,  1-C ) :   1.0935 B(  0-C ,  7-H ) :   0.9602 B(  0-C ,  8-H ) :   0.9684
B(  0-C ,  9-H ) :   0.9703 B(  1-C ,  2-C ) :   1.0682 B(  1-C , 10-H ) :   0.9358
B(  1-C , 11-H ) :   0.9221 B(  2-C ,  3-C ) :   1.8291 B(  2-C , 12-H ) :   0.9561
B(  3-C ,  4-O ) :   1.0699 B(  3-C , 13-H ) :   0.9467 B(  4-O ,  5-C ) :   1.0861
B(  5-C ,  6-C ) :   1.9268 B(  5-C , 14-H ) :   0.9443 B(  6-C , 15-H ) :   0.9488
B(  6-C , 16-H ) :   0.9350

FINAL SINGLE POINT ENERGY      -309.197330050859

DIPOLE MOMENT
-------------
                                X             Y             Z
Electronic contribution:      3.79882      -4.34089       2.72257
Nuclear contribution   :     -3.64683       4.70807      -3.01789
                        -----------------------------------------
Total Dipole Moment    :      0.15199       0.36718      -0.29532
                        -----------------------------------------
Magnitude (a.u.)       :      0.49511
Magnitude (Debye)      :      1.25847

                             ****ORCA TERMINATED NORMALLY****
TOTAL RUN TIME: 0 days 0 hours 0 minutes 7 seconds 302 msec
