                         Program Version 3.0.3 - RELEASE   -
|  1> ! RI PBE def2-SVP def2-SVP/J NBO PAL2
|  2> % maxcore 2000
|  3> % output
|  4>     # printlevel mini
|  5>     print[ P_Basis ] 0
|  6>     print[ P_SCFInfo ] 1
|  7>     print[ P_SCFIterInfo ] 1
|  8>     print[ P_OrbEn ] 0
|  9>     print[ P_Cartesian ] 0
| 10> end
| 11> *xyz 0 1
| 12>  C        1.8978200000     1.1607960000     0.5554530000
| 13>  C        1.5067560000    -0.2301740000     0.0674440000
| 14>  C        2.1987350000    -0.6220950000    -1.1962260000
| 15>  C        1.5956730000    -0.8548720000    -2.3595550000
| 16>  O        3.5513550000    -0.6795180000    -1.0093630000
| 17>  C        4.3100450000    -1.3554710000    -1.9119510000
| 18>  C        5.5630590000    -1.0158990000    -2.1650360000
| 19>  H        1.3781980000     1.4005220000     1.4854520000
| 20>  H        1.6374040000     1.9202450000    -0.1853170000
| 21>  H        2.9709940000     1.2234410000     0.7413880000
| 22>  H        0.4295720000    -0.2825150000    -0.1018080000
| 23>  H        1.7514450000    -0.9686700000     0.8390850000
| 24>  H        0.5178940000    -0.7979240000    -2.4176010000
| 25>  H        2.1397300000    -1.0777810000    -3.2673120000
| 26>  H        3.8223880000    -2.2182940000    -2.3583680000
| 27>  H        6.0163160000    -0.1442620000    -1.7101800000
| 28>  H        6.1586080000    -1.6267180000    -2.8289160000
| 29> *
| 30>
| 31>                          ****END OF INPUT****
 Total Charge           Charge          ....    0
 Multiplicity           Mult            ....    1
 Number of Electrons    NEL             ....   54
 Basis Dimension        Dim             ....  148

MULLIKEN ATOMIC CHARGES
-----------------------
   0 C :   -0.030206
   1 C :    0.040740
   2 C :    0.027413
   3 C :   -0.100115
   4 O :   -0.216598
   5 C :    0.094414
   6 C :   -0.062730
   7 H :    0.022575
   8 H :    0.023796
   9 H :    0.037492
  10 H :    0.012186
  11 H :    0.030978
  12 H :    0.018782
  13 H :    0.023944
  14 H :    0.013904
  15 H :    0.031103
  16 H :    0.032324
Sum of atomic charges:    0.0000000

LOEWDIN ATOMIC CHARGES
----------------------
   0 C :   -0.060810
   1 C :   -0.046332
   2 C :    0.035851
   3 C :   -0.137944
   4 O :   -0.023410
   5 C :    0.042937
   6 C :   -0.105164
   7 H :    0.028082
   8 H :    0.028158
   9 H :    0.029028
  10 H :    0.034807
  11 H :    0.037464
  12 H :    0.030072
  13 H :    0.025264
  14 H :    0.017281
  15 H :    0.030835
  16 H :    0.033882

  Mayer bond orders larger than 0.1
B(  0-C ,  1-C ) :   1.1086 B(  0-C ,  7-H ) :   0.9603 B(  0-C ,  8-H ) :   0.9660
B(  0-C ,  9-H ) :   0.9661 B(  1-C ,  2-C ) :   1.0664 B(  1-C , 10-H ) :   0.9233
B(  1-C , 11-H ) :   0.9115 B(  2-C ,  3-C ) :   1.8734 B(  2-C ,  4-O ) :   1.0718
B(  3-C , 12-H ) :   0.9257 B(  3-C , 13-H ) :   0.9351 B(  4-O ,  5-C ) :   1.0712
B(  5-C ,  6-C ) :   1.9395 B(  5-C , 14-H ) :   0.9392 B(  6-C , 15-H ) :   0.9495
B(  6-C , 16-H ) :   0.9398

FINAL SINGLE POINT ENERGY      -309.200662660418

DIPOLE MOMENT
-------------
                                X             Y             Z
Electronic contribution:      2.24822      -2.31493      -1.32202
Nuclear contribution   :     -2.44370       2.22131       1.34083
                        -----------------------------------------
Total Dipole Moment    :     -0.19548      -0.09362       0.01881
                        -----------------------------------------
Magnitude (a.u.)       :      0.21756
Magnitude (Debye)      :      0.55299

                             ****ORCA TERMINATED NORMALLY****
TOTAL RUN TIME: 0 days 0 hours 0 minutes 7 seconds 537 msec
