                         Program Version 3.0.3 - RELEASE   -
|  1> ! RI PBE def2-SVP def2-SVP/J NBO PAL2
|  2> % maxcore 2000
|  3> % output
|  4>     # printlevel mini
|  5>     print[ P_Basis ] 0
|  6>     print[ P_SCFInfo ] 1
|  7>     print[ P_SCFIterInfo ] 1
|  8>     print[ P_OrbEn ] 0
|  9>     print[ P_Cartesian ] 0
| 10> end
| 11> *xyz 0 1
| 12>  C        2.7513390000     1.1497880000     0.4481060000
| 13>  C        2.4039370000    -0.1365270000    -0.2777690000
| 14>  C        2.9635800000    -1.3811180000     0.4090180000
| 15>  C        2.4478640000    -2.6779110000    -0.2066070000
| 16>  O        1.5673060000    -2.7320830000    -1.0142380000
| 17>  C        4.4177110000    -1.4271600000     0.4518350000
| 18>  C        5.6165080000    -1.4917720000     0.4521850000
| 19>  H        2.3357470000     2.0127900000    -0.0757470000
| 20>  H        3.8326790000     1.2876430000     0.5175310000
| 21>  H        2.3483020000     1.1537660000     1.4649290000
| 22>  H        2.7797380000    -0.1104530000    -1.3040190000
| 23>  H        1.3210930000    -0.2597820000    -0.3514890000
| 24>  H        2.6025170000    -1.4095650000     1.4509630000
| 25>  H        2.9510990000    -3.5935610000     0.1663900000
| 26>  H        6.6799480000    -1.5396250000     0.4588430000
| 27> *
| 28>
| 29>                          ****END OF INPUT****
 Total Charge           Charge          ....    0
 Multiplicity           Mult            ....    1
 Number of Electrons    NEL             ....   52
 Basis Dimension        Dim             ....  138

MULLIKEN ATOMIC CHARGES
-----------------------
   0 C :   -0.004238
   1 C :   -0.005264
   2 C :   -0.055197
   3 C :    0.131106
   4 O :   -0.142530
   5 C :    0.381860
   6 C :   -0.499467
   7 H :    0.025698
   8 H :    0.034381
   9 H :    0.011622
  10 H :    0.027721
  11 H :    0.031680
  12 H :    0.055220
  13 H :    0.005548
  14 H :    0.001860
Sum of atomic charges:   -0.0000000

LOEWDIN ATOMIC CHARGES
----------------------
   0 C :   -0.064610
   1 C :   -0.027176
   2 C :   -0.089570
   3 C :    0.112937
   4 O :   -0.089162
   5 C :   -0.018706
   6 C :   -0.074801
   7 H :    0.030793
   8 H :    0.030246
   9 H :    0.025260
  10 H :    0.033668
  11 H :    0.031499
  12 H :    0.065858
  13 H :   -0.003448
  14 H :    0.037213

  Mayer bond orders larger than 0.1
B(  0-C ,  1-C ) :   1.1214 B(  0-C ,  7-H ) :   0.9603 B(  0-C ,  8-H ) :   0.9628
B(  0-C ,  9-H ) :   0.9584 B(  1-C ,  2-C ) :   1.0596 B(  1-C , 10-H ) :   0.9335
B(  1-C , 11-H ) :   0.9247 B(  2-C ,  3-C ) :   0.8861 B(  2-C ,  5-C ) :   0.9788
B(  2-C , 12-H ) :   0.8512 B(  3-C ,  4-O ) :   2.2034 B(  3-C , 13-H ) :   0.9348
B(  5-C ,  6-C ) :   2.3230 B(  5-C , 14-H ) :  -0.1212 B(  6-C , 14-H ) :   1.1123

FINAL SINGLE POINT ENERGY      -307.972269853720

DIPOLE MOMENT
-------------
                                X             Y             Z
Electronic contribution:      0.33422      -6.60788      -1.50823
Nuclear contribution   :      0.05946       6.87078       2.05473
                        -----------------------------------------
Total Dipole Moment    :      0.39369       0.26290       0.54650
                        -----------------------------------------
Magnitude (a.u.)       :      0.72303
Magnitude (Debye)      :      1.83779

                             ****ORCA TERMINATED NORMALLY****
TOTAL RUN TIME: 0 days 0 hours 0 minutes 6 seconds 528 msec
