                         Program Version 3.0.3 - RELEASE   -
|  1> ! RI PBE def2-SVP def2-SVP/J NBO PAL2
|  2> % maxcore 2000
|  3> % output
|  4>     # printlevel mini
|  5>     print[ P_Basis ] 0
|  6>     print[ P_SCFInfo ] 1
|  7>     print[ P_SCFIterInfo ] 1
|  8>     print[ P_OrbEn ] 0
|  9>     print[ P_Cartesian ] 0
| 10> end
| 11> *xyz 0 1
| 12>  C        3.0832220000    -1.1700430000    -0.4103230000
| 13>  C        2.5360700000     0.2460030000    -0.3668780000
| 14>  C        3.0167900000     1.0914910000     0.8186390000
| 15>  C        2.4114030000     2.4863820000     0.7358360000
| 16>  O        2.6099150000     0.4765390000     2.0421560000
| 17>  C        4.5394220000     1.1520640000     0.9286910000
| 18>  C        5.2697970000     1.7077750000    -0.2817720000
| 19>  H        2.5934950000    -1.7506410000    -1.1953430000
| 20>  H        2.9191210000    -1.6793420000     0.5413500000
| 21>  H        4.1562850000    -1.1843170000    -0.6151550000
| 22>  H        1.4400820000     0.2124110000    -0.3170800000
| 23>  H        2.7705520000     0.7704260000    -1.2989750000
| 24>  H        1.3181110000     2.4283960000     0.7234580000
| 25>  H        2.7198420000     3.0104300000    -0.1712080000
| 26>  H        2.7121340000     3.0801370000     1.6016990000
| 27>  H        1.6485950000     0.4744050000     2.0676400000
| 28>  H        4.8956340000     0.1418360000     1.1477970000
| 29>  H        4.7739800000     1.7505100000     1.8144080000
| 30>  H        5.0887460000     1.1110930000    -1.1794430000
| 31>  H        6.3477390000     1.7102580000    -0.1060340000
| 32>  H        4.9764660000     2.7368770000    -0.5020640000
| 33> *
| 34>
| 35>                          ****END OF INPUT****
 Total Charge           Charge          ....    0
 Multiplicity           Mult            ....    1
 Number of Electrons    NEL             ....   58
 Basis Dimension        Dim             ....  168

MULLIKEN ATOMIC CHARGES
-----------------------
   0 C :    0.000367
   1 C :    0.004129
   2 C :   -0.136222
   3 C :    0.054358
   4 O :   -0.251833
   5 C :    0.037005
   6 C :   -0.030778
   7 H :    0.015361
   8 H :    0.020941
   9 H :    0.023521
  10 H :   -0.009416
  11 H :    0.002515
  12 H :    0.004002
  13 H :    0.014439
  14 H :    0.023042
  15 H :    0.145256
  16 H :    0.010544
  17 H :    0.004501
  18 H :    0.022057
  19 H :    0.026696
  20 H :    0.019512
Sum of atomic charges:   -0.0000000

LOEWDIN ATOMIC CHARGES
----------------------
   0 C :   -0.069673
   1 C :   -0.053523
   2 C :    0.018918
   3 C :   -0.069356
   4 O :   -0.105033
   5 C :   -0.041462
   6 C :   -0.068879
   7 H :    0.027019
   8 H :    0.024858
   9 H :    0.024739
  10 H :    0.018892
  11 H :    0.022858
  12 H :    0.021231
  13 H :    0.026618
  14 H :    0.028330
  15 H :    0.062480
  16 H :    0.026304
  17 H :    0.026239
  18 H :    0.023831
  19 H :    0.031586
  20 H :    0.024023

  Mayer bond orders larger than 0.1
B(  0-C ,  1-C ) :   1.1215 B(  0-C ,  7-H ) :   0.9554 B(  0-C ,  8-H ) :   0.9531
B(  0-C ,  9-H ) :   0.9573 B(  1-C ,  2-C ) :   1.0210 B(  1-C , 10-H ) :   0.9199
B(  1-C , 11-H ) :   0.9209 B(  2-C ,  3-C ) :   1.0672 B(  2-C ,  4-O ) :   1.0293
B(  2-C ,  5-C ) :   1.0276 B(  3-C , 12-H ) :   0.9450 B(  3-C , 13-H ) :   0.9426
B(  3-C , 14-H ) :   0.9513 B(  4-O , 15-H ) :   0.9792 B(  5-C ,  6-C ) :   1.1097
B(  5-C , 16-H ) :   0.9208 B(  5-C , 17-H ) :   0.9236 B(  6-C , 18-H ) :   0.9565
B(  6-C , 19-H ) :   0.9563 B(  6-C , 20-H ) :   0.9590

FINAL SINGLE POINT ENERGY      -311.642493549601

DIPOLE MOMENT
-------------
                                X             Y             Z
Electronic contribution:     -1.85234      -0.67067       4.00620
Nuclear contribution   :      1.52417       0.86169      -4.34576
                        -----------------------------------------
Total Dipole Moment    :     -0.32817       0.19102      -0.33956
                        -----------------------------------------
Magnitude (a.u.)       :      0.50940
Magnitude (Debye)      :      1.29479

                             ****ORCA TERMINATED NORMALLY****
TOTAL RUN TIME: 0 days 0 hours 0 minutes 9 seconds 357 msec
