                         Program Version 3.0.3 - RELEASE   -
|  1> ! RI PBE def2-SVP def2-SVP/J NBO PAL2
|  2> % maxcore 2000
|  3> % output
|  4>     # printlevel mini
|  5>     print[ P_Basis ] 0
|  6>     print[ P_SCFInfo ] 1
|  7>     print[ P_SCFIterInfo ] 1
|  8>     print[ P_OrbEn ] 0
|  9>     print[ P_Cartesian ] 0
| 10> end
| 11> *xyz 0 1
| 12>  C        2.8133930000    -1.2194150000    -0.6296550000
| 13>  C        2.4250940000     0.1057760000    -0.0001000000
| 14>  C        3.0044090000     0.3370830000     1.4052060000
| 15>  C        2.5084230000     1.6744930000     1.9530800000
| 16>  O        2.6143290000    -0.7119360000     2.2782610000
| 17>  C        4.5045860000     0.3554940000     1.3522710000
| 18>  C        5.3117790000    -0.4379220000     2.0383390000
| 19>  H        2.3217840000    -1.3482070000    -1.5964900000
| 20>  H        2.5267520000    -2.0534080000     0.0133180000
| 21>  H        3.8920270000    -1.2832900000    -0.7874790000
| 22>  H        1.3324840000     0.1770790000     0.0779420000
| 23>  H        2.7353620000     0.9367310000    -0.6430690000
| 24>  H        1.4136540000     1.6943830000     1.9744900000
| 25>  H        2.8435490000     2.5074340000     1.3306780000
| 26>  H        2.8828560000     1.8243280000     2.9668700000
| 27>  H        1.6593530000    -0.6708440000     2.3764150000
| 28>  H        4.9199290000     1.1081290000     0.6852320000
| 29>  H        4.9172070000    -1.1933970000     2.7067820000
| 30>  H        6.3884380000    -0.3506230000     1.9495070000
| 31> *
| 32>
| 33>                          ****END OF INPUT****
 Total Charge           Charge          ....    0
 Multiplicity           Mult            ....    1
 Number of Electrons    NEL             ....   56
 Basis Dimension        Dim             ....  158

MULLIKEN ATOMIC CHARGES
-----------------------
   0 C :    0.027143
   1 C :   -0.022967
   2 C :   -0.059605
   3 C :    0.065860
   4 O :   -0.240847
   5 C :   -0.037043
   6 C :   -0.023890
   7 H :    0.014044
   8 H :    0.012916
   9 H :    0.022926
  10 H :   -0.003246
  11 H :    0.006331
  12 H :    0.005789
  13 H :    0.011695
  14 H :    0.025223
  15 H :    0.150537
  16 H :   -0.009959
  17 H :    0.032087
  18 H :    0.023005
Sum of atomic charges:   -0.0000000

LOEWDIN ATOMIC CHARGES
----------------------
   0 C :   -0.066380
   1 C :   -0.050182
   2 C :    0.015517
   3 C :   -0.061273
   4 O :   -0.091400
   5 C :   -0.029647
   6 C :   -0.059678
   7 H :    0.025651
   8 H :    0.023660
   9 H :    0.027735
  10 H :    0.018423
  11 H :    0.025200
  12 H :    0.020555
  13 H :    0.028870
  14 H :    0.030499
  15 H :    0.066910
  16 H :    0.025033
  17 H :    0.026114
  18 H :    0.024393

  Mayer bond orders larger than 0.1
B(  0-C ,  1-C ) :   1.1193 B(  0-C ,  7-H ) :   0.9566 B(  0-C ,  8-H ) :   0.9536
B(  0-C ,  9-H ) :   0.9581 B(  1-C ,  2-C ) :   1.0137 B(  1-C , 10-H ) :   0.9232
B(  1-C , 11-H ) :   0.9236 B(  2-C ,  3-C ) :   1.0570 B(  2-C ,  4-O ) :   1.0590
B(  2-C ,  5-C ) :   0.9758 B(  3-C , 12-H ) :   0.9456 B(  3-C , 13-H ) :   0.9451
B(  3-C , 14-H ) :   0.9510 B(  4-O , 15-H ) :   0.9774 B(  5-C ,  6-C ) :   2.0079
B(  5-C , 16-H ) :   0.9506 B(  6-C , 17-H ) :   0.9346 B(  6-C , 18-H ) :   0.9382

FINAL SINGLE POINT ENERGY      -310.419267076622

DIPOLE MOMENT
-------------
                                X             Y             Z
Electronic contribution:      0.79079      -0.92618       3.02112
Nuclear contribution   :     -1.27022       1.28100      -3.22389
                        -----------------------------------------
Total Dipole Moment    :     -0.47943       0.35482      -0.20277
                        -----------------------------------------
Magnitude (a.u.)       :      0.62998
Magnitude (Debye)      :      1.60127

                             ****ORCA TERMINATED NORMALLY****
TOTAL RUN TIME: 0 days 0 hours 0 minutes 8 seconds 422 msec
