                         Program Version 3.0.3 - RELEASE   -
|  1> ! RI PBE def2-SVP def2-SVP/J NBO PAL2
|  2> % maxcore 2000
|  3> % output
|  4>     # printlevel mini
|  5>     print[ P_Basis ] 0
|  6>     print[ P_SCFInfo ] 1
|  7>     print[ P_SCFIterInfo ] 1
|  8>     print[ P_OrbEn ] 0
|  9>     print[ P_Cartesian ] 0
| 10> end
| 11> *xyz 0 1
| 12>  C        2.8379210000    -0.4255230000    -1.4516640000
| 13>  C        2.4242810000     0.0059640000    -0.0579650000
| 14>  C        2.9441090000    -0.9039360000     1.0668800000
| 15>  C        2.4672820000    -0.3937840000     2.4259920000
| 16>  O        2.5037600000    -2.2439510000     0.8687600000
| 17>  C        4.4094840000    -0.9403250000     1.0525680000
| 18>  C        5.6089360000    -0.9240400000     1.0572320000
| 19>  H        2.3943540000     0.2286520000    -2.2052130000
| 20>  H        2.5178240000    -1.4487810000    -1.6549520000
| 21>  H        3.9231500000    -0.3868320000    -1.5658890000
| 22>  H        1.3301600000     0.0199970000     0.0255390000
| 23>  H        2.7631730000     1.0268970000     0.1423930000
| 24>  H        1.3733070000    -0.3620420000     2.4444240000
| 25>  H        2.8415870000     0.6124200000     2.6209050000
| 26>  H        2.8152950000    -1.0585860000     3.2169390000
| 27>  H        1.5453930000    -2.2435520000     0.9557710000
| 28>  H        6.6732840000    -0.9249190000     1.0600110000
| 29> *
| 30>
| 31>                          ****END OF INPUT****
 Total Charge           Charge          ....    0
 Multiplicity           Mult            ....    1
 Number of Electrons    NEL             ....   54
 Basis Dimension        Dim             ....  148

MULLIKEN ATOMIC CHARGES
-----------------------
   0 C :    0.020493
   1 C :   -0.005916
   2 C :   -0.094350
   3 C :    0.067651
   4 O :   -0.234590
   5 C :    0.480609
   6 C :   -0.528017
   7 H :    0.017969
   8 H :    0.013890
   9 H :    0.031241
  10 H :    0.000493
  11 H :    0.013849
  12 H :    0.009668
  13 H :    0.022641
  14 H :    0.034927
  15 H :    0.151343
  16 H :   -0.001901
Sum of atomic charges:    0.0000000

LOEWDIN ATOMIC CHARGES
----------------------
   0 C :   -0.066173
   1 C :   -0.043128
   2 C :    0.008724
   3 C :   -0.054144
   4 O :   -0.092903
   5 C :   -0.004187
   6 C :   -0.075222
   7 H :    0.027304
   8 H :    0.024819
   9 H :    0.031458
  10 H :    0.020727
  11 H :    0.030036
  12 H :    0.023018
  13 H :    0.034151
  14 H :    0.033868
  15 H :    0.066473
  16 H :    0.035179

  Mayer bond orders larger than 0.1
B(  0-C ,  1-C ) :   1.1196 B(  0-C ,  7-H ) :   0.9566 B(  0-C ,  8-H ) :   0.9516
B(  0-C ,  9-H ) :   0.9592 B(  1-C ,  2-C ) :   1.0312 B(  1-C , 10-H ) :   0.9215
B(  1-C , 11-H ) :   0.9221 B(  2-C ,  3-C ) :   1.0709 B(  2-C ,  4-O ) :   1.0859
B(  2-C ,  5-C ) :   0.9002 B(  3-C , 12-H ) :   0.9450 B(  3-C , 13-H ) :   0.9438
B(  3-C , 14-H ) :   0.9515 B(  4-O , 15-H ) :   0.9775 B(  5-C ,  6-C ) :   2.3283
B(  5-C , 16-H ) :  -0.1221 B(  6-C , 16-H ) :   1.1116

FINAL SINGLE POINT ENERGY      -309.170802022843

DIPOLE MOMENT
-------------
                                X             Y             Z
Electronic contribution:      3.36773      -3.24589       1.90493
Nuclear contribution   :     -3.87682       3.70431      -1.78274
                        -----------------------------------------
Total Dipole Moment    :     -0.50909       0.45842       0.12218
                        -----------------------------------------
Magnitude (a.u.)       :      0.69588
Magnitude (Debye)      :      1.76878

                             ****ORCA TERMINATED NORMALLY****
TOTAL RUN TIME: 0 days 0 hours 0 minutes 7 seconds 554 msec
