                         Program Version 3.0.3 - RELEASE   -
|  1> ! RI PBE def2-SVP def2-SVP/J NBO PAL2
|  2> % maxcore 2000
|  3> % output
|  4>     # printlevel mini
|  5>     print[ P_Basis ] 0
|  6>     print[ P_SCFInfo ] 1
|  7>     print[ P_SCFIterInfo ] 1
|  8>     print[ P_OrbEn ] 0
|  9>     print[ P_Cartesian ] 0
| 10> end
| 11> *xyz 0 1
| 12>  C        2.4983840000    -0.6197320000     1.0895410000
| 13>  C        2.1504850000     0.6604690000     0.3513560000
| 14>  C        2.6007340000     0.6708590000    -1.0973740000
| 15>  C        2.1362480000     1.9082010000    -1.8399130000
| 16>  O        4.0273670000     0.6061020000    -1.0839100000
| 17>  C        4.6644000000     0.1292000000    -2.1656500000
| 18>  C        4.1616170000    -0.3221860000    -3.3121640000
| 19>  H        2.1628960000    -0.5781790000     2.1279580000
| 20>  H        3.5765570000    -0.7882700000     1.0902590000
| 21>  H        2.0241630000    -1.4870160000     0.6214080000
| 22>  H        2.6014890000     1.5228410000     0.8541040000
| 23>  H        1.0677730000     0.8221080000     0.3647220000
| 24>  H        2.2220280000    -0.2328100000    -1.5930240000
| 25>  H        2.4632640000     2.8074780000    -1.3123230000
| 26>  H        1.0458960000     1.9247050000    -1.9048810000
| 27>  H        2.5400610000     1.9390190000    -2.8525670000
| 28>  H        5.7366180000     0.1424770000    -1.9954690000
| 29>  H        3.1056850000    -0.3481050000    -3.5428110000
| 30>  H        4.8471040000    -0.6869620000    -4.0642710000
| 31> *
| 32>
| 33>                          ****END OF INPUT****
 Total Charge           Charge          ....    0
 Multiplicity           Mult            ....    1
 Number of Electrons    NEL             ....   56
 Basis Dimension        Dim             ....  158

MULLIKEN ATOMIC CHARGES
-----------------------
   0 C :   -0.010782
   1 C :   -0.016651
   2 C :    0.015198
   3 C :    0.040628
   4 O :   -0.255763
   5 C :    0.100075
   6 C :   -0.116797
   7 H :    0.021124
   8 H :    0.033224
   9 H :    0.014661
  10 H :    0.013602
  11 H :    0.014779
  12 H :    0.011458
  13 H :    0.018960
  14 H :    0.024711
  15 H :    0.024775
  16 H :    0.015203
  17 H :    0.026566
  18 H :    0.025028
Sum of atomic charges:    0.0000000

LOEWDIN ATOMIC CHARGES
----------------------
   0 C :   -0.068051
   1 C :   -0.049701
   2 C :    0.056998
   3 C :   -0.069072
   4 O :   -0.061465
   5 C :    0.031286
   6 C :   -0.162233
   7 H :    0.028225
   8 H :    0.028598
   9 H :    0.025180
  10 H :    0.027807
  11 H :    0.029559
  12 H :    0.013716
  13 H :    0.029920
  14 H :    0.032867
  15 H :    0.031132
  16 H :    0.023641
  17 H :    0.019956
  18 H :    0.031635

  Mayer bond orders larger than 0.1
B(  0-C ,  1-C ) :   1.1205 B(  0-C ,  7-H ) :   0.9601 B(  0-C ,  8-H ) :   0.9640
B(  0-C ,  9-H ) :   0.9617 B(  1-C ,  2-C ) :   1.0531 B(  1-C , 10-H ) :   0.9242
B(  1-C , 11-H ) :   0.9336 B(  2-C ,  3-C ) :   1.0997 B(  2-C ,  4-O ) :   0.9369
B(  2-C , 12-H ) :   0.9121 B(  3-C , 13-H ) :   0.9487 B(  3-C , 14-H ) :   0.9542
B(  3-C , 15-H ) :   0.9478 B(  4-O ,  5-C ) :   1.1637 B(  4-O ,  6-C ) :   0.1057
B(  5-C ,  6-C ) :   1.8568 B(  5-C , 16-H ) :   0.9642 B(  6-C , 17-H ) :   0.9520
B(  6-C , 18-H ) :   0.9366

FINAL SINGLE POINT ENERGY      -310.418804081768

DIPOLE MOMENT
-------------
                                X             Y             Z
Electronic contribution:      3.89298       0.27163      -1.25187
Nuclear contribution   :     -4.27077      -0.20862       1.29616
                        -----------------------------------------
Total Dipole Moment    :     -0.37779       0.06301       0.04429
                        -----------------------------------------
Magnitude (a.u.)       :      0.38556
Magnitude (Debye)      :      0.98001

                             ****ORCA TERMINATED NORMALLY****
TOTAL RUN TIME: 0 days 0 hours 0 minutes 8 seconds 305 msec
