                         Program Version 3.0.3 - RELEASE   -
|  1> ! RI PBE def2-SVP def2-SVP/J NBO PAL2
|  2> % maxcore 2000
|  3> % output
|  4>     # printlevel mini
|  5>     print[ P_Basis ] 0
|  6>     print[ P_SCFInfo ] 1
|  7>     print[ P_SCFIterInfo ] 1
|  8>     print[ P_OrbEn ] 0
|  9>     print[ P_Cartesian ] 0
| 10> end
| 11> *xyz 0 1
| 12>  C        2.0929500000     1.4575420000     0.7541740000
| 13>  C        2.5500870000     0.4052570000    -0.2522980000
| 14>  C        3.1803350000     0.9935340000    -1.4854710000
| 15>  C        2.2247100000     1.5949210000    -2.4748490000
| 16>  O        1.3723020000     0.6165470000    -3.0530880000
| 17>  C        4.5021780000     0.9472020000    -1.6706410000
| 18>  C        5.3093370000     1.4789420000    -2.8072060000
| 19>  H        1.6327910000     0.9859350000     1.6257630000
| 20>  H        1.3534300000     2.1370130000     0.3237110000
| 21>  H        2.9371880000     2.0587630000     1.1001970000
| 22>  H        1.6895980000    -0.2023320000    -0.5515070000
| 23>  H        3.2632310000    -0.2698080000     0.2293000000
| 24>  H        2.7534170000     2.1558820000    -3.2517050000
| 25>  H        1.5530080000     2.2979260000    -1.9747450000
| 26>  H        1.9334410000    -0.0627890000    -3.4372620000
| 27>  H        5.0878990000     0.4625450000    -0.8895510000
| 28>  H        4.7046080000     1.8954050000    -3.6123530000
| 29>  H        5.9386040000     0.6904880000    -3.2321150000
| 30>  H        5.9906240000     2.2641180000    -2.4627530000
| 31> *
| 32>
| 33>                          ****END OF INPUT****
 Total Charge           Charge          ....    0
 Multiplicity           Mult            ....    1
 Number of Electrons    NEL             ....   56
 Basis Dimension        Dim             ....  158

MULLIKEN ATOMIC CHARGES
-----------------------
   0 C :   -0.018815
   1 C :    0.038992
   2 C :   -0.214567
   3 C :    0.283581
   4 O :   -0.292947
   5 C :   -0.122220
   6 C :    0.051057
   7 H :    0.022146
   8 H :    0.022747
   9 H :    0.015787
  10 H :    0.012249
  11 H :    0.002455
  12 H :   -0.013277
  13 H :   -0.001668
  14 H :    0.150834
  15 H :   -0.014348
  16 H :    0.013722
  17 H :    0.028433
  18 H :    0.035840
Sum of atomic charges:   -0.0000000

LOEWDIN ATOMIC CHARGES
----------------------
   0 C :   -0.061310
   1 C :   -0.038526
   2 C :   -0.069924
   3 C :    0.064213
   4 O :   -0.121496
   5 C :   -0.049720
   6 C :   -0.069772
   7 H :    0.027531
   8 H :    0.023359
   9 H :    0.024531
  10 H :    0.027690
  11 H :    0.025145
  12 H :    0.004914
  13 H :    0.023104
  14 H :    0.066672
  15 H :    0.021501
  16 H :    0.025980
  17 H :    0.036659
  18 H :    0.039449

  Mayer bond orders larger than 0.1
B(  0-C ,  1-C ) :   1.1109 B(  0-C ,  7-H ) :   0.9585 B(  0-C ,  8-H ) :   0.9650
B(  0-C ,  9-H ) :   0.9638 B(  1-C ,  2-C ) :   1.0581 B(  1-C , 10-H ) :   0.9103
B(  1-C , 11-H ) :   0.9274 B(  2-C ,  3-C ) :   1.0616 B(  2-C ,  5-C ) :   1.8815
B(  3-C ,  4-O ) :   1.0294 B(  3-C , 12-H ) :   0.9179 B(  3-C , 13-H ) :   0.9092
B(  4-O , 14-H ) :   0.9826 B(  5-C ,  6-C ) :   1.0963 B(  5-C , 15-H ) :   0.9337
B(  6-C , 16-H ) :   0.9520 B(  6-C , 17-H ) :   0.9410 B(  6-C , 18-H ) :   0.9435

FINAL SINGLE POINT ENERGY      -310.418071380580

DIPOLE MOMENT
-------------
                                X             Y             Z
Electronic contribution:     -2.11808      -1.54264      -2.90806
Nuclear contribution   :      2.73347       1.48891       2.87542
                        -----------------------------------------
Total Dipole Moment    :      0.61539      -0.05373      -0.03264
                        -----------------------------------------
Magnitude (a.u.)       :      0.61859
Magnitude (Debye)      :      1.57234

                             ****ORCA TERMINATED NORMALLY****
TOTAL RUN TIME: 0 days 0 hours 0 minutes 8 seconds 240 msec
