                         Program Version 3.0.3 - RELEASE   -
|  1> ! RI PBE def2-SVP def2-SVP/J NBO PAL2
|  2> % maxcore 2000
|  3> % output
|  4>     # printlevel mini
|  5>     print[ P_Basis ] 0
|  6>     print[ P_SCFInfo ] 1
|  7>     print[ P_SCFIterInfo ] 1
|  8>     print[ P_OrbEn ] 0
|  9>     print[ P_Cartesian ] 0
| 10> end
| 11> *xyz 0 1
| 12>  C        2.8094670000     1.4454650000    -0.3009090000
| 13>  C        2.4230010000    -0.0123060000    -0.1173790000
| 14>  C        3.0457860000    -0.6609710000     1.1182030000
| 15>  C        2.4958320000    -2.0763020000     1.3146210000
| 16>  O        2.9415720000    -2.6790680000     2.5033320000
| 17>  C        4.5371640000    -0.7241910000     1.0314240000
| 18>  C        5.3799180000    -0.3784950000     1.9975040000
| 19>  H        2.3383010000     1.8697710000    -1.1902200000
| 20>  H        3.8907040000     1.5616870000    -0.4063610000
| 21>  H        2.4981310000     2.0447840000     0.5590480000
| 22>  H        2.7126070000    -0.5870480000    -1.0054890000
| 23>  H        1.3334150000    -0.0965970000    -0.0429090000
| 24>  H        2.7703200000    -0.0806040000     2.0075190000
| 25>  H        2.7519210000    -2.6899680000     0.4365640000
| 26>  H        1.4052640000    -2.0361890000     1.3782390000
| 27>  H        3.8976660000    -2.5635070000     2.5444140000
| 28>  H        4.9374290000    -1.1342020000     0.1030890000
| 29>  H        5.0231090000     0.0396620000     2.9339560000
| 30>  H        6.4527150000    -0.4843320000     1.8818420000
| 31> *
| 32>
| 33>                          ****END OF INPUT****
 Total Charge           Charge          ....    0
 Multiplicity           Mult            ....    1
 Number of Electrons    NEL             ....   56
 Basis Dimension        Dim             ....  158

MULLIKEN ATOMIC CHARGES
-----------------------
   0 C :    0.005262
   1 C :   -0.041285
   2 C :   -0.104216
   3 C :    0.217034
   4 O :   -0.274637
   5 C :   -0.075902
   6 C :   -0.030223
   7 H :    0.019410
   8 H :    0.025317
   9 H :    0.018828
  10 H :    0.010039
  11 H :    0.017175
  12 H :    0.004973
  13 H :   -0.011826
  14 H :    0.013371
  15 H :    0.146992
  16 H :    0.001594
  17 H :    0.025453
  18 H :    0.032640
Sum of atomic charges:   -0.0000000

LOEWDIN ATOMIC CHARGES
----------------------
   0 C :   -0.065553
   1 C :   -0.037516
   2 C :   -0.064322
   3 C :    0.062531
   4 O :   -0.118648
   5 C :   -0.026308
   6 C :   -0.066390
   7 H :    0.027350
   8 H :    0.026655
   9 H :    0.026370
  10 H :    0.022512
  11 H :    0.026406
  12 H :    0.029045
  13 H :    0.000524
  14 H :    0.020903
  15 H :    0.059123
  16 H :    0.025796
  17 H :    0.024723
  18 H :    0.026799

  Mayer bond orders larger than 0.1
B(  0-C ,  1-C ) :   1.1169 B(  0-C ,  7-H ) :   0.9590 B(  0-C ,  8-H ) :   0.9608
B(  0-C ,  9-H ) :   0.9626 B(  1-C ,  2-C ) :   1.0340 B(  1-C , 10-H ) :   0.9318
B(  1-C , 11-H ) :   0.9348 B(  2-C ,  3-C ) :   1.0138 B(  2-C ,  5-C ) :   1.0167
B(  2-C , 12-H ) :   0.9035 B(  3-C ,  4-O ) :   1.0967 B(  3-C , 13-H ) :   0.9248
B(  3-C , 14-H ) :   0.9319 B(  4-O , 15-H ) :   0.9741 B(  5-C ,  6-C ) :   1.9713
B(  5-C , 16-H ) :   0.9522 B(  6-C , 17-H ) :   0.9426 B(  6-C , 18-H ) :   0.9437

FINAL SINGLE POINT ENERGY      -310.414278791384

DIPOLE MOMENT
-------------
                                X             Y             Z
Electronic contribution:      0.52710      -4.24271       3.28135
Nuclear contribution   :     -0.22515       4.60997      -3.70118
                        -----------------------------------------
Total Dipole Moment    :      0.30196       0.36727      -0.41984
                        -----------------------------------------
Magnitude (a.u.)       :      0.63429
Magnitude (Debye)      :      1.61224

                             ****ORCA TERMINATED NORMALLY****
TOTAL RUN TIME: 0 days 0 hours 0 minutes 8 seconds 375 msec
