                         Program Version 3.0.3 - RELEASE   -
|  1> ! RI PBE def2-SVP def2-SVP/J NBO PAL2
|  2> % maxcore 2000
|  3> % output
|  4>     # printlevel mini
|  5>     print[ P_Basis ] 0
|  6>     print[ P_SCFInfo ] 1
|  7>     print[ P_SCFIterInfo ] 1
|  8>     print[ P_OrbEn ] 0
|  9>     print[ P_Cartesian ] 0
| 10> end
| 11> *xyz 0 1
| 12>  C        2.8116050000     0.3891470000     1.3927510000
| 13>  C        2.4307020000    -0.0028910000    -0.0232290000
| 14>  C        2.9785630000    -1.3675910000    -0.4507990000
| 15>  C        2.4566050000    -1.7665180000    -1.8364120000
| 16>  O        2.9016330000    -3.0311470000    -2.2488410000
| 17>  C        4.4358150000    -1.3994100000    -0.4594880000
| 18>  C        5.6353870000    -1.4403540000    -0.5262170000
| 19>  H        2.3984730000     1.3659560000     1.6525920000
| 20>  H        3.8965510000     0.4411920000     1.5074820000
| 21>  H        2.4338220000    -0.3362260000     2.1183700000
| 22>  H        2.7849570000     0.7549490000    -0.7292260000
| 23>  H        1.3403190000    -0.0369680000    -0.1195220000
| 24>  H        2.6319840000    -2.1278400000     0.2611290000
| 25>  H        2.7349450000    -0.9858840000    -2.5587880000
| 26>  H        1.3657210000    -1.8170830000    -1.8010670000
| 27>  H        3.8647770000    -3.0221380000    -2.2254670000
| 28>  H        6.6989400000    -1.4688470000    -0.5626180000
| 29> *
| 30>
| 31>                          ****END OF INPUT****
 Total Charge           Charge          ....    0
 Multiplicity           Mult            ....    1
 Number of Electrons    NEL             ....   54
 Basis Dimension        Dim             ....  148

MULLIKEN ATOMIC CHARGES
-----------------------
   0 C :    0.003851
   1 C :   -0.037164
   2 C :   -0.087770
   3 C :    0.201253
   4 O :   -0.270373
   5 C :    0.379644
   6 C :   -0.513574
   7 H :    0.020871
   8 H :    0.034862
   9 H :    0.017693
  10 H :    0.022119
  11 H :    0.022732
  12 H :    0.032875
  13 H :    0.001683
  14 H :    0.016882
  15 H :    0.154699
  16 H :   -0.000284
Sum of atomic charges:   -0.0000000

LOEWDIN ATOMIC CHARGES
----------------------
   0 C :   -0.064638
   1 C :   -0.030969
   2 C :   -0.071577
   3 C :    0.066331
   4 O :   -0.112752
   5 C :   -0.016525
   6 C :   -0.092367
   7 H :    0.028942
   8 H :    0.030911
   9 H :    0.026696
  10 H :    0.028125
  11 H :    0.028143
  12 H :    0.047616
  13 H :    0.006317
  14 H :    0.022841
  15 H :    0.067016
  16 H :    0.035891

  Mayer bond orders larger than 0.1
B(  0-C ,  1-C ) :   1.1193 B(  0-C ,  7-H ) :   0.9572 B(  0-C ,  8-H ) :   0.9624
B(  0-C ,  9-H ) :   0.9599 B(  1-C ,  2-C ) :   1.0432 B(  1-C , 10-H ) :   0.9284
B(  1-C , 11-H ) :   0.9352 B(  2-C ,  3-C ) :   1.0108 B(  2-C ,  5-C ) :   1.0010
B(  2-C , 12-H ) :   0.8643 B(  3-C ,  4-O ) :   1.0939 B(  3-C , 13-H ) :   0.9251
B(  3-C , 14-H ) :   0.9339 B(  4-O , 15-H ) :   0.9772 B(  5-C ,  6-C ) :   2.2904
B(  5-C , 16-H ) :  -0.1230 B(  6-C , 16-H ) :   1.1140

FINAL SINGLE POINT ENERGY      -309.171479304101

DIPOLE MOMENT
-------------
                                X             Y             Z
Electronic contribution:      3.05264      -4.47127      -3.30168
Nuclear contribution   :     -2.88496       4.93598       3.53218
                        -----------------------------------------
Total Dipole Moment    :      0.16767       0.46471       0.23050
                        -----------------------------------------
Magnitude (a.u.)       :      0.54516
Magnitude (Debye)      :      1.38567

                             ****ORCA TERMINATED NORMALLY****
TOTAL RUN TIME: 0 days 0 hours 0 minutes 7 seconds 452 msec
