                         Program Version 3.0.3 - RELEASE   -
|  1> ! RI PBE def2-SVP def2-SVP/J NBO PAL2
|  2> % maxcore 2000
|  3> % output
|  4>     # printlevel mini
|  5>     print[ P_Basis ] 0
|  6>     print[ P_SCFInfo ] 1
|  7>     print[ P_SCFIterInfo ] 1
|  8>     print[ P_OrbEn ] 0
|  9>     print[ P_Cartesian ] 0
| 10> end
| 11> *xyz 0 1
| 12>  C        0.6780330000    -0.0194340000    -0.1053110000
| 13>  C        2.1214400000    -0.4745230000    -0.2354100000
| 14>  C        3.0406980000     0.2210780000     0.7490370000
| 15>  C        4.4897890000    -0.2010300000     0.6559180000
| 16>  O        4.8656490000    -1.0242430000    -0.1420000000
| 17>  C        5.4437380000     0.4679340000     1.6210900000
| 18>  C        6.8791760000     0.0069100000     1.4815430000
| 19>  H        0.0348520000    -0.5330120000    -0.8232120000
| 20>  H        0.5805860000     1.0553220000    -0.2845970000
| 21>  H        0.2841150000    -0.2221700000     0.8949210000
| 22>  H        2.4850000000    -0.2946990000    -1.2508070000
| 23>  H        2.1924060000    -1.5554570000    -0.0867610000
| 24>  H        2.7082120000     0.0511920000     1.7816840000
| 25>  H        3.0004420000     1.3106650000     0.6188170000
| 26>  H        5.0658650000     0.2912920000     2.6356600000
| 27>  H        5.3576530000     1.5515620000     1.4738770000
| 28>  H        6.9621670000    -1.0677310000     1.6501000000
| 29>  H        7.5221160000     0.5197910000     2.1994310000
| 30>  H        7.2567840000     0.2045530000     0.4772990000
| 31> *
| 32>
| 33>                          ****END OF INPUT****
 Total Charge           Charge          ....    0
 Multiplicity           Mult            ....    1
 Number of Electrons    NEL             ....   56
 Basis Dimension        Dim             ....  158

MULLIKEN ATOMIC CHARGES
-----------------------
   0 C :   -0.009916
   1 C :   -0.029458
   2 C :   -0.013135
   3 C :   -0.041971
   4 O :   -0.168588
   5 C :   -0.041826
   6 C :    0.013989
   7 H :    0.022540
   8 H :    0.017040
   9 H :    0.014388
  10 H :    0.019993
  11 H :    0.025160
  12 H :    0.024396
  13 H :    0.027455
  14 H :    0.029348
  15 H :    0.036130
  16 H :    0.030444
  17 H :    0.015834
  18 H :    0.028179
Sum of atomic charges:   -0.0000000

LOEWDIN ATOMIC CHARGES
----------------------
   0 C :   -0.067479
   1 C :   -0.043754
   2 C :   -0.074390
   3 C :    0.061679
   4 O :   -0.120465
   5 C :   -0.079462
   6 C :   -0.062677
   7 H :    0.028672
   8 H :    0.023944
   9 H :    0.023180
  10 H :    0.028476
  11 H :    0.029718
  12 H :    0.039253
  13 H :    0.040195
  14 H :    0.040676
  15 H :    0.042261
  16 H :    0.031769
  17 H :    0.027208
  18 H :    0.031196

  Mayer bond orders larger than 0.1
B(  0-C ,  1-C ) :   1.1159 B(  0-C ,  7-H ) :   0.9597 B(  0-C ,  8-H ) :   0.9636
B(  0-C ,  9-H ) :   0.9647 B(  1-C ,  2-C ) :   1.0945 B(  1-C , 10-H ) :   0.9377
B(  1-C , 11-H ) :   0.9377 B(  2-C ,  3-C ) :   0.9677 B(  2-C , 12-H ) :   0.9152
B(  2-C , 13-H ) :   0.9120 B(  3-C ,  4-O ) :   2.1826 B(  3-C ,  5-C ) :   0.9768
B(  5-C ,  6-C ) :   1.1216 B(  5-C , 14-H ) :   0.9175 B(  5-C , 15-H ) :   0.9166
B(  6-C , 16-H ) :   0.9641 B(  6-C , 17-H ) :   0.9553 B(  6-C , 18-H ) :   0.9646

FINAL SINGLE POINT ENERGY      -310.453838820586

DIPOLE MOMENT
-------------
                                X             Y             Z
Electronic contribution:      3.17773      -2.27471      -1.66793
Nuclear contribution   :     -3.47722       2.90937       2.27954
                        -----------------------------------------
Total Dipole Moment    :     -0.29949       0.63465       0.61160
                        -----------------------------------------
Magnitude (a.u.)       :      0.93088
Magnitude (Debye)      :      2.36611

                             ****ORCA TERMINATED NORMALLY****
TOTAL RUN TIME: 0 days 0 hours 0 minutes 8 seconds 22 msec
