                         Program Version 3.0.3 - RELEASE   -
|  1> ! RI PBE def2-SVP def2-SVP/J NBO PAL2
|  2> % maxcore 2000
|  3> % output
|  4>     # printlevel mini
|  5>     print[ P_Basis ] 0
|  6>     print[ P_SCFInfo ] 1
|  7>     print[ P_SCFIterInfo ] 1
|  8>     print[ P_OrbEn ] 0
|  9>     print[ P_Cartesian ] 0
| 10> end
| 11> *xyz 0 1
| 12>  C        0.3654520000     0.9032760000    -0.1861120000
| 13>  C        1.6360320000     0.0912240000    -0.0037310000
| 14>  C        2.8863220000     0.9147910000    -0.2459030000
| 15>  C        4.1703070000     0.1366860000    -0.0726060000
| 16>  O        4.1687570000    -1.0356320000     0.2322610000
| 17>  C        5.4663270000     0.8273430000    -0.2814280000
| 18>  C        5.6118510000     2.1045740000    -0.6168330000
| 19>  H       -0.5229050000     0.2936130000    -0.0076970000
| 20>  H        0.2910890000     1.3060570000    -1.2005700000
| 21>  H        0.3295300000     1.7495490000     0.5062890000
| 22>  H        1.6373210000    -0.7677450000    -0.6800470000
| 23>  H        1.6752770000    -0.3300670000     1.0043380000
| 24>  H        2.9159940000     1.7783220000     0.4303920000
| 25>  H        2.8779650000     1.3397430000    -1.2574740000
| 26>  H        6.3297280000     0.1852280000    -0.1339310000
| 27>  H        4.7621210000     2.7610110000    -0.7683630000
| 28>  H        6.5942120000     2.5422280000    -0.7527960000
| 29> *
| 30>
| 31>                          ****END OF INPUT****
 Total Charge           Charge          ....    0
 Multiplicity           Mult            ....    1
 Number of Electrons    NEL             ....   54
 Basis Dimension        Dim             ....  148

MULLIKEN ATOMIC CHARGES
-----------------------
   0 C :   -0.002485
   1 C :   -0.029821
   2 C :   -0.038941
   3 C :    0.003408
   4 O :   -0.162199
   5 C :   -0.004297
   6 C :   -0.001777
   7 H :    0.021635
   8 H :    0.011051
   9 H :    0.014884
  10 H :    0.025479
  11 H :    0.019948
  12 H :    0.034243
  13 H :    0.028623
  14 H :    0.004821
  15 H :    0.036174
  16 H :    0.039254
Sum of atomic charges:   -0.0000000

LOEWDIN ATOMIC CHARGES
----------------------
   0 C :   -0.066851
   1 C :   -0.042032
   2 C :   -0.074126
   3 C :    0.050300
   4 O :   -0.115849
   5 C :   -0.052084
   6 C :   -0.009716
   7 H :    0.028378
   8 H :    0.022950
   9 H :    0.023604
  10 H :    0.030129
  11 H :    0.029181
  12 H :    0.040459
  13 H :    0.039390
  14 H :    0.035881
  15 H :    0.027570
  16 H :    0.032817

  Mayer bond orders larger than 0.1
B(  0-C ,  1-C ) :   1.1177 B(  0-C ,  7-H ) :   0.9610 B(  0-C ,  8-H ) :   0.9622
B(  0-C ,  9-H ) :   0.9631 B(  1-C ,  2-C ) :   1.1012 B(  1-C , 10-H ) :   0.9366
B(  1-C , 11-H ) :   0.9347 B(  2-C ,  3-C ) :   0.9849 B(  2-C , 12-H ) :   0.9015
B(  2-C , 13-H ) :   0.9005 B(  3-C ,  4-O ) :   2.1167 B(  3-C ,  5-C ) :   1.0342
B(  5-C ,  6-C ) :   1.9107 B(  5-C , 14-H ) :   0.9538 B(  6-C , 15-H ) :   0.9301
B(  6-C , 16-H ) :   0.9399

FINAL SINGLE POINT ENERGY      -309.229458086781

DIPOLE MOMENT
-------------
                                X             Y             Z
Electronic contribution:      6.87166      -3.96208       0.87381
Nuclear contribution   :     -6.84692       4.98549      -1.14185
                        -----------------------------------------
Total Dipole Moment    :      0.02474       1.02340      -0.26804
                        -----------------------------------------
Magnitude (a.u.)       :      1.05821
Magnitude (Debye)      :      2.68976

                             ****ORCA TERMINATED NORMALLY****
TOTAL RUN TIME: 0 days 0 hours 0 minutes 7 seconds 803 msec
