                         Program Version 3.0.3 - RELEASE   -
|  1> ! RI PBE def2-SVP def2-SVP/J NBO PAL2
|  2> % maxcore 2000
|  3> % output
|  4>     # printlevel mini
|  5>     print[ P_Basis ] 0
|  6>     print[ P_SCFInfo ] 1
|  7>     print[ P_SCFIterInfo ] 1
|  8>     print[ P_OrbEn ] 0
|  9>     print[ P_Cartesian ] 0
| 10> end
| 11> *xyz 0 1
| 12>  C        1.4272650000     0.7437560000     0.0672690000
| 13>  C        2.8524570000     0.2715730000    -0.1642430000
| 14>  C        3.2914740000    -0.7524940000     0.8633670000
| 15>  C        4.6997460000    -1.2485990000     0.6714480000
| 16>  O        5.4290150000    -0.8761960000    -0.2148580000
| 17>  C        5.1471350000    -2.2337570000     1.6453090000
| 18>  C        5.4970120000    -3.0457950000     2.4589960000
| 19>  H        1.1297080000     1.4801700000    -0.6819920000
| 20>  H        1.3161700000     1.2088460000     1.0509080000
| 21>  H        0.7183290000    -0.0873890000     0.0143240000
| 22>  H        3.5418110000     1.1199300000    -0.1402650000
| 23>  H        2.9513750000    -0.1603150000    -1.1638360000
| 24>  H        2.6329320000    -1.6309710000     0.8626210000
| 25>  H        3.2221330000    -0.3535750000     1.8838840000
| 26>  H        5.8245400000    -3.7667730000     3.1716790000
| 27> *
| 28>
| 29>                          ****END OF INPUT****
 Total Charge           Charge          ....    0
 Multiplicity           Mult            ....    1
 Number of Electrons    NEL             ....   52
 Basis Dimension        Dim             ....  138

MULLIKEN ATOMIC CHARGES
-----------------------
   0 C :   -0.011204
   1 C :   -0.028004
   2 C :   -0.025281
   3 C :   -0.006033
   4 O :   -0.148540
   5 C :    0.423174
   6 C :   -0.417947
   7 H :    0.026475
   8 H :    0.018077
   9 H :    0.019853
  10 H :    0.025558
  11 H :    0.021894
  12 H :    0.042953
  13 H :    0.039079
  14 H :    0.019947
Sum of atomic charges:   -0.0000000

LOEWDIN ATOMIC CHARGES
----------------------
   0 C :   -0.066985
   1 C :   -0.042951
   2 C :   -0.064600
   3 C :    0.042479
   4 O :   -0.093610
   5 C :   -0.035942
   6 C :   -0.018040
   7 H :    0.029728
   8 H :    0.024980
   9 H :    0.025461
  10 H :    0.031345
  11 H :    0.030488
  12 H :    0.048105
  13 H :    0.047054
  14 H :    0.042488

  Mayer bond orders larger than 0.1
B(  0-C ,  1-C ) :   1.1155 B(  0-C ,  7-H ) :   0.9611 B(  0-C ,  8-H ) :   0.9637
B(  0-C ,  9-H ) :   0.9625 B(  1-C ,  2-C ) :   1.0886 B(  1-C , 10-H ) :   0.9372
B(  1-C , 11-H ) :   0.9373 B(  2-C ,  3-C ) :   0.9770 B(  2-C , 12-H ) :   0.9088
B(  2-C , 13-H ) :   0.9110 B(  3-C ,  4-O ) :   2.1405 B(  3-C ,  5-C ) :   0.8955
B(  4-O ,  6-C ) :   0.1028 B(  5-C ,  6-C ) :   2.3247 B(  6-C , 14-H ) :   1.0876

FINAL SINGLE POINT ENERGY      -307.980084817531

DIPOLE MOMENT
-------------
                                X             Y             Z
Electronic contribution:      9.25833      -5.36335       1.36675
Nuclear contribution   :     -9.91096       5.08876      -0.64749
                        -----------------------------------------
Total Dipole Moment    :     -0.65263      -0.27459       0.71925
                        -----------------------------------------
Magnitude (a.u.)       :      1.00928
Magnitude (Debye)      :      2.56539

                             ****ORCA TERMINATED NORMALLY****
TOTAL RUN TIME: 0 days 0 hours 0 minutes 6 seconds 951 msec
