                         Program Version 3.0.3 - RELEASE   -
|  1> ! RI PBE def2-SVP def2-SVP/J NBO PAL2
|  2> % maxcore 2000
|  3> % output
|  4>     # printlevel mini
|  5>     print[ P_Basis ] 0
|  6>     print[ P_SCFInfo ] 1
|  7>     print[ P_SCFIterInfo ] 1
|  8>     print[ P_OrbEn ] 0
|  9>     print[ P_Cartesian ] 0
| 10> end
| 11> *xyz 0 1
| 12>  C        1.0151850000    -1.5532960000     0.1303510000
| 13>  C        2.3160670000    -0.9399040000    -0.3586720000
| 14>  C        3.2628190000    -1.9635100000    -0.9637380000
| 15>  C        4.5994820000    -1.3845000000    -1.4040710000
| 16>  O        5.2909800000    -0.7913310000    -0.3146050000
| 17>  C        5.4658080000    -2.4138770000    -2.1165370000
| 18>  C        6.7659730000    -1.8424560000    -2.6538170000
| 19>  H        0.3512590000    -0.7973080000     0.5559580000
| 20>  H        1.1989950000    -2.3047150000     0.9039260000
| 21>  H        0.4763020000    -2.0469440000    -0.6837290000
| 22>  H        2.8228610000    -0.4285070000     0.4646090000
| 23>  H        2.1009300000    -0.1679390000    -1.1066970000
| 24>  H        2.7847480000    -2.4447220000    -1.8254310000
| 25>  H        3.4522750000    -2.7673220000    -0.2370960000
| 26>  H        4.4132200000    -0.5480920000    -2.0893770000
| 27>  H        5.4766620000    -1.4845180000     0.3267550000
| 28>  H        4.8833860000    -2.8553440000    -2.9324820000
| 29>  H        5.6754900000    -3.2341440000    -1.4163280000
| 30>  H        6.5734400000    -1.0725520000    -3.4062620000
| 31>  H        7.3777440000    -2.6176990000    -3.1204030000
| 32>  H        7.3490750000    -1.3818210000    -1.8545430000
| 33> *
| 34>
| 35>                          ****END OF INPUT****
 Total Charge           Charge          ....    0
 Multiplicity           Mult            ....    1
 Number of Electrons    NEL             ....   58
 Basis Dimension        Dim             ....  168

MULLIKEN ATOMIC CHARGES
-----------------------
   0 C :   -0.013941
   1 C :   -0.017055
   2 C :   -0.008192
   3 C :    0.075514
   4 O :   -0.276253
   5 C :   -0.023533
   6 C :    0.007533
   7 H :    0.021442
   8 H :    0.017951
   9 H :    0.016778
  10 H :    0.005405
  11 H :    0.009041
  12 H :   -0.001155
  13 H :   -0.010826
  14 H :   -0.006228
  15 H :    0.149051
  16 H :    0.005324
  17 H :   -0.006281
  18 H :    0.017866
  19 H :    0.018916
  20 H :    0.018644
Sum of atomic charges:   -0.0000000

LOEWDIN ATOMIC CHARGES
----------------------
   0 C :   -0.069990
   1 C :   -0.047095
   2 C :   -0.056801
   3 C :    0.044385
   4 O :   -0.108076
   5 C :   -0.060845
   6 C :   -0.069519
   7 H :    0.027426
   8 H :    0.023735
   9 H :    0.023542
  10 H :    0.020922
  11 H :    0.024110
  12 H :    0.024983
  13 H :    0.017288
  14 H :    0.020382
  15 H :    0.064294
  16 H :    0.026508
  17 H :    0.018270
  18 H :    0.026147
  19 H :    0.025993
  20 H :    0.024340

  Mayer bond orders larger than 0.1
B(  0-C ,  1-C ) :   1.1187 B(  0-C ,  7-H ) :   0.9590 B(  0-C ,  8-H ) :   0.9643
B(  0-C ,  9-H ) :   0.9630 B(  1-C ,  2-C ) :   1.0922 B(  1-C , 10-H ) :   0.9279
B(  1-C , 11-H ) :   0.9367 B(  2-C ,  3-C ) :   1.0548 B(  2-C , 12-H ) :   0.9204
B(  2-C , 13-H ) :   0.9184 B(  3-C ,  4-O ) :   1.0111 B(  3-C ,  5-C ) :   1.0586
B(  3-C , 14-H ) :   0.9028 B(  4-O , 15-H ) :   0.9821 B(  5-C ,  6-C ) :   1.1191
B(  5-C , 16-H ) :   0.9227 B(  5-C , 17-H ) :   0.9218 B(  6-C , 18-H ) :   0.9625
B(  6-C , 19-H ) :   0.9588 B(  6-C , 20-H ) :   0.9550

FINAL SINGLE POINT ENERGY      -311.642106926005

DIPOLE MOMENT
-------------
                                X             Y             Z
Electronic contribution:      2.49561       1.78402       1.23993
Nuclear contribution   :     -2.61056      -2.30009      -1.24621
                        -----------------------------------------
Total Dipole Moment    :     -0.11495      -0.51606      -0.00628
                        -----------------------------------------
Magnitude (a.u.)       :      0.52875
Magnitude (Debye)      :      1.34397

                             ****ORCA TERMINATED NORMALLY****
TOTAL RUN TIME: 0 days 0 hours 0 minutes 8 seconds 194 msec
