                         Program Version 3.0.3 - RELEASE   -
|  1> ! RI PBE def2-SVP def2-SVP/J NBO PAL2
|  2> % maxcore 2000
|  3> % output
|  4>     # printlevel mini
|  5>     print[ P_Basis ] 0
|  6>     print[ P_SCFInfo ] 1
|  7>     print[ P_SCFIterInfo ] 1
|  8>     print[ P_OrbEn ] 0
|  9>     print[ P_Cartesian ] 0
| 10> end
| 11> *xyz 0 1
| 12>  C        1.0286510000     0.2960080000     0.4688190000
| 13>  C        2.5438050000     0.2053840000     0.4075390000
| 14>  C        3.0546700000    -0.1777390000    -0.9724940000
| 15>  C        4.5668330000    -0.3133990000    -1.0323110000
| 16>  O        5.0488680000    -1.2872940000    -0.1116950000
| 17>  C        5.1296800000    -0.6032090000    -2.3929920000
| 18>  C        4.4519910000    -0.7367310000    -3.5247650000
| 19>  H        0.6853520000     0.5788390000     1.4665310000
| 20>  H        0.5652710000    -0.6630030000     0.2195200000
| 21>  H        0.6448640000     1.0387210000    -0.2367110000
| 22>  H        2.9069550000    -0.5235140000     1.1369910000
| 23>  H        2.9819570000     1.1678280000     0.6963770000
| 24>  H        2.7362070000     0.5760910000    -1.7014560000
| 25>  H        2.5973040000    -1.1252510000    -1.2865820000
| 26>  H        5.0112750000     0.6255670000    -0.6774520000
| 27>  H        4.7998790000    -2.1525540000    -0.4513160000
| 28>  H        6.2096200000    -0.7371620000    -2.3981060000
| 29>  H        3.3753910000    -0.6168770000    -3.5732510000
| 30>  H        4.9579360000    -0.9668050000    -4.4554260000
| 31> *
| 32>
| 33>                          ****END OF INPUT****
 Total Charge           Charge          ....    0
 Multiplicity           Mult            ....    1
 Number of Electrons    NEL             ....   56
 Basis Dimension        Dim             ....  158

MULLIKEN ATOMIC CHARGES
-----------------------
   0 C :    0.008813
   1 C :   -0.027534
   2 C :   -0.038520
   3 C :    0.193906
   4 O :   -0.287611
   5 C :   -0.098056
   6 C :   -0.027765
   7 H :    0.017127
   8 H :    0.012383
   9 H :    0.012836
  10 H :    0.012651
  11 H :    0.002650
  12 H :    0.015942
  13 H :   -0.005166
  14 H :   -0.000719
  15 H :    0.151869
  16 H :    0.011524
  17 H :    0.023621
  18 H :    0.022050
Sum of atomic charges:   -0.0000000

LOEWDIN ATOMIC CHARGES
----------------------
   0 C :   -0.065594
   1 C :   -0.045241
   2 C :   -0.056109
   3 C :    0.045393
   4 O :   -0.107834
   5 C :   -0.048371
   6 C :   -0.060370
   7 H :    0.026433
   8 H :    0.023065
   9 H :    0.022555
  10 H :    0.022670
  11 H :    0.023025
  12 H :    0.027359
  13 H :    0.018692
  14 H :    0.029792
  15 H :    0.067069
  16 H :    0.028462
  17 H :    0.022393
  18 H :    0.026611

  Mayer bond orders larger than 0.1
B(  0-C ,  1-C ) :   1.1159 B(  0-C ,  7-H ) :   0.9609 B(  0-C ,  8-H ) :   0.9640
B(  0-C ,  9-H ) :   0.9640 B(  1-C ,  2-C ) :   1.0960 B(  1-C , 10-H ) :   0.9300
B(  1-C , 11-H ) :   0.9341 B(  2-C ,  3-C ) :   1.0691 B(  2-C , 12-H ) :   0.9137
B(  2-C , 13-H ) :   0.9112 B(  3-C ,  4-O ) :   0.9889 B(  3-C ,  5-C ) :   1.0198
B(  3-C , 14-H ) :   0.8797 B(  4-O , 15-H ) :   0.9832 B(  5-C ,  6-C ) :   1.9907
B(  5-C , 16-H ) :   0.9564 B(  6-C , 17-H ) :   0.9322 B(  6-C , 18-H ) :   0.9392

FINAL SINGLE POINT ENERGY      -310.415193315903

DIPOLE MOMENT
-------------
                                X             Y             Z
Electronic contribution:      5.93187      -1.92879      -0.80736
Nuclear contribution   :     -6.19712       1.78873       0.43745
                        -----------------------------------------
Total Dipole Moment    :     -0.26525      -0.14006      -0.36991
                        -----------------------------------------
Magnitude (a.u.)       :      0.47624
Magnitude (Debye)      :      1.21051

                             ****ORCA TERMINATED NORMALLY****
TOTAL RUN TIME: 0 days 0 hours 0 minutes 8 seconds 159 msec
