                         Program Version 3.0.3 - RELEASE   -
|  1> ! RI PBE def2-SVP def2-SVP/J NBO PAL2
|  2> % maxcore 2000
|  3> % output
|  4>     # printlevel mini
|  5>     print[ P_Basis ] 0
|  6>     print[ P_SCFInfo ] 1
|  7>     print[ P_SCFIterInfo ] 1
|  8>     print[ P_OrbEn ] 0
|  9>     print[ P_Cartesian ] 0
| 10> end
| 11> *xyz 0 1
| 12>  C        1.1141870000     0.0738560000    -0.1864900000
| 13>  C        2.6308060000    -0.0027520000    -0.1307880000
| 14>  C        3.1400590000    -0.4910750000     1.2151890000
| 15>  C        4.6627500000    -0.5627380000     1.3165220000
| 16>  O        5.0896450000    -0.8312390000     2.6396490000
| 17>  C        5.2258910000    -1.5274930000     0.3707480000
| 18>  C        5.6707280000    -2.3505030000    -0.3822000000
| 19>  H        0.7692220000     0.4325170000    -1.1587400000
| 20>  H        0.7228320000     0.7525700000     0.5763830000
| 21>  H        0.6639520000    -0.9080140000    -0.0163080000
| 22>  H        3.0561580000     0.9858380000    -0.3396580000
| 23>  H        2.9972740000    -0.6664260000    -0.9201980000
| 24>  H        2.7283840000    -1.4838060000     1.4332040000
| 25>  H        2.8038110000     0.1778860000     2.0136600000
| 26>  H        5.0746990000     0.4255880000     1.0834370000
| 27>  H        4.9057300000    -1.7562910000     2.8284170000
| 28>  H        6.0769830000    -3.0723170000    -1.0509270000
| 29> *
| 30>
| 31>                          ****END OF INPUT****
 Total Charge           Charge          ....    0
 Multiplicity           Mult            ....    1
 Number of Electrons    NEL             ....   54
 Basis Dimension        Dim             ....  148

MULLIKEN ATOMIC CHARGES
-----------------------
   0 C :   -0.002306
   1 C :   -0.055292
   2 C :   -0.000004
   3 C :    0.194408
   4 O :   -0.265293
   5 C :    0.347292
   6 C :   -0.499823
   7 H :    0.018913
   8 H :    0.018407
   9 H :    0.017182
  10 H :    0.009061
  11 H :    0.025952
  12 H :   -0.002429
  13 H :    0.017713
  14 H :    0.017329
  15 H :    0.157112
  16 H :    0.001778
Sum of atomic charges:   -0.0000000

LOEWDIN ATOMIC CHARGES
----------------------
   0 C :   -0.063560
   1 C :   -0.046686
   2 C :   -0.046127
   3 C :    0.039190
   4 O :   -0.097482
   5 C :   -0.035425
   6 C :   -0.076948
   7 H :    0.027208
   8 H :    0.024551
   9 H :    0.024947
  10 H :    0.024209
  11 H :    0.028080
  12 H :    0.021699
  13 H :    0.028548
  14 H :    0.040914
  15 H :    0.070671
  16 H :    0.036211

  Mayer bond orders larger than 0.1
B(  0-C ,  1-C ) :   1.1135 B(  0-C ,  7-H ) :   0.9609 B(  0-C ,  8-H ) :   0.9669
B(  0-C ,  9-H ) :   0.9660 B(  1-C ,  2-C ) :   1.0753 B(  1-C , 10-H ) :   0.9344
B(  1-C , 11-H ) :   0.9344 B(  2-C ,  3-C ) :   1.0491 B(  2-C , 12-H ) :   0.9200
B(  2-C , 13-H ) :   0.9246 B(  3-C ,  4-O ) :   1.0376 B(  3-C ,  5-C ) :   0.9751
B(  3-C , 14-H ) :   0.8690 B(  4-O , 15-H ) :   0.9813 B(  5-C ,  6-C ) :   2.3379
B(  5-C , 16-H ) :  -0.1157 B(  6-C , 16-H ) :   1.1057

FINAL SINGLE POINT ENERGY      -309.169668750224

DIPOLE MOMENT
-------------
                                X             Y             Z
Electronic contribution:      8.08856      -2.85246       2.53316
Nuclear contribution   :     -8.44996       2.54755      -2.79280
                        -----------------------------------------
Total Dipole Moment    :     -0.36139      -0.30491      -0.25964
                        -----------------------------------------
Magnitude (a.u.)       :      0.53943
Magnitude (Debye)      :      1.37113

                             ****ORCA TERMINATED NORMALLY****
TOTAL RUN TIME: 0 days 0 hours 0 minutes 7 seconds 819 msec
