                         Program Version 3.0.3 - RELEASE   -
|  1> ! RI PBE def2-SVP def2-SVP/J NBO PAL2
|  2> % maxcore 2000
|  3> % output
|  4>     # printlevel mini
|  5>     print[ P_Basis ] 0
|  6>     print[ P_SCFInfo ] 1
|  7>     print[ P_SCFIterInfo ] 1
|  8>     print[ P_OrbEn ] 0
|  9>     print[ P_Cartesian ] 0
| 10> end
| 11> *xyz 0 1
| 12>  C        0.9949840000    -0.2879390000     0.4167990000
| 13>  C        2.4922350000    -0.0764510000     0.2702740000
| 14>  C        2.9632100000    -0.1864530000    -1.1709360000
| 15>  C        4.4513780000     0.0249080000    -1.3074860000
| 16>  O        4.8000580000    -0.0943260000    -2.6727930000
| 17>  C        6.0966590000     0.0651350000    -2.9873800000
| 18>  C        7.1166260000     0.3248380000    -2.1738630000
| 19>  H        0.6796000000    -0.2045140000     1.4591440000
| 20>  H        0.6996740000    -1.2777650000     0.0581360000
| 21>  H        0.4339430000     0.4518780000    -0.1607010000
| 22>  H        3.0269840000    -0.8090930000     0.8858920000
| 23>  H        2.7631410000     0.9082610000     0.6685940000
| 24>  H        2.4425430000     0.5499780000    -1.7923190000
| 25>  H        2.7070970000    -1.1719130000    -1.5744390000
| 26>  H        5.0082520000    -0.7186960000    -0.7213460000
| 27>  H        4.7412600000     1.0191400000    -0.9413060000
| 28>  H        6.2376410000    -0.0486090000    -4.0574190000
| 29>  H        7.0148720000     0.4445600000    -1.1042460000
| 30>  H        8.1054550000     0.4229410000    -2.5995070000
| 31> *
| 32>
| 33>                          ****END OF INPUT****
 Total Charge           Charge          ....    0
 Multiplicity           Mult            ....    1
 Number of Electrons    NEL             ....   56
 Basis Dimension        Dim             ....  158

MULLIKEN ATOMIC CHARGES
-----------------------
   0 C :    0.004283
   1 C :   -0.076480
   2 C :   -0.019075
   3 C :    0.156916
   4 O :   -0.257170
   5 C :    0.103284
   6 C :   -0.116257
   7 H :    0.019589
   8 H :    0.015962
   9 H :    0.019569
  10 H :    0.015982
  11 H :    0.012428
  12 H :    0.018952
  13 H :    0.015709
  14 H :    0.015982
  15 H :    0.009869
  16 H :    0.012448
  17 H :    0.027783
  18 H :    0.020227
Sum of atomic charges:   -0.0000000

LOEWDIN ATOMIC CHARGES
----------------------
   0 C :   -0.063437
   1 C :   -0.045022
   2 C :   -0.049318
   3 C :    0.070679
   4 O :   -0.065216
   5 C :    0.030592
   6 C :   -0.160228
   7 H :    0.026941
   8 H :    0.025091
   9 H :    0.025856
  10 H :    0.023871
  11 H :    0.022808
  12 H :    0.028117
  13 H :    0.027124
  14 H :    0.013954
  15 H :    0.012587
  16 H :    0.023097
  17 H :    0.021729
  18 H :    0.030775

  Mayer bond orders larger than 0.1
B(  0-C ,  1-C ) :   1.1217 B(  0-C ,  7-H ) :   0.9628 B(  0-C ,  8-H ) :   0.9650
B(  0-C ,  9-H ) :   0.9644 B(  1-C ,  2-C ) :   1.0768 B(  1-C , 10-H ) :   0.9387
B(  1-C , 11-H ) :   0.9409 B(  2-C ,  3-C ) :   1.0823 B(  2-C , 12-H ) :   0.9313
B(  2-C , 13-H ) :   0.9343 B(  3-C ,  4-O ) :   0.9802 B(  3-C , 14-H ) :   0.9301
B(  3-C , 15-H ) :   0.9307 B(  4-O ,  5-C ) :   1.1652 B(  4-O ,  6-C ) :   0.1048
B(  5-C ,  6-C ) :   1.8571 B(  5-C , 16-H ) :   0.9657 B(  6-C , 17-H ) :   0.9523
B(  6-C , 18-H ) :   0.9360

FINAL SINGLE POINT ENERGY      -310.415475579179

DIPOLE MOMENT
-------------
                                X             Y             Z
Electronic contribution:      4.78152       0.02257      -5.65557
Nuclear contribution   :     -4.99837      -0.00554       6.02393
                        -----------------------------------------
Total Dipole Moment    :     -0.21685       0.01703       0.36836
                        -----------------------------------------
Magnitude (a.u.)       :      0.42779
Magnitude (Debye)      :      1.08735

                             ****ORCA TERMINATED NORMALLY****
TOTAL RUN TIME: 0 days 0 hours 0 minutes 7 seconds 953 msec
