                         Program Version 3.0.3 - RELEASE   -
|  1> ! RI PBE def2-SVP def2-SVP/J NBO PAL2
|  2> % maxcore 2000
|  3> % output
|  4>     # printlevel mini
|  5>     print[ P_Basis ] 0
|  6>     print[ P_SCFInfo ] 1
|  7>     print[ P_SCFIterInfo ] 1
|  8>     print[ P_OrbEn ] 0
|  9>     print[ P_Cartesian ] 0
| 10> end
| 11> *xyz 0 1
| 12>  C        0.9398420000    -0.2003250000    -0.1090250000
| 13>  C        2.1358430000     0.2236340000    -0.5183900000
| 14>  C        3.3966670000     0.1043690000     0.2811700000
| 15>  C        4.2556910000    -1.0455190000    -0.1940300000
| 16>  O        4.6751620000    -1.9022860000     0.5316680000
| 17>  C        2.2269740000     0.8405720000    -1.8554730000
| 18>  O        3.2511620000     1.2536000000    -2.3369260000
| 19>  H        0.7889490000    -0.6629670000     0.8595400000
| 20>  H        0.0684520000    -0.0866800000    -0.7462690000
| 21>  H        3.1919980000    -0.0320010000     1.3430270000
| 22>  H        3.9883330000     1.0167110000     0.1371840000
| 23>  H        4.4853710000    -1.0464330000    -1.2786320000
| 24>  H        1.2648550000     0.9053340000    -2.4048540000
| 25> *
| 26>
| 27>                          ****END OF INPUT****
 Total Charge           Charge          ....    0
 Multiplicity           Mult            ....    1
 Number of Electrons    NEL             ....   52
 Basis Dimension        Dim             ....  128

MULLIKEN ATOMIC CHARGES
-----------------------
   0 C :    0.008361
   1 C :   -0.185020
   2 C :    0.116002
   3 C :    0.082791
   4 O :   -0.154591
   5 C :    0.144810
   6 O :   -0.159226
   7 H :    0.040651
   8 H :    0.038322
   9 H :    0.021527
  10 H :    0.054240
  11 H :    0.009722
  12 H :   -0.017590
Sum of atomic charges:   -0.0000000

LOEWDIN ATOMIC CHARGES
----------------------
   0 C :    0.008373
   1 C :   -0.075921
   2 C :   -0.065593
   3 C :    0.103334
   4 O :   -0.097853
   5 C :    0.081801
   6 O :   -0.108182
   7 H :    0.033987
   8 H :    0.031468
   9 H :    0.041122
  10 H :    0.058082
  11 H :   -0.004440
  12 H :   -0.006178

  Mayer bond orders larger than 0.1
B(  0-C ,  1-C ) :   1.8716 B(  0-C ,  6-O ) :   0.1002 B(  0-C ,  7-H ) :   0.9369
B(  0-C ,  8-H ) :   0.9375 B(  1-C ,  2-C ) :   1.0325 B(  1-C ,  5-C ) :   0.9883
B(  2-C ,  3-C ) :   0.9520 B(  2-C ,  9-H ) :   0.9101 B(  2-C , 10-H ) :   0.8855
B(  3-C ,  4-O ) :   2.1841 B(  3-C , 11-H ) :   0.9259 B(  5-C ,  6-O ) :   2.1188
B(  5-C , 12-H ) :   0.9328

FINAL SINGLE POINT ENERGY      -343.883665136969

DIPOLE MOMENT
-------------
                                X             Y             Z
Electronic contribution:      2.94325      -0.44262      -1.25599
Nuclear contribution   :     -4.03916       0.72527       1.45982
                        -----------------------------------------
Total Dipole Moment    :     -1.09591       0.28265       0.20383
                        -----------------------------------------
Magnitude (a.u.)       :      1.14998
Magnitude (Debye)      :      2.92302

                             ****ORCA TERMINATED NORMALLY****
TOTAL RUN TIME: 0 days 0 hours 0 minutes 6 seconds 47 msec
