                         Program Version 3.0.3 - RELEASE   -
|  1> ! RI PBE def2-SVP def2-SVP/J NBO PAL2
|  2> % maxcore 2000
|  3> % output
|  4>     # printlevel mini
|  5>     print[ P_Basis ] 0
|  6>     print[ P_SCFInfo ] 1
|  7>     print[ P_SCFIterInfo ] 1
|  8>     print[ P_OrbEn ] 0
|  9>     print[ P_Cartesian ] 0
| 10> end
| 11> *xyz 0 1
| 12>  C        1.2068910000     0.1030080000     0.3397170000
| 13>  C        2.5261840000    -0.0035090000     0.1817210000
| 14>  C        3.1579370000    -0.7688660000    -0.8675020000
| 15>  C        4.4798040000    -0.8523290000    -0.9941760000
| 16>  O        5.0205050000    -1.5956690000    -2.0128890000
| 17>  C        6.3626450000    -1.6569770000    -2.1059920000
| 18>  O        7.1414390000    -1.1212120000    -1.3798520000
| 19>  H        0.7795650000     0.6895150000     1.1431990000
| 20>  H        0.5151060000    -0.3947480000    -0.3319440000
| 21>  H        3.1884310000     0.5100130000     0.8751460000
| 22>  H        2.5251140000    -1.2941860000    -1.5772210000
| 23>  H        5.1981480000    -0.3697010000    -0.3433250000
| 24>  H        6.6222210000    -2.2863500000    -2.9672800000
| 25> *
| 26>
| 27>                          ****END OF INPUT****
 Total Charge           Charge          ....    0
 Multiplicity           Mult            ....    1
 Number of Electrons    NEL             ....   52
 Basis Dimension        Dim             ....  128

MULLIKEN ATOMIC CHARGES
-----------------------
   0 C :   -0.033592
   1 C :   -0.019479
   2 C :    0.018902
   3 C :    0.091474
   4 O :   -0.192104
   5 C :    0.222426
   6 O :   -0.187425
   7 H :    0.030095
   8 H :    0.020678
   9 H :    0.002351
  10 H :    0.007081
  11 H :    0.025577
  12 H :    0.014015
Sum of atomic charges:   -0.0000000

LOEWDIN ATOMIC CHARGES
----------------------
   0 C :   -0.051264
   1 C :   -0.030533
   2 C :   -0.051304
   3 C :    0.045665
   4 O :   -0.015868
   5 C :    0.083707
   6 O :   -0.123351
   7 H :    0.027619
   8 H :    0.024462
   9 H :    0.032196
  10 H :    0.037338
  11 H :    0.021003
  12 H :    0.000331

  Mayer bond orders larger than 0.1
B(  0-C ,  1-C ) :   1.8892 B(  0-C ,  3-C ) :   0.1317 B(  0-C ,  7-H ) :   0.9440
B(  0-C ,  8-H ) :   0.9475 B(  1-C ,  2-C ) :   1.1427 B(  1-C ,  9-H ) :   0.9609
B(  2-C ,  3-C ) :   1.7204 B(  2-C , 10-H ) :   0.9580 B(  3-C ,  4-O ) :   1.0310
B(  3-C , 11-H ) :   0.9589 B(  4-O ,  5-C ) :   1.1285 B(  5-C ,  6-O ) :   2.0662
B(  5-C , 12-H ) :   0.9407

FINAL SINGLE POINT ENERGY      -343.889936274059

DIPOLE MOMENT
-------------
                                X             Y             Z
Electronic contribution:      6.27387      -2.04439      -2.84315
Nuclear contribution   :     -6.76002       1.90122       2.65106
                        -----------------------------------------
Total Dipole Moment    :     -0.48615      -0.14317      -0.19209
                        -----------------------------------------
Magnitude (a.u.)       :      0.54198
Magnitude (Debye)      :      1.37760

                             ****ORCA TERMINATED NORMALLY****
TOTAL RUN TIME: 0 days 0 hours 0 minutes 5 seconds 858 msec
