                         Program Version 3.0.3 - RELEASE   -
|  1> ! RI PBE def2-SVP def2-SVP/J NBO PAL2
|  2> % maxcore 2000
|  3> % output
|  4>     # printlevel mini
|  5>     print[ P_Basis ] 0
|  6>     print[ P_SCFInfo ] 1
|  7>     print[ P_SCFIterInfo ] 1
|  8>     print[ P_OrbEn ] 0
|  9>     print[ P_Cartesian ] 0
| 10> end
| 11> *xyz 0 1
| 12>  C        0.7888680000     0.8407370000     0.1189670000
| 13>  C        2.0834130000     0.5774590000     0.2509160000
| 14>  C        2.6529820000    -0.3964700000     1.1850410000
| 15>  C        2.0609820000    -1.5196190000     1.5825420000
| 16>  O        3.9189000000     0.0400310000     1.5583060000
| 17>  C        4.7533760000    -0.6277240000     2.3684850000
| 18>  O        4.5665920000    -1.6699330000     2.9156410000
| 19>  H        0.4382350000     1.5553100000    -0.6152950000
| 20>  H        0.0415890000     0.3599620000     0.7404620000
| 21>  H        2.8105830000     1.1164440000    -0.3502510000
| 22>  H        1.0905260000    -1.7482590000     1.1623810000
| 23>  H        2.5055470000    -2.2041090000     2.2844300000
| 24>  H        5.6755180000    -0.0344390000     2.4526040000
| 25> *
| 26>
| 27>                          ****END OF INPUT****
 Total Charge           Charge          ....    0
 Multiplicity           Mult            ....    1
 Number of Electrons    NEL             ....   52
 Basis Dimension        Dim             ....  128

MULLIKEN ATOMIC CHARGES
-----------------------
   0 C :   -0.030091
   1 C :   -0.005567
   2 C :    0.080517
   3 C :   -0.053032
   4 O :   -0.209927
   5 C :    0.223752
   6 O :   -0.182393
   7 H :    0.036649
   8 H :    0.031928
   9 H :    0.016368
  10 H :    0.024435
  11 H :    0.054826
  12 H :    0.012536
Sum of atomic charges:   -0.0000000

LOEWDIN ATOMIC CHARGES
----------------------
   0 C :   -0.031455
   1 C :   -0.036179
   2 C :    0.032989
   3 C :   -0.073042
   4 O :   -0.024008
   5 C :    0.088714
   6 O :   -0.115696
   7 H :    0.030866
   8 H :    0.027354
   9 H :    0.035766
  10 H :    0.033496
  11 H :    0.032109
  12 H :   -0.000915

  Mayer bond orders larger than 0.1
B(  0-C ,  1-C ) :   1.9666 B(  0-C ,  7-H ) :   0.9430 B(  0-C ,  8-H ) :   0.9470
B(  1-C ,  2-C ) :   1.0506 B(  1-C ,  9-H ) :   0.9436 B(  2-C ,  3-C ) :   1.9035
B(  2-C ,  4-O ) :   0.9949 B(  3-C , 10-H ) :   0.9136 B(  3-C , 11-H ) :   0.9230
B(  4-O ,  5-C ) :   1.1493 B(  5-C ,  6-O ) :   2.0671 B(  5-C , 12-H ) :   0.9347

FINAL SINGLE POINT ENERGY      -343.879759152855

DIPOLE MOMENT
-------------
                                X             Y             Z
Electronic contribution:      4.98272      -0.90800       2.46184
Nuclear contribution   :     -5.19945       1.41938      -2.88362
                        -----------------------------------------
Total Dipole Moment    :     -0.21673       0.51138      -0.42179
                        -----------------------------------------
Magnitude (a.u.)       :      0.69741
Magnitude (Debye)      :      1.77268

                             ****ORCA TERMINATED NORMALLY****
TOTAL RUN TIME: 0 days 0 hours 0 minutes 5 seconds 982 msec
