                         Program Version 3.0.3 - RELEASE   -
|  1> ! RI PBE def2-SVP def2-SVP/J NBO PAL2
|  2> % maxcore 2000
|  3> % output
|  4>     # printlevel mini
|  5>     print[ P_Basis ] 0
|  6>     print[ P_SCFInfo ] 1
|  7>     print[ P_SCFIterInfo ] 1
|  8>     print[ P_OrbEn ] 0
|  9>     print[ P_Cartesian ] 0
| 10> end
| 11> *xyz 0 1
| 12>  C        1.3587450000     0.3786630000    -0.5562090000
| 13>  C        2.1723220000    -0.4674980000     0.0571880000
| 14>  C        2.8500800000    -0.1750040000     1.3522030000
| 15>  C        2.8128450000    -1.3397740000     2.3343600000
| 16>  O        2.3482760000    -2.4131890000     2.0848430000
| 17>  C        4.3193480000     0.2016330000     1.1891850000
| 18>  O        4.9460110000     0.7711510000     2.0357650000
| 19>  H        0.8949370000     0.1284980000    -1.5028850000
| 20>  H        1.1184210000     1.3492180000    -0.1328310000
| 21>  H        2.3805190000    -1.4384470000    -0.3831560000
| 22>  H        2.3908220000     0.6732050000     1.8743320000
| 23>  H        3.2752100000    -1.1135860000     3.3156990000
| 24>  H        4.7814660000    -0.1068790000     0.2293970000
| 25> *
| 26>
| 27>                          ****END OF INPUT****
 Total Charge           Charge          ....    0
 Multiplicity           Mult            ....    1
 Number of Electrons    NEL             ....   52
 Basis Dimension        Dim             ....  128

MULLIKEN ATOMIC CHARGES
-----------------------
   0 C :   -0.017795
   1 C :   -0.042234
   2 C :   -0.088431
   3 C :    0.127710
   4 O :   -0.131463
   5 C :    0.122388
   6 O :   -0.148281
   7 H :    0.038164
   8 H :    0.026386
   9 H :    0.025349
  10 H :    0.057627
  11 H :    0.014250
  12 H :    0.016330
Sum of atomic charges:   -0.0000000

LOEWDIN ATOMIC CHARGES
----------------------
   0 C :   -0.038757
   1 C :   -0.025540
   2 C :   -0.123149
   3 C :    0.108671
   4 O :   -0.083914
   5 C :    0.104932
   6 O :   -0.092638
   7 H :    0.031319
   8 H :    0.025329
   9 H :    0.033245
  10 H :    0.063513
  11 H :   -0.000858
  12 H :   -0.002152

  Mayer bond orders larger than 0.1
B(  0-C ,  1-C ) :   2.0134 B(  0-C ,  7-H ) :   0.9470 B(  0-C ,  8-H ) :   0.9486
B(  1-C ,  2-C ) :   0.9764 B(  1-C ,  9-H ) :   0.9504 B(  2-C ,  3-C ) :   0.8904
B(  2-C ,  5-C ) :   0.8871 B(  2-C , 10-H ) :   0.8824 B(  3-C ,  4-O ) :   2.2093
B(  3-C , 11-H ) :   0.9267 B(  5-C ,  6-O ) :   2.1627 B(  5-C , 12-H ) :   0.9339

FINAL SINGLE POINT ENERGY      -343.870959713666

DIPOLE MOMENT
-------------
                                X             Y             Z
Electronic contribution:      2.64201      -1.64950       3.33588
Nuclear contribution   :     -2.92501       2.01534      -3.78143
                        -----------------------------------------
Total Dipole Moment    :     -0.28300       0.36583      -0.44554
                        -----------------------------------------
Magnitude (a.u.)       :      0.64220
Magnitude (Debye)      :      1.63235

                             ****ORCA TERMINATED NORMALLY****
TOTAL RUN TIME: 0 days 0 hours 0 minutes 5 seconds 858 msec
