                         Program Version 3.0.3 - RELEASE   -
|  1> ! RI PBE def2-SVP def2-SVP/J NBO PAL2
|  2> % maxcore 2000
|  3> % output
|  4>     # printlevel mini
|  5>     print[ P_Basis ] 0
|  6>     print[ P_SCFInfo ] 1
|  7>     print[ P_SCFIterInfo ] 1
|  8>     print[ P_OrbEn ] 0
|  9>     print[ P_Cartesian ] 0
| 10> end
| 11> *xyz 0 1
| 12>  C        1.9401130000    -0.8776230000    -0.6107340000
| 13>  C        2.9445590000    -0.0795740000    -0.2765810000
| 14>  C        3.2988140000     0.3114840000     1.1279850000
| 15>  C        4.6519830000    -0.2685330000     1.4730670000
| 16>  O        5.6705260000     0.3623540000     1.4884110000
| 17>  C        4.6683250000    -1.7822250000     1.7815380000
| 18>  O        5.6755670000    -2.3699160000     2.0347400000
| 19>  H        1.7401180000    -1.1276460000    -1.6458490000
| 20>  H        1.2747640000    -1.3004690000     0.1357890000
| 21>  H        3.5913010000     0.3250010000    -1.0514760000
| 22>  H        2.5420970000    -0.0688710000     1.8214580000
| 23>  H        3.3665270000     1.3967050000     1.2283810000
| 24>  H        3.6796070000    -2.2870770000     1.7691810000
| 25> *
| 26>
| 27>                          ****END OF INPUT****
 Total Charge           Charge          ....    0
 Multiplicity           Mult            ....    1
 Number of Electrons    NEL             ....   52
 Basis Dimension        Dim             ....  128

MULLIKEN ATOMIC CHARGES
-----------------------
   0 C :   -0.014234
   1 C :   -0.102847
   2 C :    0.087002
   3 C :   -0.040031
   4 O :   -0.108980
   5 C :    0.127609
   6 O :   -0.104867
   7 H :    0.038455
   8 H :    0.027951
   9 H :    0.027190
  10 H :    0.030694
  11 H :    0.043425
  12 H :   -0.011365
Sum of atomic charges:   -0.0000000

LOEWDIN ATOMIC CHARGES
----------------------
   0 C :   -0.045461
   1 C :   -0.024645
   2 C :   -0.067756
   3 C :    0.017428
   4 O :   -0.065281
   5 C :    0.064468
   6 O :   -0.048257
   7 H :    0.032136
   8 H :    0.025287
   9 H :    0.034535
  10 H :    0.042020
  11 H :    0.048751
  12 H :   -0.013226

  Mayer bond orders larger than 0.1
B(  0-C ,  1-C ) :   1.9909 B(  0-C ,  7-H ) :   0.9436 B(  0-C ,  8-H ) :   0.9494
B(  1-C ,  2-C ) :   1.0501 B(  1-C ,  9-H ) :   0.9536 B(  2-C ,  3-C ) :   0.9465
B(  2-C , 10-H ) :   0.9138 B(  2-C , 11-H ) :   0.8939 B(  3-C ,  4-O ) :   2.2091
B(  3-C ,  5-C ) :   0.8082 B(  5-C ,  6-O ) :   2.2090 B(  5-C , 12-H ) :   0.9167

FINAL SINGLE POINT ENERGY      -343.868333147815

DIPOLE MOMENT
-------------
                                X             Y             Z
Electronic contribution:      6.76282      -0.88168       3.32611
Nuclear contribution   :     -8.17822       0.99617      -3.63416
                        -----------------------------------------
Total Dipole Moment    :     -1.41540       0.11449      -0.30805
                        -----------------------------------------
Magnitude (a.u.)       :      1.45305
Magnitude (Debye)      :      3.69336

                             ****ORCA TERMINATED NORMALLY****
TOTAL RUN TIME: 0 days 0 hours 0 minutes 6 seconds 21 msec
