                         Program Version 3.0.3 - RELEASE   -
|  1> ! RI PBE def2-SVP def2-SVP/J NBO PAL2
|  2> % maxcore 2000
|  3> % output
|  4>     # printlevel mini
|  5>     print[ P_Basis ] 0
|  6>     print[ P_SCFInfo ] 1
|  7>     print[ P_SCFIterInfo ] 1
|  8>     print[ P_OrbEn ] 0
|  9>     print[ P_Cartesian ] 0
| 10> end
| 11> *xyz 0 1
| 12>  C        0.5722830000    -1.0896940000    -0.3804220000
| 13>  C        1.5012940000    -0.3697440000     0.2308460000
| 14>  C        2.6603380000    -0.9347410000     0.9830240000
| 15>  C        4.0063980000    -0.4333480000     0.4909310000
| 16>  O        4.2378840000    -0.7648900000    -0.8852670000
| 17>  C        4.7013010000    -1.9861280000    -1.1318980000
| 18>  O        4.9504310000    -2.8275930000    -0.3177230000
| 19>  H       -0.2524480000    -0.6229800000    -0.9062420000
| 20>  H        0.6018390000    -2.1749950000    -0.3734100000
| 21>  H        1.4358780000     0.7171200000     0.1961130000
| 22>  H        2.6435210000    -2.0267750000     0.9533950000
| 23>  H        2.5902760000    -0.6439300000     2.0392630000
| 24>  H        4.8125810000    -0.8490270000     1.0975300000
| 25>  H        4.0544250000     0.6562780000     0.5210240000
| 26>  H        4.8302990000    -2.1094450000    -2.2171610000
| 27> *
| 28>
| 29>                          ****END OF INPUT****
 Total Charge           Charge          ....    0
 Multiplicity           Mult            ....    1
 Number of Electrons    NEL             ....   54
 Basis Dimension        Dim             ....  138

MULLIKEN ATOMIC CHARGES
-----------------------
   0 C :   -0.032800
   1 C :   -0.077140
   2 C :    0.009978
   3 C :    0.139615
   4 O :   -0.238350
   5 C :    0.209873
   6 O :   -0.212632
   7 H :    0.024866
   8 H :    0.024974
   9 H :    0.005532
  10 H :    0.035574
  11 H :    0.036954
  12 H :    0.035663
  13 H :    0.029471
  14 H :    0.008422
Sum of atomic charges:   -0.0000000

LOEWDIN ATOMIC CHARGES
----------------------
   0 C :   -0.059005
   1 C :   -0.033422
   2 C :   -0.055565
   3 C :    0.073421
   4 O :   -0.054650
   5 C :    0.072546
   6 O :   -0.147674
   7 H :    0.026024
   8 H :    0.024203
   9 H :    0.025584
  10 H :    0.037201
  11 H :    0.046554
  12 H :    0.022666
  13 H :    0.025630
  14 H :   -0.003513

  Mayer bond orders larger than 0.1
B(  0-C ,  1-C ) :   2.0229 B(  0-C ,  7-H ) :   0.9433 B(  0-C ,  8-H ) :   0.9497
B(  1-C ,  2-C ) :   1.0485 B(  1-C ,  9-H ) :   0.9538 B(  2-C ,  3-C ) :   1.0914
B(  2-C , 10-H ) :   0.9284 B(  2-C , 11-H ) :   0.9056 B(  3-C ,  4-O ) :   0.9287
B(  3-C , 12-H ) :   0.9297 B(  3-C , 13-H ) :   0.9462 B(  4-O ,  5-C ) :   1.2118
B(  4-O ,  6-O ) :   0.1056 B(  5-C ,  6-O ) :   2.0260 B(  5-C , 14-H ) :   0.9350

FINAL SINGLE POINT ENERGY      -345.098315600294

DIPOLE MOMENT
-------------
                                X             Y             Z
Electronic contribution:      4.97550      -1.89642      -2.30091
Nuclear contribution   :     -5.21472       2.54149       2.38682
                        -----------------------------------------
Total Dipole Moment    :     -0.23923       0.64507       0.08591
                        -----------------------------------------
Magnitude (a.u.)       :      0.69334
Magnitude (Debye)      :      1.76233

                             ****ORCA TERMINATED NORMALLY****
TOTAL RUN TIME: 0 days 0 hours 0 minutes 6 seconds 664 msec
