                         Program Version 3.0.3 - RELEASE   -
|  1> ! RI PBE def2-SVP def2-SVP/J NBO PAL2
|  2> % maxcore 2000
|  3> % output
|  4>     # printlevel mini
|  5>     print[ P_Basis ] 0
|  6>     print[ P_SCFInfo ] 1
|  7>     print[ P_SCFIterInfo ] 1
|  8>     print[ P_OrbEn ] 0
|  9>     print[ P_Cartesian ] 0
| 10> end
| 11> *xyz 0 1
| 12>  C        0.9856570000    -0.2067640000    -0.1409570000
| 13>  C        2.4380700000     0.0968560000    -0.0078740000
| 14>  C        2.9998340000     1.2003020000     0.5141480000
| 15>  C        2.2112190000     2.3167390000     1.0534240000
| 16>  O        2.6922900000     3.3171640000     1.5269120000
| 17>  C        4.4830580000     1.3068040000     0.5528290000
| 18>  O        5.2245120000     0.4518640000     0.1386690000
| 19>  H        0.8305730000    -1.1805230000    -0.6028700000
| 20>  H        0.4749780000     0.5412120000    -0.7537290000
| 21>  H        0.4871290000    -0.2129470000     0.8322550000
| 22>  H        3.1437560000    -0.6492270000    -0.3697400000
| 23>  H        1.1099810000     2.1963110000     1.0049730000
| 24>  H        4.8696230000     2.2410190000     0.9955590000
| 25> *
| 26>
| 27>                          ****END OF INPUT****
 Total Charge           Charge          ....    0
 Multiplicity           Mult            ....    1
 Number of Electrons    NEL             ....   52
 Basis Dimension        Dim             ....  128

MULLIKEN ATOMIC CHARGES
-----------------------
   0 C :    0.034140
   1 C :   -0.076278
   2 C :   -0.115031
   3 C :    0.128057
   4 O :   -0.152463
   5 C :    0.158442
   6 O :   -0.159111
   7 H :    0.041626
   8 H :    0.065849
   9 H :    0.063891
  10 H :    0.031256
  11 H :   -0.021988
  12 H :    0.001608
Sum of atomic charges:   -0.0000000

LOEWDIN ATOMIC CHARGES
----------------------
   0 C :   -0.069762
   1 C :    0.075563
   2 C :   -0.148163
   3 C :    0.080954
   4 O :   -0.104669
   5 C :    0.098738
   6 O :   -0.107659
   7 H :    0.041448
   8 H :    0.054431
   9 H :    0.054110
  10 H :    0.036175
  11 H :   -0.009589
  12 H :   -0.001577

  Mayer bond orders larger than 0.1
B(  0-C ,  1-C ) :   1.1011 B(  0-C ,  7-H ) :   0.9537 B(  0-C ,  8-H ) :   0.9339
B(  0-C ,  9-H ) :   0.9335 B(  1-C ,  2-C ) :   1.7498 B(  1-C , 10-H ) :   0.9238
B(  2-C ,  3-C ) :   1.0018 B(  2-C ,  5-C ) :   0.9649 B(  3-C ,  4-O ) :   2.1402
B(  3-C , 11-H ) :   0.9280 B(  5-C ,  6-O ) :   2.1465 B(  5-C , 12-H ) :   0.9383

FINAL SINGLE POINT ENERGY      -343.888314071254

DIPOLE MOMENT
-------------
                                X             Y             Z
Electronic contribution:      5.38209       3.40785       1.58192
Nuclear contribution   :     -6.67070      -4.10475      -1.90467
                        -----------------------------------------
Total Dipole Moment    :     -1.28861      -0.69690      -0.32275
                        -----------------------------------------
Magnitude (a.u.)       :      1.50012
Magnitude (Debye)      :      3.81301

                             ****ORCA TERMINATED NORMALLY****
TOTAL RUN TIME: 0 days 0 hours 0 minutes 5 seconds 991 msec
