                         Program Version 3.0.3 - RELEASE   -
|  1> ! RI PBE def2-SVP def2-SVP/J NBO PAL2
|  2> % maxcore 2000
|  3> % output
|  4>     # printlevel mini
|  5>     print[ P_Basis ] 0
|  6>     print[ P_SCFInfo ] 1
|  7>     print[ P_SCFIterInfo ] 1
|  8>     print[ P_OrbEn ] 0
|  9>     print[ P_Cartesian ] 0
| 10> end
| 11> *xyz 0 1
| 12>  C        0.6104320000     0.0924840000     0.2095310000
| 13>  C        2.0000070000    -0.0426360000    -0.3050550000
| 14>  C        2.5257450000    -1.0794800000    -0.9525060000
| 15>  C        1.8491160000    -2.3531290000    -1.3162070000
| 16>  O        3.8687070000    -0.8854790000    -1.2992360000
| 17>  C        4.6488890000    -1.7471410000    -1.9564680000
| 18>  O        4.3780700000    -2.8313880000    -2.3776350000
| 19>  H        0.6135690000     0.2584680000     1.2915370000
| 20>  H       -0.0091910000    -0.7809680000     0.0099930000
| 21>  H        0.1158000000     0.9607560000    -0.2373710000
| 22>  H        2.6645780000     0.7996230000    -0.1345710000
| 23>  H        0.8192640000    -2.3258310000    -0.9648310000
| 24>  H        2.3482300000    -3.2148050000    -0.8712710000
| 25>  H        1.8472370000    -2.5138810000    -2.3949120000
| 26>  H        5.6384380000    -1.2760740000    -2.0563880000
| 27> *
| 28>
| 29>                          ****END OF INPUT****
 Total Charge           Charge          ....    0
 Multiplicity           Mult            ....    1
 Number of Electrons    NEL             ....   54
 Basis Dimension        Dim             ....  138

MULLIKEN ATOMIC CHARGES
-----------------------
   0 C :    0.040616
   1 C :   -0.132584
   2 C :   -0.017734
   3 C :    0.112535
   4 O :   -0.203993
   5 C :    0.203409
   6 O :   -0.199674
   7 H :    0.039428
   8 H :    0.021836
   9 H :    0.034922
  10 H :    0.004025
  11 H :    0.004462
  12 H :    0.040759
  13 H :    0.044747
  14 H :    0.007246
Sum of atomic charges:   -0.0000000

LOEWDIN ATOMIC CHARGES
----------------------
   0 C :   -0.062970
   1 C :   -0.071760
   2 C :    0.031918
   3 C :   -0.067364
   4 O :   -0.025284
   5 C :    0.072305
   6 O :   -0.134509
   7 H :    0.040250
   8 H :    0.029029
   9 H :    0.039384
  10 H :    0.031642
  11 H :    0.032626
  12 H :    0.044278
  13 H :    0.044350
  14 H :   -0.003895

  Mayer bond orders larger than 0.1
B(  0-C ,  1-C ) :   1.1066 B(  0-C ,  7-H ) :   0.9411 B(  0-C ,  8-H ) :   0.9538
B(  0-C ,  9-H ) :   0.9411 B(  1-C ,  2-C ) :   1.8514 B(  1-C , 10-H ) :   0.9356
B(  2-C ,  3-C ) :   1.1262 B(  2-C ,  4-O ) :   0.9968 B(  3-C , 11-H ) :   0.9223
B(  3-C , 12-H ) :   0.9224 B(  3-C , 13-H ) :   0.9254 B(  4-O ,  5-C ) :   1.1659
B(  4-O ,  6-O ) :   0.1025 B(  5-C ,  6-O ) :   2.0569 B(  5-C , 14-H ) :   0.9342

FINAL SINGLE POINT ENERGY      -345.105671987663

DIPOLE MOMENT
-------------
                                X             Y             Z
Electronic contribution:      7.78542      -1.58461      -3.28015
Nuclear contribution   :     -8.21998       2.07939       3.65867
                        -----------------------------------------
Total Dipole Moment    :     -0.43456       0.49478       0.37853
                        -----------------------------------------
Magnitude (a.u.)       :      0.75956
Magnitude (Debye)      :      1.93065

                             ****ORCA TERMINATED NORMALLY****
TOTAL RUN TIME: 0 days 0 hours 0 minutes 6 seconds 414 msec
