                         Program Version 3.0.3 - RELEASE   -
|  1> ! RI PBE def2-SVP def2-SVP/J NBO PAL2
|  2> % maxcore 2000
|  3> % output
|  4>     # printlevel mini
|  5>     print[ P_Basis ] 0
|  6>     print[ P_SCFInfo ] 1
|  7>     print[ P_SCFIterInfo ] 1
|  8>     print[ P_OrbEn ] 0
|  9>     print[ P_Cartesian ] 0
| 10> end
| 11> *xyz 0 1
| 12>  C        0.9830550000    -0.3870200000     0.3570410000
| 13>  C        2.4208770000    -0.1137300000     0.0749690000
| 14>  C        2.9658060000     0.9222560000    -0.5655020000
| 15>  C        2.1846810000     2.0661330000    -1.1402910000
| 16>  O        2.5331110000     3.3153760000    -0.5405700000
| 17>  C        4.4547780000     1.0024340000    -0.7668960000
| 18>  O        5.0601740000     2.0888770000    -0.0952860000
| 19>  H        0.8307880000    -0.5479380000     1.4288000000
| 20>  H        0.6619250000    -1.3074870000    -0.1413290000
| 21>  H        0.3165210000     0.4139490000     0.0382610000
| 22>  H        3.1074870000    -0.8765350000     0.4403740000
| 23>  H        1.1056920000     1.9016000000    -1.0743410000
| 24>  H        2.4320860000     2.1866000000    -2.1993290000
| 25>  H        2.3185070000     3.2556400000     0.3954580000
| 26>  H        4.6661300000     1.0583950000    -1.8475730000
| 27>  H        4.9308080000     0.0952930000    -0.3881310000
| 28>  H        4.5274760000     2.8693850000    -0.2926560000
| 29> *
| 30>
| 31>                          ****END OF INPUT****
 Total Charge           Charge          ....    0
 Multiplicity           Mult            ....    1
 Number of Electrons    NEL             ....   56
 Basis Dimension        Dim             ....  148

MULLIKEN ATOMIC CHARGES
-----------------------
   0 C :    0.041872
   1 C :   -0.111966
   2 C :   -0.258589
   3 C :    0.261176
   4 O :   -0.293956
   5 C :    0.282716
   6 O :   -0.300054
   7 H :    0.035662
   8 H :    0.037448
   9 H :    0.017626
  10 H :   -0.004774
  11 H :    0.005479
  12 H :    0.013651
  13 H :    0.160279
  14 H :   -0.008410
  15 H :   -0.011312
  16 H :    0.133152
Sum of atomic charges:    0.0000000

LOEWDIN ATOMIC CHARGES
----------------------
   0 C :   -0.069960
   1 C :   -0.031305
   2 C :   -0.096508
   3 C :    0.062019
   4 O :   -0.108027
   5 C :    0.066656
   6 O :   -0.131034
   7 H :    0.040432
   8 H :    0.041749
   9 H :    0.026726
  10 H :    0.025834
  11 H :    0.010428
  12 H :    0.029097
  13 H :    0.071591
  14 H :    0.005944
  15 H :    0.017907
  16 H :    0.038451

  Mayer bond orders larger than 0.1
B(  0-C ,  1-C ) :   1.1031 B(  0-C ,  7-H ) :   0.9392 B(  0-C ,  8-H ) :   0.9402
B(  0-C ,  9-H ) :   0.9525 B(  1-C ,  2-C ) :   1.8859 B(  1-C , 10-H ) :   0.9310
B(  2-C ,  3-C ) :   1.0514 B(  2-C ,  5-C ) :   1.0310 B(  3-C ,  4-O ) :   1.0026
B(  3-C , 11-H ) :   0.9326 B(  3-C , 12-H ) :   0.9097 B(  4-O , 13-H ) :   0.9733
B(  4-O , 16-H ) :   0.1136 B(  5-C ,  6-O ) :   1.0721 B(  5-C , 14-H ) :   0.9115
B(  5-C , 15-H ) :   0.9275 B(  6-O , 16-H ) :   0.9555

FINAL SINGLE POINT ENERGY      -346.276334934213

DIPOLE MOMENT
-------------
                                X             Y             Z
Electronic contribution:      3.42903       3.66957      -0.03877
Nuclear contribution   :     -4.43514      -4.10124       0.10937
                        -----------------------------------------
Total Dipole Moment    :     -1.00611      -0.43167       0.07060
                        -----------------------------------------
Magnitude (a.u.)       :      1.09708
Magnitude (Debye)      :      2.78856

                             ****ORCA TERMINATED NORMALLY****
TOTAL RUN TIME: 0 days 0 hours 0 minutes 7 seconds 449 msec
