                         Program Version 3.0.3 - RELEASE   -
|  1> ! RI PBE def2-SVP def2-SVP/J NBO PAL2
|  2> % maxcore 2000
|  3> % output
|  4>     # printlevel mini
|  5>     print[ P_Basis ] 0
|  6>     print[ P_SCFInfo ] 1
|  7>     print[ P_SCFIterInfo ] 1
|  8>     print[ P_OrbEn ] 0
|  9>     print[ P_Cartesian ] 0
| 10> end
| 11> *xyz 0 1
| 12>  C        0.9580470000    -0.1550040000    -0.0524560000
| 13>  C        2.4171060000     0.0406590000     0.1252170000
| 14>  C        3.0511830000     1.0445830000     0.7454660000
| 15>  C        2.4254210000     2.2243270000     1.4349480000
| 16>  O        2.9111800000     3.4512080000     0.9462050000
| 17>  C        4.5159130000     0.9860490000     0.7649660000
| 18>  O        5.2255460000     1.8315250000     1.2623860000
| 19>  H        0.7235280000    -0.2890490000    -1.1129030000
| 20>  H        0.3634710000     0.6722560000     0.3318050000
| 21>  H        0.6360950000    -1.0729520000     0.4506100000
| 22>  H        3.0477460000    -0.7380670000    -0.3051800000
| 23>  H        2.6086130000     2.1321240000     2.5157750000
| 24>  H        1.3449400000     2.2327650000     1.2901360000
| 25>  H        3.8621140000     3.4479340000     1.1125040000
| 26>  H        4.9603870000     0.0922430000     0.2786100000
| 27> *
| 28>
| 29>                          ****END OF INPUT****
 Total Charge           Charge          ....    0
 Multiplicity           Mult            ....    1
 Number of Electrons    NEL             ....   54
 Basis Dimension        Dim             ....  138

MULLIKEN ATOMIC CHARGES
-----------------------
   0 C :    0.052341
   1 C :   -0.119241
   2 C :   -0.134420
   3 C :    0.260553
   4 O :   -0.293352
   5 C :    0.136013
   6 O :   -0.190612
   7 H :    0.047586
   8 H :    0.034662
   9 H :    0.047609
  10 H :    0.006687
  11 H :    0.018799
  12 H :   -0.000870
  13 H :    0.153700
  14 H :   -0.019456
Sum of atomic charges:   -0.0000000

LOEWDIN ATOMIC CHARGES
----------------------
   0 C :   -0.062797
   1 C :    0.017616
   2 C :   -0.105732
   3 C :    0.061852
   4 O :   -0.118934
   5 C :    0.085029
   6 O :   -0.126682
   7 H :    0.049408
   8 H :    0.034899
   9 H :    0.050028
  10 H :    0.027625
  11 H :    0.019255
  12 H :    0.021689
  13 H :    0.053792
  14 H :   -0.007048

  Mayer bond orders larger than 0.1
B(  0-C ,  1-C ) :   1.1049 B(  0-C ,  7-H ) :   0.9344 B(  0-C ,  8-H ) :   0.9545
B(  0-C ,  9-H ) :   0.9326 B(  1-C ,  2-C ) :   1.7662 B(  1-C , 10-H ) :   0.9354
B(  2-C ,  3-C ) :   1.0115 B(  2-C ,  5-C ) :   1.0256 B(  3-C ,  4-O ) :   1.0617
B(  3-C , 11-H ) :   0.9115 B(  3-C , 12-H ) :   0.9245 B(  4-O , 13-H ) :   0.9649
B(  5-C ,  6-O ) :   2.0508 B(  5-C , 14-H ) :   0.9341

FINAL SINGLE POINT ENERGY      -345.089262996243

DIPOLE MOMENT
-------------
                                X             Y             Z
Electronic contribution:      5.88380       3.22841       1.17595
Nuclear contribution   :     -6.63028      -4.44046      -1.42173
                        -----------------------------------------
Total Dipole Moment    :     -0.74648      -1.21205      -0.24577
                        -----------------------------------------
Magnitude (a.u.)       :      1.44454
Magnitude (Debye)      :      3.67174

                             ****ORCA TERMINATED NORMALLY****
TOTAL RUN TIME: 0 days 0 hours 0 minutes 6 seconds 715 msec
