                         Program Version 3.0.3 - RELEASE   -
|  1> ! RI PBE def2-SVP def2-SVP/J NBO PAL2
|  2> % maxcore 2000
|  3> % output
|  4>     # printlevel mini
|  5>     print[ P_Basis ] 0
|  6>     print[ P_SCFInfo ] 1
|  7>     print[ P_SCFIterInfo ] 1
|  8>     print[ P_OrbEn ] 0
|  9>     print[ P_Cartesian ] 0
| 10> end
| 11> *xyz 0 1
| 12>  C        0.7318630000    -0.0449580000     0.1117210000
| 13>  C        2.1960300000    -0.1524060000    -0.0892180000
| 14>  C        3.0863280000    -0.4770560000     0.8479970000
| 15>  C        4.5230200000    -0.5570330000     0.5484630000
| 16>  O        5.0029660000    -0.3410930000    -0.5467260000
| 17>  C        5.4432530000    -0.9319680000     1.6850540000
| 18>  O        6.7669810000    -0.9728710000     1.2744820000
| 19>  H        0.3842400000     0.9613470000    -0.1435970000
| 20>  H        0.4386490000    -0.2662090000     1.1387590000
| 21>  H        0.2029580000    -0.7291540000    -0.5596670000
| 22>  H        2.5822410000     0.0504990000    -1.0864610000
| 23>  H        2.7732640000    -0.6929540000     1.8665030000
| 24>  H        5.1157130000    -1.9057870000     2.0819570000
| 25>  H        5.2970840000    -0.2020420000     2.4968590000
| 26>  H        6.7428110000    -0.7404240000     0.3316650000
| 27> *
| 28>
| 29>                          ****END OF INPUT****
 Total Charge           Charge          ....    0
 Multiplicity           Mult            ....    1
 Number of Electrons    NEL             ....   54
 Basis Dimension        Dim             ....  138

MULLIKEN ATOMIC CHARGES
-----------------------
   0 C :    0.050614
   1 C :   -0.061707
   2 C :   -0.028198
   3 C :   -0.032464
   4 O :   -0.198076
   5 C :    0.197841
   6 O :   -0.261674
   7 H :    0.046657
   8 H :    0.026739
   9 H :    0.049931
  10 H :    0.025795
  11 H :   -0.006862
  12 H :    0.019546
  13 H :    0.023953
  14 H :    0.147904
Sum of atomic charges:   -0.0000000

LOEWDIN ATOMIC CHARGES
----------------------
   0 C :   -0.060434
   1 C :    0.037546
   2 C :   -0.090238
   3 C :    0.034444
   4 O :   -0.133897
   5 C :    0.022669
   6 O :   -0.114316
   7 H :    0.047978
   8 H :    0.034014
   9 H :    0.048797
  10 H :    0.034763
  11 H :    0.027291
  12 H :    0.028481
  13 H :    0.029212
  14 H :    0.053689

  Mayer bond orders larger than 0.1
B(  0-C ,  1-C ) :   1.0919 B(  0-C ,  7-H ) :   0.9374 B(  0-C ,  8-H ) :   0.9598
B(  0-C ,  9-H ) :   0.9367 B(  1-C ,  2-C ) :   1.8139 B(  1-C , 10-H ) :   0.9456
B(  2-C ,  3-C ) :   1.0132 B(  2-C , 11-H ) :   0.9518 B(  3-C ,  4-O ) :   2.0574
B(  3-C ,  5-C ) :   0.9702 B(  4-O , 14-H ) :   0.1055 B(  5-C ,  6-O ) :   1.1579
B(  5-C , 12-H ) :   0.9016 B(  5-C , 13-H ) :   0.9026 B(  6-O , 14-H ) :   0.9426

FINAL SINGLE POINT ENERGY      -345.097129781926

DIPOLE MOMENT
-------------
                                X             Y             Z
Electronic contribution:      6.67021      -0.38013      -1.37233
Nuclear contribution   :     -8.14796       0.47898       1.61107
                        -----------------------------------------
Total Dipole Moment    :     -1.47775       0.09885       0.23874
                        -----------------------------------------
Magnitude (a.u.)       :      1.50017
Magnitude (Debye)      :      3.81313

                             ****ORCA TERMINATED NORMALLY****
TOTAL RUN TIME: 0 days 0 hours 0 minutes 6 seconds 533 msec
