                         Program Version 3.0.3 - RELEASE   -
|  1> ! RI PBE def2-SVP def2-SVP/J NBO PAL2
|  2> % maxcore 2000
|  3> % output
|  4>     # printlevel mini
|  5>     print[ P_Basis ] 0
|  6>     print[ P_SCFInfo ] 1
|  7>     print[ P_SCFIterInfo ] 1
|  8>     print[ P_OrbEn ] 0
|  9>     print[ P_Cartesian ] 0
| 10> end
| 11> *xyz 0 1
| 12>  C        0.7508950000     0.3747470000    -0.1913010000
| 13>  C        2.2014600000     0.0927940000    -0.2864530000
| 14>  C        3.1688100000     0.8131250000     0.2855000000
| 15>  C        4.5768090000     0.4448890000     0.1269640000
| 16>  O        5.0003750000    -0.4993260000    -0.5037480000
| 17>  C        5.6068600000     1.3354750000     0.8222710000
| 18>  O        5.3257210000     2.2989080000     1.4763950000
| 19>  H        0.2240110000    -0.4819210000     0.2418330000
| 20>  H        0.3248380000     0.5197490000    -1.1895740000
| 21>  H        0.5412780000     1.2583340000     0.4122350000
| 22>  H        2.5053410000    -0.7739490000    -0.8713800000
| 23>  H        2.9553520000     1.6915910000     0.8849900000
| 24>  H        6.6495370000     0.9960840000     0.6581790000
| 25> *
| 26>
| 27>                          ****END OF INPUT****
 Total Charge           Charge          ....    0
 Multiplicity           Mult            ....    1
 Number of Electrons    NEL             ....   52
 Basis Dimension        Dim             ....  128

MULLIKEN ATOMIC CHARGES
-----------------------
   0 C :    0.044869
   1 C :   -0.057588
   2 C :   -0.038946
   3 C :    0.011760
   4 O :   -0.148797
   5 C :    0.141026
   6 O :   -0.119308
   7 H :    0.052211
   8 H :    0.050593
   9 H :    0.033801
  10 H :    0.025756
  11 H :    0.007909
  12 H :   -0.003286
Sum of atomic charges:    0.0000000

LOEWDIN ATOMIC CHARGES
----------------------
   0 C :   -0.060672
   1 C :    0.048696
   2 C :   -0.085054
   3 C :   -0.000551
   4 O :   -0.101855
   5 C :    0.076960
   6 O :   -0.074134
   7 H :    0.050354
   8 H :    0.050047
   9 H :    0.036599
  10 H :    0.033194
  11 H :    0.029908
  12 H :   -0.003492

  Mayer bond orders larger than 0.1
B(  0-C ,  1-C ) :   1.1026 B(  0-C ,  7-H ) :   0.9349 B(  0-C ,  8-H ) :   0.9348
B(  0-C ,  9-H ) :   0.9586 B(  1-C ,  2-C ) :   1.7832 B(  1-C , 10-H ) :   0.9433
B(  2-C ,  3-C ) :   1.0098 B(  2-C , 11-H ) :   0.9467 B(  3-C ,  4-O ) :   2.0872
B(  3-C ,  5-C ) :   0.8756 B(  5-C ,  6-O ) :   2.1885 B(  5-C , 12-H ) :   0.9101

FINAL SINGLE POINT ENERGY      -343.889713072549

DIPOLE MOMENT
-------------
                                X             Y             Z
Electronic contribution:      8.07903       0.83966       1.15401
Nuclear contribution   :     -9.05621      -0.93005      -1.28774
                        -----------------------------------------
Total Dipole Moment    :     -0.97718      -0.09039      -0.13372
                        -----------------------------------------
Magnitude (a.u.)       :      0.99042
Magnitude (Debye)      :      2.51745

                             ****ORCA TERMINATED NORMALLY****
TOTAL RUN TIME: 0 days 0 hours 0 minutes 6 seconds 90 msec
