                         Program Version 3.0.3 - RELEASE   -
|  1> ! RI PBE def2-SVP def2-SVP/J NBO PAL2
|  2> % maxcore 2000
|  3> % output
|  4>     # printlevel mini
|  5>     print[ P_Basis ] 0
|  6>     print[ P_SCFInfo ] 1
|  7>     print[ P_SCFIterInfo ] 1
|  8>     print[ P_OrbEn ] 0
|  9>     print[ P_Cartesian ] 0
| 10> end
| 11> *xyz 0 1
| 12>  C        0.7887550000     1.0110520000     2.3726740000
| 13>  C        2.2245980000     0.6099460000     2.4020610000
| 14>  C        3.0773740000     0.7728650000     1.3954210000
| 15>  C        4.5285220000     0.3717150000     1.3522990000
| 16>  O        5.2658030000     1.2987220000     0.5783180000
| 17>  C        5.1661980000     0.2344700000     2.7245660000
| 18>  O        5.2331090000     1.4881120000     3.3758450000
| 19>  H        0.5544520000     1.7079920000     3.1834030000
| 20>  H        0.1367990000     0.1425680000     2.5106000000
| 21>  H        0.5273040000     1.4868330000     1.4259560000
| 22>  H        2.5621510000     0.1291550000     3.3200710000
| 23>  H        2.7291700000     1.2415780000     0.4765670000
| 24>  H        4.6153590000    -0.5887780000     0.8289650000
| 25>  H        5.4759500000     2.0321240000     1.1690510000
| 26>  H        6.1977080000    -0.0999170000     2.6028310000
| 27>  H        4.6383920000    -0.5111920000     3.3320860000
| 28>  H        4.3292280000     1.8006660000     3.4913660000
| 29> *
| 30>
| 31>                          ****END OF INPUT****
 Total Charge           Charge          ....    0
 Multiplicity           Mult            ....    1
 Number of Electrons    NEL             ....   56
 Basis Dimension        Dim             ....  148

MULLIKEN ATOMIC CHARGES
-----------------------
   0 C :    0.048555
   1 C :   -0.122921
   2 C :   -0.080950
   3 C :    0.124925
   4 O :   -0.278884
   5 C :    0.170681
   6 O :   -0.288929
   7 H :    0.032158
   8 H :    0.037444
   9 H :    0.023642
  10 H :   -0.001237
  11 H :    0.002225
  12 H :    0.014031
  13 H :    0.141874
  14 H :    0.019167
  15 H :    0.006391
  16 H :    0.151828
Sum of atomic charges:   -0.0000000

LOEWDIN ATOMIC CHARGES
----------------------
   0 C :   -0.063414
   1 C :   -0.057684
   2 C :   -0.055817
   3 C :    0.019760
   4 O :   -0.111477
   5 C :    0.046258
   6 O :   -0.115078
   7 H :    0.036288
   8 H :    0.039523
   9 H :    0.032779
  10 H :    0.019498
  11 H :    0.027570
  12 H :    0.031498
  13 H :    0.055177
  14 H :    0.026413
  15 H :    0.006536
  16 H :    0.062170

  Mayer bond orders larger than 0.1
B(  0-C ,  1-C ) :   1.0817 B(  0-C ,  7-H ) :   0.9480 B(  0-C ,  8-H ) :   0.9422
B(  0-C ,  9-H ) :   0.9620 B(  1-C ,  2-C ) :   1.8874 B(  1-C , 10-H ) :   0.9415
B(  2-C ,  3-C ) :   0.9796 B(  2-C , 11-H ) :   0.9502 B(  3-C ,  4-O ) :   1.0311
B(  3-C ,  5-C ) :   1.0687 B(  3-C , 12-H ) :   0.8783 B(  4-O , 13-H ) :   0.9695
B(  5-C ,  6-O ) :   1.0435 B(  5-C , 14-H ) :   0.9266 B(  5-C , 15-H ) :   0.9183
B(  6-O , 16-H ) :   0.9755

FINAL SINGLE POINT ENERGY      -346.277223346837

DIPOLE MOMENT
-------------
                                X             Y             Z
Electronic contribution:      5.16180       1.02185      -1.32083
Nuclear contribution   :     -5.94220      -1.18245       1.77224
                        -----------------------------------------
Total Dipole Moment    :     -0.78040      -0.16060       0.45141
                        -----------------------------------------
Magnitude (a.u.)       :      0.91574
Magnitude (Debye)      :      2.32763

                             ****ORCA TERMINATED NORMALLY****
TOTAL RUN TIME: 0 days 0 hours 0 minutes 7 seconds 417 msec
