                         Program Version 3.0.3 - RELEASE   -
|  1> ! RI PBE def2-SVP def2-SVP/J NBO PAL2
|  2> % maxcore 2000
|  3> % output
|  4>     # printlevel mini
|  5>     print[ P_Basis ] 0
|  6>     print[ P_SCFInfo ] 1
|  7>     print[ P_SCFIterInfo ] 1
|  8>     print[ P_OrbEn ] 0
|  9>     print[ P_Cartesian ] 0
| 10> end
| 11> *xyz 0 1
| 12>  C        0.6065930000     0.0647580000    -0.0319220000
| 13>  C        2.0756710000     0.0759250000     0.2070510000
| 14>  C        2.9906710000     0.4538920000    -0.6770720000
| 15>  C        4.4650090000     0.4772890000    -0.4066490000
| 16>  O        5.1911340000    -0.1776050000    -1.4008270000
| 17>  C        4.9314160000     1.9106930000    -0.2801650000
| 18>  O        5.7960360000     2.3611730000    -0.9831110000
| 19>  H        0.1983660000    -0.9420730000     0.0994210000
| 20>  H        0.3611720000     0.4070810000    -1.0385200000
| 21>  H        0.0878830000     0.7083500000     0.6855370000
| 22>  H        2.4105870000    -0.2658410000     1.1859780000
| 23>  H        2.6979990000     0.7781760000    -1.6737070000
| 24>  H        4.6458690000     0.0180190000     0.5809590000
| 25>  H        5.8314080000     0.4701210000    -1.7343700000
| 26>  H        4.4268770000     2.5201320000     0.4933870000
| 27> *
| 28>
| 29>                          ****END OF INPUT****
 Total Charge           Charge          ....    0
 Multiplicity           Mult            ....    1
 Number of Electrons    NEL             ....   54
 Basis Dimension        Dim             ....  138

MULLIKEN ATOMIC CHARGES
-----------------------
   0 C :    0.044983
   1 C :   -0.100415
   2 C :   -0.025260
   3 C :    0.117758
   4 O :   -0.236008
   5 C :    0.115879
   6 O :   -0.172208
   7 H :    0.037509
   8 H :    0.023560
   9 H :    0.038665
  10 H :   -0.000512
  11 H :   -0.003091
  12 H :    0.013405
  13 H :    0.144788
  14 H :    0.000948
Sum of atomic charges:   -0.0000000

LOEWDIN ATOMIC CHARGES
----------------------
   0 C :   -0.061362
   1 C :   -0.030485
   2 C :   -0.051890
   3 C :    0.003211
   4 O :   -0.100579
   5 C :    0.090186
   6 O :   -0.099533
   7 H :    0.040142
   8 H :    0.033258
   9 H :    0.040164
  10 H :    0.023161
  11 H :    0.026762
  12 H :    0.032555
  13 H :    0.054671
  14 H :   -0.000262

  Mayer bond orders larger than 0.1
B(  0-C ,  1-C ) :   1.0847 B(  0-C ,  7-H ) :   0.9460 B(  0-C ,  8-H ) :   0.9614
B(  0-C ,  9-H ) :   0.9453 B(  1-C ,  2-C ) :   1.8818 B(  1-C , 10-H ) :   0.9531
B(  2-C ,  3-C ) :   0.9670 B(  2-C , 11-H ) :   0.9474 B(  3-C ,  4-O ) :   1.1554
B(  3-C ,  5-C ) :   0.9199 B(  3-C , 12-H ) :   0.8791 B(  4-O , 13-H ) :   0.9417
B(  5-C ,  6-O ) :   2.1137 B(  5-C , 14-H ) :   0.9258 B(  6-O , 13-H ) :   0.1016

FINAL SINGLE POINT ENERGY      -345.082316954028

DIPOLE MOMENT
-------------
                                X             Y             Z
Electronic contribution:      8.10919       2.20963      -2.06417
Nuclear contribution   :     -8.87405      -2.10776       2.70151
                        -----------------------------------------
Total Dipole Moment    :     -0.76486       0.10187       0.63734
                        -----------------------------------------
Magnitude (a.u.)       :      1.00079
Magnitude (Debye)      :      2.54380

                             ****ORCA TERMINATED NORMALLY****
TOTAL RUN TIME: 0 days 0 hours 0 minutes 6 seconds 132 msec
