                         Program Version 3.0.3 - RELEASE   -
|  1> ! RI PBE def2-SVP def2-SVP/J NBO PAL2
|  2> % maxcore 2000
|  3> % output
|  4>     # printlevel mini
|  5>     print[ P_Basis ] 0
|  6>     print[ P_SCFInfo ] 1
|  7>     print[ P_SCFIterInfo ] 1
|  8>     print[ P_OrbEn ] 0
|  9>     print[ P_Cartesian ] 0
| 10> end
| 11> *xyz 0 1
| 12>  C        0.5603190000    -0.1964140000     0.0940440000
| 13>  C        2.0295510000    -0.2908400000     0.3080550000
| 14>  C        2.8566050000     0.7418830000     0.4144930000
| 15>  C        4.3249450000     0.5976790000     0.6090720000
| 16>  O        4.7461000000     1.1836190000     1.8608710000
| 17>  C        4.7523890000     0.3771120000     2.9192900000
| 18>  O        4.4797880000    -0.7875540000     2.9304910000
| 19>  H        0.2662710000    -0.7018430000    -0.8312640000
| 20>  H        0.2259910000     0.8410230000     0.0395760000
| 21>  H        0.0186320000    -0.6923870000     0.9054630000
| 22>  H        2.4457820000    -1.2938580000     0.3883940000
| 23>  H        2.4713600000     1.7581530000     0.3578230000
| 24>  H        4.8854200000     1.1540780000    -0.1444710000
| 25>  H        4.6228820000    -0.4509750000     0.5860490000
| 26>  H        5.0632740000     0.9527340000     3.8041130000
| 27> *
| 28>
| 29>                          ****END OF INPUT****
 Total Charge           Charge          ....    0
 Multiplicity           Mult            ....    1
 Number of Electrons    NEL             ....   54
 Basis Dimension        Dim             ....  138

MULLIKEN ATOMIC CHARGES
-----------------------
   0 C :    0.038707
   1 C :   -0.082476
   2 C :   -0.103856
   3 C :    0.237222
   4 O :   -0.253942
   5 C :    0.208566
   6 O :   -0.208944
   7 H :    0.036368
   8 H :    0.021200
   9 H :    0.043487
  10 H :    0.012465
  11 H :   -0.001023
  12 H :    0.025350
  13 H :    0.023565
  14 H :    0.003311
Sum of atomic charges:   -0.0000000

LOEWDIN ATOMIC CHARGES
----------------------
   0 C :   -0.063381
   1 C :   -0.015492
   2 C :   -0.070372
   3 C :    0.074148
   4 O :   -0.063414
   5 C :    0.071358
   6 O :   -0.146522
   7 H :    0.040086
   8 H :    0.031630
   9 H :    0.042398
  10 H :    0.029188
  11 H :    0.023618
  12 H :    0.030353
  13 H :    0.021869
  14 H :   -0.005468

  Mayer bond orders larger than 0.1
B(  0-C ,  1-C ) :   1.0859 B(  0-C ,  7-H ) :   0.9452 B(  0-C ,  8-H ) :   0.9621
B(  0-C ,  9-H ) :   0.9452 B(  1-C ,  2-C ) :   1.9106 B(  1-C , 10-H ) :   0.9532
B(  2-C ,  3-C ) :   1.0790 B(  2-C , 11-H ) :   0.9581 B(  3-C ,  4-O ) :   0.9017
B(  3-C , 12-H ) :   0.9249 B(  3-C , 13-H ) :   0.9306 B(  4-O ,  5-C ) :   1.2083
B(  4-O ,  6-O ) :   0.1070 B(  5-C ,  6-O ) :   2.0467 B(  5-C , 14-H ) :   0.9319

FINAL SINGLE POINT ENERGY      -345.102951132400

DIPOLE MOMENT
-------------
                                X             Y             Z
Electronic contribution:      6.57106       0.61577       4.68737
Nuclear contribution   :     -6.85575      -0.23123      -5.22350
                        -----------------------------------------
Total Dipole Moment    :     -0.28469       0.38454      -0.53613
                        -----------------------------------------
Magnitude (a.u.)       :      0.71858
Magnitude (Debye)      :      1.82649

                             ****ORCA TERMINATED NORMALLY****
TOTAL RUN TIME: 0 days 0 hours 0 minutes 6 seconds 319 msec
