                         Program Version 3.0.3 - RELEASE   -
|  1> ! RI PBE def2-SVP def2-SVP/J NBO PAL2
|  2> % maxcore 2000
|  3> % output
|  4>     # printlevel mini
|  5>     print[ P_Basis ] 0
|  6>     print[ P_SCFInfo ] 1
|  7>     print[ P_SCFIterInfo ] 1
|  8>     print[ P_OrbEn ] 0
|  9>     print[ P_Cartesian ] 0
| 10> end
| 11> *xyz 0 1
| 12>  C        0.9766260000    -0.0339090000     0.1601320000
| 13>  C        2.4053640000     0.3376340000    -0.0623610000
| 14>  C        2.8536220000     1.5927330000    -0.0378950000
| 15>  C        3.3349280000    -0.7899230000    -0.3205400000
| 16>  O        2.9317310000    -1.9349790000    -0.3443520000
| 17>  C        4.8128650000    -0.5493250000    -0.5622360000
| 18>  O        5.4764950000    -1.7505460000    -0.7794530000
| 19>  H        0.3668500000     0.8513470000     0.3412290000
| 20>  H        0.8827420000    -0.7124420000     1.0112180000
| 21>  H        0.5788260000    -0.5709420000    -0.7041020000
| 22>  H        2.1831550000     2.4240490000     0.1497760000
| 23>  H        3.8958820000     1.8384240000    -0.2022970000
| 24>  H        5.2318600000    -0.0243350000     0.3073780000
| 25>  H        4.9248130000     0.1196790000    -1.4267100000
| 26>  H        4.7907600000    -2.4349450000    -0.7147980000
| 27> *
| 28>
| 29>                          ****END OF INPUT****
 Total Charge           Charge          ....    0
 Multiplicity           Mult            ....    1
 Number of Electrons    NEL             ....   54
 Basis Dimension        Dim             ....  138

MULLIKEN ATOMIC CHARGES
-----------------------
   0 C :    0.078456
   1 C :   -0.128401
   2 C :   -0.022860
   3 C :   -0.048880
   4 O :   -0.178928
   5 C :    0.195940
   6 O :   -0.264123
   7 H :    0.013144
   8 H :    0.046231
   9 H :    0.046938
  10 H :    0.028348
  11 H :    0.031400
  12 H :    0.028337
  13 H :    0.028667
  14 H :    0.145731
Sum of atomic charges:   -0.0000000

LOEWDIN ATOMIC CHARGES
----------------------
   0 C :   -0.051442
   1 C :   -0.060520
   2 C :   -0.011269
   3 C :    0.044831
   4 O :   -0.115286
   5 C :    0.022126
   6 O :   -0.117660
   7 H :    0.031645
   8 H :    0.045897
   9 H :    0.046042
  10 H :    0.030193
  11 H :    0.028354
  12 H :    0.028067
  13 H :    0.027932
  14 H :    0.051090

  Mayer bond orders larger than 0.1
B(  0-C ,  1-C ) :   1.0889 B(  0-C ,  7-H ) :   0.9440 B(  0-C ,  8-H ) :   0.9404
B(  0-C ,  9-H ) :   0.9409 B(  1-C ,  2-C ) :   1.9128 B(  1-C ,  3-C ) :   0.9560
B(  2-C , 10-H ) :   0.9322 B(  2-C , 11-H ) :   0.9261 B(  3-C ,  4-O ) :   2.0817
B(  3-C ,  5-C ) :   0.9952 B(  4-O , 14-H ) :   0.1067 B(  5-C ,  6-O ) :   1.1554
B(  5-C , 12-H ) :   0.8974 B(  5-C , 13-H ) :   0.8983 B(  6-O , 14-H ) :   0.9414

FINAL SINGLE POINT ENERGY      -345.093031209471

DIPOLE MOMENT
-------------
                                X             Y             Z
Electronic contribution:      2.70557      -4.11187      -0.82049
Nuclear contribution   :     -3.29422       5.16515       1.01264
                        -----------------------------------------
Total Dipole Moment    :     -0.58865       1.05328       0.19215
                        -----------------------------------------
Magnitude (a.u.)       :      1.22182
Magnitude (Debye)      :      3.10561

                             ****ORCA TERMINATED NORMALLY****
TOTAL RUN TIME: 0 days 0 hours 0 minutes 6 seconds 942 msec
