                         Program Version 3.0.3 - RELEASE   -
|  1> ! RI PBE def2-SVP def2-SVP/J NBO PAL2
|  2> % maxcore 2000
|  3> % output
|  4>     # printlevel mini
|  5>     print[ P_Basis ] 0
|  6>     print[ P_SCFInfo ] 1
|  7>     print[ P_SCFIterInfo ] 1
|  8>     print[ P_OrbEn ] 0
|  9>     print[ P_Cartesian ] 0
| 10> end
| 11> *xyz 0 1
| 12>  C        0.9557890000     0.0624850000     0.2852250000
| 13>  C        2.3804350000     0.3363060000    -0.0847750000
| 14>  C        2.9384850000     1.5401370000     0.0552760000
| 15>  C        3.2634180000    -0.7316690000    -0.6359360000
| 16>  O        4.4182370000    -0.5516550000    -0.9517150000
| 17>  C        2.7686260000    -2.1677680000    -0.8489630000
| 18>  O        1.6739280000    -2.5866670000    -0.6083720000
| 19>  H        0.4925220000     0.9751000000     0.6628380000
| 20>  H        0.8775210000    -0.7108760000     1.0515050000
| 21>  H        0.3767950000    -0.2945090000    -0.5684810000
| 22>  H        2.3735230000     2.3778510000     0.4480190000
| 23>  H        3.9728450000     1.7034070000    -0.2225880000
| 24>  H        3.5785880000    -2.7992300000    -1.2685230000
| 25> *
| 26>
| 27>                          ****END OF INPUT****
 Total Charge           Charge          ....    0
 Multiplicity           Mult            ....    1
 Number of Electrons    NEL             ....   52
 Basis Dimension        Dim             ....  128

MULLIKEN ATOMIC CHARGES
-----------------------
   0 C :    0.100170
   1 C :   -0.216591
   2 C :    0.030380
   3 C :    0.047871
   4 O :   -0.138290
   5 C :    0.121648
   6 O :   -0.113521
   7 H :    0.009036
   8 H :    0.043507
   9 H :    0.044192
  10 H :    0.026648
  11 H :    0.040931
  12 H :    0.004018
Sum of atomic charges:   -0.0000000

LOEWDIN ATOMIC CHARGES
----------------------
   0 C :   -0.058661
   1 C :   -0.072341
   2 C :    0.020986
   3 C :    0.016241
   4 O :   -0.087477
   5 C :    0.072912
   6 O :   -0.065624
   7 H :    0.030831
   8 H :    0.041810
   9 H :    0.042213
  10 H :    0.028462
  11 H :    0.031588
  12 H :   -0.000940

  Mayer bond orders larger than 0.1
B(  0-C ,  1-C ) :   1.1100 B(  0-C ,  7-H ) :   0.9348 B(  0-C ,  8-H ) :   0.9339
B(  0-C ,  9-H ) :   0.9333 B(  1-C ,  2-C ) :   1.9214 B(  1-C ,  3-C ) :   0.9609
B(  2-C ,  4-O ) :   0.1021 B(  2-C , 10-H ) :   0.9295 B(  2-C , 11-H ) :   0.9236
B(  3-C ,  4-O ) :   2.0920 B(  3-C ,  5-C ) :   0.8782 B(  5-C ,  6-O ) :   2.1683
B(  5-C , 12-H ) :   0.9083

FINAL SINGLE POINT ENERGY      -343.881326333044

DIPOLE MOMENT
-------------
                                X             Y             Z
Electronic contribution:      3.47142      -4.12471      -2.13881
Nuclear contribution   :     -3.78680       4.61682       2.35869
                        -----------------------------------------
Total Dipole Moment    :     -0.31538       0.49211       0.21988
                        -----------------------------------------
Magnitude (a.u.)       :      0.62448
Magnitude (Debye)      :      1.58731

                             ****ORCA TERMINATED NORMALLY****
TOTAL RUN TIME: 0 days 0 hours 0 minutes 5 seconds 879 msec
