                         Program Version 3.0.3 - RELEASE   -
|  1> ! RI PBE def2-SVP def2-SVP/J NBO PAL2
|  2> % maxcore 2000
|  3> % output
|  4>     # printlevel mini
|  5>     print[ P_Basis ] 0
|  6>     print[ P_SCFInfo ] 1
|  7>     print[ P_SCFIterInfo ] 1
|  8>     print[ P_OrbEn ] 0
|  9>     print[ P_Cartesian ] 0
| 10> end
| 11> *xyz 0 1
| 12>  C        1.2622330000    -0.3657530000    -0.0147710000
| 13>  C        2.7484850000    -0.3548370000     0.1719050000
| 14>  C        3.4556500000    -1.4686520000     0.3368410000
| 15>  C        3.3704630000     1.0207590000     0.1939830000
| 16>  O        3.0113370000     1.6992780000     1.3992660000
| 17>  C        4.8790920000     1.1004570000    -0.0034140000
| 18>  O        5.6156130000     0.6452510000     1.1085510000
| 19>  H        0.8525680000    -1.3715100000     0.0853340000
| 20>  H        0.9958530000     0.0168830000    -1.0058930000
| 21>  H        0.7710160000     0.2866810000     0.7127100000
| 22>  H        2.9688030000    -2.4384510000     0.3356350000
| 23>  H        4.5276270000    -1.4495530000     0.4888760000
| 24>  H        2.9138030000     1.6090790000    -0.6124150000
| 25>  H        3.0059910000     1.0398920000     2.0996340000
| 26>  H        5.1346530000     2.1435200000    -0.2311760000
| 27>  H        5.1779660000     0.4894680000    -0.8578720000
| 28>  H        5.4072580000     1.2347070000     1.8392150000
| 29> *
| 30>
| 31>                          ****END OF INPUT****
 Total Charge           Charge          ....    0
 Multiplicity           Mult            ....    1
 Number of Electrons    NEL             ....   56
 Basis Dimension        Dim             ....  148

MULLIKEN ATOMIC CHARGES
-----------------------
   0 C :    0.090831
   1 C :   -0.239323
   2 C :   -0.024987
   3 C :    0.121680
   4 O :   -0.281036
   5 C :    0.222143
   6 O :   -0.290884
   7 H :    0.013428
   8 H :    0.024809
   9 H :    0.025062
  10 H :    0.005634
  11 H :    0.034026
  12 H :   -0.008094
  13 H :    0.154633
  14 H :   -0.000061
  15 H :    0.009691
  16 H :    0.142448
Sum of atomic charges:    0.0000000

LOEWDIN ATOMIC CHARGES
----------------------
   0 C :   -0.055122
   1 C :   -0.059201
   2 C :   -0.061132
   3 C :    0.032850
   4 O :   -0.109608
   5 C :    0.044532
   6 O :   -0.117577
   7 H :    0.029637
   8 H :    0.036567
   9 H :    0.033358
  10 H :    0.020432
  11 H :    0.024663
  12 H :    0.024572
  13 H :    0.064116
  14 H :    0.009458
  15 H :    0.022884
  16 H :    0.059572

  Mayer bond orders larger than 0.1
B(  0-C ,  1-C ) :   1.0822 B(  0-C ,  7-H ) :   0.9528 B(  0-C ,  8-H ) :   0.9416
B(  0-C ,  9-H ) :   0.9407 B(  1-C ,  2-C ) :   1.9852 B(  1-C ,  3-C ) :   1.0071
B(  2-C , 10-H ) :   0.9307 B(  2-C , 11-H ) :   0.9192 B(  3-C ,  4-O ) :   1.0339
B(  3-C ,  5-C ) :   1.0206 B(  3-C , 12-H ) :   0.8933 B(  4-O , 13-H ) :   0.9730
B(  5-C ,  6-O ) :   1.0144 B(  5-C , 14-H ) :   0.9256 B(  5-C , 15-H ) :   0.9281
B(  6-O , 16-H ) :   0.9738

FINAL SINGLE POINT ENERGY      -346.274593707839

DIPOLE MOMENT
-------------
                                X             Y             Z
Electronic contribution:      2.80307       1.99845       2.06156
Nuclear contribution   :     -3.14243      -2.02726      -2.00527
                        -----------------------------------------
Total Dipole Moment    :     -0.33936      -0.02880       0.05630
                        -----------------------------------------
Magnitude (a.u.)       :      0.34520
Magnitude (Debye)      :      0.87742

                             ****ORCA TERMINATED NORMALLY****
TOTAL RUN TIME: 0 days 0 hours 0 minutes 7 seconds 523 msec
