                         Program Version 3.0.3 - RELEASE   -
|  1> ! RI PBE def2-SVP def2-SVP/J NBO PAL2
|  2> % maxcore 2000
|  3> % output
|  4>     # printlevel mini
|  5>     print[ P_Basis ] 0
|  6>     print[ P_SCFInfo ] 1
|  7>     print[ P_SCFIterInfo ] 1
|  8>     print[ P_OrbEn ] 0
|  9>     print[ P_Cartesian ] 0
| 10> end
| 11> *xyz 0 1
| 12>  C        0.8256760000     0.2893050000     0.1566090000
| 13>  C        2.3064720000     0.4368100000     0.0379030000
| 14>  C        2.9296740000     1.6088470000    -0.0153110000
| 15>  C        3.0948230000    -0.8510190000    -0.0651750000
| 16>  O        2.6657200000    -1.8234140000     0.8339900000
| 17>  C        3.0012480000    -1.3735760000    -1.4824680000
| 18>  O        2.5831960000    -2.4738370000    -1.7248180000
| 19>  H        0.3351130000     1.2625880000     0.1744020000
| 20>  H        0.5725390000    -0.2539640000     1.0697650000
| 21>  H        0.4147410000    -0.2923340000    -0.6756700000
| 22>  H        2.3795560000     2.5428520000     0.0066990000
| 23>  H        4.0110400000     1.6751610000    -0.0726330000
| 24>  H        4.1597590000    -0.6141020000     0.0942850000
| 25>  H        2.4301460000    -2.5985950000     0.3008930000
| 26>  H        3.3370960000    -0.6825210000    -2.2784610000
| 27> *
| 28>
| 29>                          ****END OF INPUT****
 Total Charge           Charge          ....    0
 Multiplicity           Mult            ....    1
 Number of Electrons    NEL             ....   54
 Basis Dimension        Dim             ....  138

MULLIKEN ATOMIC CHARGES
-----------------------
   0 C :    0.084258
   1 C :   -0.183861
   2 C :   -0.032704
   3 C :    0.110963
   4 O :   -0.227670
   5 C :    0.123968
   6 O :   -0.168317
   7 H :    0.017006
   8 H :    0.046193
   9 H :    0.026606
  10 H :    0.016160
  11 H :    0.016456
  12 H :    0.017259
  13 H :    0.148246
  14 H :    0.005438
Sum of atomic charges:   -0.0000000

LOEWDIN ATOMIC CHARGES
----------------------
   0 C :   -0.054832
   1 C :   -0.038822
   2 C :   -0.067759
   3 C :    0.007635
   4 O :   -0.095639
   5 C :    0.092662
   6 O :   -0.096649
   7 H :    0.033052
   8 H :    0.044007
   9 H :    0.036322
  10 H :    0.024695
  11 H :    0.021223
  12 H :    0.035403
  13 H :    0.056327
  14 H :    0.002374

  Mayer bond orders larger than 0.1
B(  0-C ,  1-C ) :   1.0755 B(  0-C ,  7-H ) :   0.9487 B(  0-C ,  8-H ) :   0.9345
B(  0-C ,  9-H ) :   0.9400 B(  1-C ,  2-C ) :   1.9545 B(  1-C ,  3-C ) :   0.9511
B(  2-C , 10-H ) :   0.9349 B(  2-C , 11-H ) :   0.9395 B(  3-C ,  4-O ) :   1.1879
B(  3-C ,  5-C ) :   0.9275 B(  3-C , 12-H ) :   0.8741 B(  4-O , 13-H ) :   0.9373
B(  5-C ,  6-O ) :   2.1129 B(  5-C , 14-H ) :   0.9251 B(  6-O , 13-H ) :   0.1027

FINAL SINGLE POINT ENERGY      -345.083347766084

DIPOLE MOMENT
-------------
                                X             Y             Z
Electronic contribution:      2.13084      -5.32702      -1.37810
Nuclear contribution   :     -2.02185       5.90708       1.10590
                        -----------------------------------------
Total Dipole Moment    :      0.10898       0.58006      -0.27220
                        -----------------------------------------
Magnitude (a.u.)       :      0.64995
Magnitude (Debye)      :      1.65204

                             ****ORCA TERMINATED NORMALLY****
TOTAL RUN TIME: 0 days 0 hours 0 minutes 6 seconds 353 msec
