                         Program Version 3.0.3 - RELEASE   -
|  1> ! RI PBE def2-SVP def2-SVP/J NBO PAL2
|  2> % maxcore 2000
|  3> % output
|  4>     # printlevel mini
|  5>     print[ P_Basis ] 0
|  6>     print[ P_SCFInfo ] 1
|  7>     print[ P_SCFIterInfo ] 1
|  8>     print[ P_OrbEn ] 0
|  9>     print[ P_Cartesian ] 0
| 10> end
| 11> *xyz 0 1
| 12>  C        0.6172380000     0.5171310000    -0.4299530000
| 13>  C        2.1088410000     0.4602630000    -0.3596600000
| 14>  C        2.9034550000     1.2829670000    -1.0349850000
| 15>  C        2.6958930000    -0.6206690000     0.4883010000
| 16>  O        2.1944790000    -0.4762690000     1.8304410000
| 17>  C        2.5444500000    -1.4372200000     2.6800530000
| 18>  O        3.2236770000    -2.3880960000     2.4244780000
| 19>  H        0.2813970000     1.3132590000    -1.0946390000
| 20>  H        0.1892950000     0.6877510000     0.5613910000
| 21>  H        0.2090250000    -0.4326830000    -0.7913510000
| 22>  H        2.5004110000     2.0433710000    -1.6946330000
| 23>  H        3.9831780000     1.2191480000    -0.9559350000
| 24>  H        3.7858950000    -0.5721660000     0.5074940000
| 25>  H        2.4088500000    -1.6122930000     0.1230010000
| 26>  H        2.1100240000    -1.2230940000     3.6678670000
| 27> *
| 28>
| 29>                          ****END OF INPUT****
 Total Charge           Charge          ....    0
 Multiplicity           Mult            ....    1
 Number of Electrons    NEL             ....   54
 Basis Dimension        Dim             ....  138

MULLIKEN ATOMIC CHARGES
-----------------------
   0 C :    0.071226
   1 C :   -0.204099
   2 C :   -0.036205
   3 C :    0.227606
   4 O :   -0.251744
   5 C :    0.208971
   6 O :   -0.208420
   7 H :    0.021836
   8 H :    0.041642
   9 H :    0.026509
  10 H :    0.017159
  11 H :    0.021173
  12 H :    0.024368
  13 H :    0.032849
  14 H :    0.007131
Sum of atomic charges:    0.0000000

LOEWDIN ATOMIC CHARGES
----------------------
   0 C :   -0.055427
   1 C :   -0.045221
   2 C :   -0.059530
   3 C :    0.084405
   4 O :   -0.060478
   5 C :    0.070120
   6 O :   -0.142258
   7 H :    0.033545
   8 H :    0.039840
   9 H :    0.037545
  10 H :    0.023819
  11 H :    0.024011
  12 H :    0.026411
  13 H :    0.027705
  14 H :   -0.004487

  Mayer bond orders larger than 0.1
B(  0-C ,  1-C ) :   1.0759 B(  0-C ,  7-H ) :   0.9530 B(  0-C ,  8-H ) :   0.9414
B(  0-C ,  9-H ) :   0.9423 B(  1-C ,  2-C ) :   1.9822 B(  1-C ,  3-C ) :   1.0447
B(  2-C , 10-H ) :   0.9391 B(  2-C , 11-H ) :   0.9359 B(  3-C ,  4-O ) :   0.9028
B(  3-C , 12-H ) :   0.9364 B(  3-C , 13-H ) :   0.9255 B(  4-O ,  5-C ) :   1.2034
B(  4-O ,  6-O ) :   0.1082 B(  5-C ,  6-O ) :   2.0418 B(  5-C , 14-H ) :   0.9368

FINAL SINGLE POINT ENERGY      -345.102538535888

DIPOLE MOMENT
-------------
                                X             Y             Z
Electronic contribution:      2.52131      -3.91650       5.68304
Nuclear contribution   :     -2.93168       4.45096      -5.99650
                        -----------------------------------------
Total Dipole Moment    :     -0.41036       0.53446      -0.31346
                        -----------------------------------------
Magnitude (a.u.)       :      0.74317
Magnitude (Debye)      :      1.88898

                             ****ORCA TERMINATED NORMALLY****
TOTAL RUN TIME: 0 days 0 hours 0 minutes 6 seconds 630 msec
