                         Program Version 3.0.3 - RELEASE   -
|  1> ! RI PBE def2-SVP def2-SVP/J NBO PAL2
|  2> % maxcore 2000
|  3> % output
|  4>     # printlevel mini
|  5>     print[ P_Basis ] 0
|  6>     print[ P_SCFInfo ] 1
|  7>     print[ P_SCFIterInfo ] 1
|  8>     print[ P_OrbEn ] 0
|  9>     print[ P_Cartesian ] 0
| 10> end
| 11> *xyz 0 1
| 12>  C        0.8071570000     0.0788220000     0.3051870000
| 13>  C        2.2156470000    -0.2317680000    -0.0849660000
| 14>  C        2.5555320000    -1.6680170000    -0.3088160000
| 15>  C        3.0921040000     0.7570160000    -0.2151340000
| 16>  O        4.4010980000     0.4962900000    -0.5750910000
| 17>  C        5.2407750000     1.5351300000    -0.6909770000
| 18>  O        4.9737430000     2.6847980000    -0.5129910000
| 19>  H        0.1061010000    -0.2720390000    -0.4595080000
| 20>  H        0.6485290000     1.1486720000     0.4477290000
| 21>  H        0.5400080000    -0.4335370000     1.2354890000
| 22>  H        1.9245080000    -2.0908880000    -1.0975190000
| 23>  H        2.3579570000    -2.2522590000     0.5959970000
| 24>  H        3.5982190000    -1.8070430000    -0.5889380000
| 25>  H        2.8658230000     1.8027770000    -0.0575710000
| 26>  H        6.2294900000     1.1531670000    -0.9805000000
| 27> *
| 28>
| 29>                          ****END OF INPUT****
 Total Charge           Charge          ....    0
 Multiplicity           Mult            ....    1
 Number of Electrons    NEL             ....   54
 Basis Dimension        Dim             ....  138

MULLIKEN ATOMIC CHARGES
-----------------------
   0 C :    0.043022
   1 C :   -0.206960
   2 C :    0.067713
   3 C :    0.081803
   4 O :   -0.197869
   5 C :    0.222224
   6 O :   -0.196582
   7 H :    0.033798
   8 H :    0.022340
   9 H :    0.029323
  10 H :    0.030136
  11 H :    0.031407
  12 H :    0.023483
  13 H :    0.011450
  14 H :    0.004710
Sum of atomic charges:   -0.0000000

LOEWDIN ATOMIC CHARGES
----------------------
   0 C :   -0.049842
   1 C :   -0.059284
   2 C :   -0.055488
   3 C :    0.014542
   4 O :   -0.020595
   5 C :    0.076868
   6 O :   -0.132562
   7 H :    0.036241
   8 H :    0.032969
   9 H :    0.035592
  10 H :    0.038043
  11 H :    0.038145
  12 H :    0.031452
  13 H :    0.017259
  14 H :   -0.003341

  Mayer bond orders larger than 0.1
B(  0-C ,  1-C ) :   1.0982 B(  0-C ,  7-H ) :   0.9460 B(  0-C ,  8-H ) :   0.9536
B(  0-C ,  9-H ) :   0.9451 B(  1-C ,  2-C ) :   1.1005 B(  1-C ,  3-C ) :   1.8170
B(  2-C , 10-H ) :   0.9436 B(  2-C , 11-H ) :   0.9442 B(  2-C , 12-H ) :   0.9450
B(  3-C ,  4-O ) :   1.0113 B(  3-C , 13-H ) :   0.9477 B(  4-O ,  5-C ) :   1.1489
B(  5-C ,  6-O ) :   2.0532 B(  5-C , 14-H ) :   0.9394

FINAL SINGLE POINT ENERGY      -345.111757107956

DIPOLE MOMENT
-------------
                                X             Y             Z
Electronic contribution:      7.60776       5.78553      -1.39646
Nuclear contribution   :     -7.97006      -6.58163       1.41303
                        -----------------------------------------
Total Dipole Moment    :     -0.36230      -0.79611       0.01657
                        -----------------------------------------
Magnitude (a.u.)       :      0.87483
Magnitude (Debye)      :      2.22363

                             ****ORCA TERMINATED NORMALLY****
TOTAL RUN TIME: 0 days 0 hours 0 minutes 6 seconds 582 msec
