                         Program Version 3.0.3 - RELEASE   -
|  1> ! RI PBE def2-SVP def2-SVP/J NBO PAL2
|  2> % maxcore 2000
|  3> % output
|  4>     # printlevel mini
|  5>     print[ P_Basis ] 0
|  6>     print[ P_SCFInfo ] 1
|  7>     print[ P_SCFIterInfo ] 1
|  8>     print[ P_OrbEn ] 0
|  9>     print[ P_Cartesian ] 0
| 10> end
| 11> *xyz 0 1
| 12>  C        1.0733060000     0.0411150000     0.0325040000
| 13>  C        2.5968850000     0.0415760000     0.0238480000
| 14>  C        3.1604900000     0.3436120000     1.4187540000
| 15>  C        3.0768920000    -1.3402410000    -0.3729060000
| 16>  O        3.7181500000    -1.6005640000    -1.3511930000
| 17>  C        3.1584770000     1.0657170000    -0.9430070000
| 18>  O        2.4968210000     1.8726930000    -1.5314100000
| 19>  H        0.6926850000    -0.7249650000     0.7127060000
| 20>  H        0.6733550000    -0.1431060000    -0.9655230000
| 21>  H        0.7032790000     1.0120500000     0.3645090000
| 22>  H        2.8838020000    -0.4482560000     2.1198220000
| 23>  H        2.7531080000     1.2846450000     1.7938720000
| 24>  H        4.2507990000     0.4187530000     1.4063110000
| 25>  H        2.7706660000    -2.1390090000     0.3409480000
| 26>  H        4.2618770000     1.0396690000    -1.0513440000
| 27> *
| 28>
| 29>                          ****END OF INPUT****
 Total Charge           Charge          ....    0
 Multiplicity           Mult            ....    1
 Number of Electrons    NEL             ....   54
 Basis Dimension        Dim             ....  138

MULLIKEN ATOMIC CHARGES
-----------------------
   0 C :    0.073101
   1 C :   -0.340441
   2 C :    0.022928
   3 C :    0.151074
   4 O :   -0.137917
   5 C :    0.165413
   6 O :   -0.141575
   7 H :    0.019996
   8 H :    0.039831
   9 H :    0.036835
  10 H :    0.036843
  11 H :    0.040866
  12 H :    0.041457
  13 H :   -0.006717
  14 H :   -0.001693
Sum of atomic charges:    0.0000000

LOEWDIN ATOMIC CHARGES
----------------------
   0 C :   -0.035329
   1 C :   -0.150701
   2 C :   -0.034864
   3 C :    0.106932
   4 O :   -0.093682
   5 C :    0.110660
   6 O :   -0.092290
   7 H :    0.028586
   8 H :    0.036204
   9 H :    0.036737
  10 H :    0.033187
  11 H :    0.037073
  12 H :    0.033168
  13 H :   -0.009586
  14 H :   -0.006095

  Mayer bond orders larger than 0.1
B(  0-C ,  1-C ) :   1.0344 B(  0-C ,  7-H ) :   0.9568 B(  0-C ,  8-H ) :   0.9595
B(  0-C ,  9-H ) :   0.9499 B(  1-C ,  2-C ) :   1.0145 B(  1-C ,  3-C ) :   0.8722
B(  1-C ,  5-C ) :   0.8726 B(  2-C , 10-H ) :   0.9529 B(  2-C , 11-H ) :   0.9554
B(  2-C , 12-H ) :   0.9596 B(  3-C ,  4-O ) :   2.2242 B(  3-C , 13-H ) :   0.9275
B(  5-C ,  6-O ) :   2.2220 B(  5-C , 14-H ) :   0.9347

FINAL SINGLE POINT ENERGY      -345.097574166028

DIPOLE MOMENT
-------------
                                X             Y             Z
Electronic contribution:      2.64863      -0.03388      -6.11687
Nuclear contribution   :     -2.82799      -0.20235       7.35568
                        -----------------------------------------
Total Dipole Moment    :     -0.17936      -0.23623       1.23882
                        -----------------------------------------
Magnitude (a.u.)       :      1.27383
Magnitude (Debye)      :      3.23782

                             ****ORCA TERMINATED NORMALLY****
TOTAL RUN TIME: 0 days 0 hours 0 minutes 6 seconds 378 msec
