                         Program Version 3.0.3 - RELEASE   -
|  1> ! RI PBE def2-SVP def2-SVP/J NBO PAL2
|  2> % maxcore 2000
|  3> % output
|  4>     # printlevel mini
|  5>     print[ P_Basis ] 0
|  6>     print[ P_SCFInfo ] 1
|  7>     print[ P_SCFIterInfo ] 1
|  8>     print[ P_OrbEn ] 0
|  9>     print[ P_Cartesian ] 0
| 10> end
| 11> *xyz 0 1
| 12>  C        1.0278220000     0.1980950000    -0.3112340000
| 13>  C        2.5027580000     0.2928920000    -0.6639700000
| 14>  C        2.7728820000    -0.0836830000    -2.1110600000
| 15>  C        3.0394700000     1.6796490000    -0.3607010000
| 16>  O        3.2859830000    -0.5636940000     0.2295470000
| 17>  C        3.1078430000    -1.8770980000     0.2625100000
| 18>  O        2.3387620000    -2.5330820000    -0.3803880000
| 19>  H        0.4714570000     0.9354990000    -0.8942730000
| 20>  H        0.8746650000     0.4186040000     0.7475590000
| 21>  H        0.6288740000    -0.7910570000    -0.5293610000
| 22>  H        2.2874630000     0.6422940000    -2.7672370000
| 23>  H        2.3875450000    -1.0750220000    -2.3432710000
| 24>  H        3.8454620000    -0.0611300000    -2.3164580000
| 25>  H        2.5251430000     2.4206630000    -0.9753930000
| 26>  H        4.1087530000     1.7335330000    -0.5738500000
| 27>  H        2.8833660000     1.9314020000     0.6899910000
| 28>  H        3.8036320000    -2.3023640000     1.0036780000
| 29> *
| 30>
| 31>                          ****END OF INPUT****
 Total Charge           Charge          ....    0
 Multiplicity           Mult            ....    1
 Number of Electrons    NEL             ....   56
 Basis Dimension        Dim             ....  148

MULLIKEN ATOMIC CHARGES
-----------------------
   0 C :    0.058722
   1 C :   -0.157950
   2 C :    0.060448
   3 C :    0.052754
   4 O :   -0.240780
   5 C :    0.209131
   6 O :   -0.209962
   7 H :    0.018024
   8 H :    0.019452
   9 H :    0.041961
  10 H :    0.017393
  11 H :    0.039766
  12 H :    0.019952
  13 H :    0.018390
  14 H :    0.024699
  15 H :    0.023102
  16 H :    0.004897
Sum of atomic charges:   -0.0000000

LOEWDIN ATOMIC CHARGES
----------------------
   0 C :   -0.059236
   1 C :    0.035930
   2 C :   -0.058960
   3 C :   -0.055103
   4 O :   -0.055229
   5 C :    0.070270
   6 O :   -0.149347
   7 H :    0.033058
   8 H :    0.029034
   9 H :    0.031792
  10 H :    0.032813
  11 H :    0.031880
  12 H :    0.028981
  13 H :    0.030996
  14 H :    0.029759
  15 H :    0.029473
  16 H :   -0.006113

  Mayer bond orders larger than 0.1
B(  0-C ,  1-C ) :   1.0658 B(  0-C ,  7-H ) :   0.9503 B(  0-C ,  8-H ) :   0.9501
B(  0-C ,  9-H ) :   0.9481 B(  1-C ,  2-C ) :   1.0676 B(  1-C ,  3-C ) :   1.0651
B(  1-C ,  4-O ) :   0.8560 B(  2-C , 10-H ) :   0.9497 B(  2-C , 11-H ) :   0.9453
B(  2-C , 12-H ) :   0.9518 B(  3-C , 13-H ) :   0.9532 B(  3-C , 14-H ) :   0.9539
B(  3-C , 15-H ) :   0.9548 B(  4-O ,  5-C ) :   1.2222 B(  4-O ,  6-O ) :   0.1102
B(  5-C ,  6-O ) :   2.0198 B(  5-C , 16-H ) :   0.9309

FINAL SINGLE POINT ENERGY      -346.328623603208

DIPOLE MOMENT
-------------
                                X             Y             Z
Electronic contribution:      1.97893      -6.75743       2.97805
Nuclear contribution   :     -1.85785       7.54385      -2.98268
                        -----------------------------------------
Total Dipole Moment    :      0.12109       0.78642      -0.00463
                        -----------------------------------------
Magnitude (a.u.)       :      0.79570
Magnitude (Debye)      :      2.02251

                             ****ORCA TERMINATED NORMALLY****
TOTAL RUN TIME: 0 days 0 hours 0 minutes 8 seconds 222 msec
