                         Program Version 3.0.3 - RELEASE   -
|  1> ! RI PBE def2-SVP def2-SVP/J NBO PAL2
|  2> % maxcore 2000
|  3> % output
|  4>     # printlevel mini
|  5>     print[ P_Basis ] 0
|  6>     print[ P_SCFInfo ] 1
|  7>     print[ P_SCFIterInfo ] 1
|  8>     print[ P_OrbEn ] 0
|  9>     print[ P_Cartesian ] 0
| 10> end
| 11> *xyz 0 1
| 12>  C        1.0997780000     0.0132950000    -0.0380130000
| 13>  C        2.6245120000     0.0202220000    -0.0320600000
| 14>  C        3.1560640000    -0.5185240000    -1.3560310000
| 15>  C        3.0974850000     1.4630450000     0.1868180000
| 16>  O        4.4922520000     1.6335950000     0.1504340000
| 17>  C        3.0828720000    -0.8646300000     1.1302220000
| 18>  O        4.4921990000    -0.9315350000     1.2996180000
| 19>  H        0.7132750000     0.6346180000    -0.8497600000
| 20>  H        0.6944990000     0.3999800000     0.9017350000
| 21>  H        0.7099640000    -0.9984150000    -0.1801530000
| 22>  H        2.7591130000     0.0610960000    -2.1933150000
| 23>  H        2.8604600000    -1.5620750000    -1.5034340000
| 24>  H        4.2445910000    -0.4469510000    -1.4120170000
| 25>  H        2.6809060000     1.8237720000     1.1413020000
| 26>  H        2.6856950000     2.0988550000    -0.6036170000
| 27>  H        4.8670250000     0.9647030000     0.7378900000
| 28>  H        2.6665010000    -1.8740810000     1.0102350000
| 29>  H        2.6965710000    -0.4609380000     2.0704250000
| 30>  H        4.8594370000    -1.4395400000     0.5713200000
| 31> *
| 32>
| 33>                          ****END OF INPUT****
 Total Charge           Charge          ....    0
 Multiplicity           Mult            ....    1
 Number of Electrons    NEL             ....   58
 Basis Dimension        Dim             ....  158

MULLIKEN ATOMIC CHARGES
-----------------------
   0 C :    0.063627
   1 C :   -0.410147
   2 C :    0.055599
   3 C :    0.254328
   4 O :   -0.282364
   5 C :    0.229126
   6 O :   -0.283690
   7 H :    0.018065
   8 H :    0.013961
   9 H :    0.012506
  10 H :    0.017720
  11 H :    0.008032
  12 H :    0.009141
  13 H :   -0.015078
  14 H :   -0.001487
  15 H :    0.136529
  16 H :    0.000673
  17 H :    0.008621
  18 H :    0.164836
Sum of atomic charges:   -0.0000000

LOEWDIN ATOMIC CHARGES
----------------------
   0 C :   -0.042881
   1 C :   -0.110842
   2 C :   -0.056210
   3 C :    0.065103
   4 O :   -0.123217
   5 C :    0.065768
   6 O :   -0.099910
   7 H :    0.027656
   8 H :    0.024574
   9 H :    0.024375
  10 H :    0.031175
  11 H :    0.021201
  12 H :    0.017834
  13 H :    0.000090
  14 H :    0.016119
  15 H :    0.039017
  16 H :    0.007766
  17 H :    0.020894
  18 H :    0.071489

  Mayer bond orders larger than 0.1
B(  0-C ,  1-C ) :   1.0364 B(  0-C ,  7-H ) :   0.9554 B(  0-C ,  8-H ) :   0.9548
B(  0-C ,  9-H ) :   0.9550 B(  1-C ,  2-C ) :   1.0302 B(  1-C ,  3-C ) :   0.9851
B(  1-C ,  5-C ) :   0.9896 B(  2-C , 10-H ) :   0.9559 B(  2-C , 11-H ) :   0.9579
B(  2-C , 12-H ) :   0.9434 B(  3-C ,  4-O ) :   1.1025 B(  3-C , 13-H ) :   0.9311
B(  3-C , 14-H ) :   0.9340 B(  4-O , 15-H ) :   0.9522 B(  5-C ,  6-O ) :   1.0330
B(  5-C , 16-H ) :   0.9403 B(  5-C , 17-H ) :   0.9396 B(  6-O , 15-H ) :   0.1138
B(  6-O , 18-H ) :   0.9750

FINAL SINGLE POINT ENERGY      -347.498672504588

DIPOLE MOMENT
-------------
                                X             Y             Z
Electronic contribution:      5.05497       1.21326       2.46875
Nuclear contribution   :     -5.55896      -2.01690      -2.60740
                        -----------------------------------------
Total Dipole Moment    :     -0.50399      -0.80364      -0.13865
                        -----------------------------------------
Magnitude (a.u.)       :      0.95868
Magnitude (Debye)      :      2.43676

                             ****ORCA TERMINATED NORMALLY****
TOTAL RUN TIME: 0 days 0 hours 0 minutes 8 seconds 573 msec
