                         Program Version 3.0.3 - RELEASE   -
|  1> ! RI PBE def2-SVP def2-SVP/J NBO PAL2
|  2> % maxcore 2000
|  3> % output
|  4>     # printlevel mini
|  5>     print[ P_Basis ] 0
|  6>     print[ P_SCFInfo ] 1
|  7>     print[ P_SCFIterInfo ] 1
|  8>     print[ P_OrbEn ] 0
|  9>     print[ P_Cartesian ] 0
| 10> end
| 11> *xyz 0 1
| 12>  C        0.9918660000    -0.0770430000     0.1174540000
| 13>  C        2.5100490000     0.0963080000     0.1604580000
| 14>  C        3.1896240000    -1.2497910000     0.4182530000
| 15>  C        3.0020370000     0.7283250000    -1.1424120000
| 16>  O        4.3898130000     0.9374440000    -1.1772150000
| 17>  C        2.8307750000     0.9942330000     1.3306970000
| 18>  O        3.4462770000     2.0268620000     1.2736010000
| 19>  H        0.7209560000    -0.7720180000    -0.6813990000
| 20>  H        0.4829270000     0.8720260000    -0.0699040000
| 21>  H        0.6120000000    -0.4876720000     1.0567280000
| 22>  H        2.8567160000    -1.9785380000    -0.3251010000
| 23>  H        2.9361050000    -1.6427100000     1.4071220000
| 24>  H        4.2737400000    -1.1551300000     0.3444950000
| 25>  H        2.4559520000     1.6671930000    -1.3086290000
| 26>  H        2.7616380000     0.0583530000    -1.9732190000
| 27>  H        4.5748380000     1.6160100000    -0.5177320000
| 28>  H        2.4485760000     0.6272380000     2.3099110000
| 29> *
| 30>
| 31>                          ****END OF INPUT****
 Total Charge           Charge          ....    0
 Multiplicity           Mult            ....    1
 Number of Electrons    NEL             ....   56
 Basis Dimension        Dim             ....  148

MULLIKEN ATOMIC CHARGES
-----------------------
   0 C :    0.042792
   1 C :   -0.376179
   2 C :    0.049862
   3 C :    0.251896
   4 O :   -0.277642
   5 C :    0.165646
   6 O :   -0.172479
   7 H :    0.030375
   8 H :    0.029977
   9 H :    0.024044
  10 H :    0.025727
  11 H :    0.020390
  12 H :    0.038095
  13 H :   -0.001290
  14 H :    0.002463
  15 H :    0.153046
  16 H :   -0.006720
Sum of atomic charges:   -0.0000000

LOEWDIN ATOMIC CHARGES
----------------------
   0 C :   -0.039580
   1 C :   -0.130180
   2 C :   -0.041326
   3 C :    0.064774
   4 O :   -0.113953
   5 C :    0.114845
   6 O :   -0.110574
   7 H :    0.032987
   8 H :    0.029274
   9 H :    0.028773
  10 H :    0.032437
  11 H :    0.025638
  12 H :    0.030591
  13 H :    0.007049
  14 H :    0.020623
  15 H :    0.055614
  16 H :   -0.006991

  Mayer bond orders larger than 0.1
B(  0-C ,  1-C ) :   1.0223 B(  0-C ,  7-H ) :   0.9546 B(  0-C ,  8-H ) :   0.9582
B(  0-C ,  9-H ) :   0.9558 B(  1-C ,  2-C ) :   1.0167 B(  1-C ,  3-C ) :   0.9810
B(  1-C ,  5-C ) :   0.9007 B(  2-C , 10-H ) :   0.9526 B(  2-C , 11-H ) :   0.9586
B(  2-C , 12-H ) :   0.9506 B(  3-C ,  4-O ) :   1.0886 B(  3-C , 13-H ) :   0.9341
B(  3-C , 14-H ) :   0.9363 B(  4-O , 15-H ) :   0.9671 B(  5-C ,  6-O ) :   2.1451
B(  5-C , 16-H ) :   0.9324

FINAL SINGLE POINT ENERGY      -346.301793248984

DIPOLE MOMENT
-------------
                                X             Y             Z
Electronic contribution:      4.09800       5.32350       1.18079
Nuclear contribution   :     -4.90712      -5.88127      -0.91478
                        -----------------------------------------
Total Dipole Moment    :     -0.80913      -0.55777       0.26601
                        -----------------------------------------
Magnitude (a.u.)       :      1.01811
Magnitude (Debye)      :      2.58783

                             ****ORCA TERMINATED NORMALLY****
TOTAL RUN TIME: 0 days 0 hours 0 minutes 6 seconds 883 msec
