                         Program Version 3.0.3 - RELEASE   -
|  1> ! RI PBE def2-SVP def2-SVP/J NBO PAL2
|  2> % maxcore 2000
|  3> % output
|  4>     # printlevel mini
|  5>     print[ P_Basis ] 0
|  6>     print[ P_SCFInfo ] 1
|  7>     print[ P_SCFIterInfo ] 1
|  8>     print[ P_OrbEn ] 0
|  9>     print[ P_Cartesian ] 0
| 10> end
| 11> *xyz 0 1
| 12>  C        0.9094220000    -0.0548220000    -0.2080760000
| 13>  C        2.4183880000     0.0403910000    -0.0692660000
| 14>  C        3.1329620000    -1.1513490000    -0.7054100000
| 15>  C        2.9411620000     1.3632120000    -0.5834710000
| 16>  O        2.2136030000     2.2753250000    -0.9035630000
| 17>  C        4.4376690000     1.5782340000    -0.6713770000
| 18>  O        4.7372360000     2.8939300000    -1.0007740000
| 19>  H        0.5449440000    -0.9721850000     0.2588650000
| 20>  H        0.6172530000    -0.0683120000    -1.2606910000
| 21>  H        0.4127900000     0.7960590000     0.2579510000
| 22>  H        2.6747700000     0.0444840000     1.0009450000
| 23>  H        2.9766560000    -1.1680930000    -1.7874070000
| 24>  H        2.7333140000    -2.0823700000    -0.2987770000
| 25>  H        4.2077630000    -1.1444470000    -0.5162680000
| 26>  H        4.8395990000     0.8820760000    -1.4227310000
| 27>  H        4.8942450000     1.2987450000     0.2890480000
| 28>  H        3.8777430000     3.3137230000    -1.1670990000
| 29> *
| 30>
| 31>                          ****END OF INPUT****
 Total Charge           Charge          ....    0
 Multiplicity           Mult            ....    1
 Number of Electrons    NEL             ....   56
 Basis Dimension        Dim             ....  148

MULLIKEN ATOMIC CHARGES
-----------------------
   0 C :    0.045123
   1 C :   -0.137582
   2 C :   -0.016019
   3 C :   -0.059474
   4 O :   -0.181919
   5 C :    0.202169
   6 O :   -0.265556
   7 H :    0.014461
   8 H :    0.022093
   9 H :    0.032599
  10 H :    0.043775
  11 H :    0.036198
  12 H :    0.026712
  13 H :    0.038261
  14 H :    0.031981
  15 H :    0.018851
  16 H :    0.148329
Sum of atomic charges:   -0.0000000

LOEWDIN ATOMIC CHARGES
----------------------
   0 C :   -0.052266
   1 C :   -0.075594
   2 C :   -0.054121
   3 C :    0.054670
   4 O :   -0.115130
   5 C :    0.021481
   6 O :   -0.117739
   7 H :    0.026725
   8 H :    0.030025
   9 H :    0.032380
  10 H :    0.048229
  11 H :    0.030911
  12 H :    0.032191
  13 H :    0.028371
  14 H :    0.029463
  15 H :    0.027459
  16 H :    0.052946

  Mayer bond orders larger than 0.1
B(  0-C ,  1-C ) :   1.0943 B(  0-C ,  7-H ) :   0.9569 B(  0-C ,  8-H ) :   0.9647
B(  0-C ,  9-H ) :   0.9533 B(  1-C ,  2-C ) :   1.0729 B(  1-C ,  3-C ) :   0.9286
B(  1-C , 10-H ) :   0.8823 B(  2-C , 11-H ) :   0.9658 B(  2-C , 12-H ) :   0.9570
B(  2-C , 13-H ) :   0.9537 B(  3-C ,  4-O ) :   2.1183 B(  3-C ,  5-C ) :   0.9790
B(  4-O , 16-H ) :   0.1037 B(  5-C ,  6-O ) :   1.1573 B(  5-C , 14-H ) :   0.8939
B(  5-C , 15-H ) :   0.9060 B(  6-O , 16-H ) :   0.9422

FINAL SINGLE POINT ENERGY      -346.309542073536

DIPOLE MOMENT
-------------
                                X             Y             Z
Electronic contribution:      1.83377       7.65612      -1.00087
Nuclear contribution   :     -1.98075      -8.74925       1.32854
                        -----------------------------------------
Total Dipole Moment    :     -0.14697      -1.09313       0.32767
                        -----------------------------------------
Magnitude (a.u.)       :      1.15061
Magnitude (Debye)      :      2.92461

                             ****ORCA TERMINATED NORMALLY****
TOTAL RUN TIME: 0 days 0 hours 0 minutes 7 seconds 408 msec
