                         Program Version 3.0.3 - RELEASE   -
|  1> ! RI PBE def2-SVP def2-SVP/J NBO PAL2
|  2> % maxcore 2000
|  3> % output
|  4>     # printlevel mini
|  5>     print[ P_Basis ] 0
|  6>     print[ P_SCFInfo ] 1
|  7>     print[ P_SCFIterInfo ] 1
|  8>     print[ P_OrbEn ] 0
|  9>     print[ P_Cartesian ] 0
| 10> end
| 11> *xyz 0 1
| 12>  C        0.9807350000    -0.0252660000    -0.2539510000
| 13>  C        2.4785020000     0.1136790000    -0.0558020000
| 14>  C        3.1551920000     0.8053170000    -1.2459270000
| 15>  C        2.8021540000     0.8888190000     1.1909810000
| 16>  O        2.0427230000     1.6226420000     1.7723470000
| 17>  C        4.2096070000     0.7469670000     1.7808730000
| 18>  O        5.0194060000    -0.0470480000     1.3963940000
| 19>  H        0.7726380000    -0.5979120000    -1.1600990000
| 20>  H        0.5097050000     0.9547560000    -0.3499060000
| 21>  H        0.5108950000    -0.5348620000     0.5893360000
| 22>  H        2.9470000000    -0.8705160000     0.0596090000
| 23>  H        2.7450960000     1.8078710000    -1.3917670000
| 24>  H        2.9716240000     0.2296830000    -2.1551060000
| 25>  H        4.2350930000     0.8841640000    -1.1111750000
| 26>  H        4.3917300000     1.4385040000     2.6287940000
| 27> *
| 28>
| 29>                          ****END OF INPUT****
 Total Charge           Charge          ....    0
 Multiplicity           Mult            ....    1
 Number of Electrons    NEL             ....   54
 Basis Dimension        Dim             ....  138

MULLIKEN ATOMIC CHARGES
-----------------------
   0 C :    0.041381
   1 C :   -0.132463
   2 C :   -0.005734
   3 C :   -0.012710
   4 O :   -0.131500
   5 C :    0.147614
   6 O :   -0.120726
   7 H :    0.018719
   8 H :    0.028971
   9 H :    0.027577
  10 H :    0.033175
  11 H :    0.027374
  12 H :    0.037855
  13 H :    0.039518
  14 H :    0.000951
Sum of atomic charges:   -0.0000000

LOEWDIN ATOMIC CHARGES
----------------------
   0 C :   -0.052051
   1 C :   -0.075550
   2 C :   -0.044000
   3 C :    0.024324
   4 O :   -0.080765
   5 C :    0.074086
   6 O :   -0.071152
   7 H :    0.028835
   8 H :    0.030505
   9 H :    0.031579
  10 H :    0.041540
  11 H :    0.029501
  12 H :    0.034941
  13 H :    0.030996
  14 H :   -0.002788

  Mayer bond orders larger than 0.1
B(  0-C ,  1-C ) :   1.0872 B(  0-C ,  7-H ) :   0.9598 B(  0-C ,  8-H ) :   0.9533
B(  0-C ,  9-H ) :   0.9622 B(  1-C ,  2-C ) :   1.0520 B(  1-C ,  3-C ) :   0.9340
B(  1-C , 10-H ) :   0.8881 B(  2-C , 11-H ) :   0.9578 B(  2-C , 12-H ) :   0.9607
B(  2-C , 13-H ) :   0.9629 B(  3-C ,  4-O ) :   2.1570 B(  3-C ,  5-C ) :   0.8718
B(  5-C ,  6-O ) :   2.1688 B(  5-C , 14-H ) :   0.9108

FINAL SINGLE POINT ENERGY      -345.102198576565

DIPOLE MOMENT
-------------
                                X             Y             Z
Electronic contribution:      4.15109       1.19250       7.08933
Nuclear contribution   :     -4.26065      -1.30479      -7.54120
                        -----------------------------------------
Total Dipole Moment    :     -0.10956      -0.11229      -0.45186
                        -----------------------------------------
Magnitude (a.u.)       :      0.47832
Magnitude (Debye)      :      1.21580

                             ****ORCA TERMINATED NORMALLY****
TOTAL RUN TIME: 0 days 0 hours 0 minutes 6 seconds 998 msec
