                         Program Version 3.0.3 - RELEASE   -
|  1> ! RI PBE def2-SVP def2-SVP/J NBO PAL2
|  2> % maxcore 2000
|  3> % output
|  4>     # printlevel mini
|  5>     print[ P_Basis ] 0
|  6>     print[ P_SCFInfo ] 1
|  7>     print[ P_SCFIterInfo ] 1
|  8>     print[ P_OrbEn ] 0
|  9>     print[ P_Cartesian ] 0
| 10> end
| 11> *xyz 0 1
| 12>  C        0.8820990000    -0.0522100000    -0.2899600000
| 13>  C        2.3802100000     0.1161320000    -0.0674720000
| 14>  C        2.9389480000     1.2124440000    -0.9658700000
| 15>  C        2.7361190000     0.3968430000     1.3903700000
| 16>  O        2.1181110000     1.5959840000     1.8024000000
| 17>  C        2.3619420000    -0.7228100000     2.3441930000
| 18>  O        2.6747080000    -0.3668060000     3.6817090000
| 19>  H        0.6720250000    -0.1983040000    -1.3521930000
| 20>  H        0.3450310000     0.8382930000     0.0424000000
| 21>  H        0.4741410000    -0.9132920000     0.2439960000
| 22>  H        2.8812100000    -0.8257720000    -0.3280790000
| 23>  H        2.4788880000     2.1739120000    -0.7280670000
| 24>  H        2.7406510000     0.9910240000    -2.0173480000
| 25>  H        4.0201020000     1.3181170000    -0.8414410000
| 26>  H        3.8351810000     0.5155060000     1.4408900000
| 27>  H        2.1414100000     1.5950040000     2.7663690000
| 28>  H        2.8565620000    -1.6577520000     2.0516470000
| 29>  H        1.2828080000    -0.8845770000     2.3317410000
| 30>  H        3.6312630000    -0.3629560000     3.7781150000
| 31> *
| 32>
| 33>                          ****END OF INPUT****
 Total Charge           Charge          ....    0
 Multiplicity           Mult            ....    1
 Number of Electrons    NEL             ....   58
 Basis Dimension        Dim             ....  158

MULLIKEN ATOMIC CHARGES
-----------------------
   0 C :    0.010837
   1 C :   -0.130576
   2 C :    0.030351
   3 C :    0.041751
   4 O :   -0.254061
   5 C :    0.202551
   6 O :   -0.287996
   7 H :    0.012534
   8 H :    0.030517
   9 H :    0.011694
  10 H :   -0.002308
  11 H :    0.026801
  12 H :    0.014795
  13 H :    0.009771
  14 H :   -0.027872
  15 H :    0.143543
  16 H :   -0.005136
  17 H :    0.015880
  18 H :    0.156924
Sum of atomic charges:   -0.0000000

LOEWDIN ATOMIC CHARGES
----------------------
   0 C :   -0.059728
   1 C :   -0.053334
   2 C :   -0.057584
   3 C :    0.022952
   4 O :   -0.109625
   5 C :    0.042092
   6 O :   -0.115955
   7 H :    0.025923
   8 H :    0.028625
   9 H :    0.020642
  10 H :    0.023724
  11 H :    0.029303
  12 H :    0.023520
  13 H :    0.023439
  14 H :   -0.001713
  15 H :    0.055630
  16 H :    0.008645
  17 H :    0.022313
  18 H :    0.071131

  Mayer bond orders larger than 0.1
B(  0-C ,  1-C ) :   1.0704 B(  0-C ,  7-H ) :   0.9580 B(  0-C ,  8-H ) :   0.9610
B(  0-C ,  9-H ) :   0.9592 B(  1-C ,  2-C ) :   1.0831 B(  1-C ,  3-C ) :   1.0117
B(  1-C , 10-H ) :   0.9064 B(  2-C , 11-H ) :   0.9591 B(  2-C , 12-H ) :   0.9610
B(  2-C , 13-H ) :   0.9561 B(  3-C ,  4-O ) :   1.0772 B(  3-C ,  5-C ) :   1.0410
B(  3-C , 14-H ) :   0.8910 B(  4-O , 15-H ) :   0.9567 B(  5-C ,  6-O ) :   1.0271
B(  5-C , 16-H ) :   0.9297 B(  5-C , 17-H ) :   0.9180 B(  6-O , 18-H ) :   0.9825

FINAL SINGLE POINT ENERGY      -347.498244478602

DIPOLE MOMENT
-------------
                                X             Y             Z
Electronic contribution:      0.85840       0.72455       6.50504
Nuclear contribution   :     -0.26980      -1.20411      -6.44292
                        -----------------------------------------
Total Dipole Moment    :      0.58860      -0.47955       0.06211
                        -----------------------------------------
Magnitude (a.u.)       :      0.76176
Magnitude (Debye)      :      1.93625

                             ****ORCA TERMINATED NORMALLY****
TOTAL RUN TIME: 0 days 0 hours 0 minutes 8 seconds 80 msec
