                         Program Version 3.0.3 - RELEASE   -
|  1> ! RI PBE def2-SVP def2-SVP/J NBO PAL2
|  2> % maxcore 2000
|  3> % output
|  4>     # printlevel mini
|  5>     print[ P_Basis ] 0
|  6>     print[ P_SCFInfo ] 1
|  7>     print[ P_SCFIterInfo ] 1
|  8>     print[ P_OrbEn ] 0
|  9>     print[ P_Cartesian ] 0
| 10> end
| 11> *xyz 0 1
| 12>  C        0.8887470000    -0.2095070000     0.1532770000
| 13>  C        2.3858510000    -0.1556380000    -0.1164470000
| 14>  C        2.8914270000    -1.4646070000    -0.7046570000
| 15>  C        2.7502330000     1.0144080000    -1.0431700000
| 16>  O        2.1359700000     0.9126790000    -2.2901800000
| 17>  C        2.4256960000     2.3347410000    -0.4043840000
| 18>  O        1.7421820000     3.1610640000    -0.9497420000
| 19>  H        0.6481380000    -1.0485270000     0.8097200000
| 20>  H        0.3390610000    -0.3425520000    -0.7807260000
| 21>  H        0.5209040000     0.7026520000     0.6316960000
| 22>  H        2.9123420000     0.0250510000     0.8305850000
| 23>  H        2.4229940000    -1.6528130000    -1.6730380000
| 24>  H        2.6546340000    -2.3014520000    -0.0434500000
| 25>  H        3.9744850000    -1.4456590000    -0.8513980000
| 26>  H        3.8499910000     1.0084770000    -1.1605130000
| 27>  H        1.6766360000     1.7539960000    -2.4324800000
| 28>  H        2.8579980000     2.5140760000     0.6002990000
| 29> *
| 30>
| 31>                          ****END OF INPUT****
 Total Charge           Charge          ....    0
 Multiplicity           Mult            ....    1
 Number of Electrons    NEL             ....   56
 Basis Dimension        Dim             ....  148

MULLIKEN ATOMIC CHARGES
-----------------------
   0 C :    0.005837
   1 C :   -0.153484
   2 C :    0.036535
   3 C :    0.090392
   4 O :   -0.234570
   5 C :    0.116918
   6 O :   -0.172914
   7 H :    0.023451
   8 H :    0.030391
   9 H :    0.021322
  10 H :    0.004907
  11 H :    0.031018
  12 H :    0.021040
  13 H :    0.012167
  14 H :    0.021262
  15 H :    0.146835
  16 H :   -0.001107
Sum of atomic charges:    0.0000000

LOEWDIN ATOMIC CHARGES
----------------------
   0 C :   -0.060901
   1 C :   -0.051573
   2 C :   -0.056925
   3 C :    0.004210
   4 O :   -0.098868
   5 C :    0.087404
   6 O :   -0.101657
   7 H :    0.028897
   8 H :    0.029211
   9 H :    0.024586
  10 H :    0.024365
  11 H :    0.031929
  12 H :    0.026924
  13 H :    0.025517
  14 H :    0.031510
  15 H :    0.056899
  16 H :   -0.001530

  Mayer bond orders larger than 0.1
B(  0-C ,  1-C ) :   1.0634 B(  0-C ,  7-H ) :   0.9623 B(  0-C ,  8-H ) :   0.9593
B(  0-C ,  9-H ) :   0.9555 B(  1-C ,  2-C ) :   1.0938 B(  1-C ,  3-C ) :   0.9791
B(  1-C , 10-H ) :   0.9010 B(  2-C , 11-H ) :   0.9553 B(  2-C , 12-H ) :   0.9613
B(  2-C , 13-H ) :   0.9551 B(  3-C ,  4-O ) :   1.1779 B(  3-C ,  5-C ) :   0.9407
B(  3-C , 14-H ) :   0.8766 B(  4-O , 15-H ) :   0.9410 B(  5-C ,  6-O ) :   2.1195
B(  5-C , 16-H ) :   0.9230 B(  6-O , 15-H ) :   0.1023

FINAL SINGLE POINT ENERGY      -346.304276260181

DIPOLE MOMENT
-------------
                                X             Y             Z
Electronic contribution:      0.11042       8.00032      -3.00897
Nuclear contribution   :      0.26244      -8.29225       3.63015
                        -----------------------------------------
Total Dipole Moment    :      0.37286      -0.29193       0.62117
                        -----------------------------------------
Magnitude (a.u.)       :      0.78109
Magnitude (Debye)      :      1.98538

                             ****ORCA TERMINATED NORMALLY****
TOTAL RUN TIME: 0 days 0 hours 0 minutes 8 seconds 94 msec
