                         Program Version 3.0.3 - RELEASE   -
|  1> ! RI PBE def2-SVP def2-SVP/J NBO PAL2
|  2> % maxcore 2000
|  3> % output
|  4>     # printlevel mini
|  5>     print[ P_Basis ] 0
|  6>     print[ P_SCFInfo ] 1
|  7>     print[ P_SCFIterInfo ] 1
|  8>     print[ P_OrbEn ] 0
|  9>     print[ P_Cartesian ] 0
| 10> end
| 11> *xyz 0 1
| 12>  C        0.8180140000    -0.0672330000     0.1614040000
| 13>  C        2.3317570000    -0.2144320000     0.1012320000
| 14>  C        2.7391050000    -1.5823180000    -0.4253830000
| 15>  C        2.9043390000     0.9072600000    -0.7472450000
| 16>  O        4.3398830000     0.8795600000    -0.7897710000
| 17>  C        4.9778830000     1.5440960000     0.1694980000
| 18>  O        4.4753440000     2.1620470000     1.0626060000
| 19>  H        0.3789440000    -0.8518070000     0.7812510000
| 20>  H        0.3752710000    -0.1497520000    -0.8364640000
| 21>  H        0.5235170000     0.8971080000     0.5826410000
| 22>  H        2.7304160000    -0.0894970000     1.1144680000
| 23>  H        2.3320640000    -1.7488150000    -1.4280840000
| 24>  H        2.3599930000    -2.3759880000     0.2226010000
| 25>  H        3.8243690000    -1.6837860000    -0.4836320000
| 26>  H        2.5820040000     1.8795470000    -0.3704650000
| 27>  H        2.5927170000     0.8001670000    -1.7889910000
| 28>  H        6.0624800000     1.4443320000     0.0140340000
| 29> *
| 30>
| 31>                          ****END OF INPUT****
 Total Charge           Charge          ....    0
 Multiplicity           Mult            ....    1
 Number of Electrons    NEL             ....   56
 Basis Dimension        Dim             ....  148

MULLIKEN ATOMIC CHARGES
-----------------------
   0 C :    0.007042
   1 C :   -0.168890
   2 C :    0.016755
   3 C :    0.196598
   4 O :   -0.242317
   5 C :    0.201975
   6 O :   -0.206785
   7 H :    0.024833
   8 H :    0.014866
   9 H :    0.025795
  10 H :    0.024771
  11 H :    0.009506
  12 H :    0.022759
  13 H :    0.026753
  14 H :    0.023718
  15 H :    0.013042
  16 H :    0.009579
Sum of atomic charges:   -0.0000000

LOEWDIN ATOMIC CHARGES
----------------------
   0 C :   -0.053671
   1 C :   -0.061074
   2 C :   -0.060495
   3 C :    0.076874
   4 O :   -0.055156
   5 C :    0.068738
   6 O :   -0.144705
   7 H :    0.030004
   8 H :    0.024219
   9 H :    0.028796
  10 H :    0.031497
  11 H :    0.024041
  12 H :    0.027933
  13 H :    0.026357
  14 H :    0.018385
  15 H :    0.022421
  16 H :   -0.004164

  Mayer bond orders larger than 0.1
B(  0-C ,  1-C ) :   1.0827 B(  0-C ,  7-H ) :   0.9610 B(  0-C ,  8-H ) :   0.9613
B(  0-C ,  9-H ) :   0.9614 B(  1-C ,  2-C ) :   1.0756 B(  1-C ,  3-C ) :   1.0617
B(  1-C , 10-H ) :   0.9081 B(  2-C , 11-H ) :   0.9588 B(  2-C , 12-H ) :   0.9627
B(  2-C , 13-H ) :   0.9587 B(  3-C ,  4-O ) :   0.9237 B(  3-C , 14-H ) :   0.9318
B(  3-C , 15-H ) :   0.9361 B(  4-O ,  5-C ) :   1.2038 B(  4-O ,  6-O ) :   0.1059
B(  5-C ,  6-O ) :   2.0352 B(  5-C , 16-H ) :   0.9346

FINAL SINGLE POINT ENERGY      -346.324752327128

DIPOLE MOMENT
-------------
                                X             Y             Z
Electronic contribution:      7.73928       6.22435       0.98091
Nuclear contribution   :     -8.02176      -6.67715      -1.43205
                        -----------------------------------------
Total Dipole Moment    :     -0.28248      -0.45280      -0.45114
                        -----------------------------------------
Magnitude (a.u.)       :      0.69882
Magnitude (Debye)      :      1.77627

                             ****ORCA TERMINATED NORMALLY****
TOTAL RUN TIME: 0 days 0 hours 0 minutes 7 seconds 984 msec
