                         Program Version 3.0.3 - RELEASE   -
|  1> ! RI PBE def2-SVP def2-SVP/J NBO PAL2
|  2> % maxcore 2000
|  3> % output
|  4>     # printlevel mini
|  5>     print[ P_Basis ] 0
|  6>     print[ P_SCFInfo ] 1
|  7>     print[ P_SCFIterInfo ] 1
|  8>     print[ P_OrbEn ] 0
|  9>     print[ P_Cartesian ] 0
| 10> end
| 11> *xyz 0 1
| 12>  C        0.9287790000    -0.0279230000    -0.0427330000
| 13>  C        2.4280940000     0.1974130000     0.1530300000
| 14>  C        2.9756260000     1.3240560000    -0.6969620000
| 15>  C        4.4730760000     1.3320420000    -0.8042010000
| 16>  O        5.1896510000     0.4543010000    -0.4084940000
| 17>  C        2.6918770000     0.4375430000     1.6182310000
| 18>  O        3.1126300000     1.4602260000     2.0830780000
| 19>  H        0.7185330000    -0.3356950000    -1.0687660000
| 20>  H        0.3645130000     0.8855470000     0.1613000000
| 21>  H        0.5542930000    -0.8104050000     0.6219720000
| 22>  H        2.9556420000    -0.7321420000    -0.0944350000
| 23>  H        2.6629360000     2.2997850000    -0.3091430000
| 24>  H        2.5863830000     1.2704820000    -1.7224640000
| 25>  H        4.9001630000     2.2233150000    -1.3114700000
| 26>  H        2.4318020000    -0.4188450000     2.2781570000
| 27> *
| 28>
| 29>                          ****END OF INPUT****
 Total Charge           Charge          ....    0
 Multiplicity           Mult            ....    1
 Number of Electrons    NEL             ....   54
 Basis Dimension        Dim             ....  138

MULLIKEN ATOMIC CHARGES
-----------------------
   0 C :    0.006939
   1 C :   -0.139517
   2 C :    0.039164
   3 C :    0.097254
   4 O :   -0.163383
   5 C :    0.118753
   6 O :   -0.155746
   7 H :    0.034476
   8 H :    0.032361
   9 H :    0.029715
  10 H :    0.038181
  11 H :    0.037571
  12 H :    0.034929
  13 H :   -0.005231
  14 H :   -0.005466
Sum of atomic charges:    0.0000000

LOEWDIN ATOMIC CHARGES
----------------------
   0 C :   -0.046342
   1 C :   -0.085817
   2 C :   -0.076629
   3 C :    0.100453
   4 O :   -0.108644
   5 C :    0.104663
   6 O :   -0.104558
   7 H :    0.032756
   8 H :    0.030550
   9 H :    0.030638
  10 H :    0.043966
  11 H :    0.045638
  12 H :    0.049537
  13 H :   -0.008108
  14 H :   -0.008103

  Mayer bond orders larger than 0.1
B(  0-C ,  1-C ) :   1.0703 B(  0-C ,  7-H ) :   0.9601 B(  0-C ,  8-H ) :   0.9616
B(  0-C ,  9-H ) :   0.9601 B(  1-C ,  2-C ) :   1.0498 B(  1-C ,  5-C ) :   0.9214
B(  1-C , 10-H ) :   0.8832 B(  2-C ,  3-C ) :   0.9651 B(  2-C , 11-H ) :   0.8980
B(  2-C , 12-H ) :   0.9026 B(  3-C ,  4-O ) :   2.1765 B(  3-C , 13-H ) :   0.9296
B(  5-C ,  6-O ) :   2.1949 B(  5-C , 14-H ) :   0.9304

FINAL SINGLE POINT ENERGY      -345.101351697163

DIPOLE MOMENT
-------------
                                X             Y             Z
Electronic contribution:      6.21173       1.29995       2.67876
Nuclear contribution   :     -7.26582      -1.44808      -3.44307
                        -----------------------------------------
Total Dipole Moment    :     -1.05409      -0.14813      -0.76431
                        -----------------------------------------
Magnitude (a.u.)       :      1.31042
Magnitude (Debye)      :      3.33083

                             ****ORCA TERMINATED NORMALLY****
TOTAL RUN TIME: 0 days 0 hours 0 minutes 6 seconds 526 msec
