                         Program Version 3.0.3 - RELEASE   -
|  1> ! RI PBE def2-SVP def2-SVP/J NBO PAL2
|  2> % maxcore 2000
|  3> % output
|  4>     # printlevel mini
|  5>     print[ P_Basis ] 0
|  6>     print[ P_SCFInfo ] 1
|  7>     print[ P_SCFIterInfo ] 1
|  8>     print[ P_OrbEn ] 0
|  9>     print[ P_Cartesian ] 0
| 10> end
| 11> *xyz 0 1
| 12>  C        1.0123100000     0.7143470000     0.4200910000
| 13>  C        2.3768230000     0.4701750000    -0.2039570000
| 14>  C        2.3690730000    -0.7611450000    -1.1262830000
| 15>  C        3.6858890000    -1.0048030000    -1.8561210000
| 16>  O        4.8087360000    -0.9461710000    -1.0092760000
| 17>  C        2.8544430000     1.6689270000    -0.9740710000
| 18>  O        4.0148370000     1.9548500000    -1.1260390000
| 19>  H        0.6771690000    -0.1712920000     0.9635560000
| 20>  H        0.2624910000     0.9369430000    -0.3448390000
| 21>  H        1.0332980000     1.5496660000     1.1240590000
| 22>  H        3.1227800000     0.2870690000     0.5752710000
| 23>  H        1.5643890000    -0.6716220000    -1.8663710000
| 24>  H        2.1280070000    -1.6257410000    -0.4998260000
| 25>  H        3.7927420000    -0.2953900000    -2.6867500000
| 26>  H        3.6702300000    -2.0059850000    -2.2944600000
| 27>  H        4.9960130000    -0.0121080000    -0.8543520000
| 28>  H        2.0630700000     2.2957700000    -1.4427320000
| 29> *
| 30>
| 31>                          ****END OF INPUT****
 Total Charge           Charge          ....    0
 Multiplicity           Mult            ....    1
 Number of Electrons    NEL             ....   56
 Basis Dimension        Dim             ....  148

MULLIKEN ATOMIC CHARGES
-----------------------
   0 C :    0.008069
   1 C :   -0.130363
   2 C :   -0.027974
   3 C :    0.173070
   4 O :   -0.290925
   5 C :    0.118042
   6 O :   -0.173708
   7 H :    0.029774
   8 H :    0.024258
   9 H :    0.035169
  10 H :    0.031129
  11 H :    0.011955
  12 H :    0.024017
  13 H :    0.012467
  14 H :    0.010641
  15 H :    0.150746
  16 H :   -0.006367
Sum of atomic charges:   -0.0000000

LOEWDIN ATOMIC CHARGES
----------------------
   0 C :   -0.055827
   1 C :   -0.087809
   2 C :   -0.046156
   3 C :    0.051619
   4 O :   -0.122396
   5 C :    0.108897
   6 O :   -0.107721
   7 H :    0.033711
   8 H :    0.027422
   9 H :    0.031149
  10 H :    0.037644
  11 H :    0.026665
  12 H :    0.031436
  13 H :    0.005827
  14 H :    0.022565
  15 H :    0.050464
  16 H :   -0.007489

  Mayer bond orders larger than 0.1
B(  0-C ,  1-C ) :   1.0713 B(  0-C ,  7-H ) :   0.9575 B(  0-C ,  8-H ) :   0.9559
B(  0-C ,  9-H ) :   0.9645 B(  1-C ,  2-C ) :   1.0344 B(  1-C ,  5-C ) :   0.9416
B(  1-C , 10-H ) :   0.8870 B(  2-C ,  3-C ) :   1.0539 B(  2-C , 11-H ) :   0.9242
B(  2-C , 12-H ) :   0.9239 B(  3-C ,  4-O ) :   1.0903 B(  3-C , 13-H ) :   0.9323
B(  3-C , 14-H ) :   0.9380 B(  4-O , 15-H ) :   0.9600 B(  5-C ,  6-O ) :   2.1136
B(  5-C , 16-H ) :   0.9299

FINAL SINGLE POINT ENERGY      -346.297768295290

DIPOLE MOMENT
-------------
                                X             Y             Z
Electronic contribution:      5.64878       2.53266      -1.00035
Nuclear contribution   :     -6.78585      -2.43293       1.06325
                        -----------------------------------------
Total Dipole Moment    :     -1.13707       0.09973       0.06290
                        -----------------------------------------
Magnitude (a.u.)       :      1.14317
Magnitude (Debye)      :      2.90571

                             ****ORCA TERMINATED NORMALLY****
TOTAL RUN TIME: 0 days 0 hours 0 minutes 7 seconds 324 msec
