                         Program Version 3.0.3 - RELEASE   -
|  1> ! RI PBE def2-SVP def2-SVP/J NBO PAL2
|  2> % maxcore 2000
|  3> % output
|  4>     # printlevel mini
|  5>     print[ P_Basis ] 0
|  6>     print[ P_SCFInfo ] 1
|  7>     print[ P_SCFIterInfo ] 1
|  8>     print[ P_OrbEn ] 0
|  9>     print[ P_Cartesian ] 0
| 10> end
| 11> *xyz 0 1
| 12>  C        1.0720550000     0.0160670000    -0.1137140000
| 13>  C        2.5172740000    -0.0370260000    -0.1071870000
| 14>  C        3.7221010000    -0.0776960000    -0.0681760000
| 15>  C        5.1689370000    -0.1414520000    -0.0506260000
| 16>  O        5.8039790000    -0.1925610000     0.9740860000
| 17>  C        5.8445280000    -0.1961220000    -1.4100320000
| 18>  O        5.0582410000     0.2244210000    -2.4878530000
| 19>  H        0.7101650000     0.7065240000    -0.8790520000
| 20>  H        0.6924320000     0.3426180000     0.8568870000
| 21>  H        0.6562000000    -0.9722740000    -0.3259490000
| 22>  H        6.2011730000    -1.2313520000    -1.5318280000
| 23>  H        6.7264550000     0.4453910000    -1.3635090000
| 24>  H        4.1808510000    -0.1615290000    -2.3943350000
| 25> *
| 26>
| 27>                          ****END OF INPUT****
 Total Charge           Charge          ....    0
 Multiplicity           Mult            ....    1
 Number of Electrons    NEL             ....   52
 Basis Dimension        Dim             ....  128

MULLIKEN ATOMIC CHARGES
-----------------------
   0 C :    0.052732
   1 C :   -0.176452
   2 C :   -0.039394
   3 C :   -0.040576
   4 O :   -0.149974
   5 C :    0.206803
   6 O :   -0.271961
   7 H :    0.064170
   8 H :    0.066700
   9 H :    0.063493
  10 H :    0.028847
  11 H :    0.039307
  12 H :    0.156306
Sum of atomic charges:   -0.0000000

LOEWDIN ATOMIC CHARGES
----------------------
   0 C :   -0.063445
   1 C :   -0.000737
   2 C :   -0.092134
   3 C :    0.019041
   4 O :   -0.100502
   5 C :    0.033210
   6 O :   -0.110125
   7 H :    0.059565
   8 H :    0.060866
   9 H :    0.062392
  10 H :    0.027899
  11 H :    0.040752
  12 H :    0.063217

  Mayer bond orders larger than 0.1
B(  0-C ,  1-C ) :   1.1349 B(  0-C ,  7-H ) :   0.9279 B(  0-C ,  8-H ) :   0.9286
B(  0-C ,  9-H ) :   0.9245 B(  1-C ,  2-C ) :   2.5501 B(  1-C ,  4-O ) :   0.1123
B(  2-C ,  3-C ) :   0.8791 B(  3-C ,  4-O ) :   2.1401 B(  3-C ,  5-C ) :   0.9481
B(  5-C ,  6-O ) :   1.1018 B(  5-C , 10-H ) :   0.9068 B(  5-C , 11-H ) :   0.9174
B(  6-O , 12-H ) :   0.9698

FINAL SINGLE POINT ENERGY      -343.844733659867

DIPOLE MOMENT
-------------
                                X             Y             Z
Electronic contribution:      4.26259       0.19963       1.98743
Nuclear contribution   :     -5.69149      -0.49288      -2.37460
                        -----------------------------------------
Total Dipole Moment    :     -1.42889      -0.29325      -0.38717
                        -----------------------------------------
Magnitude (a.u.)       :      1.50918
Magnitude (Debye)      :      3.83604

                             ****ORCA TERMINATED NORMALLY****
TOTAL RUN TIME: 0 days 0 hours 0 minutes 6 seconds 17 msec
