                         Program Version 3.0.3 - RELEASE   -
|  1> ! RI PBE def2-SVP def2-SVP/J NBO PAL2
|  2> % maxcore 2000
|  3> % output
|  4>     # printlevel mini
|  5>     print[ P_Basis ] 0
|  6>     print[ P_SCFInfo ] 1
|  7>     print[ P_SCFIterInfo ] 1
|  8>     print[ P_OrbEn ] 0
|  9>     print[ P_Cartesian ] 0
| 10> end
| 11> *xyz 0 1
| 12>  C        0.9305250000     0.0708150000     0.0375780000
| 13>  C        2.3727120000     0.0379160000    -0.0222500000
| 14>  C        3.5759510000    -0.0002500000    -0.0790230000
| 15>  C        5.0063330000     0.0046480000    -0.1187460000
| 16>  O        5.6915290000    -0.8629920000    -0.6081660000
| 17>  C        5.7129240000     1.2091820000     0.5117000000
| 18>  O        5.1486220000     2.1282540000     1.0250670000
| 19>  H        0.5464900000    -0.8433460000     0.4970740000
| 20>  H        0.5119450000     0.1393770000    -0.9698630000
| 21>  H        0.5807380000     0.9274590000     0.6172540000
| 22>  H        6.8160120000     1.1280450000     0.4354940000
| 23> *
| 24>
| 25>                          ****END OF INPUT****
 Total Charge           Charge          ....    0
 Multiplicity           Mult            ....    1
 Number of Electrons    NEL             ....   50
 Basis Dimension        Dim             ....  118

MULLIKEN ATOMIC CHARGES
-----------------------
   0 C :    0.050043
   1 C :   -0.158473
   2 C :    0.025702
   3 C :   -0.024320
   4 O :   -0.128119
   5 C :    0.126052
   6 O :   -0.096924
   7 H :    0.067256
   8 H :    0.066559
   9 H :    0.068221
  10 H :    0.004004
Sum of atomic charges:   -0.0000000

LOEWDIN ATOMIC CHARGES
----------------------
   0 C :   -0.061892
   1 C :    0.025924
   2 C :   -0.078282
   3 C :   -0.009241
   4 O :   -0.076443
   5 C :    0.075795
   6 O :   -0.061931
   7 H :    0.063733
   8 H :    0.064725
   9 H :    0.060062
  10 H :   -0.002450

  Mayer bond orders larger than 0.1
B(  0-C ,  1-C ) :   1.1399 B(  0-C ,  7-H ) :   0.9240 B(  0-C ,  8-H ) :   0.9224
B(  0-C ,  9-H ) :   0.9300 B(  1-C ,  2-C ) :   2.5139 B(  1-C ,  4-O ) :   0.1189
B(  2-C ,  3-C ) :   0.8658 B(  3-C ,  4-O ) :   2.1104 B(  3-C ,  5-C ) :   0.8704
B(  5-C ,  6-O ) :   2.2288 B(  5-C , 10-H ) :   0.9080

FINAL SINGLE POINT ENERGY      -342.642625453512

DIPOLE MOMENT
-------------
                                X             Y             Z
Electronic contribution:      6.25600       0.19094      -0.07974
Nuclear contribution   :     -7.39022      -0.18897       0.10903
                        -----------------------------------------
Total Dipole Moment    :     -1.13422       0.00197       0.02928
                        -----------------------------------------
Magnitude (a.u.)       :      1.13460
Magnitude (Debye)      :      2.88392

                             ****ORCA TERMINATED NORMALLY****
TOTAL RUN TIME: 0 days 0 hours 0 minutes 5 seconds 388 msec
