                         Program Version 3.0.3 - RELEASE   -
|  1> ! RI PBE def2-SVP def2-SVP/J NBO PAL2
|  2> % maxcore 2000
|  3> % output
|  4>     # printlevel mini
|  5>     print[ P_Basis ] 0
|  6>     print[ P_SCFInfo ] 1
|  7>     print[ P_SCFIterInfo ] 1
|  8>     print[ P_OrbEn ] 0
|  9>     print[ P_Cartesian ] 0
| 10> end
| 11> *xyz 0 1
| 12>  C        0.9347560000    -0.0613610000     0.0723470000
| 13>  C        2.3845950000    -0.0749580000     0.0612800000
| 14>  C        3.5871900000    -0.1017770000     0.0401980000
| 15>  C        5.0430160000    -0.0904020000     0.0485360000
| 16>  O        5.5865520000     0.8647110000    -0.8587520000
| 17>  C        5.5960520000     0.1727920000     1.4469050000
| 18>  O        6.9966010000     0.1948600000     1.4258710000
| 19>  H        0.5388620000    -1.0770960000     0.1472520000
| 20>  H        0.5434920000     0.3833290000    -0.8459310000
| 21>  H        0.5510200000     0.5143450000     0.9179220000
| 22>  H        5.4271410000    -1.0570670000    -0.2934070000
| 23>  H        5.0326420000     1.6506690000    -0.8211560000
| 24>  H        5.2833580000    -0.6223800000     2.1271500000
| 25>  H        5.1777910000     1.1210080000     1.8180200000
| 26>  H        7.2464240000     0.7393370000     0.6700450000
| 27> *
| 28>
| 29>                          ****END OF INPUT****
 Total Charge           Charge          ....    0
 Multiplicity           Mult            ....    1
 Number of Electrons    NEL             ....   54
 Basis Dimension        Dim             ....  138

MULLIKEN ATOMIC CHARGES
-----------------------
   0 C :    0.056285
   1 C :   -0.242765
   2 C :   -0.063326
   3 C :    0.119550
   4 O :   -0.277786
   5 C :    0.196460
   6 O :   -0.272062
   7 H :    0.052257
   8 H :    0.051302
   9 H :    0.051472
  10 H :    0.018353
  11 H :    0.158711
  12 H :    0.018349
  13 H :   -0.015079
  14 H :    0.148281
Sum of atomic charges:   -0.0000000

LOEWDIN ATOMIC CHARGES
----------------------
   0 C :   -0.066605
   1 C :   -0.049221
   2 C :   -0.087277
   3 C :    0.020205
   4 O :   -0.102145
   5 C :    0.046406
   6 O :   -0.116446
   7 H :    0.054376
   8 H :    0.053735
   9 H :    0.051877
  10 H :    0.039041
  11 H :    0.071477
  12 H :    0.025432
  13 H :    0.001391
  14 H :    0.057753

  Mayer bond orders larger than 0.1
B(  0-C ,  1-C ) :   1.1336 B(  0-C ,  7-H ) :   0.9324 B(  0-C ,  8-H ) :   0.9301
B(  0-C ,  9-H ) :   0.9315 B(  1-C ,  2-C ) :   2.6245 B(  2-C ,  3-C ) :   0.9623
B(  3-C ,  4-O ) :   1.0119 B(  3-C ,  5-C ) :   1.0250 B(  3-C , 10-H ) :   0.8616
B(  4-O , 11-H ) :   0.9777 B(  5-C ,  6-O ) :   1.0916 B(  5-C , 12-H ) :   0.9292
B(  5-C , 13-H ) :   0.9151 B(  6-O , 14-H ) :   0.9639

FINAL SINGLE POINT ENERGY      -345.040224455169

DIPOLE MOMENT
-------------
                                X             Y             Z
Electronic contribution:      4.00982       0.08952      -1.17773
Nuclear contribution   :     -5.12862       0.30524       1.02426
                        -----------------------------------------
Total Dipole Moment    :     -1.11880       0.39477      -0.15348
                        -----------------------------------------
Magnitude (a.u.)       :      1.19629
Magnitude (Debye)      :      3.04073

                             ****ORCA TERMINATED NORMALLY****
TOTAL RUN TIME: 0 days 0 hours 0 minutes 6 seconds 252 msec
