                         Program Version 3.0.3 - RELEASE   -
|  1> ! RI PBE def2-SVP def2-SVP/J NBO PAL2
|  2> % maxcore 2000
|  3> % output
|  4>     # printlevel mini
|  5>     print[ P_Basis ] 0
|  6>     print[ P_SCFInfo ] 1
|  7>     print[ P_SCFIterInfo ] 1
|  8>     print[ P_OrbEn ] 0
|  9>     print[ P_Cartesian ] 0
| 10> end
| 11> *xyz 0 1
| 12>  C        1.0320500000    -0.0642920000    -0.0494320000
| 13>  C        2.4807540000    -0.0548900000    -0.0732750000
| 14>  C        3.6836180000    -0.0673810000    -0.1098940000
| 15>  C        5.1375850000    -0.0352730000    -0.0864130000
| 16>  O        5.6799090000     1.1444690000    -0.6449180000
| 17>  C        5.5968750000    -0.1616130000     1.3676830000
| 18>  O        6.0190440000    -1.1675390000     1.8545340000
| 19>  H        0.6247640000    -0.1462230000    -1.0599070000
| 20>  H        0.6409220000     0.8498690000     0.4031270000
| 21>  H        0.6647240000    -0.9124740000     0.5332800000
| 22>  H        5.5520870000    -0.8849890000    -0.6369100000
| 23>  H        5.0258550000     1.8443600000    -0.5655740000
| 24>  H        5.5163110000     0.7890960000     1.9384990000
| 25> *
| 26>
| 27>                          ****END OF INPUT****
 Total Charge           Charge          ....    0
 Multiplicity           Mult            ....    1
 Number of Electrons    NEL             ....   52
 Basis Dimension        Dim             ....  128

MULLIKEN ATOMIC CHARGES
-----------------------
   0 C :    0.055614
   1 C :   -0.200852
   2 C :   -0.114966
   3 C :    0.192809
   4 O :   -0.251210
   5 C :    0.119039
   6 O :   -0.144733
   7 H :    0.055243
   8 H :    0.052906
   9 H :    0.060461
  10 H :    0.030715
  11 H :    0.161639
  12 H :   -0.016665
Sum of atomic charges:    0.0000000

LOEWDIN ATOMIC CHARGES
----------------------
   0 C :   -0.065079
   1 C :   -0.032908
   2 C :   -0.091229
   3 C :    0.007551
   4 O :   -0.088708
   5 C :    0.088172
   6 O :   -0.090786
   7 H :    0.055172
   8 H :    0.054356
   9 H :    0.058454
  10 H :    0.045237
  11 H :    0.073397
  12 H :   -0.013628

  Mayer bond orders larger than 0.1
B(  0-C ,  1-C ) :   1.1362 B(  0-C ,  7-H ) :   0.9303 B(  0-C ,  8-H ) :   0.9287
B(  0-C ,  9-H ) :   0.9301 B(  1-C ,  2-C ) :   2.6352 B(  2-C ,  3-C ) :   0.9736
B(  3-C ,  4-O ) :   1.0510 B(  3-C ,  5-C ) :   0.8848 B(  3-C , 10-H ) :   0.8641
B(  4-O , 11-H ) :   0.9753 B(  5-C ,  6-O ) :   2.1931 B(  5-C , 12-H ) :   0.9048

FINAL SINGLE POINT ENERGY      -343.834191614232

DIPOLE MOMENT
-------------
                                X             Y             Z
Electronic contribution:      5.86048      -0.97771       0.99823
Nuclear contribution   :     -7.18385       1.64154      -1.28591
                        -----------------------------------------
Total Dipole Moment    :     -1.32337       0.66383      -0.28767
                        -----------------------------------------
Magnitude (a.u.)       :      1.50822
Magnitude (Debye)      :      3.83360

                             ****ORCA TERMINATED NORMALLY****
TOTAL RUN TIME: 0 days 0 hours 0 minutes 5 seconds 975 msec
