                         Program Version 3.0.3 - RELEASE   -
|  1> ! RI PBE def2-SVP def2-SVP/J NBO PAL2
|  2> % maxcore 2000
|  3> % output
|  4>     # printlevel mini
|  5>     print[ P_Basis ] 0
|  6>     print[ P_SCFInfo ] 1
|  7>     print[ P_SCFIterInfo ] 1
|  8>     print[ P_OrbEn ] 0
|  9>     print[ P_Cartesian ] 0
| 10> end
| 11> *xyz 0 1
| 12>  C        1.0043690000     0.0855510000     0.0883150000
| 13>  C        2.4500890000     0.0387940000    -0.0026940000
| 14>  C        3.6491370000     0.0017300000    -0.0692060000
| 15>  C        5.0956990000    -0.0584670000    -0.1577230000
| 16>  O        5.7042680000     1.2357060000     0.0021270000
| 17>  C        5.9925260000     1.5967870000     1.2536350000
| 18>  O        5.8132900000     0.9447170000     2.2382160000
| 19>  H        0.5981000000     0.8832690000    -0.5381280000
| 20>  H        0.6820900000     0.2618490000     1.1172600000
| 21>  H        0.5665490000    -0.8586290000    -0.2449420000
| 22>  H        5.4092940000    -0.3941860000    -1.1472270000
| 23>  H        5.4978010000    -0.7371220000     0.5977360000
| 24>  H        6.4373680000     2.6025120000     1.2379600000
| 25> *
| 26>
| 27>                          ****END OF INPUT****
 Total Charge           Charge          ....    0
 Multiplicity           Mult            ....    1
 Number of Electrons    NEL             ....   52
 Basis Dimension        Dim             ....  128

MULLIKEN ATOMIC CHARGES
-----------------------
   0 C :    0.052398
   1 C :   -0.205655
   2 C :   -0.121518
   3 C :    0.252091
   4 O :   -0.246759
   5 C :    0.210170
   6 O :   -0.198500
   7 H :    0.053149
   8 H :    0.053764
   9 H :    0.052265
  10 H :    0.039679
  11 H :    0.050662
  12 H :    0.008255
Sum of atomic charges:    0.0000000

LOEWDIN ATOMIC CHARGES
----------------------
   0 C :   -0.066063
   1 C :   -0.036941
   2 C :   -0.087543
   3 C :    0.068648
   4 O :   -0.059387
   5 C :    0.075144
   6 O :   -0.135978
   7 H :    0.053342
   8 H :    0.053553
   9 H :    0.054706
  10 H :    0.044041
  11 H :    0.039009
  12 H :   -0.002530

  Mayer bond orders larger than 0.1
B(  0-C ,  1-C ) :   1.1311 B(  0-C ,  7-H ) :   0.9315 B(  0-C ,  8-H ) :   0.9313
B(  0-C ,  9-H ) :   0.9326 B(  1-C ,  2-C ) :   2.6305 B(  2-C ,  3-C ) :   1.0578
B(  3-C ,  4-O ) :   0.9308 B(  3-C , 10-H ) :   0.9077 B(  3-C , 11-H ) :   0.9075
B(  4-O ,  5-C ) :   1.1956 B(  4-O ,  6-O ) :   0.1042 B(  5-C ,  6-O ) :   2.0545
B(  5-C , 12-H ) :   0.9315

FINAL SINGLE POINT ENERGY      -343.861779417936

DIPOLE MOMENT
-------------
                                X             Y             Z
Electronic contribution:      5.71973       1.51390       1.27906
Nuclear contribution   :     -6.17332      -1.58625      -1.90503
                        -----------------------------------------
Total Dipole Moment    :     -0.45359      -0.07235      -0.62597
                        -----------------------------------------
Magnitude (a.u.)       :      0.77641
Magnitude (Debye)      :      1.97349

                             ****ORCA TERMINATED NORMALLY****
TOTAL RUN TIME: 0 days 0 hours 0 minutes 5 seconds 955 msec
