                         Program Version 3.0.3 - RELEASE   -
|  1> ! RI PBE def2-SVP def2-SVP/J NBO PAL2
|  2> % maxcore 2000
|  3> % output
|  4>     # printlevel mini
|  5>     print[ P_Basis ] 0
|  6>     print[ P_SCFInfo ] 1
|  7>     print[ P_SCFIterInfo ] 1
|  8>     print[ P_OrbEn ] 0
|  9>     print[ P_Cartesian ] 0
| 10> end
| 11> *xyz 0 1
| 12>  C        2.1937330000     1.3918420000    -0.7575780000
| 13>  C        3.1221620000     0.2331540000    -0.4097800000
| 14>  C        3.2800910000     0.0446860000     1.0612670000
| 15>  C        4.4420590000     0.1257580000     1.6874300000
| 16>  O        4.5001200000    -0.0542180000     3.0550110000
| 17>  C        5.6989940000     0.0393590000     3.6513070000
| 18>  O        6.7399950000     0.2665870000     3.1139460000
| 19>  H        2.0712400000     1.4839360000    -1.8390360000
| 20>  H        2.5889160000     2.3366170000    -0.3778100000
| 21>  H        1.2022630000     1.2469460000    -0.3205580000
| 22>  H        4.1036690000     0.3890550000    -0.8673280000
| 23>  H        2.7200620000    -0.6886560000    -0.8470980000
| 24>  H        2.3864270000    -0.1574460000     1.6472550000
| 25>  H        5.3947660000     0.3258060000     1.2134370000
| 26>  H        5.5660140000    -0.1292260000     4.7285260000
| 27> *
| 28>
| 29>                          ****END OF INPUT****
 Total Charge           Charge          ....    0
 Multiplicity           Mult            ....    1
 Number of Electrons    NEL             ....   54
 Basis Dimension        Dim             ....  138

MULLIKEN ATOMIC CHARGES
-----------------------
   0 C :   -0.037407
   1 C :    0.017567
   2 C :   -0.061235
   3 C :    0.093531
   4 O :   -0.196098
   5 C :    0.213313
   6 O :   -0.192144
   7 H :    0.029960
   8 H :    0.025910
   9 H :    0.023815
  10 H :    0.013762
  11 H :    0.028628
  12 H :    0.007747
  13 H :    0.021985
  14 H :    0.010667
Sum of atomic charges:   -0.0000000

LOEWDIN ATOMIC CHARGES
----------------------
   0 C :   -0.062500
   1 C :   -0.039985
   2 C :   -0.049635
   3 C :    0.030115
   4 O :   -0.021833
   5 C :    0.077707
   6 O :   -0.130135
   7 H :    0.029187
   8 H :    0.027285
   9 H :    0.026386
  10 H :    0.030206
  11 H :    0.035640
  12 H :    0.030397
  13 H :    0.018899
  14 H :   -0.001732

  Mayer bond orders larger than 0.1
B(  0-C ,  1-C ) :   1.0957 B(  0-C ,  7-H ) :   0.9614 B(  0-C ,  8-H ) :   0.9689
B(  0-C ,  9-H ) :   0.9688 B(  1-C ,  2-C ) :   1.0731 B(  1-C , 10-H ) :   0.9376
B(  1-C , 11-H ) :   0.9193 B(  2-C ,  3-C ) :   1.8482 B(  2-C , 12-H ) :   0.9499
B(  3-C ,  4-O ) :   1.0109 B(  3-C , 13-H ) :   0.9581 B(  4-O ,  5-C ) :   1.1498
B(  5-C ,  6-O ) :   2.0619 B(  5-C , 14-H ) :   0.9389

FINAL SINGLE POINT ENERGY      -345.105240511905

DIPOLE MOMENT
-------------
                                X             Y             Z
Electronic contribution:      7.14191      -2.29942       8.98654
Nuclear contribution   :     -7.85698       2.23398      -9.18918
                        -----------------------------------------
Total Dipole Moment    :     -0.71507      -0.06544      -0.20264
                        -----------------------------------------
Magnitude (a.u.)       :      0.74611
Magnitude (Debye)      :      1.89645

                             ****ORCA TERMINATED NORMALLY****
TOTAL RUN TIME: 0 days 0 hours 0 minutes 6 seconds 664 msec
