                         Program Version 3.0.3 - RELEASE   -
|  1> ! RI PBE def2-SVP def2-SVP/J NBO PAL2
|  2> % maxcore 2000
|  3> % output
|  4>     # printlevel mini
|  5>     print[ P_Basis ] 0
|  6>     print[ P_SCFInfo ] 1
|  7>     print[ P_SCFIterInfo ] 1
|  8>     print[ P_OrbEn ] 0
|  9>     print[ P_Cartesian ] 0
| 10> end
| 11> *xyz 0 1
| 12>  C        1.8619340000    -0.9817780000    -1.2229030000
| 13>  C        1.8267110000    -0.0594030000    -0.0092570000
| 14>  C        2.5375600000    -0.6175460000     1.1798130000
| 15>  C        1.9602520000    -0.9542890000     2.3262190000
| 16>  O        3.8914740000    -0.7226000000     0.8853180000
| 17>  C        4.8181780000    -1.2564660000     1.6941240000
| 18>  O        4.6634560000    -1.7246230000     2.7792330000
| 19>  H        1.3405760000    -0.5252330000    -2.0666540000
| 20>  H        1.3788130000    -1.9359570000    -1.0009580000
| 21>  H        2.8881290000    -1.1855610000    -1.5332820000
| 22>  H        0.7944510000     0.1445420000     0.2813700000
| 23>  H        2.2840050000     0.9021980000    -0.2680430000
| 24>  H        0.8911420000    -0.8061390000     2.4090890000
| 25>  H        2.4977070000    -1.3629070000     3.1651430000
| 26>  H        5.7860120000    -1.1919480000     1.1751880000
| 27> *
| 28>
| 29>                          ****END OF INPUT****
 Total Charge           Charge          ....    0
 Multiplicity           Mult            ....    1
 Number of Electrons    NEL             ....   54
 Basis Dimension        Dim             ....  138

MULLIKEN ATOMIC CHARGES
-----------------------
   0 C :   -0.031939
   1 C :    0.058025
   2 C :   -0.003741
   3 C :   -0.047714
   4 O :   -0.210965
   5 C :    0.222840
   6 O :   -0.180915
   7 H :    0.027382
   8 H :    0.025680
   9 H :    0.030673
  10 H :    0.010707
  11 H :    0.027237
  12 H :    0.018418
  13 H :    0.045305
  14 H :    0.009007
Sum of atomic charges:   -0.0000000

LOEWDIN ATOMIC CHARGES
----------------------
   0 C :   -0.061345
   1 C :   -0.043825
   2 C :    0.037368
   3 C :   -0.094220
   4 O :   -0.024399
   5 C :    0.086893
   6 O :   -0.115722
   7 H :    0.029844
   8 H :    0.028731
   9 H :    0.026754
  10 H :    0.034994
  11 H :    0.037233
  12 H :    0.031003
  13 H :    0.029435
  14 H :   -0.002743

  Mayer bond orders larger than 0.1
B(  0-C ,  1-C ) :   1.1056 B(  0-C ,  7-H ) :   0.9616 B(  0-C ,  8-H ) :   0.9666
B(  0-C ,  9-H ) :   0.9665 B(  1-C ,  2-C ) :   1.0645 B(  1-C , 10-H ) :   0.9233
B(  1-C , 11-H ) :   0.9109 B(  2-C ,  3-C ) :   1.9435 B(  2-C ,  4-O ) :   0.9981
B(  3-C , 12-H ) :   0.9158 B(  3-C , 13-H ) :   0.9240 B(  4-O ,  5-C ) :   1.1458
B(  5-C ,  6-O ) :   2.0704 B(  5-C , 14-H ) :   0.9343

FINAL SINGLE POINT ENERGY      -345.103971835437

DIPOLE MOMENT
-------------
                                X             Y             Z
Electronic contribution:      6.27123      -0.94122       5.39123
Nuclear contribution   :     -6.52877       1.26819      -6.08110
                        -----------------------------------------
Total Dipole Moment    :     -0.25754       0.32697      -0.68987
                        -----------------------------------------
Magnitude (a.u.)       :      0.80570
Magnitude (Debye)      :      2.04793

                             ****ORCA TERMINATED NORMALLY****
TOTAL RUN TIME: 0 days 0 hours 0 minutes 7 seconds 83 msec
