                         Program Version 3.0.3 - RELEASE   -
|  1> ! RI PBE def2-SVP def2-SVP/J NBO PAL2
|  2> % maxcore 2000
|  3> % output
|  4>     # printlevel mini
|  5>     print[ P_Basis ] 0
|  6>     print[ P_SCFInfo ] 1
|  7>     print[ P_SCFIterInfo ] 1
|  8>     print[ P_OrbEn ] 0
|  9>     print[ P_Cartesian ] 0
| 10> end
| 11> *xyz 0 1
| 12>  C        3.5025150000     0.4232920000     2.2280020000
| 13>  C        3.0628390000     0.3397670000     0.7734770000
| 14>  C        3.3193630000     1.6141810000    -0.0183450000
| 15>  C        2.5406810000     2.8166430000     0.4700050000
| 16>  O        2.7211000000     3.9357430000     0.0771850000
| 17>  C        4.7866990000     1.9574530000    -0.1947680000
| 18>  O        5.6735030000     1.1675600000    -0.0327170000
| 19>  H        3.2630330000    -0.5020950000     2.7550750000
| 20>  H        3.0025520000     1.2377200000     2.7601840000
| 21>  H        4.5793400000     0.5800520000     2.3033150000
| 22>  H        1.9939800000     0.1080740000     0.7181780000
| 23>  H        3.5860420000    -0.4827110000     0.2809030000
| 24>  H        2.9648200000     1.4823330000    -1.0548310000
| 25>  H        1.7525660000     2.5969190000     1.2215700000
| 26>  H        4.9826780000     3.0010610000    -0.5067340000
| 27> *
| 28>
| 29>                          ****END OF INPUT****
 Total Charge           Charge          ....    0
 Multiplicity           Mult            ....    1
 Number of Electrons    NEL             ....   54
 Basis Dimension        Dim             ....  138

MULLIKEN ATOMIC CHARGES
-----------------------
   0 C :   -0.039339
   1 C :   -0.003225
   2 C :   -0.129313
   3 C :    0.103546
   4 O :   -0.154472
   5 C :    0.123165
   6 O :   -0.147196
   7 H :    0.032212
   8 H :    0.019426
   9 H :    0.044188
  10 H :    0.019660
  11 H :    0.028158
  12 H :    0.079309
  13 H :    0.008031
  14 H :    0.015851
Sum of atomic charges:   -0.0000000

LOEWDIN ATOMIC CHARGES
----------------------
   0 C :   -0.068139
   1 C :   -0.038647
   2 C :   -0.127566
   3 C :    0.097262
   4 O :   -0.100126
   5 C :    0.109673
   6 O :   -0.092937
   7 H :    0.033691
   8 H :    0.022723
   9 H :    0.031565
  10 H :    0.028386
  11 H :    0.035071
  12 H :    0.077631
  13 H :   -0.006497
  14 H :   -0.002091

  Mayer bond orders larger than 0.1
B(  0-C ,  1-C ) :   1.1130 B(  0-C ,  7-H ) :   0.9614 B(  0-C ,  8-H ) :   0.9644
B(  0-C ,  9-H ) :   0.9646 B(  1-C ,  2-C ) :   1.0495 B(  1-C , 10-H ) :   0.9321
B(  1-C , 11-H ) :   0.9200 B(  2-C ,  3-C ) :   0.8972 B(  2-C ,  5-C ) :   0.9107
B(  2-C , 12-H ) :   0.8565 B(  3-C ,  4-O ) :   2.1599 B(  3-C , 13-H ) :   0.9341
B(  5-C ,  6-O ) :   2.1705 B(  5-C , 14-H ) :   0.9309

FINAL SINGLE POINT ENERGY      -345.096981511790

DIPOLE MOMENT
-------------
                                X             Y             Z
Electronic contribution:      2.30794       5.10172      -4.23294
Nuclear contribution   :     -3.01521      -5.61717       4.31204
                        -----------------------------------------
Total Dipole Moment    :     -0.70727      -0.51545       0.07910
                        -----------------------------------------
Magnitude (a.u.)       :      0.87873
Magnitude (Debye)      :      2.23356

                             ****ORCA TERMINATED NORMALLY****
TOTAL RUN TIME: 0 days 0 hours 0 minutes 6 seconds 519 msec
