                         Program Version 3.0.3 - RELEASE   -
|  1> ! RI PBE def2-SVP def2-SVP/J NBO PAL2
|  2> % maxcore 2000
|  3> % output
|  4>     # printlevel mini
|  5>     print[ P_Basis ] 0
|  6>     print[ P_SCFInfo ] 1
|  7>     print[ P_SCFIterInfo ] 1
|  8>     print[ P_OrbEn ] 0
|  9>     print[ P_Cartesian ] 0
| 10> end
| 11> *xyz 0 1
| 12>  C        2.7234990000     0.5870070000    -1.5217890000
| 13>  C        2.6135010000     0.2706810000    -0.0395570000
| 14>  C        3.1919980000     1.3154840000     0.9151700000
| 15>  C        2.5177610000     2.6705040000     0.7752670000
| 16>  O        3.0428920000     0.8390970000     2.2572480000
| 17>  C        4.7017930000     1.4695300000     0.7598240000
| 18>  O        5.3912330000     0.2639080000     0.9663460000
| 19>  H        2.2717250000    -0.2112520000    -2.1144220000
| 20>  H        3.7662280000     0.6718150000    -1.8349470000
| 21>  H        2.2131910000     1.5166710000    -1.7833950000
| 22>  H        3.1161090000    -0.6770660000     0.1701780000
| 23>  H        1.5553800000     0.1355540000     0.2228660000
| 24>  H        1.4335420000     2.5757360000     0.8848770000
| 25>  H        2.7188510000     3.1236680000    -0.1979490000
| 26>  H        2.8802790000     3.3473680000     1.5512000000
| 27>  H        2.1507510000     0.4977200000     2.3622120000
| 28>  H        5.0357470000     2.2424970000     1.4665180000
| 29>  H        4.9443860000     1.8134960000    -0.2475410000
| 30>  H        5.0704310000    -0.0845190000     1.8056970000
| 31> *
| 32>
| 33>                          ****END OF INPUT****
 Total Charge           Charge          ....    0
 Multiplicity           Mult            ....    1
 Number of Electrons    NEL             ....   58
 Basis Dimension        Dim             ....  158

MULLIKEN ATOMIC CHARGES
-----------------------
   0 C :   -0.023713
   1 C :    0.033311
   2 C :   -0.208456
   3 C :    0.063852
   4 O :   -0.265847
   5 C :    0.261012
   6 O :   -0.282930
   7 H :    0.022278
   8 H :    0.032403
   9 H :    0.018378
  10 H :    0.005869
  11 H :   -0.006003
  12 H :    0.006364
  13 H :    0.017324
  14 H :    0.023680
  15 H :    0.154809
  16 H :   -0.005018
  17 H :   -0.000364
  18 H :    0.153050
Sum of atomic charges:   -0.0000000

LOEWDIN ATOMIC CHARGES
----------------------
   0 C :   -0.064222
   1 C :   -0.052951
   2 C :   -0.005755
   3 C :   -0.066327
   4 O :   -0.107476
   5 C :    0.056090
   6 O :   -0.116004
   7 H :    0.031430
   8 H :    0.029172
   9 H :    0.023395
  10 H :    0.023008
  11 H :    0.016566
  12 H :    0.024089
  13 H :    0.027811
  14 H :    0.029661
  15 H :    0.066130
  16 H :    0.006895
  17 H :    0.018071
  18 H :    0.060417

  Mayer bond orders larger than 0.1
B(  0-C ,  1-C ) :   1.1090 B(  0-C ,  7-H ) :   0.9514 B(  0-C ,  8-H ) :   0.9658
B(  0-C ,  9-H ) :   0.9603 B(  1-C ,  2-C ) :   1.0341 B(  1-C , 10-H ) :   0.9134
B(  1-C , 11-H ) :   0.9206 B(  2-C ,  3-C ) :   1.0522 B(  2-C ,  4-O ) :   1.0171
B(  2-C ,  5-C ) :   0.9952 B(  3-C , 12-H ) :   0.9466 B(  3-C , 13-H ) :   0.9441
B(  3-C , 14-H ) :   0.9449 B(  4-O , 15-H ) :   0.9760 B(  5-C ,  6-O ) :   1.0806
B(  5-C , 16-H ) :   0.9260 B(  5-C , 17-H ) :   0.9296 B(  6-O , 18-H ) :   0.9656

FINAL SINGLE POINT ENERGY      -347.502062733059

DIPOLE MOMENT
-------------
                                X             Y             Z
Electronic contribution:      3.34234      -2.16416       4.78579
Nuclear contribution   :     -4.20039       2.27937      -4.80476
                        -----------------------------------------
Total Dipole Moment    :     -0.85805       0.11521      -0.01898
                        -----------------------------------------
Magnitude (a.u.)       :      0.86596
Magnitude (Debye)      :      2.20108

                             ****ORCA TERMINATED NORMALLY****
TOTAL RUN TIME: 0 days 0 hours 0 minutes 8 seconds 502 msec
