                         Program Version 3.0.3 - RELEASE   -
|  1> ! RI PBE def2-SVP def2-SVP/J NBO PAL2
|  2> % maxcore 2000
|  3> % output
|  4>     # printlevel mini
|  5>     print[ P_Basis ] 0
|  6>     print[ P_SCFInfo ] 1
|  7>     print[ P_SCFIterInfo ] 1
|  8>     print[ P_OrbEn ] 0
|  9>     print[ P_Cartesian ] 0
| 10> end
| 11> *xyz 0 1
| 12>  C        3.1020800000    -0.2071150000     1.3204470000
| 13>  C        2.7164770000    -0.2274510000    -0.1476410000
| 14>  C        2.9410050000     1.1079580000    -0.8712630000
| 15>  C        2.5053760000     1.0025950000    -2.3322580000
| 16>  O        2.2314490000     2.1353090000    -0.2339540000
| 17>  C        4.4149870000     1.4370060000    -0.8510100000
| 18>  O        4.8464570000     2.4507780000    -0.3696880000
| 19>  H        2.8658730000    -1.1615750000     1.7948960000
| 20>  H        2.5583790000     0.5779890000     1.8477010000
| 21>  H        4.1715180000    -0.0259090000     1.4609410000
| 22>  H        1.6534140000    -0.4652100000    -0.2528490000
| 23>  H        3.2649420000    -1.0121660000    -0.6803750000
| 24>  H        1.4408690000     0.7635860000    -2.3648470000
| 25>  H        3.0527050000     0.2188350000    -2.8618210000
| 26>  H        2.6587940000     1.9531790000    -2.8464500000
| 27>  H        2.8900210000     2.7944860000     0.0328850000
| 28>  H        5.0872630000     0.6891130000    -1.3184050000
| 29> *
| 30>
| 31>                          ****END OF INPUT****
 Total Charge           Charge          ....    0
 Multiplicity           Mult            ....    1
 Number of Electrons    NEL             ....   56
 Basis Dimension        Dim             ....  148

MULLIKEN ATOMIC CHARGES
-----------------------
   0 C :   -0.010452
   1 C :    0.005844
   2 C :   -0.140866
   3 C :    0.067920
   4 O :   -0.226051
   5 C :    0.150048
   6 O :   -0.167754
   7 H :    0.023191
   8 H :    0.031700
   9 H :    0.023660
  10 H :    0.021975
  11 H :    0.006332
  12 H :    0.034988
  13 H :    0.015217
  14 H :    0.028631
  15 H :    0.143419
  16 H :   -0.007801
Sum of atomic charges:   -0.0000000

LOEWDIN ATOMIC CHARGES
----------------------
   0 C :   -0.068903
   1 C :   -0.040574
   2 C :   -0.029272
   3 C :   -0.053421
   4 O :   -0.094245
   5 C :    0.096588
   6 O :   -0.098530
   7 H :    0.030197
   8 H :    0.029580
   9 H :    0.024618
  10 H :    0.032428
  11 H :    0.024454
  12 H :    0.036757
  13 H :    0.027693
  14 H :    0.031464
  15 H :    0.053427
  16 H :   -0.002262

  Mayer bond orders larger than 0.1
B(  0-C ,  1-C ) :   1.1114 B(  0-C ,  7-H ) :   0.9597 B(  0-C ,  8-H ) :   0.9573
B(  0-C ,  9-H ) :   0.9582 B(  1-C ,  2-C ) :   0.9798 B(  1-C , 10-H ) :   0.9261
B(  1-C , 11-H ) :   0.9241 B(  2-C ,  3-C ) :   1.0218 B(  2-C ,  4-O ) :   1.1626
B(  2-C ,  5-C ) :   0.9031 B(  3-C , 12-H ) :   0.9489 B(  3-C , 13-H ) :   0.9462
B(  3-C , 14-H ) :   0.9516 B(  4-O , 15-H ) :   0.9389 B(  5-C ,  6-O ) :   2.1331
B(  5-C , 16-H ) :   0.9266 B(  6-O , 15-H ) :   0.1043

FINAL SINGLE POINT ENERGY      -346.307456160772

DIPOLE MOMENT
-------------
                                X             Y             Z
Electronic contribution:      2.69254       5.76326      -0.04867
Nuclear contribution   :     -2.62683      -6.47667      -0.31518
                        -----------------------------------------
Total Dipole Moment    :      0.06570      -0.71341      -0.36385
                        -----------------------------------------
Magnitude (a.u.)       :      0.80353
Magnitude (Debye)      :      2.04241

                             ****ORCA TERMINATED NORMALLY****
TOTAL RUN TIME: 0 days 0 hours 0 minutes 6 seconds 866 msec
