                         Program Version 3.0.3 - RELEASE   -
|  1> ! RI PBE def2-SVP def2-SVP/J NBO PAL2
|  2> % maxcore 2000
|  3> % output
|  4>     # printlevel mini
|  5>     print[ P_Basis ] 0
|  6>     print[ P_SCFInfo ] 1
|  7>     print[ P_SCFIterInfo ] 1
|  8>     print[ P_OrbEn ] 0
|  9>     print[ P_Cartesian ] 0
| 10> end
| 11> *xyz 0 1
| 12>  C        2.7077000000     1.3503400000    -0.5902750000
| 13>  C        2.3193900000    -0.0822440000    -0.2703220000
| 14>  C        3.1376120000    -0.7056280000     0.8416670000
| 15>  C        2.6877240000    -2.1030140000     1.2053560000
| 16>  O        4.5076740000    -0.7514930000     0.3737450000
| 17>  C        5.4664050000    -0.7158440000     1.2920630000
| 18>  O        5.3176420000    -0.6496540000     2.4782470000
| 19>  H        2.0791420000     1.7582060000    -1.3844330000
| 20>  H        3.7459330000     1.4119300000    -0.9214990000
| 21>  H        2.5964440000     1.9947870000     0.2861850000
| 22>  H        2.4096010000    -0.7097850000    -1.1635380000
| 23>  H        1.2691350000    -0.1264740000     0.0353730000
| 24>  H        3.1200660000    -0.0675110000     1.7298340000
| 25>  H        2.7399400000    -2.7615400000     0.3349420000
| 26>  H        1.6544660000    -2.0815220000     1.5586300000
| 27>  H        3.3095220000    -2.5158390000     2.0004870000
| 28>  H        6.4455130000    -0.7535140000     0.7905380000
| 29> *
| 30>
| 31>                          ****END OF INPUT****
 Total Charge           Charge          ....    0
 Multiplicity           Mult            ....    1
 Number of Electrons    NEL             ....   56
 Basis Dimension        Dim             ....  148

MULLIKEN ATOMIC CHARGES
-----------------------
   0 C :   -0.013341
   1 C :   -0.016522
   2 C :    0.022328
   3 C :    0.027517
   4 O :   -0.245883
   5 C :    0.215678
   6 O :   -0.211913
   7 H :    0.025830
   8 H :    0.026680
   9 H :    0.020273
  10 H :    0.018377
  11 H :    0.016501
  12 H :    0.021875
  13 H :    0.026164
  14 H :    0.025383
  15 H :    0.038070
  16 H :    0.002982
Sum of atomic charges:   -0.0000000

LOEWDIN ATOMIC CHARGES
----------------------
   0 C :   -0.067902
   1 C :   -0.049914
   2 C :    0.060668
   3 C :   -0.067144
   4 O :   -0.055360
   5 C :    0.070763
   6 O :   -0.148430
   7 H :    0.029660
   8 H :    0.027061
   9 H :    0.026875
  10 H :    0.028724
  11 H :    0.032084
  12 H :    0.018895
  13 H :    0.030092
  14 H :    0.035900
  15 H :    0.034275
  16 H :   -0.006247

  Mayer bond orders larger than 0.1
B(  0-C ,  1-C ) :   1.1205 B(  0-C ,  7-H ) :   0.9615 B(  0-C ,  8-H ) :   0.9625
B(  0-C ,  9-H ) :   0.9631 B(  1-C ,  2-C ) :   1.0603 B(  1-C , 10-H ) :   0.9256
B(  1-C , 11-H ) :   0.9303 B(  2-C ,  3-C ) :   1.1109 B(  2-C ,  4-O ) :   0.8775
B(  2-C , 12-H ) :   0.9148 B(  3-C , 13-H ) :   0.9515 B(  3-C , 14-H ) :   0.9522
B(  3-C , 15-H ) :   0.9498 B(  4-O ,  5-C ) :   1.2060 B(  4-O ,  6-O ) :   0.1088
B(  5-C ,  6-O ) :   2.0247 B(  5-C , 16-H ) :   0.9341

FINAL SINGLE POINT ENERGY      -346.328730769985

DIPOLE MOMENT
-------------
                                X             Y             Z
Electronic contribution:      7.07370      -1.32941       3.53399
Nuclear contribution   :     -7.57539       1.28686      -4.14444
                        -----------------------------------------
Total Dipole Moment    :     -0.50170      -0.04255      -0.61045
                        -----------------------------------------
Magnitude (a.u.)       :      0.79130
Magnitude (Debye)      :      2.01134

                             ****ORCA TERMINATED NORMALLY****
TOTAL RUN TIME: 0 days 0 hours 0 minutes 7 seconds 461 msec
