                         Program Version 3.0.3 - RELEASE   -
|  1> ! RI PBE def2-SVP def2-SVP/J NBO PAL2
|  2> % maxcore 2000
|  3> % output
|  4>     # printlevel mini
|  5>     print[ P_Basis ] 0
|  6>     print[ P_SCFInfo ] 1
|  7>     print[ P_SCFIterInfo ] 1
|  8>     print[ P_OrbEn ] 0
|  9>     print[ P_Cartesian ] 0
| 10> end
| 11> *xyz 0 1
| 12>  C        2.9848660000     1.1250270000    -0.2772370000
| 13>  C        2.7942670000    -0.3838830000    -0.3084090000
| 14>  C        3.4338510000    -1.1361720000     0.8587980000
| 15>  C        2.9037670000    -2.5657060000     0.9201810000
| 16>  O        3.2947900000    -3.2750280000     2.0697360000
| 17>  C        4.9536050000    -1.1145720000     0.7498450000
| 18>  O        5.6178070000    -1.7415760000     1.8412860000
| 19>  H        2.4557390000     1.6014380000    -1.1055290000
| 20>  H        4.0352960000     1.4136400000    -0.3573000000
| 21>  H        2.5939810000     1.5497450000     0.6516160000
| 22>  H        3.1815980000    -0.7863930000    -1.2523650000
| 23>  H        1.7214080000    -0.6035740000    -0.3093630000
| 24>  H        3.1448910000    -0.6366210000     1.7953060000
| 25>  H        3.2113160000    -3.0966180000     0.0033460000
| 26>  H        1.8099520000    -2.5459190000     0.9251000000
| 27>  H        4.2485050000    -3.1511810000     2.1590320000
| 28>  H        5.3214030000    -0.0894780000     0.6290340000
| 29>  H        5.2609490000    -1.6769010000    -0.1375810000
| 30>  H        5.4836280000    -1.2008270000     2.6246150000
| 31> *
| 32>
| 33>                          ****END OF INPUT****
 Total Charge           Charge          ....    0
 Multiplicity           Mult            ....    1
 Number of Electrons    NEL             ....   58
 Basis Dimension        Dim             ....  158

MULLIKEN ATOMIC CHARGES
-----------------------
   0 C :    0.002409
   1 C :   -0.038632
   2 C :   -0.198411
   3 C :    0.224143
   4 O :   -0.288111
   5 C :    0.212546
   6 O :   -0.291609
   7 H :    0.022164
   8 H :    0.017915
   9 H :    0.017989
  10 H :    0.009751
  11 H :    0.015241
  12 H :   -0.001539
  13 H :   -0.017872
  14 H :    0.004614
  15 H :    0.134104
  16 H :    0.005158
  17 H :    0.005842
  18 H :    0.164298
Sum of atomic charges:    0.0000000

LOEWDIN ATOMIC CHARGES
----------------------
   0 C :   -0.065052
   1 C :   -0.038114
   2 C :   -0.085621
   3 C :    0.058096
   4 O :   -0.129650
   5 C :    0.061239
   6 O :   -0.103999
   7 H :    0.029833
   8 H :    0.020864
   9 H :    0.025542
  10 H :    0.023837
  11 H :    0.027543
  12 H :    0.019096
  13 H :   -0.000360
  14 H :    0.016850
  15 H :    0.036960
  16 H :    0.008254
  17 H :    0.021620
  18 H :    0.073063

  Mayer bond orders larger than 0.1
B(  0-C ,  1-C ) :   1.1136 B(  0-C ,  7-H ) :   0.9569 B(  0-C ,  8-H ) :   0.9623
B(  0-C ,  9-H ) :   0.9646 B(  1-C ,  2-C ) :   1.0360 B(  1-C , 10-H ) :   0.9328
B(  1-C , 11-H ) :   0.9313 B(  2-C ,  3-C ) :   1.0236 B(  2-C ,  5-C ) :   1.0283
B(  2-C , 12-H ) :   0.9016 B(  3-C ,  4-O ) :   1.1067 B(  3-C , 13-H ) :   0.9237
B(  3-C , 14-H ) :   0.9354 B(  4-O , 15-H ) :   0.9544 B(  5-C ,  6-O ) :   1.0143
B(  5-C , 16-H ) :   0.9461 B(  5-C , 17-H ) :   0.9315 B(  6-O , 15-H ) :   0.1197
B(  6-O , 18-H ) :   0.9756

FINAL SINGLE POINT ENERGY      -347.494716213043

DIPOLE MOMENT
-------------
                                X             Y             Z
Electronic contribution:      2.51888      -5.28740       4.33688
Nuclear contribution   :     -2.34033       6.28457      -4.58984
                        -----------------------------------------
Total Dipole Moment    :      0.17855       0.99717      -0.25296
                        -----------------------------------------
Magnitude (a.u.)       :      1.04414
Magnitude (Debye)      :      2.65399

                             ****ORCA TERMINATED NORMALLY****
TOTAL RUN TIME: 0 days 0 hours 0 minutes 8 seconds 326 msec
