                         Program Version 3.0.3 - RELEASE   -
|  1> ! RI PBE def2-SVP def2-SVP/J NBO PAL2
|  2> % maxcore 2000
|  3> % output
|  4>     # printlevel mini
|  5>     print[ P_Basis ] 0
|  6>     print[ P_SCFInfo ] 1
|  7>     print[ P_SCFIterInfo ] 1
|  8>     print[ P_OrbEn ] 0
|  9>     print[ P_Cartesian ] 0
| 10> end
| 11> *xyz 0 1
| 12>  C        3.7557390000     1.9544900000     0.1321780000
| 13>  C        3.0368640000     0.6569880000    -0.2091640000
| 14>  C        3.5730120000    -0.0601380000    -1.4534030000
| 15>  C        3.4694500000     0.7444280000    -2.7422870000
| 16>  O        3.7769950000    -0.0225530000    -3.8796150000
| 17>  C        4.9739080000    -0.5482100000    -1.2147330000
| 18>  O        5.8922390000    -0.4198390000    -1.9830230000
| 19>  H        3.3706810000     2.3736940000     1.0639260000
| 20>  H        3.6252220000     2.7097190000    -0.6451540000
| 21>  H        4.8307300000     1.7983340000     0.2612330000
| 22>  H        1.9702640000     0.8505650000    -0.3568440000
| 23>  H        3.1022500000    -0.0296780000     0.6420550000
| 24>  H        2.9792820000    -0.9781980000    -1.5859770000
| 25>  H        4.1155910000     1.6293320000    -2.6803670000
| 26>  H        2.4415600000     1.0962030000    -2.8662720000
| 27>  H        4.7142100000    -0.2374470000    -3.8141100000
| 28>  H        5.1309020000    -1.0704110000    -0.2446450000
| 29> *
| 30>
| 31>                          ****END OF INPUT****
 Total Charge           Charge          ....    0
 Multiplicity           Mult            ....    1
 Number of Electrons    NEL             ....   56
 Basis Dimension        Dim             ....  148

MULLIKEN ATOMIC CHARGES
-----------------------
   0 C :   -0.037252
   1 C :   -0.045214
   2 C :   -0.132965
   3 C :    0.218144
   4 O :   -0.289221
   5 C :    0.109138
   6 O :   -0.172072
   7 H :    0.025923
   8 H :    0.039631
   9 H :    0.032340
  10 H :    0.027089
  11 H :    0.023702
  12 H :    0.042515
  13 H :    0.004501
  14 H :    0.002578
  15 H :    0.153238
  16 H :   -0.002076
Sum of atomic charges:   -0.0000000

LOEWDIN ATOMIC CHARGES
----------------------
   0 C :   -0.070142
   1 C :   -0.035148
   2 C :   -0.106386
   3 C :    0.061619
   4 O :   -0.121000
   5 C :    0.103907
   6 O :   -0.110974
   7 H :    0.031919
   8 H :    0.028668
   9 H :    0.028332
  10 H :    0.030790
  11 H :    0.027073
  12 H :    0.052595
  13 H :    0.008204
  14 H :    0.021336
  15 H :    0.055868
  16 H :   -0.006660

  Mayer bond orders larger than 0.1
B(  0-C ,  1-C ) :   1.1077 B(  0-C ,  7-H ) :   0.9572 B(  0-C ,  8-H ) :   0.9641
B(  0-C ,  9-H ) :   0.9627 B(  1-C ,  2-C ) :   1.0384 B(  1-C , 10-H ) :   0.9329
B(  1-C , 11-H ) :   0.9331 B(  2-C ,  3-C ) :   1.0189 B(  2-C ,  5-C ) :   0.9326
B(  2-C , 12-H ) :   0.8626 B(  3-C ,  4-O ) :   1.0790 B(  3-C , 13-H ) :   0.9307
B(  3-C , 14-H ) :   0.9362 B(  4-O , 15-H ) :   0.9713 B(  5-C ,  6-O ) :   2.1324
B(  5-C , 16-H ) :   0.9300

FINAL SINGLE POINT ENERGY      -346.297820846967

DIPOLE MOMENT
-------------
                                X             Y             Z
Electronic contribution:      3.84939      -4.34142      -4.99842
Nuclear contribution   :     -4.26191       4.48716       5.98575
                        -----------------------------------------
Total Dipole Moment    :     -0.41252       0.14573       0.98734
                        -----------------------------------------
Magnitude (a.u.)       :      1.07993
Magnitude (Debye)      :      2.74496

                             ****ORCA TERMINATED NORMALLY****
TOTAL RUN TIME: 0 days 0 hours 0 minutes 8 seconds 103 msec
