                         Program Version 3.0.3 - RELEASE   -
|  1> ! RI PBE def2-SVP def2-SVP/J NBO PAL2
|  2> % maxcore 2000
|  3> % output
|  4>     # printlevel mini
|  5>     print[ P_Basis ] 0
|  6>     print[ P_SCFInfo ] 1
|  7>     print[ P_SCFIterInfo ] 1
|  8>     print[ P_OrbEn ] 0
|  9>     print[ P_Cartesian ] 0
| 10> end
| 11> *xyz 0 1
| 12>  C        0.9367700000     0.1192890000     0.3465350000
| 13>  C        2.3915370000     0.0886960000    -0.0884900000
| 14>  C        3.1896290000    -0.9764730000     0.6407650000
| 15>  C        4.6478000000    -1.0159200000     0.2810120000
| 16>  O        5.2031170000    -0.1395180000    -0.3404580000
| 17>  C        5.4540910000    -2.2125320000     0.7330140000
| 18>  O        6.7981070000    -2.0705640000     0.4150430000
| 19>  H        0.3797420000     0.8878680000    -0.1930730000
| 20>  H        0.8458520000     0.3338790000     1.4152000000
| 21>  H        0.4432810000    -0.8389080000     0.1602350000
| 22>  H        2.8602250000     1.0610750000     0.0810560000
| 23>  H        2.4588770000    -0.0891730000    -1.1658200000
| 24>  H        2.7630440000    -1.9743210000     0.4810400000
| 25>  H        3.1379240000    -0.8169460000     1.7268560000
| 26>  H        5.0217930000    -3.1057170000     0.2550810000
| 27>  H        5.3152910000    -2.3420120000     1.8160770000
| 28>  H        6.8538290000    -1.2381130000    -0.0809620000
| 29> *
| 30>
| 31>                          ****END OF INPUT****
 Total Charge           Charge          ....    0
 Multiplicity           Mult            ....    1
 Number of Electrons    NEL             ....   56
 Basis Dimension        Dim             ....  148

MULLIKEN ATOMIC CHARGES
-----------------------
   0 C :   -0.010444
   1 C :   -0.042922
   2 C :   -0.009116
   3 C :   -0.081383
   4 O :   -0.185744
   5 C :    0.214665
   6 O :   -0.265828
   7 H :    0.026181
   8 H :    0.019806
   9 H :    0.018347
  10 H :    0.028457
  11 H :    0.027044
  12 H :    0.028993
  13 H :    0.043916
  14 H :    0.019865
  15 H :    0.020409
  16 H :    0.147753
Sum of atomic charges:   -0.0000000

LOEWDIN ATOMIC CHARGES
----------------------
   0 C :   -0.066569
   1 C :   -0.041718
   2 C :   -0.070691
   3 C :    0.050270
   4 O :   -0.117081
   5 C :    0.022181
   6 O :   -0.117753
   7 H :    0.030401
   8 H :    0.025628
   9 H :    0.024545
  10 H :    0.030597
  11 H :    0.030706
  12 H :    0.039870
  13 H :    0.050302
  14 H :    0.027748
  15 H :    0.028132
  16 H :    0.053433

  Mayer bond orders larger than 0.1
B(  0-C ,  1-C ) :   1.1187 B(  0-C ,  7-H ) :   0.9601 B(  0-C ,  8-H ) :   0.9641
B(  0-C ,  9-H ) :   0.9642 B(  1-C ,  2-C ) :   1.0879 B(  1-C , 10-H ) :   0.9352
B(  1-C , 11-H ) :   0.9439 B(  2-C ,  3-C ) :   0.9649 B(  2-C , 12-H ) :   0.9226
B(  2-C , 13-H ) :   0.8996 B(  3-C ,  4-O ) :   2.1081 B(  3-C ,  5-C ) :   0.9736
B(  4-O , 16-H ) :   0.1022 B(  5-C ,  6-O ) :   1.1575 B(  5-C , 14-H ) :   0.8983
B(  5-C , 15-H ) :   0.9087 B(  6-O , 16-H ) :   0.9442

FINAL SINGLE POINT ENERGY      -346.310451838230

DIPOLE MOMENT
-------------
                                X             Y             Z
Electronic contribution:      9.41851      -0.92332      -1.26028
Nuclear contribution   :    -10.48400       0.78358       1.57421
                        -----------------------------------------
Total Dipole Moment    :     -1.06549      -0.13974       0.31392
                        -----------------------------------------
Magnitude (a.u.)       :      1.11953
Magnitude (Debye)      :      2.84562

                             ****ORCA TERMINATED NORMALLY****
TOTAL RUN TIME: 0 days 0 hours 0 minutes 7 seconds 306 msec
