                         Program Version 3.0.3 - RELEASE   -
|  1> ! RI PBE def2-SVP def2-SVP/J NBO PAL2
|  2> % maxcore 2000
|  3> % output
|  4>     # printlevel mini
|  5>     print[ P_Basis ] 0
|  6>     print[ P_SCFInfo ] 1
|  7>     print[ P_SCFIterInfo ] 1
|  8>     print[ P_OrbEn ] 0
|  9>     print[ P_Cartesian ] 0
| 10> end
| 11> *xyz 0 1
| 12>  C        0.9661730000    -0.0198980000    -0.0858200000
| 13>  C        2.4410640000     0.2081650000    -0.3678250000
| 14>  C        3.3262880000    -0.7901830000     0.3509680000
| 15>  C        4.7885020000    -0.6023440000     0.1013080000
| 16>  O        5.2726810000     0.2503320000    -0.5997870000
| 17>  C        5.7509770000    -1.5719230000     0.7922420000
| 18>  O        5.3946740000    -2.4600430000     1.5120620000
| 19>  H        0.3467800000     0.7089310000    -0.6124480000
| 20>  H        0.7466570000     0.0684060000     0.9818820000
| 21>  H        0.6492250000    -1.0166510000    -0.4051940000
| 22>  H        2.7304210000     1.2207470000    -0.0724900000
| 23>  H        2.6341720000     0.1488420000    -1.4427500000
| 24>  H        3.0792260000    -1.8249140000     0.0792150000
| 25>  H        3.1746750000    -0.7619450000     1.4380610000
| 26>  H        6.8155750000    -1.3676120000     0.5575850000
| 27> *
| 28>
| 29>                          ****END OF INPUT****
 Total Charge           Charge          ....    0
 Multiplicity           Mult            ....    1
 Number of Electrons    NEL             ....   54
 Basis Dimension        Dim             ....  138

MULLIKEN ATOMIC CHARGES
-----------------------
   0 C :   -0.001805
   1 C :   -0.042948
   2 C :   -0.013637
   3 C :   -0.036589
   4 O :   -0.135492
   5 C :    0.146612
   6 O :   -0.115983
   7 H :    0.025381
   8 H :    0.019475
   9 H :    0.017350
  10 H :    0.022220
  11 H :    0.028390
  12 H :    0.042026
  13 H :    0.045764
  14 H :   -0.000763
Sum of atomic charges:   -0.0000000

LOEWDIN ATOMIC CHARGES
----------------------
   0 C :   -0.064814
   1 C :   -0.043035
   2 C :   -0.070736
   3 C :    0.017929
   4 O :   -0.082461
   5 C :    0.072336
   6 O :   -0.071639
   7 H :    0.030072
   8 H :    0.025678
   9 H :    0.025373
  10 H :    0.029777
  11 H :    0.030924
  12 H :    0.051637
  13 H :    0.052363
  14 H :   -0.003403

  Mayer bond orders larger than 0.1
B(  0-C ,  1-C ) :   1.1255 B(  0-C ,  7-H ) :   0.9602 B(  0-C ,  8-H ) :   0.9642
B(  0-C ,  9-H ) :   0.9637 B(  1-C ,  2-C ) :   1.0934 B(  1-C , 10-H ) :   0.9355
B(  1-C , 11-H ) :   0.9369 B(  2-C ,  3-C ) :   0.9634 B(  2-C , 12-H ) :   0.8993
B(  2-C , 13-H ) :   0.8993 B(  3-C ,  4-O ) :   2.1411 B(  3-C ,  5-C ) :   0.8727
B(  5-C ,  6-O ) :   2.2003 B(  5-C , 14-H ) :   0.9135

FINAL SINGLE POINT ENERGY      -345.102806325200

DIPOLE MOMENT
-------------
                                X             Y             Z
Electronic contribution:     10.44547      -2.67744       1.35914
Nuclear contribution   :    -10.90258       2.70231      -1.34818
                        -----------------------------------------
Total Dipole Moment    :     -0.45712       0.02488       0.01095
                        -----------------------------------------
Magnitude (a.u.)       :      0.45792
Magnitude (Debye)      :      1.16395

                             ****ORCA TERMINATED NORMALLY****
TOTAL RUN TIME: 0 days 0 hours 0 minutes 6 seconds 579 msec
