                         Program Version 3.0.3 - RELEASE   -
|  1> ! RI PBE def2-SVP def2-SVP/J NBO PAL2
|  2> % maxcore 2000
|  3> % output
|  4>     # printlevel mini
|  5>     print[ P_Basis ] 0
|  6>     print[ P_SCFInfo ] 1
|  7>     print[ P_SCFIterInfo ] 1
|  8>     print[ P_OrbEn ] 0
|  9>     print[ P_Cartesian ] 0
| 10> end
| 11> *xyz 0 1
| 12>  C        1.0815680000     0.4175290000     0.1303210000
| 13>  C        2.5930450000     0.5282990000     0.2329720000
| 14>  C        3.3032980000     0.1124760000    -1.0459980000
| 15>  C        4.8164320000     0.1628670000    -0.9554760000
| 16>  O        5.3303650000    -0.7309840000     0.0283090000
| 17>  C        5.4931240000    -0.1230650000    -2.2839550000
| 18>  O        6.8916160000    -0.0997280000    -2.1636170000
| 19>  H        0.5950010000     0.7257750000     1.0582820000
| 20>  H        0.7732860000    -0.6109170000    -0.0788810000
| 21>  H        0.6905470000     1.0471100000    -0.6740730000
| 22>  H        2.9575080000    -0.0844590000     1.0626940000
| 23>  H        2.8721430000     1.5598680000     0.4749940000
| 24>  H        2.9807530000     0.7568130000    -1.8727390000
| 25>  H        2.9990570000    -0.9069700000    -1.3247250000
| 26>  H        5.1361510000     1.1534730000    -0.6137910000
| 27>  H        4.9459900000    -1.5993590000    -0.1319590000
| 28>  H        5.2132360000     0.6334830000    -3.0221700000
| 29>  H        5.1435790000    -1.0996630000    -2.6615160000
| 30>  H        7.0926120000    -0.5329500000    -1.3255710000
| 31> *
| 32>
| 33>                          ****END OF INPUT****
 Total Charge           Charge          ....    0
 Multiplicity           Mult            ....    1
 Number of Electrons    NEL             ....   58
 Basis Dimension        Dim             ....  158

MULLIKEN ATOMIC CHARGES
-----------------------
   0 C :    0.003528
   1 C :   -0.020512
   2 C :   -0.034972
   3 C :    0.052656
   4 O :   -0.288926
   5 C :    0.213361
   6 O :   -0.277345
   7 H :    0.020553
   8 H :    0.013597
   9 H :    0.017302
  10 H :    0.007347
  11 H :    0.009573
  12 H :    0.010473
  13 H :   -0.008820
  14 H :    0.001481
  15 H :    0.155780
  16 H :    0.006542
  17 H :   -0.026097
  18 H :    0.144479
Sum of atomic charges:   -0.0000000

LOEWDIN ATOMIC CHARGES
----------------------
   0 C :   -0.065103
   1 C :   -0.046047
   2 C :   -0.055532
   3 C :    0.025280
   4 O :   -0.106607
   5 C :    0.037586
   6 O :   -0.122323
   7 H :    0.027716
   8 H :    0.023260
   9 H :    0.024236
  10 H :    0.021641
  11 H :    0.025353
  12 H :    0.030399
  13 H :    0.017496
  14 H :    0.022975
  15 H :    0.067807
  16 H :    0.021036
  17 H :   -0.003412
  18 H :    0.054239

  Mayer bond orders larger than 0.1
B(  0-C ,  1-C ) :   1.1146 B(  0-C ,  7-H ) :   0.9608 B(  0-C ,  8-H ) :   0.9654
B(  0-C ,  9-H ) :   0.9649 B(  1-C ,  2-C ) :   1.0896 B(  1-C , 10-H ) :   0.9299
B(  1-C , 11-H ) :   0.9366 B(  2-C ,  3-C ) :   1.0503 B(  2-C , 12-H ) :   0.9224
B(  2-C , 13-H ) :   0.9177 B(  3-C ,  4-O ) :   0.9816 B(  3-C ,  5-C ) :   1.0443
B(  3-C , 14-H ) :   0.8968 B(  4-O , 15-H ) :   0.9785 B(  5-C ,  6-O ) :   1.0935
B(  5-C , 16-H ) :   0.9247 B(  5-C , 17-H ) :   0.9082 B(  6-O , 18-H ) :   0.9641

FINAL SINGLE POINT ENERGY      -347.498930414452

DIPOLE MOMENT
-------------
                                X             Y             Z
Electronic contribution:      8.37214      -1.22141      -1.07920
Nuclear contribution   :     -9.19836       0.86260       1.22556
                        -----------------------------------------
Total Dipole Moment    :     -0.82623      -0.35882       0.14636
                        -----------------------------------------
Magnitude (a.u.)       :      0.91259
Magnitude (Debye)      :      2.31963

                             ****ORCA TERMINATED NORMALLY****
TOTAL RUN TIME: 0 days 0 hours 0 minutes 7 seconds 647 msec
