                         Program Version 3.0.3 - RELEASE   -
|  1> ! RI PBE def2-SVP def2-SVP/J NBO PAL2
|  2> % maxcore 2000
|  3> % output
|  4>     # printlevel mini
|  5>     print[ P_Basis ] 0
|  6>     print[ P_SCFInfo ] 1
|  7>     print[ P_SCFIterInfo ] 1
|  8>     print[ P_OrbEn ] 0
|  9>     print[ P_Cartesian ] 0
| 10> end
| 11> *xyz 0 1
| 12>  C        1.0859800000    -0.3270030000     0.0204260000
| 13>  C        2.6036240000    -0.2724080000     0.0316410000
| 14>  C        3.1365310000     1.0309060000     0.6050110000
| 15>  C        4.6598080000     1.1098740000     0.5594580000
| 16>  O        5.1418360000     1.0583540000    -0.7479010000
| 17>  C        5.1452140000     2.3536280000     1.2490080000
| 18>  O        5.8543580000     3.1543490000     0.6985740000
| 19>  H        0.7257300000    -1.2724270000    -0.3909420000
| 20>  H        0.6673790000     0.4793000000    -0.5882220000
| 21>  H        0.6753440000    -0.2259080000     1.0292650000
| 22>  H        2.9914930000    -0.3939360000    -0.9832650000
| 23>  H        3.0015650000    -1.1096000000     0.6170240000
| 24>  H        2.8029110000     1.1446860000     1.6441000000
| 25>  H        2.7314760000     1.8789140000     0.0409730000
| 26>  H        5.0627020000     0.2636230000     1.1470530000
| 27>  H        5.7037610000     1.8407100000    -0.8562140000
| 28>  H        4.8145990000     2.4978470000     2.2966110000
| 29> *
| 30>
| 31>                          ****END OF INPUT****
 Total Charge           Charge          ....    0
 Multiplicity           Mult            ....    1
 Number of Electrons    NEL             ....   56
 Basis Dimension        Dim             ....  148

MULLIKEN ATOMIC CHARGES
-----------------------
   0 C :    0.000538
   1 C :   -0.025990
   2 C :   -0.033716
   3 C :    0.092263
   4 O :   -0.239748
   5 C :    0.112210
   6 O :   -0.173235
   7 H :    0.021325
   8 H :    0.020766
   9 H :    0.013702
  10 H :    0.027482
  11 H :    0.006407
  12 H :    0.004903
  13 H :    0.012686
  14 H :    0.013145
  15 H :    0.144338
  16 H :    0.002925
Sum of atomic charges:    0.0000000

LOEWDIN ATOMIC CHARGES
----------------------
   0 C :   -0.064755
   1 C :   -0.043870
   2 C :   -0.043571
   3 C :    0.002331
   4 O :   -0.102359
   5 C :    0.087152
   6 O :   -0.101420
   7 H :    0.028569
   8 H :    0.026096
   9 H :    0.022765
  10 H :    0.030051
  11 H :    0.023451
  12 H :    0.023643
  13 H :    0.027297
  14 H :    0.029892
  15 H :    0.055617
  16 H :   -0.000889

  Mayer bond orders larger than 0.1
B(  0-C ,  1-C ) :   1.1165 B(  0-C ,  7-H ) :   0.9606 B(  0-C ,  8-H ) :   0.9659
B(  0-C ,  9-H ) :   0.9650 B(  1-C ,  2-C ) :   1.0991 B(  1-C , 10-H ) :   0.9316
B(  1-C , 11-H ) :   0.9354 B(  2-C ,  3-C ) :   1.0018 B(  2-C , 12-H ) :   0.9239
B(  2-C , 13-H ) :   0.9239 B(  3-C ,  4-O ) :   1.1752 B(  3-C ,  5-C ) :   0.9423
B(  3-C , 14-H ) :   0.8680 B(  4-O , 15-H ) :   0.9430 B(  5-C ,  6-O ) :   2.1225
B(  5-C , 16-H ) :   0.9235 B(  6-O , 15-H ) :   0.1022

FINAL SINGLE POINT ENERGY      -346.303049242924

DIPOLE MOMENT
-------------
                                X             Y             Z
Electronic contribution:      9.32549       5.88153      -0.10037
Nuclear contribution   :     -9.79293      -6.14562       0.68745
                        -----------------------------------------
Total Dipole Moment    :     -0.46744      -0.26408       0.58708
                        -----------------------------------------
Magnitude (a.u.)       :      0.79555
Magnitude (Debye)      :      2.02213

                             ****ORCA TERMINATED NORMALLY****
TOTAL RUN TIME: 0 days 0 hours 0 minutes 6 seconds 655 msec
