                         Program Version 3.0.3 - RELEASE   -
|  1> ! RI PBE def2-SVP def2-SVP/J NBO PAL2
|  2> % maxcore 2000
|  3> % output
|  4>     # printlevel mini
|  5>     print[ P_Basis ] 0
|  6>     print[ P_SCFInfo ] 1
|  7>     print[ P_SCFIterInfo ] 1
|  8>     print[ P_OrbEn ] 0
|  9>     print[ P_Cartesian ] 0
| 10> end
| 11> *xyz 0 1
| 12>  C        0.9970300000     0.0907760000    -0.1765460000
| 13>  C        2.5075600000     0.0819930000    -0.0138640000
| 14>  C        2.9547230000    -0.5972780000     1.2718490000
| 15>  C        4.4596660000    -0.5890520000     1.4188740000
| 16>  O        4.8734890000    -1.1647050000     2.6689260000
| 17>  C        5.0387820000    -2.4835750000     2.6913750000
| 18>  O        4.8823310000    -3.2356260000     1.7734570000
| 19>  H        0.6987930000     0.5801490000    -1.1062310000
| 20>  H        0.5143120000     0.6215890000     0.6486120000
| 21>  H        0.5975010000    -0.9267280000    -0.1929740000
| 22>  H        2.8846660000     1.1112130000    -0.0329980000
| 23>  H        2.9653110000    -0.4264850000    -0.8697980000
| 24>  H        2.6007440000    -1.6326950000     1.2857620000
| 25>  H        2.5089580000    -0.0920000000     2.1355030000
| 26>  H        4.8473270000     0.4307890000     1.4423400000
| 27>  H        4.9361150000    -1.1358260000     0.6026140000
| 28>  H        5.3532120000    -2.7889490000     3.7003990000
| 29> *
| 30>
| 31>                          ****END OF INPUT****
 Total Charge           Charge          ....    0
 Multiplicity           Mult            ....    1
 Number of Electrons    NEL             ....   56
 Basis Dimension        Dim             ....  148

MULLIKEN ATOMIC CHARGES
-----------------------
   0 C :   -0.001908
   1 C :   -0.072712
   2 C :   -0.041351
   3 C :    0.172513
   4 O :   -0.243373
   5 C :    0.212127
   6 O :   -0.212489
   7 H :    0.020645
   8 H :    0.019765
   9 H :    0.021155
  10 H :    0.013355
  11 H :    0.019513
  12 H :    0.025464
  13 H :    0.018643
  14 H :    0.019375
  15 H :    0.024681
  16 H :    0.004597
Sum of atomic charges:   -0.0000000

LOEWDIN ATOMIC CHARGES
----------------------
   0 C :   -0.063124
   1 C :   -0.044175
   2 C :   -0.053833
   3 C :    0.073230
   4 O :   -0.057533
   5 C :    0.070640
   6 O :   -0.147789
   7 H :    0.027984
   8 H :    0.025500
   9 H :    0.026497
  10 H :    0.023006
  11 H :    0.026144
  12 H :    0.029762
  13 H :    0.026383
  14 H :    0.023519
  15 H :    0.018820
  16 H :   -0.005031

  Mayer bond orders larger than 0.1
B(  0-C ,  1-C ) :   1.1173 B(  0-C ,  7-H ) :   0.9609 B(  0-C ,  8-H ) :   0.9665
B(  0-C ,  9-H ) :   0.9662 B(  1-C ,  2-C ) :   1.0922 B(  1-C , 10-H ) :   0.9403
B(  1-C , 11-H ) :   0.9400 B(  2-C ,  3-C ) :   1.0964 B(  2-C , 12-H ) :   0.9297
B(  2-C , 13-H ) :   0.9315 B(  3-C ,  4-O ) :   0.9247 B(  3-C , 14-H ) :   0.9412
B(  3-C , 15-H ) :   0.9308 B(  4-O ,  5-C ) :   1.2087 B(  4-O ,  6-O ) :   0.1071
B(  5-C ,  6-O ) :   2.0270 B(  5-C , 16-H ) :   0.9344

FINAL SINGLE POINT ENERGY      -346.323301300365

DIPOLE MOMENT
-------------
                                X             Y             Z
Electronic contribution:      8.11803      -5.97525       5.82837
Nuclear contribution   :     -8.31085       6.69276      -5.79430
                        -----------------------------------------
Total Dipole Moment    :     -0.19282       0.71751       0.03408
                        -----------------------------------------
Magnitude (a.u.)       :      0.74375
Magnitude (Debye)      :      1.89046

                             ****ORCA TERMINATED NORMALLY****
TOTAL RUN TIME: 0 days 0 hours 0 minutes 7 seconds 633 msec
