                         Program Version 3.0.3 - RELEASE   -
|  1> ! RI PBE def2-SVP def2-SVP/J NBO PAL2
|  2> % maxcore 2000
|  3> % output
|  4>     # printlevel mini
|  5>     print[ P_Basis ] 0
|  6>     print[ P_SCFInfo ] 1
|  7>     print[ P_SCFIterInfo ] 1
|  8>     print[ P_OrbEn ] 0
|  9>     print[ P_Cartesian ] 0
| 10> end
| 11> *xyz 0 1
| 12>  C        1.3061830000    -0.6869000000    -0.1853960000
| 13>  C        1.5978560000     0.6989270000     0.3697200000
| 14>  C        1.9039860000     1.7367350000    -0.7002370000
| 15>  C        0.6959010000     2.0938910000    -1.5451590000
| 16>  O        1.0061350000     3.0653940000    -2.5108920000
| 17>  O        2.3355140000     2.9659210000    -0.1346840000
| 18>  C        3.6877370000     2.9959550000     0.2361920000
| 19>  H        1.1674620000    -1.4075790000     0.6230260000
| 20>  H        2.1304780000    -1.0453240000    -0.8085170000
| 21>  H        0.4000260000    -0.7036610000    -0.7945390000
| 22>  H        2.4530430000     0.6381080000     1.0493770000
| 23>  H        0.7544810000     1.0576060000     0.9692050000
| 24>  H        2.6948050000     1.3602760000    -1.3690880000
| 25>  H       -0.1077870000     2.4385230000    -0.8764790000
| 26>  H        0.3355100000     1.2130070000    -2.0793440000
| 27>  H        1.4734910000     3.7627000000    -2.0377530000
| 28>  H        3.9014730000     4.0010980000     0.6011760000
| 29>  H        4.3415800000     2.7812790000    -0.6197120000
| 30>  H        3.9168190000     2.2818340000     1.0364920000
| 31> *
| 32>
| 33>                          ****END OF INPUT****
 Total Charge           Charge          ....    0
 Multiplicity           Mult            ....    1
 Number of Electrons    NEL             ....   58
 Basis Dimension        Dim             ....  158

MULLIKEN ATOMIC CHARGES
-----------------------
   0 C :   -0.039948
   1 C :    0.002411
   2 C :    0.006504
   3 C :    0.227139
   4 O :   -0.285678
   5 O :   -0.359661
   6 C :    0.153702
   7 H :    0.026042
   8 H :    0.024570
   9 H :    0.030185
  10 H :    0.008852
  11 H :    0.014047
  12 H :   -0.009603
  13 H :   -0.006554
  14 H :    0.006402
  15 H :    0.148402
  16 H :    0.030904
  17 H :    0.011616
  18 H :    0.010669
Sum of atomic charges:   -0.0000000

LOEWDIN ATOMIC CHARGES
----------------------
   0 C :   -0.066816
   1 C :   -0.055360
   2 C :    0.026190
   3 C :    0.049090
   4 O :   -0.121079
   5 O :   -0.146946
   6 C :    0.050993
   7 H :    0.031229
   8 H :    0.027181
   9 H :    0.025426
  10 H :    0.025304
  11 H :    0.025854
  12 H :    0.006110
  13 H :    0.006340
  14 H :    0.021643
  15 H :    0.057726
  16 H :    0.024057
  17 H :    0.007903
  18 H :    0.005154

  Mayer bond orders larger than 0.1
B(  0-C ,  1-C ) :   1.1037 B(  0-C ,  7-H ) :   0.9541 B(  0-C ,  8-H ) :   0.9650
B(  0-C ,  9-H ) :   0.9669 B(  1-C ,  2-C ) :   1.0566 B(  1-C , 10-H ) :   0.9188
B(  1-C , 11-H ) :   0.9230 B(  2-C ,  3-C ) :   1.0270 B(  2-C ,  5-O ) :   0.9816
B(  2-C , 12-H ) :   0.9037 B(  3-C ,  4-O ) :   1.0808 B(  3-C , 13-H ) :   0.9186
B(  3-C , 14-H ) :   0.9294 B(  4-O , 15-H ) :   0.9705 B(  5-O ,  6-C ) :   1.0068
B(  6-C , 16-H ) :   0.9746 B(  6-C , 17-H ) :   0.9567 B(  6-C , 18-H ) :   0.9540

FINAL SINGLE POINT ENERGY      -347.484694393000

DIPOLE MOMENT
-------------
                                X             Y             Z
Electronic contribution:     -1.22218       5.35953      -2.73885
Nuclear contribution   :      1.73761      -5.69506       3.35429
                        -----------------------------------------
Total Dipole Moment    :      0.51543      -0.33553       0.61544
                        -----------------------------------------
Magnitude (a.u.)       :      0.87006
Magnitude (Debye)      :      2.21152

                             ****ORCA TERMINATED NORMALLY****
TOTAL RUN TIME: 0 days 0 hours 0 minutes 8 seconds 240 msec
