                         Program Version 3.0.3 - RELEASE   -
|  1> ! RI PBE def2-SVP def2-SVP/J NBO PAL2
|  2> % maxcore 2000
|  3> % output
|  4>     # printlevel mini
|  5>     print[ P_Basis ] 0
|  6>     print[ P_SCFInfo ] 1
|  7>     print[ P_SCFIterInfo ] 1
|  8>     print[ P_OrbEn ] 0
|  9>     print[ P_Cartesian ] 0
| 10> end
| 11> *xyz 0 1
| 12>  C        1.0464740000    -0.0019290000     0.6453670000
| 13>  C        2.5357490000     0.1755810000     0.4058330000
| 14>  C        2.9060980000     0.0043430000    -1.0546630000
| 15>  C        4.3753290000     0.1742150000    -1.3251980000
| 16>  O        5.2168580000     0.4216120000    -0.5040620000
| 17>  O        4.6461060000     0.0126240000    -2.6294370000
| 18>  C        6.0158420000     0.1544020000    -2.9895350000
| 19>  H        0.7986450000     0.1247370000     1.7012690000
| 20>  H        0.7099770000    -0.9980340000     0.3436860000
| 21>  H        0.4615650000     0.7280090000     0.0783250000
| 22>  H        3.1033240000    -0.5409170000     1.0058070000
| 23>  H        2.8579080000     1.1643070000     0.7436420000
| 24>  H        2.3680470000     0.7193550000    -1.6870760000
| 25>  H        2.6132640000    -0.9844370000    -1.4251350000
| 26>  H        6.0593230000    -0.0047850000    -4.0648550000
| 27>  H        6.6295260000    -0.5833280000    -2.4703690000
| 28>  H        6.3797750000     1.1515560000    -2.7372980000
| 29> *
| 30>
| 31>                          ****END OF INPUT****
 Total Charge           Charge          ....    0
 Multiplicity           Mult            ....    1
 Number of Electrons    NEL             ....   56
 Basis Dimension        Dim             ....  148

MULLIKEN ATOMIC CHARGES
-----------------------
   0 C :   -0.002777
   1 C :   -0.045392
   2 C :   -0.006380
   3 C :    0.093948
   4 O :   -0.194752
   5 O :   -0.261595
   6 C :    0.145351
   7 H :    0.021912
   8 H :    0.012639
   9 H :    0.015948
  10 H :    0.025663
  11 H :    0.021082
  12 H :    0.035872
  13 H :    0.030367
  14 H :    0.037594
  15 H :    0.036276
  16 H :    0.034246
Sum of atomic charges:   -0.0000000

LOEWDIN ATOMIC CHARGES
----------------------
   0 C :   -0.065543
   1 C :   -0.041813
   2 C :   -0.068805
   3 C :    0.044292
   4 O :   -0.149973
   5 O :   -0.071931
   6 C :    0.062451
   7 H :    0.028451
   8 H :    0.023509
   9 H :    0.024366
  10 H :    0.029712
  11 H :    0.028575
  12 H :    0.043974
  13 H :    0.042640
  14 H :    0.025324
  15 H :    0.022616
  16 H :    0.022155

  Mayer bond orders larger than 0.1
B(  0-C ,  1-C ) :   1.1186 B(  0-C ,  7-H ) :   0.9625 B(  0-C ,  8-H ) :   0.9638
B(  0-C ,  9-H ) :   0.9629 B(  1-C ,  2-C ) :   1.0891 B(  1-C , 10-H ) :   0.9386
B(  1-C , 11-H ) :   0.9396 B(  2-C ,  3-C ) :   0.9817 B(  2-C , 12-H ) :   0.9116
B(  2-C , 13-H ) :   0.9146 B(  3-C ,  4-O ) :   2.0717 B(  3-C ,  5-O ) :   1.2011
B(  5-O ,  6-C ) :   0.9434 B(  6-C , 14-H ) :   0.9752 B(  6-C , 15-H ) :   0.9693
B(  6-C , 16-H ) :   0.9690

FINAL SINGLE POINT ENERGY      -346.330387603111

DIPOLE MOMENT
-------------
                                X             Y             Z
Electronic contribution:      5.81221       0.42155      -2.70134
Nuclear contribution   :     -6.04332      -0.53814       2.15750
                        -----------------------------------------
Total Dipole Moment    :     -0.23111      -0.11659      -0.54384
                        -----------------------------------------
Magnitude (a.u.)       :      0.60230
Magnitude (Debye)      :      1.53093

                             ****ORCA TERMINATED NORMALLY****
TOTAL RUN TIME: 0 days 0 hours 0 minutes 7 seconds 699 msec
