                         Program Version 3.0.3 - RELEASE   -
|  1> ! RI PBE def2-SVP def2-SVP/J NBO PAL2
|  2> % maxcore 2000
|  3> % output
|  4>     # printlevel mini
|  5>     print[ P_Basis ] 0
|  6>     print[ P_SCFInfo ] 1
|  7>     print[ P_SCFIterInfo ] 1
|  8>     print[ P_OrbEn ] 0
|  9>     print[ P_Cartesian ] 0
| 10> end
| 11> *xyz 0 1
| 12>  C        0.9211960000    -0.0837620000     0.1655890000
| 13>  C        2.4364640000    -0.0227300000     0.0792780000
| 14>  C        2.9310160000    -0.1486260000    -1.3424190000
| 15>  O        4.3394390000    -0.0774850000    -1.3491740000
| 16>  C        4.8775440000    -0.1843840000    -2.6207510000
| 17>  C        6.2594870000    -0.7131360000    -2.7155810000
| 18>  C        5.1027120000    -1.5445190000    -3.2070140000
| 19>  H        0.5812280000     0.0105360000     1.1986690000
| 20>  H        0.5370750000    -1.0310660000    -0.2231590000
| 21>  H        0.4562220000     0.7218280000    -0.4096030000
| 22>  H        2.8842020000    -0.8224880000     0.6771360000
| 23>  H        2.8039330000     0.9204460000     0.4948690000
| 24>  H        2.5114690000     0.6585540000    -1.9636570000
| 25>  H        2.5997790000    -1.1010090000    -1.7830620000
| 26>  H        4.5858350000     0.6160000000    -3.3006850000
| 27>  H        6.7206430000    -1.0152210000    -1.7838710000
| 28>  H        6.9328600000    -0.2722750000    -3.4396060000
| 29>  H        4.8161830000    -2.3906010000    -2.5945050000
| 30>  H        4.9728220000    -1.6840610000    -4.2731440000
| 31> *
| 32>
| 33>                          ****END OF INPUT****
 Total Charge           Charge          ....    0
 Multiplicity           Mult            ....    1
 Number of Electrons    NEL             ....   56
 Basis Dimension        Dim             ....  158

MULLIKEN ATOMIC CHARGES
-----------------------
   0 C :   -0.032505
   1 C :   -0.033692
   2 C :    0.179350
   3 O :   -0.304694
   4 C :    0.050582
   5 C :   -0.035151
   6 C :   -0.063235
   7 H :    0.023342
   8 H :    0.018175
   9 H :    0.020424
  10 H :    0.019418
  11 H :    0.018138
  12 H :   -0.010031
  13 H :   -0.013869
  14 H :    0.008912
  15 H :    0.044369
  16 H :    0.036271
  17 H :    0.038000
  18 H :    0.036195
Sum of atomic charges:    0.0000000

LOEWDIN ATOMIC CHARGES
----------------------
   0 C :   -0.063655
   1 C :   -0.054788
   2 C :    0.063829
   3 O :   -0.125858
   4 C :    0.034251
   5 C :   -0.051620
   6 C :   -0.065527
   7 H :    0.028852
   8 H :    0.024286
   9 H :    0.024812
  10 H :    0.026972
  11 H :    0.026659
  12 H :    0.003622
  13 H :    0.001953
  14 H :    0.007743
  15 H :    0.033641
  16 H :    0.028640
  17 H :    0.030056
  18 H :    0.026130

  Mayer bond orders larger than 0.1
B(  0-C ,  1-C ) :   1.1010 B(  0-C ,  7-H ) :   0.9637 B(  0-C ,  8-H ) :   0.9675
B(  0-C ,  9-H ) :   0.9675 B(  1-C ,  2-C ) :   1.0790 B(  1-C , 10-H ) :   0.9356
B(  1-C , 11-H ) :   0.9381 B(  2-C ,  3-O ) :   1.0051 B(  2-C , 12-H ) :   0.9299
B(  2-C , 13-H ) :   0.9276 B(  3-O ,  4-C ) :   1.0787 B(  4-C ,  5-C ) :   0.9982
B(  4-C ,  6-C ) :   1.0007 B(  4-C , 14-H ) :   0.9309 B(  5-C ,  6-C ) :   1.0345
B(  5-C , 15-H ) :   0.9468 B(  5-C , 16-H ) :   0.9420 B(  6-C , 17-H ) :   0.9413
B(  6-C , 18-H ) :   0.9447

FINAL SINGLE POINT ENERGY      -310.402525169240

DIPOLE MOMENT
-------------
                                X             Y             Z
Electronic contribution:      4.59860       0.60710      -1.33890
Nuclear contribution   :     -4.88297      -0.66033       1.09135
                        -----------------------------------------
Total Dipole Moment    :     -0.28437      -0.05323      -0.24756
                        -----------------------------------------
Magnitude (a.u.)       :      0.38076
Magnitude (Debye)      :      0.96783

                             ****ORCA TERMINATED NORMALLY****
TOTAL RUN TIME: 0 days 0 hours 0 minutes 7 seconds 467 msec
