                         Program Version 3.0.3 - RELEASE   -
|  1> ! RI PBE def2-SVP def2-SVP/J NBO PAL2
|  2> % maxcore 2000
|  3> % output
|  4>     # printlevel mini
|  5>     print[ P_Basis ] 0
|  6>     print[ P_SCFInfo ] 1
|  7>     print[ P_SCFIterInfo ] 1
|  8>     print[ P_OrbEn ] 0
|  9>     print[ P_Cartesian ] 0
| 10> end
| 11> *xyz 0 1
| 12>  C        1.4521520000     1.1204820000     0.2346910000
| 13>  C        2.3377620000     0.1363150000     0.2591500000
| 14>  C        3.1058640000    -0.2684960000     1.4682880000
| 15>  O        4.4762540000    -0.3541890000     1.1357720000
| 16>  C        5.2531220000    -0.8004900000     2.1933930000
| 17>  C        6.6736600000    -0.3769080000     2.1958490000
| 18>  C        5.7217190000     0.1838810000     3.2205820000
| 19>  H        0.8910560000     1.3574400000    -0.6616780000
| 20>  H        1.2518810000     1.7242540000     1.1146050000
| 21>  H        2.5324930000    -0.4490840000    -0.6361920000
| 22>  H        2.7538740000    -1.2524170000     1.8198730000
| 23>  H        2.9484340000     0.4474690000     2.2863900000
| 24>  H        5.0144630000    -1.8091440000     2.5306530000
| 25>  H        6.9761020000     0.2841590000     1.3936870000
| 26>  H        7.4245920000    -1.0897230000     2.5120660000
| 27>  H        5.4117260000     1.2126200000     3.0843550000
| 28>  H        5.8115260000    -0.1374670000     4.2508960000
| 29> *
| 30>
| 31>                          ****END OF INPUT****
 Total Charge           Charge          ....    0
 Multiplicity           Mult            ....    1
 Number of Electrons    NEL             ....   54
 Basis Dimension        Dim             ....  148

MULLIKEN ATOMIC CHARGES
-----------------------
   0 C :   -0.040031
   1 C :   -0.079958
   2 C :    0.248997
   3 O :   -0.311661
   4 C :    0.049564
   5 C :   -0.032001
   6 C :   -0.069094
   7 H :    0.029882
   8 H :    0.022441
   9 H :    0.015630
  10 H :    0.003389
  11 H :   -0.006608
  12 H :    0.004196
  13 H :    0.048378
  14 H :    0.035982
  15 H :    0.044168
  16 H :    0.036726
Sum of atomic charges:    0.0000000

LOEWDIN ATOMIC CHARGES
----------------------
   0 C :   -0.054012
   1 C :   -0.034912
   2 C :    0.065189
   3 O :   -0.127064
   4 C :    0.033872
   5 C :   -0.049959
   6 C :   -0.066882
   7 H :    0.026704
   8 H :    0.022769
   9 H :    0.030309
  10 H :    0.014979
  11 H :    0.009659
  12 H :    0.007124
  13 H :    0.034959
  14 H :    0.029157
  15 H :    0.031653
  16 H :    0.026456

  Mayer bond orders larger than 0.1
B(  0-C ,  1-C ) :   2.0115 B(  0-C ,  7-H ) :   0.9469 B(  0-C ,  8-H ) :   0.9467
B(  1-C ,  2-C ) :   1.0481 B(  1-C ,  9-H ) :   0.9583 B(  2-C ,  3-O ) :   0.9718
B(  2-C , 10-H ) :   0.9084 B(  2-C , 11-H ) :   0.9252 B(  3-O ,  4-C ) :   1.0813
B(  4-C ,  5-C ) :   1.0034 B(  4-C ,  6-C ) :   0.9959 B(  4-C , 12-H ) :   0.9306
B(  5-C ,  6-C ) :   1.0340 B(  5-C , 13-H ) :   0.9464 B(  5-C , 14-H ) :   0.9414
B(  6-C , 15-H ) :   0.9402 B(  6-C , 16-H ) :   0.9453

FINAL SINGLE POINT ENERGY      -309.175231095268

DIPOLE MOMENT
-------------
                                X             Y             Z
Electronic contribution:      0.33864      -0.90396      -1.80155
Nuclear contribution   :     -0.49310       0.78579       2.16282
                        -----------------------------------------
Total Dipole Moment    :     -0.15446      -0.11817       0.36126
                        -----------------------------------------
Magnitude (a.u.)       :      0.41029
Magnitude (Debye)      :      1.04286

                             ****ORCA TERMINATED NORMALLY****
TOTAL RUN TIME: 0 days 0 hours 0 minutes 6 seconds 780 msec
