                         Program Version 3.0.3 - RELEASE   -
|  1> ! RI PBE def2-SVP def2-SVP/J NBO PAL2
|  2> % maxcore 2000
|  3> % output
|  4>     # printlevel mini
|  5>     print[ P_Basis ] 0
|  6>     print[ P_SCFInfo ] 1
|  7>     print[ P_SCFIterInfo ] 1
|  8>     print[ P_OrbEn ] 0
|  9>     print[ P_Cartesian ] 0
| 10> end
| 11> *xyz 0 1
| 12>  C        0.0470340000    -0.9087470000    -1.4437730000
| 13>  C        1.1298020000    -1.1084960000    -0.6875590000
| 14>  C        0.9053170000    -1.1732670000     0.7736940000
| 15>  O        1.7679580000    -1.3467640000     1.5950670000
| 16>  C        2.5166170000    -1.2697840000    -1.1602680000
| 17>  C        2.8120030000    -1.9788250000    -2.4557730000
| 18>  C        3.0157920000    -0.5083150000    -2.3599300000
| 19>  H       -0.9292680000    -0.8036390000    -0.9828630000
| 20>  H        0.0860180000    -0.8431540000    -2.5253980000
| 21>  H       -0.1557360000    -1.0460020000     1.0762210000
| 22>  H        3.2223810000    -1.4202450000    -0.3527920000
| 23>  H        1.9605100000    -2.3419250000    -3.0191350000
| 24>  H        3.6821080000    -2.6224610000    -2.4863980000
| 25>  H        2.3046600000     0.1405770000    -2.8574210000
| 26>  H        4.0281060000    -0.1259540000    -2.3236720000
| 27> *
| 28>
| 29>                          ****END OF INPUT****
 Total Charge           Charge          ....    0
 Multiplicity           Mult            ....    1
 Number of Electrons    NEL             ....   52
 Basis Dimension        Dim             ....  138

MULLIKEN ATOMIC CHARGES
-----------------------
   0 C :   -0.050774
   1 C :   -0.017824
   2 C :    0.141241
   3 O :   -0.154923
   4 C :   -0.097220
   5 C :   -0.023159
   6 C :   -0.021992
   7 H :    0.028708
   8 H :    0.032459
   9 H :   -0.026545
  10 H :    0.022341
  11 H :    0.039255
  12 H :    0.045815
  13 H :    0.039788
  14 H :    0.042828
Sum of atomic charges:    0.0000000

LOEWDIN ATOMIC CHARGES
----------------------
   0 C :   -0.017603
   1 C :   -0.060355
   2 C :    0.084138
   3 O :   -0.106158
   4 C :   -0.038525
   5 C :   -0.027752
   6 C :   -0.026915
   7 H :    0.028016
   8 H :    0.025602
   9 H :   -0.009484
  10 H :    0.031497
  11 H :    0.026854
  12 H :    0.032151
  13 H :    0.026891
  14 H :    0.031641

  Mayer bond orders larger than 0.1
B(  0-C ,  1-C ) :   1.8469 B(  0-C ,  3-O ) :   0.1005 B(  0-C ,  7-H ) :   0.9282
B(  0-C ,  8-H ) :   0.9370 B(  1-C ,  2-C ) :   0.9877 B(  1-C ,  4-C ) :   1.0741
B(  2-C ,  3-O ) :   2.1336 B(  2-C ,  9-H ) :   0.9241 B(  4-C ,  5-C ) :   0.9551
B(  4-C ,  6-C ) :   0.9597 B(  4-C , 10-H ) :   0.9284 B(  5-C ,  6-C ) :   1.0523
B(  5-C , 11-H ) :   0.9474 B(  5-C , 12-H ) :   0.9478 B(  6-C , 13-H ) :   0.9485
B(  6-C , 14-H ) :   0.9480

FINAL SINGLE POINT ENERGY      -308.001177737466

DIPOLE MOMENT
-------------
                                X             Y             Z
Electronic contribution:     -0.56635      -0.29035       5.72004
Nuclear contribution   :      0.21761       0.40583      -6.65827
                        -----------------------------------------
Total Dipole Moment    :     -0.34875       0.11548      -0.93823
                        -----------------------------------------
Magnitude (a.u.)       :      1.00759
Magnitude (Debye)      :      2.56109

                             ****ORCA TERMINATED NORMALLY****
TOTAL RUN TIME: 0 days 0 hours 0 minutes 6 seconds 771 msec
