                         Program Version 3.0.3 - RELEASE   -
|  1> ! RI PBE def2-SVP def2-SVP/J NBO PAL2
|  2> % maxcore 2000
|  3> % output
|  4>     # printlevel mini
|  5>     print[ P_Basis ] 0
|  6>     print[ P_SCFInfo ] 1
|  7>     print[ P_SCFIterInfo ] 1
|  8>     print[ P_OrbEn ] 0
|  9>     print[ P_Cartesian ] 0
| 10> end
| 11> *xyz 0 1
| 12>  C        1.2836440000    -0.0126830000     0.5895830000
| 13>  C        1.8673630000     1.1279310000     0.2376900000
| 14>  C        3.2938880000     1.3153160000    -0.1154040000
| 15>  O        3.6821760000     2.4266660000    -0.4188980000
| 16>  C        4.2225000000     0.1597110000    -0.0953380000
| 17>  C        5.3378020000     0.1655080000    -1.1149970000
| 18>  C        5.6523400000     0.4429250000     0.3033960000
| 19>  H        1.8228840000    -0.9503460000     0.6528270000
| 20>  H        0.2272540000    -0.0468480000     0.8305230000
| 21>  H        1.2940550000     2.0488740000     0.1852080000
| 22>  H        3.8210690000    -0.8046840000     0.1823550000
| 23>  H        5.3386970000     1.0067040000    -1.7965280000
| 24>  H        5.6190110000    -0.7902230000    -1.5382770000
| 25>  H        5.8640230000     1.4700230000     0.5723930000
| 26>  H        6.1569940000    -0.3157660000     0.8876680000
| 27> *
| 28>
| 29>                          ****END OF INPUT****
 Total Charge           Charge          ....    0
 Multiplicity           Mult            ....    1
 Number of Electrons    NEL             ....   52
 Basis Dimension        Dim             ....  138

MULLIKEN ATOMIC CHARGES
-----------------------
   0 C :   -0.001861
   1 C :   -0.016311
   2 C :    0.104609
   3 O :   -0.178616
   4 C :   -0.163746
   5 C :    0.001960
   6 C :   -0.007234
   7 H :    0.030201
   8 H :    0.042756
   9 H :    0.006933
  10 H :    0.001072
  11 H :    0.053671
  12 H :    0.036501
  13 H :    0.048308
  14 H :    0.041758
Sum of atomic charges:   -0.0000000

LOEWDIN ATOMIC CHARGES
----------------------
   0 C :   -0.008571
   1 C :   -0.047284
   2 C :    0.052196
   3 O :   -0.137096
   4 C :   -0.074983
   5 C :   -0.015584
   6 C :   -0.016644
   7 H :    0.025620
   8 H :    0.033919
   9 H :    0.037598
  10 H :    0.024237
  11 H :    0.033804
  12 H :    0.029554
  13 H :    0.032858
  14 H :    0.030373

  Mayer bond orders larger than 0.1
B(  0-C ,  1-C ) :   1.9041 B(  0-C ,  7-H ) :   0.9387 B(  0-C ,  8-H ) :   0.9372
B(  1-C ,  2-C ) :   1.0468 B(  1-C ,  9-H ) :   0.9455 B(  2-C ,  3-O ) :   2.0817
B(  2-C ,  4-C ) :   1.0031 B(  4-C ,  5-C ) :   0.9508 B(  4-C ,  6-C ) :   0.9517
B(  4-C , 10-H ) :   0.9291 B(  5-C ,  6-C ) :   1.0606 B(  5-C , 11-H ) :   0.9411
B(  5-C , 12-H ) :   0.9474 B(  6-C , 13-H ) :   0.9409 B(  6-C , 14-H ) :   0.9481

FINAL SINGLE POINT ENERGY      -308.007290775570

DIPOLE MOMENT
-------------
                                X             Y             Z
Electronic contribution:     -1.25804       3.57647      -0.41435
Nuclear contribution   :      0.99922      -4.61677       0.68091
                        -----------------------------------------
Total Dipole Moment    :     -0.25883      -1.04031       0.26656
                        -----------------------------------------
Magnitude (a.u.)       :      1.10467
Magnitude (Debye)      :      2.80784

                             ****ORCA TERMINATED NORMALLY****
TOTAL RUN TIME: 0 days 0 hours 0 minutes 7 seconds 179 msec
