                         Program Version 3.0.3 - RELEASE   -
|  1> ! RI PBE def2-SVP def2-SVP/J NBO PAL2
|  2> % maxcore 2000
|  3> % output
|  4>     # printlevel mini
|  5>     print[ P_Basis ] 0
|  6>     print[ P_SCFInfo ] 1
|  7>     print[ P_SCFIterInfo ] 1
|  8>     print[ P_OrbEn ] 0
|  9>     print[ P_Cartesian ] 0
| 10> end
| 11> *xyz 0 1
| 12>  C        1.7834450000     1.2611000000    -2.5900910000
| 13>  C        2.6526060000     0.5460980000    -2.1763790000
| 14>  C        3.6808140000    -0.3391330000    -1.6576860000
| 15>  O        4.9536040000     0.0871360000    -2.0905830000
| 16>  C        5.9661660000    -0.7182750000    -1.5865230000
| 17>  C        7.2923680000    -0.0789400000    -1.4210140000
| 18>  C        6.4846550000    -0.4547430000    -0.2060070000
| 19>  H        1.0172670000     1.8998410000    -2.9612870000
| 20>  H        3.4829070000    -1.3656630000    -2.0013150000
| 21>  H        3.6345260000    -0.3518110000    -0.5593010000
| 22>  H        5.9291920000    -1.7522980000    -1.9282570000
| 23>  H        7.3486660000     0.9737900000    -1.6665800000
| 24>  H        8.1754950000    -0.6562110000    -1.6628930000
| 25>  H        6.0232400000     0.3585810000     0.3407160000
| 26>  H        6.8070590000    -1.2922640000     0.4001010000
| 27> *
| 28>
| 29>                          ****END OF INPUT****
 Total Charge           Charge          ....    0
 Multiplicity           Mult            ....    1
 Number of Electrons    NEL             ....   52
 Basis Dimension        Dim             ....  138

MULLIKEN ATOMIC CHARGES
-----------------------
   0 C :   -0.444017
   1 C :    0.312227
   2 C :    0.241844
   3 O :   -0.300228
   4 C :    0.047919
   5 C :   -0.017369
   6 C :   -0.072583
   7 H :    0.006012
   8 H :    0.021162
   9 H :    0.028152
  10 H :    0.007316
  11 H :    0.048989
  12 H :    0.034264
  13 H :    0.046040
  14 H :    0.040271
Sum of atomic charges:   -0.0000000

LOEWDIN ATOMIC CHARGES
----------------------
   0 C :   -0.063090
   1 C :   -0.028887
   2 C :    0.058122
   3 O :   -0.119127
   4 C :    0.033689
   5 C :   -0.044708
   6 C :   -0.065563
   7 H :    0.036483
   8 H :    0.029065
   9 H :    0.029531
  10 H :    0.008613
  11 H :    0.036091
  12 H :    0.029677
  13 H :    0.032561
  14 H :    0.027545

  Mayer bond orders larger than 0.1
B(  0-C ,  1-C ) :   2.4007 B(  0-C ,  7-H ) :   1.0895 B(  1-C ,  2-C ) :   1.0113
B(  2-C ,  3-O ) :   1.0186 B(  2-C ,  8-H ) :   0.9059 B(  2-C ,  9-H ) :   0.9036
B(  3-O ,  4-C ) :   1.0698 B(  4-C ,  5-C ) :   1.0032 B(  4-C ,  6-C ) :   0.9962
B(  4-C , 10-H ) :   0.9309 B(  5-C ,  6-C ) :   1.0366 B(  5-C , 11-H ) :   0.9457
B(  5-C , 12-H ) :   0.9412 B(  6-C , 13-H ) :   0.9397 B(  6-C , 14-H ) :   0.9450

FINAL SINGLE POINT ENERGY      -307.928326101123

DIPOLE MOMENT
-------------
                                X             Y             Z
Electronic contribution:     -4.10062       1.78368      -2.67905
Nuclear contribution   :      4.14627      -2.18933       3.01493
                        -----------------------------------------
Total Dipole Moment    :      0.04565      -0.40565       0.33588
                        -----------------------------------------
Magnitude (a.u.)       :      0.52863
Magnitude (Debye)      :      1.34368

                             ****ORCA TERMINATED NORMALLY****
TOTAL RUN TIME: 0 days 0 hours 0 minutes 6 seconds 559 msec
