                         Program Version 3.0.3 - RELEASE   -
|  1> ! RI PBE def2-SVP def2-SVP/J NBO PAL2
|  2> % maxcore 2000
|  3> % output
|  4>     # printlevel mini
|  5>     print[ P_Basis ] 0
|  6>     print[ P_SCFInfo ] 1
|  7>     print[ P_SCFIterInfo ] 1
|  8>     print[ P_OrbEn ] 0
|  9>     print[ P_Cartesian ] 0
| 10> end
| 11> *xyz 0 1
| 12>  C        0.3176370000     0.5853080000    -1.0231530000
| 13>  C        1.7764860000     0.2907930000    -0.9502880000
| 14>  C        2.5352060000     0.0839890000    -2.0181220000
| 15>  O        3.8748670000    -0.1334150000    -1.9269050000
| 16>  C        4.4558790000    -0.6789940000    -3.0702140000
| 17>  C        4.7738570000     0.2227250000    -4.2204850000
| 18>  C        5.8663130000    -0.3034440000    -3.3277630000
| 19>  H       -0.2676890000    -0.1512460000    -0.4633860000
| 20>  H       -0.0388420000     0.5804670000    -2.0558260000
| 21>  H        0.0832370000     1.5652320000    -0.5944840000
| 22>  H        2.2473580000     0.2538340000     0.0283450000
| 23>  H        2.1354310000     0.1022520000    -3.0309210000
| 24>  H        4.1413960000    -1.6978610000    -3.2835150000
| 25>  H        4.5100980000     1.2669410000    -4.1081320000
| 26>  H        4.6836720000    -0.1692250000    -5.2259270000
| 27>  H        6.3087090000     0.3952080000    -2.6292480000
| 28>  H        6.5386970000    -1.0603930000    -3.7103880000
| 29> *
| 30>
| 31>                          ****END OF INPUT****
 Total Charge           Charge          ....    0
 Multiplicity           Mult            ....    1
 Number of Electrons    NEL             ....   54
 Basis Dimension        Dim             ....  148

MULLIKEN ATOMIC CHARGES
-----------------------
   0 C :    0.031525
   1 C :   -0.122505
   2 C :    0.118400
   3 O :   -0.238203
   4 C :    0.043767
   5 C :   -0.058085
   6 C :   -0.036093
   7 H :    0.031921
   8 H :    0.012139
   9 H :    0.028229
  10 H :    0.000235
  11 H :   -0.013472
  12 H :    0.021610
  13 H :    0.049933
  14 H :    0.039444
  15 H :    0.052064
  16 H :    0.039091
Sum of atomic charges:   -0.0000000

LOEWDIN ATOMIC CHARGES
----------------------
   0 C :   -0.060261
   1 C :   -0.096066
   2 C :    0.018679
   3 O :   -0.066159
   4 C :    0.040386
   5 C :   -0.060398
   6 C :   -0.049041
   7 H :    0.032934
   8 H :    0.027944
   9 H :    0.032344
  10 H :    0.026633
  11 H :    0.008673
  12 H :    0.013449
  13 H :    0.034503
  14 H :    0.028565
  15 H :    0.036760
  16 H :    0.031057

  Mayer bond orders larger than 0.1
B(  0-C ,  1-C ) :   1.0887 B(  0-C ,  7-H ) :   0.9512 B(  0-C ,  8-H ) :   0.9626
B(  0-C ,  9-H ) :   0.9481 B(  1-C ,  2-C ) :   1.8485 B(  1-C , 10-H ) :   0.9566
B(  2-C ,  3-O ) :   1.0846 B(  2-C , 11-H ) :   0.9448 B(  3-O ,  4-C ) :   1.0414
B(  4-C ,  5-C ) :   0.9951 B(  4-C ,  6-C ) :   1.0050 B(  4-C , 12-H ) :   0.9386
B(  5-C ,  6-C ) :   1.0318 B(  5-C , 13-H ) :   0.9440 B(  5-C , 14-H ) :   0.9460
B(  6-C , 15-H ) :   0.9472 B(  6-C , 16-H ) :   0.9414

FINAL SINGLE POINT ENERGY      -309.187670968511

DIPOLE MOMENT
-------------
                                X             Y             Z
Electronic contribution:      2.99997      -0.98605       0.90478
Nuclear contribution   :     -3.02335       0.88535      -1.37967
                        -----------------------------------------
Total Dipole Moment    :     -0.02338      -0.10070      -0.47489
                        -----------------------------------------
Magnitude (a.u.)       :      0.48602
Magnitude (Debye)      :      1.23536

                             ****ORCA TERMINATED NORMALLY****
TOTAL RUN TIME: 0 days 0 hours 0 minutes 7 seconds 210 msec
