                         Program Version 3.0.3 - RELEASE   -
|  1> ! RI PBE def2-SVP def2-SVP/J NBO PAL2
|  2> % maxcore 2000
|  3> % output
|  4>     # printlevel mini
|  5>     print[ P_Basis ] 0
|  6>     print[ P_SCFInfo ] 1
|  7>     print[ P_SCFIterInfo ] 1
|  8>     print[ P_OrbEn ] 0
|  9>     print[ P_Cartesian ] 0
| 10> end
| 11> *xyz 0 1
| 12>  C        3.6602310000     0.7069360000    -2.5191020000
| 13>  C        4.1291950000     0.1151210000    -1.2354730000
| 14>  C        4.6934310000    -1.0859440000    -1.1145470000
| 15>  O        3.8940840000     0.9763170000    -0.2104090000
| 16>  C        4.2204450000     0.5475440000     1.0738760000
| 17>  C        5.6173930000     0.7391280000     1.5646910000
| 18>  C        4.5014070000     1.6220400000     2.0569630000
| 19>  H        3.8459700000     0.0284330000    -3.3500770000
| 20>  H        4.1757080000     1.6519950000    -2.7105970000
| 21>  H        2.5903410000     0.9257220000    -2.4691980000
| 22>  H        4.8264680000    -1.6979370000    -1.9953670000
| 23>  H        5.0388640000    -1.4769000000    -0.1683010000
| 24>  H        3.6692810000    -0.3327740000     1.3938400000
| 25>  H        6.3186940000     1.1738340000     0.8638940000
| 26>  H        6.0372890000    -0.0002200000     2.2355550000
| 27>  H        4.4723340000     2.6371990000     1.6820460000
| 28>  H        4.1410640000     1.4959250000     3.0698850000
| 29> *
| 30>
| 31>                          ****END OF INPUT****
 Total Charge           Charge          ....    0
 Multiplicity           Mult            ....    1
 Number of Electrons    NEL             ....   54
 Basis Dimension        Dim             ....  148

MULLIKEN ATOMIC CHARGES
-----------------------
   0 C :    0.074368
   1 C :   -0.013498
   2 C :   -0.092142
   3 O :   -0.241238
   4 C :    0.035545
   5 C :   -0.049152
   6 C :   -0.027319
   7 H :    0.016514
   8 H :    0.031570
   9 H :    0.037068
  10 H :    0.008154
  11 H :    0.016787
  12 H :    0.029410
  13 H :    0.046847
  14 H :    0.041363
  15 H :    0.048174
  16 H :    0.037549
Sum of atomic charges:    0.0000000

LOEWDIN ATOMIC CHARGES
----------------------
   0 C :   -0.061840
   1 C :    0.027633
   2 C :   -0.156386
   3 O :   -0.056613
   4 C :    0.042412
   5 C :   -0.055267
   6 C :   -0.048312
   7 H :    0.035813
   8 H :    0.038754
   9 H :    0.039593
  10 H :    0.026182
  11 H :    0.022028
  12 H :    0.016362
  13 H :    0.034980
  14 H :    0.029065
  15 H :    0.035173
  16 H :    0.030423

  Mayer bond orders larger than 0.1
B(  0-C ,  1-C ) :   1.0945 B(  0-C ,  7-H ) :   0.9506 B(  0-C ,  8-H ) :   0.9378
B(  0-C ,  9-H ) :   0.9415 B(  1-C ,  2-C ) :   1.8658 B(  1-C ,  3-O ) :   1.1069
B(  2-C , 10-H ) :   0.9206 B(  2-C , 11-H ) :   0.9341 B(  3-O ,  4-C ) :   1.0264
B(  4-C ,  5-C ) :   0.9995 B(  4-C ,  6-C ) :   0.9943 B(  4-C , 12-H ) :   0.9379
B(  5-C ,  6-C ) :   1.0356 B(  5-C , 13-H ) :   0.9433 B(  5-C , 14-H ) :   0.9462
B(  6-C , 15-H ) :   0.9446 B(  6-C , 16-H ) :   0.9408

FINAL SINGLE POINT ENERGY      -309.194232936843

DIPOLE MOMENT
-------------
                                X             Y             Z
Electronic contribution:     -1.15896       0.81727       0.87211
Nuclear contribution   :      1.22138      -0.81469      -0.70020
                        -----------------------------------------
Total Dipole Moment    :      0.06242       0.00258       0.17191
                        -----------------------------------------
Magnitude (a.u.)       :      0.18291
Magnitude (Debye)      :      0.46493

                             ****ORCA TERMINATED NORMALLY****
TOTAL RUN TIME: 0 days 0 hours 0 minutes 7 seconds 727 msec
