                         Program Version 3.0.3 - RELEASE   -
|  1> ! RI PBE def2-SVP def2-SVP/J NBO PAL2
|  2> % maxcore 2000
|  3> % output
|  4>     # printlevel mini
|  5>     print[ P_Basis ] 0
|  6>     print[ P_SCFInfo ] 1
|  7>     print[ P_SCFIterInfo ] 1
|  8>     print[ P_OrbEn ] 0
|  9>     print[ P_Cartesian ] 0
| 10> end
| 11> *xyz 0 1
| 12>  C        0.6553310000    -0.5182020000    -0.1064640000
| 13>  C        2.0732650000     0.0147580000    -0.0360640000
| 14>  C        3.1005850000    -1.0304920000    -0.3941830000
| 15>  O        2.8558550000    -2.1677570000    -0.6900910000
| 16>  C        2.2944500000     1.2365730000    -0.8999190000
| 17>  C        1.9328270000     2.5948820000    -0.3844460000
| 18>  C        3.3725670000     2.2243210000    -0.5684830000
| 19>  H        0.5324720000    -1.3967230000     0.5283630000
| 20>  H        0.4072540000    -0.8183830000    -1.1267420000
| 21>  H       -0.0557310000     0.2476290000     0.2086960000
| 22>  H        2.3125900000     0.3076680000     0.9986290000
| 23>  H        4.1506880000    -0.6642170000    -0.3782150000
| 24>  H        2.1118350000     1.0682350000    -1.9576730000
| 25>  H        1.5530430000     2.6601720000     0.6286670000
| 26>  H        1.4932720000     3.3048790000    -1.0733460000
| 27>  H        3.9633480000     2.0474250000     0.3228620000
| 28>  H        3.9219490000     2.6798410000    -1.3825010000
| 29> *
| 30>
| 31>                          ****END OF INPUT****
 Total Charge           Charge          ....    0
 Multiplicity           Mult            ....    1
 Number of Electrons    NEL             ....   54
 Basis Dimension        Dim             ....  148

MULLIKEN ATOMIC CHARGES
-----------------------
   0 C :    0.069318
   1 C :   -0.058336
   2 C :    0.117750
   3 O :   -0.154900
   4 C :   -0.161755
   5 C :   -0.014492
   6 C :   -0.022132
   7 H :    0.027581
   8 H :    0.020353
   9 H :    0.013650
  10 H :    0.008286
  11 H :   -0.016775
  12 H :    0.028326
  13 H :    0.029376
  14 H :    0.039848
  15 H :    0.035707
  16 H :    0.038196
Sum of atomic charges:    0.0000000

LOEWDIN ATOMIC CHARGES
----------------------
   0 C :   -0.051803
   1 C :   -0.079582
   2 C :    0.096777
   3 O :   -0.106441
   4 C :   -0.035860
   5 C :   -0.040602
   6 C :   -0.045691
   7 H :    0.031720
   8 H :    0.030747
   9 H :    0.027769
  10 H :    0.042788
  11 H :   -0.012489
  12 H :    0.030000
  13 H :    0.026196
  14 H :    0.030165
  15 H :    0.026214
  16 H :    0.030092

  Mayer bond orders larger than 0.1
B(  0-C ,  1-C ) :   1.0799 B(  0-C ,  7-H ) :   0.9520 B(  0-C ,  8-H ) :   0.9560
B(  0-C ,  9-H ) :   0.9563 B(  1-C ,  2-C ) :   0.9155 B(  1-C ,  4-C ) :   1.0276
B(  1-C , 10-H ) :   0.8669 B(  2-C ,  3-O ) :   2.2033 B(  2-C , 11-H ) :   0.9330
B(  4-C ,  5-C ) :   0.9921 B(  4-C ,  6-C ) :   0.9843 B(  4-C , 12-H ) :   0.9430
B(  5-C ,  6-C ) :   1.0518 B(  5-C , 13-H ) :   0.9424 B(  5-C , 14-H ) :   0.9457
B(  6-C , 15-H ) :   0.9444 B(  6-C , 16-H ) :   0.9443

FINAL SINGLE POINT ENERGY      -309.215010863280

DIPOLE MOMENT
-------------
                                X             Y             Z
Electronic contribution:      2.57208      -5.06029      -0.86867
Nuclear contribution   :     -2.61277       6.03098       1.07508
                        -----------------------------------------
Total Dipole Moment    :     -0.04069       0.97069       0.20641
                        -----------------------------------------
Magnitude (a.u.)       :      0.99322
Magnitude (Debye)      :      2.52457

                             ****ORCA TERMINATED NORMALLY****
TOTAL RUN TIME: 0 days 0 hours 0 minutes 7 seconds 584 msec
