                         Program Version 3.0.3 - RELEASE   -
|  1> ! RI PBE def2-SVP def2-SVP/J NBO PAL2
|  2> % maxcore 2000
|  3> % output
|  4>     # printlevel mini
|  5>     print[ P_Basis ] 0
|  6>     print[ P_SCFInfo ] 1
|  7>     print[ P_SCFIterInfo ] 1
|  8>     print[ P_OrbEn ] 0
|  9>     print[ P_Cartesian ] 0
| 10> end
| 11> *xyz 0 1
| 12>  C        0.4519930000    -0.3980130000    -0.0553390000
| 13>  C        1.9551070000    -0.5579630000    -0.1070590000
| 14>  C        2.4416600000    -1.6620150000     0.8153870000
| 15>  O        2.2851440000    -0.8225020000    -1.4650830000
| 16>  C        3.6278240000    -0.6814640000    -1.7745680000
| 17>  C        3.9388200000    -0.2240610000    -3.1519730000
| 18>  C        4.1853380000     0.6937710000    -1.9834830000
| 19>  H        0.1251930000    -0.1612030000     0.9593380000
| 20>  H       -0.0371160000    -1.3236950000    -0.3686920000
| 21>  H        0.1276840000     0.4025790000    -0.7222520000
| 22>  H        2.4322790000     0.3892320000     0.1854510000
| 23>  H        2.0000320000    -2.6184350000     0.5239070000
| 24>  H        2.1527810000    -1.4486950000     1.8473180000
| 25>  H        3.5286520000    -1.7617660000     0.7917980000
| 26>  H        4.2873550000    -1.4269020000    -1.3349170000
| 27>  H        3.0880800000     0.0022380000    -3.7820140000
| 28>  H        4.7868010000    -0.6619270000    -3.6631330000
| 29>  H        3.4978530000     1.5217170000    -1.8615200000
| 30>  H        5.2055300000     0.8963930000    -1.6815780000
| 31> *
| 32>
| 33>                          ****END OF INPUT****
 Total Charge           Charge          ....    0
 Multiplicity           Mult            ....    1
 Number of Electrons    NEL             ....   56
 Basis Dimension        Dim             ....  158

MULLIKEN ATOMIC CHARGES
-----------------------
   0 C :    0.024339
   1 C :    0.061478
   2 C :   -0.007304
   3 O :   -0.305193
   4 C :    0.053783
   5 C :   -0.038874
   6 C :   -0.062394
   7 H :    0.013982
   8 H :    0.021200
   9 H :    0.022564
  10 H :   -0.015037
  11 H :    0.021237
  12 H :    0.017440
  13 H :    0.027222
  14 H :    0.013532
  15 H :    0.046468
  16 H :    0.032509
  17 H :    0.039998
  18 H :    0.033049
Sum of atomic charges:    0.0000000

LOEWDIN ATOMIC CHARGES
----------------------
   0 C :   -0.065263
   1 C :    0.048755
   2 C :   -0.076322
   3 O :   -0.123840
   4 C :    0.032785
   5 C :   -0.051016
   6 C :   -0.064117
   7 H :    0.028851
   8 H :    0.028331
   9 H :    0.028083
  10 H :    0.005396
  11 H :    0.028393
  12 H :    0.030472
  13 H :    0.025956
  14 H :    0.006865
  15 H :    0.033633
  16 H :    0.027635
  17 H :    0.029944
  18 H :    0.025460

  Mayer bond orders larger than 0.1
B(  0-C ,  1-C ) :   1.0898 B(  0-C ,  7-H ) :   0.9563 B(  0-C ,  8-H ) :   0.9584
B(  0-C ,  9-H ) :   0.9572 B(  1-C ,  2-C ) :   1.0867 B(  1-C ,  3-O ) :   0.9788
B(  1-C , 10-H ) :   0.9067 B(  2-C , 11-H ) :   0.9527 B(  2-C , 12-H ) :   0.9530
B(  2-C , 13-H ) :   0.9545 B(  3-O ,  4-C ) :   1.0798 B(  4-C ,  5-C ) :   0.9956
B(  4-C ,  6-C ) :   0.9976 B(  4-C , 14-H ) :   0.9325 B(  5-C ,  6-C ) :   1.0382
B(  5-C , 15-H ) :   0.9448 B(  5-C , 16-H ) :   0.9434 B(  6-C , 17-H ) :   0.9393
B(  6-C , 18-H ) :   0.9459

FINAL SINGLE POINT ENERGY      -310.405964292032

DIPOLE MOMENT
-------------
                                X             Y             Z
Electronic contribution:      1.01859      -0.07748      -3.21952
Nuclear contribution   :     -0.79455       0.18871       3.56456
                        -----------------------------------------
Total Dipole Moment    :      0.22404       0.11123       0.34504
                        -----------------------------------------
Magnitude (a.u.)       :      0.42617
Magnitude (Debye)      :      1.08324

                             ****ORCA TERMINATED NORMALLY****
TOTAL RUN TIME: 0 days 0 hours 0 minutes 8 seconds 238 msec
