                         Program Version 3.0.3 - RELEASE   -
|  1> ! RI PBE def2-SVP def2-SVP/J NBO PAL2
|  2> % maxcore 2000
|  3> % output
|  4>     # printlevel mini
|  5>     print[ P_Basis ] 0
|  6>     print[ P_SCFInfo ] 1
|  7>     print[ P_SCFIterInfo ] 1
|  8>     print[ P_OrbEn ] 0
|  9>     print[ P_Cartesian ] 0
| 10> end
| 11> *xyz 0 1
| 12>  C        1.0916100000    -0.1952110000     0.1344180000
| 13>  C        2.5944120000     0.0556880000     0.1566430000
| 14>  C        2.9461010000     1.1648140000     1.1405260000
| 15>  O        3.2740600000    -1.1416360000     0.5223930000
| 16>  C        3.0756780000     0.4262350000    -1.2312200000
| 17>  C        4.4909040000     0.1920870000    -1.6523350000
| 18>  C        3.3814970000    -0.6202340000    -2.2541300000
| 19>  H        0.7302000000    -0.4714680000     1.1302480000
| 20>  H        0.8580340000    -1.0061400000    -0.5576160000
| 21>  H        0.5469900000     0.6984010000    -0.1802880000
| 22>  H        2.6101930000     0.9078380000     2.1503690000
| 23>  H        2.4673290000     2.1065620000     0.8610860000
| 24>  H        4.0265360000     1.3173020000     1.1616830000
| 25>  H        2.9799870000    -1.3907230000     1.4021860000
| 26>  H        2.6108100000     1.3348330000    -1.6013550000
| 27>  H        5.1381920000    -0.3140140000    -0.9477120000
| 28>  H        4.9738020000     0.9437290000    -2.2646140000
| 29>  H        3.3093570000    -1.6536500000    -1.9403250000
| 30>  H        3.0990190000    -0.4294910000    -3.2821570000
| 31> *
| 32>
| 33>                          ****END OF INPUT****
 Total Charge           Charge          ....    0
 Multiplicity           Mult            ....    1
 Number of Electrons    NEL             ....   56
 Basis Dimension        Dim             ....  158

MULLIKEN ATOMIC CHARGES
-----------------------
   0 C :    0.085234
   1 C :   -0.083616
   2 C :    0.082936
   3 O :   -0.257109
   4 C :   -0.125271
   5 C :   -0.010617
   6 C :   -0.018148
   7 H :   -0.002183
   8 H :    0.019075
   9 H :    0.006857
  10 H :   -0.001591
  11 H :    0.004609
  12 H :    0.020272
  13 H :    0.151741
  14 H :    0.006881
  15 H :    0.033201
  16 H :    0.025962
  17 H :    0.037032
  18 H :    0.024733
Sum of atomic charges:   -0.0000000

LOEWDIN ATOMIC CHARGES
----------------------
   0 C :   -0.062670
   1 C :    0.019786
   2 C :   -0.063045
   3 O :   -0.100369
   4 C :   -0.046926
   5 C :   -0.044227
   6 C :   -0.045572
   7 H :    0.018350
   8 H :    0.028767
   9 H :    0.027350
  10 H :    0.018454
  11 H :    0.027277
  12 H :    0.028976
  13 H :    0.066464
  14 H :    0.026345
  15 H :    0.026836
  16 H :    0.023491
  17 H :    0.027326
  18 H :    0.023386

  Mayer bond orders larger than 0.1
B(  0-C ,  1-C ) :   1.0641 B(  0-C ,  7-H ) :   0.9470 B(  0-C ,  8-H ) :   0.9534
B(  0-C ,  9-H ) :   0.9458 B(  1-C ,  2-C ) :   1.0596 B(  1-C ,  3-O ) :   1.0246
B(  1-C ,  4-C ) :   0.9973 B(  2-C , 10-H ) :   0.9472 B(  2-C , 11-H ) :   0.9454
B(  2-C , 12-H ) :   0.9548 B(  3-O , 13-H ) :   0.9782 B(  4-C ,  5-C ) :   0.9987
B(  4-C ,  6-C ) :   0.9984 B(  4-C , 14-H ) :   0.9408 B(  5-C ,  6-C ) :   1.0622
B(  5-C , 15-H ) :   0.9316 B(  5-C , 16-H ) :   0.9444 B(  6-C , 17-H ) :   0.9331
B(  6-C , 18-H ) :   0.9434

FINAL SINGLE POINT ENERGY      -310.418581318917

DIPOLE MOMENT
-------------
                                X             Y             Z
Electronic contribution:      1.73135      -2.11913      -0.32431
Nuclear contribution   :     -2.10711       2.34046       0.72162
                        -----------------------------------------
Total Dipole Moment    :     -0.37576       0.22133       0.39731
                        -----------------------------------------
Magnitude (a.u.)       :      0.58995
Magnitude (Debye)      :      1.49953

                             ****ORCA TERMINATED NORMALLY****
TOTAL RUN TIME: 0 days 0 hours 0 minutes 8 seconds 512 msec
