                         Program Version 3.0.3 - RELEASE   -
|  1> ! RI PBE def2-SVP def2-SVP/J NBO PAL2
|  2> % maxcore 2000
|  3> % output
|  4>     # printlevel mini
|  5>     print[ P_Basis ] 0
|  6>     print[ P_SCFInfo ] 1
|  7>     print[ P_SCFIterInfo ] 1
|  8>     print[ P_OrbEn ] 0
|  9>     print[ P_Cartesian ] 0
| 10> end
| 11> *xyz 0 1
| 12>  C        1.8205050000    -0.2355520000    -0.9125980000
| 13>  C        2.7494750000     0.3912450000     0.1200370000
| 14>  C        2.5535730000     1.9017780000     0.2113940000
| 15>  O        1.2586080000     2.2829420000     0.6307530000
| 16>  C        2.5971410000    -0.2631360000     1.4701640000
| 17>  C        3.2742040000    -1.5664870000     1.7563430000
| 18>  C        3.7527310000    -0.3081470000     2.4200740000
| 19>  H        1.9339100000     0.2359050000    -1.8934350000
| 20>  H        0.7730470000    -0.1454100000    -0.6084790000
| 21>  H        2.0264000000    -1.3017530000    -1.0255340000
| 22>  H        3.7857850000     0.2377330000    -0.2124450000
| 23>  H        3.2380790000     2.3127520000     0.9573450000
| 24>  H        2.7996290000     2.3639310000    -0.7555390000
| 25>  H        0.6377850000     2.0638300000    -0.0679710000
| 26>  H        1.6199140000    -0.1207200000     1.9210540000
| 27>  H        3.8990020000    -1.9902790000     0.9778350000
| 28>  H        2.7563870000    -2.3011820000     2.3604410000
| 29>  H        4.6972620000     0.1066890000     2.0857720000
| 30>  H        3.5592430000    -0.1788280000     3.4775590000
| 31> *
| 32>
| 33>                          ****END OF INPUT****
 Total Charge           Charge          ....    0
 Multiplicity           Mult            ....    1
 Number of Electrons    NEL             ....   56
 Basis Dimension        Dim             ....  158

MULLIKEN ATOMIC CHARGES
-----------------------
   0 C :    0.017203
   1 C :   -0.091864
   2 C :    0.225137
   3 O :   -0.289037
   4 C :   -0.109165
   5 C :   -0.028198
   6 C :   -0.022452
   7 H :    0.013951
   8 H :    0.008198
   9 H :    0.022437
  10 H :   -0.018514
  11 H :    0.001503
  12 H :   -0.007629
  13 H :    0.152046
  14 H :    0.014904
  15 H :    0.024539
  16 H :    0.030833
  17 H :    0.020982
  18 H :    0.035124
Sum of atomic charges:   -0.0000000

LOEWDIN ATOMIC CHARGES
----------------------
   0 C :   -0.063125
   1 C :   -0.060157
   2 C :    0.064276
   3 O :   -0.118252
   4 C :   -0.037250
   5 C :   -0.048430
   6 C :   -0.045786
   7 H :    0.022937
   8 H :    0.019402
   9 H :    0.030096
  10 H :    0.025815
  11 H :    0.020568
  12 H :    0.001630
  13 H :    0.064669
  14 H :    0.024569
  15 H :    0.023208
  16 H :    0.025884
  17 H :    0.022337
  18 H :    0.027609

  Mayer bond orders larger than 0.1
B(  0-C ,  1-C ) :   1.0637 B(  0-C ,  7-H ) :   0.9589 B(  0-C ,  8-H ) :   0.9533
B(  0-C ,  9-H ) :   0.9594 B(  1-C ,  2-C ) :   1.0339 B(  1-C ,  4-C ) :   1.0413
B(  1-C , 10-H ) :   0.8832 B(  2-C ,  3-O ) :   1.0631 B(  2-C , 11-H ) :   0.9332
B(  2-C , 12-H ) :   0.9371 B(  3-O , 13-H ) :   0.9854 B(  4-C ,  5-C ) :   0.9907
B(  4-C ,  6-C ) :   0.9969 B(  4-C , 14-H ) :   0.9379 B(  5-C ,  6-C ) :   1.0642
B(  5-C , 15-H ) :   0.9397 B(  5-C , 16-H ) :   0.9458 B(  6-C , 17-H ) :   0.9387
B(  6-C , 18-H ) :   0.9442

FINAL SINGLE POINT ENERGY      -310.409913887194

DIPOLE MOMENT
-------------
                                X             Y             Z
Electronic contribution:     -1.24750       2.65893       1.52470
Nuclear contribution   :      1.27834      -2.91062      -2.02219
                        -----------------------------------------
Total Dipole Moment    :      0.03083      -0.25169      -0.49749
                        -----------------------------------------
Magnitude (a.u.)       :      0.55839
Magnitude (Debye)      :      1.41931

                             ****ORCA TERMINATED NORMALLY****
TOTAL RUN TIME: 0 days 0 hours 0 minutes 7 seconds 886 msec
