                         Program Version 3.0.3 - RELEASE   -
|  1> ! RI PBE def2-SVP def2-SVP/J NBO PAL2
|  2> % maxcore 2000
|  3> % output
|  4>     # printlevel mini
|  5>     print[ P_Basis ] 0
|  6>     print[ P_SCFInfo ] 1
|  7>     print[ P_SCFIterInfo ] 1
|  8>     print[ P_OrbEn ] 0
|  9>     print[ P_Cartesian ] 0
| 10> end
| 11> *xyz 0 1
| 12>  C        1.1394100000    -0.0933930000     0.1295330000
| 13>  C        2.6469570000    -0.0012890000     0.0355160000
| 14>  C        3.1454210000     1.2670900000    -0.6135170000
| 15>  O        2.3921570000     2.1240270000    -1.0168660000
| 16>  C        4.6193620000     1.4059930000    -0.7303170000
| 17>  C        5.1518560000     2.1380350000    -1.9398580000
| 18>  C        5.1943960000     2.7984310000    -0.6168410000
| 19>  H        0.8368710000    -1.0277630000     0.6061820000
| 20>  H        0.6837290000    -0.0472090000    -0.8606280000
| 21>  H        0.7336870000     0.7372940000     0.7087830000
| 22>  H        3.0671410000    -0.8427600000    -0.5301180000
| 23>  H        3.1166710000    -0.0661820000     1.0253410000
| 24>  H        5.2137510000     0.5880130000    -0.3410380000
| 25>  H        4.4019290000     2.4805410000    -2.6417870000
| 26>  H        6.0732560000     1.7683730000    -2.3711960000
| 27>  H        4.4729560000     3.5841470000    -0.4308950000
| 28>  H        6.1460600000     2.8969630000    -0.1105850000
| 29> *
| 30>
| 31>                          ****END OF INPUT****
 Total Charge           Charge          ....    0
 Multiplicity           Mult            ....    1
 Number of Electrons    NEL             ....   54
 Basis Dimension        Dim             ....  148

MULLIKEN ATOMIC CHARGES
-----------------------
   0 C :    0.014144
   1 C :   -0.049408
   2 C :    0.018036
   3 O :   -0.174907
   4 C :   -0.129829
   5 C :   -0.001556
   6 C :   -0.000524
   7 H :    0.012025
   8 H :    0.028027
   9 H :    0.030502
  10 H :    0.035320
  11 H :    0.035969
  12 H :    0.005294
  13 H :    0.051813
  14 H :    0.037022
  15 H :    0.049487
  16 H :    0.038583
Sum of atomic charges:   -0.0000000

LOEWDIN ATOMIC CHARGES
----------------------
   0 C :   -0.062079
   1 C :   -0.076144
   2 C :    0.061819
   3 O :   -0.138644
   4 C :   -0.078732
   5 C :   -0.017621
   6 C :   -0.017067
   7 H :    0.026548
   8 H :    0.031652
   9 H :    0.032064
  10 H :    0.042886
  11 H :    0.043042
  12 H :    0.026440
  13 H :    0.033158
  14 H :    0.029764
  15 H :    0.032914
  16 H :    0.030000

  Mayer bond orders larger than 0.1
B(  0-C ,  1-C ) :   1.1210 B(  0-C ,  7-H ) :   0.9554 B(  0-C ,  8-H ) :   0.9635
B(  0-C ,  9-H ) :   0.9645 B(  1-C ,  2-C ) :   0.9837 B(  1-C , 10-H ) :   0.9129
B(  1-C , 11-H ) :   0.9123 B(  2-C ,  3-O ) :   2.1633 B(  2-C ,  4-C ) :   0.9973
B(  4-C ,  5-C ) :   0.9463 B(  4-C ,  6-C ) :   0.9518 B(  4-C , 12-H ) :   0.9404
B(  5-C ,  6-C ) :   1.0663 B(  5-C , 13-H ) :   0.9410 B(  5-C , 14-H ) :   0.9471
B(  6-C , 15-H ) :   0.9404 B(  6-C , 16-H ) :   0.9471

FINAL SINGLE POINT ENERGY      -309.232399949618

DIPOLE MOMENT
-------------
                                X             Y             Z
Electronic contribution:      0.28014       2.77608      -1.39149
Nuclear contribution   :      0.43487      -3.38704       1.67535
                        -----------------------------------------
Total Dipole Moment    :      0.71500      -0.61096       0.28385
                        -----------------------------------------
Magnitude (a.u.)       :      0.98238
Magnitude (Debye)      :      2.49701

                             ****ORCA TERMINATED NORMALLY****
TOTAL RUN TIME: 0 days 0 hours 0 minutes 7 seconds 282 msec
