                         Program Version 3.0.3 - RELEASE   -
|  1> ! RI PBE def2-SVP def2-SVP/J NBO PAL2
|  2> % maxcore 2000
|  3> % output
|  4>     # printlevel mini
|  5>     print[ P_Basis ] 0
|  6>     print[ P_SCFInfo ] 1
|  7>     print[ P_SCFIterInfo ] 1
|  8>     print[ P_OrbEn ] 0
|  9>     print[ P_Cartesian ] 0
| 10> end
| 11> *xyz 0 1
| 12>  C        1.0721420000     0.3508440000    -0.3514360000
| 13>  C        2.4884940000    -0.0573160000    -0.7152410000
| 14>  C        3.2929510000    -0.5735840000     0.4707250000
| 15>  O        2.6747050000    -1.7055690000     1.0649320000
| 16>  C        4.7247750000    -0.8477580000     0.0995340000
| 17>  C        5.7482480000     0.2394640000     0.2267790000
| 18>  C        5.7656820000    -0.9246750000     1.1694990000
| 19>  H        0.5126800000     0.6729680000    -1.2324810000
| 20>  H        1.0750860000     1.1800700000     0.3617110000
| 21>  H        0.5349120000    -0.4792910000     0.1104330000
| 22>  H        3.0279160000     0.7877940000    -1.1559070000
| 23>  H        2.4689350000    -0.8408500000    -1.4845640000
| 24>  H        3.2829480000     0.1861370000     1.2622540000
| 25>  H        2.7505410000    -2.4409850000     0.4498600000
| 26>  H        4.8470690000    -1.5209360000    -0.7469020000
| 27>  H        5.4162400000     1.1970740000     0.6117540000
| 28>  H        6.5246040000     0.3066490000    -0.5250200000
| 29>  H        5.4369840000    -0.7601340000     2.1887010000
| 30>  H        6.5581970000    -1.6552900000     1.0670670000
| 31> *
| 32>
| 33>                          ****END OF INPUT****
 Total Charge           Charge          ....    0
 Multiplicity           Mult            ....    1
 Number of Electrons    NEL             ....   56
 Basis Dimension        Dim             ....  158

MULLIKEN ATOMIC CHARGES
-----------------------
   0 C :    0.008541
   1 C :   -0.018776
   2 C :    0.153271
   3 O :   -0.273316
   4 C :   -0.147809
   5 C :   -0.038702
   6 C :   -0.008465
   7 H :    0.017003
   8 H :    0.016983
   9 H :    0.020035
  10 H :    0.003606
  11 H :   -0.005345
  12 H :   -0.018963
  13 H :    0.149189
  14 H :    0.008949
  15 H :    0.029836
  16 H :    0.034844
  17 H :    0.036371
  18 H :    0.032748
Sum of atomic charges:    0.0000000

LOEWDIN ATOMIC CHARGES
----------------------
   0 C :   -0.069593
   1 C :   -0.059391
   2 C :    0.047287
   3 O :   -0.109921
   4 C :   -0.062431
   5 C :   -0.043990
   6 C :   -0.042190
   7 H :    0.025773
   8 H :    0.025779
   9 H :    0.024641
  10 H :    0.027198
  11 H :    0.018949
  12 H :    0.021165
  13 H :    0.064725
  14 H :    0.022103
  15 H :    0.025279
  16 H :    0.027594
  17 H :    0.029316
  18 H :    0.027707

  Mayer bond orders larger than 0.1
B(  0-C ,  1-C ) :   1.1168 B(  0-C ,  7-H ) :   0.9584 B(  0-C ,  8-H ) :   0.9636
B(  0-C ,  9-H ) :   0.9549 B(  1-C ,  2-C ) :   1.0478 B(  1-C , 10-H ) :   0.9246
B(  1-C , 11-H ) :   0.9205 B(  2-C ,  3-O ) :   1.0225 B(  2-C ,  4-C ) :   1.0508
B(  2-C , 12-H ) :   0.8914 B(  3-O , 13-H ) :   0.9850 B(  4-C ,  5-C ) :   0.9858
B(  4-C ,  6-C ) :   0.9810 B(  4-C , 14-H ) :   0.9309 B(  5-C ,  6-C ) :   1.0561
B(  5-C , 15-H ) :   0.9451 B(  5-C , 16-H ) :   0.9424 B(  6-C , 17-H ) :   0.9440
B(  6-C , 18-H ) :   0.9436

FINAL SINGLE POINT ENERGY      -310.414281551799

DIPOLE MOMENT
-------------
                                X             Y             Z
Electronic contribution:      1.27080      -2.77228       1.86277
Nuclear contribution   :     -0.99485       2.72009      -2.37031
                        -----------------------------------------
Total Dipole Moment    :      0.27595      -0.05218      -0.50755
                        -----------------------------------------
Magnitude (a.u.)       :      0.58007
Magnitude (Debye)      :      1.47441

                             ****ORCA TERMINATED NORMALLY****
TOTAL RUN TIME: 0 days 0 hours 0 minutes 7 seconds 729 msec
