                         Program Version 3.0.3 - RELEASE   -
|  1> ! RI PBE def2-SVP def2-SVP/J NBO PAL2
|  2> % maxcore 2000
|  3> % output
|  4>     # printlevel mini
|  5>     print[ P_Basis ] 0
|  6>     print[ P_SCFInfo ] 1
|  7>     print[ P_SCFIterInfo ] 1
|  8>     print[ P_OrbEn ] 0
|  9>     print[ P_Cartesian ] 0
| 10> end
| 11> *xyz 0 1
| 12>  C        0.9971860000    -0.1576690000     0.1355960000
| 13>  C        2.2352760000     0.1535240000    -0.2465830000
| 14>  C        2.4810320000     1.4659130000    -0.8699210000
| 15>  O        3.5559790000     1.8379000000    -1.2664320000
| 16>  C        3.3927840000    -0.7566960000    -0.0992880000
| 17>  C        3.9218620000    -1.1139400000     1.2191340000
| 18>  O        3.1378130000    -2.0259010000     0.4714330000
| 19>  H        0.1868340000     0.5518250000     0.0051310000
| 20>  H        0.7701400000    -1.1202880000     0.5778040000
| 21>  H        1.5804570000     2.1099220000    -0.9568900000
| 22>  H        4.0881790000    -0.7542920000    -0.9351920000
| 23>  H        3.4404990000    -0.7046550000     2.1037270000
| 24>  H        4.9724400000    -1.3729530000     1.3201700000
| 25> *
| 26>
| 27>                          ****END OF INPUT****
 Total Charge           Charge          ....    0
 Multiplicity           Mult            ....    1
 Number of Electrons    NEL             ....   52
 Basis Dimension        Dim             ....  128

MULLIKEN ATOMIC CHARGES
-----------------------
   0 C :    0.006181
   1 C :   -0.089264
   2 C :    0.141416
   3 O :   -0.154307
   4 C :    0.044455
   5 C :    0.157884
   6 O :   -0.277063
   7 H :    0.035043
   8 H :    0.044911
   9 H :   -0.024421
  10 H :    0.039906
  11 H :    0.030746
  12 H :    0.044513
Sum of atomic charges:   -0.0000000

LOEWDIN ATOMIC CHARGES
----------------------
   0 C :    0.010678
   1 C :   -0.091194
   2 C :    0.083397
   3 O :   -0.108006
   4 C :    0.048346
   5 C :    0.075770
   6 O :   -0.140641
   7 H :    0.029982
   8 H :    0.033529
   9 H :   -0.008987
  10 H :    0.028636
  11 H :    0.017168
  12 H :    0.021323

  Mayer bond orders larger than 0.1
B(  0-C ,  1-C ) :   1.8696 B(  0-C ,  7-H ) :   0.9333 B(  0-C ,  8-H ) :   0.9282
B(  1-C ,  2-C ) :   0.9855 B(  1-C ,  4-C ) :   1.0011 B(  2-C ,  3-O ) :   2.1520
B(  2-C ,  9-H ) :   0.9275 B(  4-C ,  5-C ) :   1.0776 B(  4-C ,  6-O ) :   0.9989
B(  4-C , 10-H ) :   0.9257 B(  5-C ,  6-O ) :   0.9918 B(  5-C , 11-H ) :   0.9304
B(  5-C , 12-H ) :   0.9439

FINAL SINGLE POINT ENERGY      -343.852388161873

DIPOLE MOMENT
-------------
                                X             Y             Z
Electronic contribution:      1.40043       0.65548      -1.96744
Nuclear contribution   :     -1.87005      -0.68164       2.48670
                        -----------------------------------------
Total Dipole Moment    :     -0.46961      -0.02617       0.51926
                        -----------------------------------------
Magnitude (a.u.)       :      0.70061
Magnitude (Debye)      :      1.78080

                             ****ORCA TERMINATED NORMALLY****
TOTAL RUN TIME: 0 days 0 hours 0 minutes 6 seconds 251 msec
