                         Program Version 3.0.3 - RELEASE   -
|  1> ! RI PBE def2-SVP def2-SVP/J NBO PAL2
|  2> % maxcore 2000
|  3> % output
|  4>     # printlevel mini
|  5>     print[ P_Basis ] 0
|  6>     print[ P_SCFInfo ] 1
|  7>     print[ P_SCFIterInfo ] 1
|  8>     print[ P_OrbEn ] 0
|  9>     print[ P_Cartesian ] 0
| 10> end
| 11> *xyz 0 1
| 12>  C        1.5232230000    -0.1618660000    -0.5748740000
| 13>  C        1.5238980000     0.6365960000     0.4884540000
| 14>  C        2.6090850000     0.7690780000     1.4830300000
| 15>  O        2.4952530000     1.5406430000     2.4071050000
| 16>  C        3.8662520000    -0.0374380000     1.3170020000
| 17>  C        5.1490340000     0.6284120000     1.5795680000
| 18>  O        4.5987340000    -0.2789180000     2.5005140000
| 19>  H        2.3485260000    -0.8208290000    -0.8161500000
| 20>  H        0.6786140000    -0.1819420000    -1.2540370000
| 21>  H        0.6765320000     1.2835420000     0.6952800000
| 22>  H        3.8520400000    -0.8706960000     0.6216100000
| 23>  H        5.1259550000     1.6694380000     1.8905630000
| 24>  H        6.0356460000     0.2893610000     1.0493430000
| 25> *
| 26>
| 27>                          ****END OF INPUT****
 Total Charge           Charge          ....    0
 Multiplicity           Mult            ....    1
 Number of Electrons    NEL             ....   52
 Basis Dimension        Dim             ....  128

MULLIKEN ATOMIC CHARGES
-----------------------
   0 C :   -0.005925
   1 C :   -0.022551
   2 C :    0.095145
   3 O :   -0.147251
   4 C :   -0.034092
   5 C :    0.174432
   6 O :   -0.256670
   7 H :    0.036540
   8 H :    0.048103
   9 H :    0.012336
  10 H :    0.020329
  11 H :    0.043495
  12 H :    0.036110
Sum of atomic charges:    0.0000000

LOEWDIN ATOMIC CHARGES
----------------------
   0 C :   -0.004561
   1 C :   -0.048099
   2 C :    0.032619
   3 O :   -0.104999
   4 C :    0.004558
   5 C :    0.080532
   6 O :   -0.118417
   7 H :    0.027018
   8 H :    0.036313
   9 H :    0.039685
  10 H :    0.016672
  11 H :    0.021041
  12 H :    0.017639

  Mayer bond orders larger than 0.1
B(  0-C ,  1-C ) :   1.8953 B(  0-C ,  7-H ) :   0.9383 B(  0-C ,  8-H ) :   0.9376
B(  1-C ,  2-C ) :   1.0318 B(  1-C ,  9-H ) :   0.9418 B(  2-C ,  3-O ) :   2.1335
B(  2-C ,  4-C ) :   0.9148 B(  4-C ,  5-C ) :   1.0656 B(  4-C ,  6-O ) :   1.0038
B(  4-C , 10-H ) :   0.9324 B(  5-C ,  6-O ) :   0.9949 B(  5-C , 11-H ) :   0.9275
B(  5-C , 12-H ) :   0.9379

FINAL SINGLE POINT ENERGY      -343.848906488803

DIPOLE MOMENT
-------------
                                X             Y             Z
Electronic contribution:      0.16416       0.89281       4.09597
Nuclear contribution   :     -0.13455      -1.21223      -5.50651
                        -----------------------------------------
Total Dipole Moment    :      0.02961      -0.31943      -1.41054
                        -----------------------------------------
Magnitude (a.u.)       :      1.44656
Magnitude (Debye)      :      3.67687

                             ****ORCA TERMINATED NORMALLY****
TOTAL RUN TIME: 0 days 0 hours 0 minutes 6 seconds 94 msec
