                         Program Version 3.0.3 - RELEASE   -
|  1> ! RI PBE def2-SVP def2-SVP/J NBO PAL2
|  2> % maxcore 2000
|  3> % output
|  4>     # printlevel mini
|  5>     print[ P_Basis ] 0
|  6>     print[ P_SCFInfo ] 1
|  7>     print[ P_SCFIterInfo ] 1
|  8>     print[ P_OrbEn ] 0
|  9>     print[ P_Cartesian ] 0
| 10> end
| 11> *xyz 0 1
| 12>  C        0.6383940000    -0.3025040000     0.2851510000
| 13>  C        2.0971590000    -0.0146590000    -0.0129710000
| 14>  C        3.0388110000    -0.8210940000     0.8516190000
| 15>  O        2.6906970000    -1.5660300000     1.7258740000
| 16>  C        2.4413120000    -0.2467890000    -1.4645780000
| 17>  C        2.4380230000     0.8372580000    -2.4403010000
| 18>  O        3.6560240000     0.3164520000    -1.9333350000
| 19>  H        0.4233490000    -0.1496800000     1.3428790000
| 20>  H        0.3911420000    -1.3407410000     0.0536740000
| 21>  H       -0.0120720000     0.3468470000    -0.3037900000
| 22>  H        2.3378890000     1.0370750000     0.1996730000
| 23>  H        4.1144610000    -0.6762660000     0.6194660000
| 24>  H        2.2518730000    -1.2569500000    -1.8286930000
| 25>  H        2.1893100000     1.8433310000    -2.1098440000
| 26>  H        2.2422190000     0.6227520000    -3.4874450000
| 27> *
| 28>
| 29>                          ****END OF INPUT****
 Total Charge           Charge          ....    0
 Multiplicity           Mult            ....    1
 Number of Electrons    NEL             ....   54
 Basis Dimension        Dim             ....  138

MULLIKEN ATOMIC CHARGES
-----------------------
   0 C :    0.049683
   1 C :   -0.052512
   2 C :    0.108034
   3 O :   -0.150241
   4 C :   -0.020312
   5 C :    0.156514
   6 O :   -0.281961
   7 H :    0.035502
   8 H :    0.027037
   9 H :    0.017983
  10 H :    0.019146
  11 H :    0.004711
  12 H :    0.023091
  13 H :    0.026418
  14 H :    0.036905
Sum of atomic charges:    0.0000000

LOEWDIN ATOMIC CHARGES
----------------------
   0 C :   -0.050965
   1 C :   -0.095134
   2 C :    0.098058
   3 O :   -0.101711
   4 C :    0.046828
   5 C :    0.060701
   6 O :   -0.151884
   7 H :    0.035885
   8 H :    0.032161
   9 H :    0.028583
  10 H :    0.048509
  11 H :   -0.004704
  12 H :    0.018813
  13 H :    0.015562
  14 H :    0.019297

  Mayer bond orders larger than 0.1
B(  0-C ,  1-C ) :   1.0725 B(  0-C ,  7-H ) :   0.9492 B(  0-C ,  8-H ) :   0.9606
B(  0-C ,  9-H ) :   0.9587 B(  1-C ,  2-C ) :   0.9047 B(  1-C ,  4-C ) :   0.9856
B(  1-C , 10-H ) :   0.8678 B(  2-C ,  3-O ) :   2.2030 B(  2-C , 11-H ) :   0.9384
B(  4-C ,  5-C ) :   1.0836 B(  4-C ,  6-O ) :   0.9725 B(  4-C , 12-H ) :   0.9371
B(  5-C ,  6-O ) :   1.0084 B(  5-C , 13-H ) :   0.9269 B(  5-C , 14-H ) :   0.9372

FINAL SINGLE POINT ENERGY      -345.066446737752

DIPOLE MOMENT
-------------
                                X             Y             Z
Electronic contribution:      4.55678      -1.74929       1.31786
Nuclear contribution   :     -5.15988       2.34900      -1.99411
                        -----------------------------------------
Total Dipole Moment    :     -0.60310       0.59971      -0.67625
                        -----------------------------------------
Magnitude (a.u.)       :      1.08659
Magnitude (Debye)      :      2.76190

                             ****ORCA TERMINATED NORMALLY****
TOTAL RUN TIME: 0 days 0 hours 0 minutes 6 seconds 754 msec
