                         Program Version 3.0.3 - RELEASE   -
|  1> ! RI PBE def2-SVP def2-SVP/J NBO PAL2
|  2> % maxcore 2000
|  3> % output
|  4>     # printlevel mini
|  5>     print[ P_Basis ] 0
|  6>     print[ P_SCFInfo ] 1
|  7>     print[ P_SCFIterInfo ] 1
|  8>     print[ P_OrbEn ] 0
|  9>     print[ P_Cartesian ] 0
| 10> end
| 11> *xyz 0 1
| 12>  C        1.0878010000     0.0671200000     0.0338920000
| 13>  C        2.5672850000    -0.1373790000    -0.2582530000
| 14>  C        2.8061320000    -0.4578250000    -1.7290320000
| 15>  O        3.3038260000     1.0211190000     0.1044540000
| 16>  C        3.0836980000    -1.2868720000     0.5837200000
| 17>  C        4.3177320000    -1.2160650000     1.3554050000
| 18>  O        3.0471900000    -1.1395510000     1.9884310000
| 19>  H        0.6901500000     0.8931860000    -0.5648230000
| 20>  H        0.9459390000     0.2918900000     1.0922780000
| 21>  H        0.5092840000    -0.8261850000    -0.2122540000
| 22>  H        2.4430560000     0.3615500000    -2.3544350000
| 23>  H        2.2860670000    -1.3702410000    -2.0315430000
| 24>  H        3.8739800000    -0.5837230000    -1.9182010000
| 25>  H        2.7657340000     1.7921340000    -0.0888630000
| 26>  H        2.7524870000    -2.2645490000     0.2321170000
| 27>  H        4.8809540000    -0.2890810000     1.3514430000
| 28>  H        4.8781950000    -2.1269380000     1.5522850000
| 29> *
| 30>
| 31>                          ****END OF INPUT****
 Total Charge           Charge          ....    0
 Multiplicity           Mult            ....    1
 Number of Electrons    NEL             ....   56
 Basis Dimension        Dim             ....  148

MULLIKEN ATOMIC CHARGES
-----------------------
   0 C :    0.032338
   1 C :   -0.076361
   2 C :    0.067952
   3 O :   -0.242932
   4 C :    0.032604
   5 C :    0.156056
   6 O :   -0.293127
   7 H :    0.010052
   8 H :    0.040067
   9 H :    0.016138
  10 H :    0.006519
  11 H :    0.009858
  12 H :    0.021206
  13 H :    0.152978
  14 H :    0.007112
  15 H :    0.036358
  16 H :    0.023182
Sum of atomic charges:   -0.0000000

LOEWDIN ATOMIC CHARGES
----------------------
   0 C :   -0.064387
   1 C :    0.003910
   2 C :   -0.063497
   3 O :   -0.095472
   4 C :    0.031421
   5 C :    0.060047
   6 O :   -0.150468
   7 H :    0.021373
   8 H :    0.033104
   9 H :    0.032193
  10 H :    0.024107
  11 H :    0.025770
  12 H :    0.029188
  13 H :    0.068408
  14 H :    0.014007
  15 H :    0.017838
  16 H :    0.012459

  Mayer bond orders larger than 0.1
B(  0-C ,  1-C ) :   1.0667 B(  0-C ,  7-H ) :   0.9508 B(  0-C ,  8-H ) :   0.9510
B(  0-C ,  9-H ) :   0.9479 B(  1-C ,  2-C ) :   1.0423 B(  1-C ,  3-O ) :   1.0813
B(  1-C ,  4-C ) :   0.9384 B(  2-C , 10-H ) :   0.9482 B(  2-C , 11-H ) :   0.9468
B(  2-C , 12-H ) :   0.9544 B(  3-O , 13-H ) :   0.9764 B(  4-C ,  5-C ) :   1.1059
B(  4-C ,  6-O ) :   0.9721 B(  4-C , 14-H ) :   0.9334 B(  5-C ,  6-O ) :   1.0046
B(  5-C , 15-H ) :   0.9176 B(  5-C , 16-H ) :   0.9352

FINAL SINGLE POINT ENERGY      -346.268993986884

DIPOLE MOMENT
-------------
                                X             Y             Z
Electronic contribution:      2.38312       0.06447       4.74993
Nuclear contribution   :     -2.61281       0.04329      -5.52559
                        -----------------------------------------
Total Dipole Moment    :     -0.22969       0.10776      -0.77565
                        -----------------------------------------
Magnitude (a.u.)       :      0.81609
Magnitude (Debye)      :      2.07434

                             ****ORCA TERMINATED NORMALLY****
TOTAL RUN TIME: 0 days 0 hours 0 minutes 7 seconds 656 msec
