                         Program Version 3.0.3 - RELEASE   -
|  1> ! RI PBE def2-SVP def2-SVP/J NBO PAL2
|  2> % maxcore 2000
|  3> % output
|  4>     # printlevel mini
|  5>     print[ P_Basis ] 0
|  6>     print[ P_SCFInfo ] 1
|  7>     print[ P_SCFIterInfo ] 1
|  8>     print[ P_OrbEn ] 0
|  9>     print[ P_Cartesian ] 0
| 10> end
| 11> *xyz 0 1
| 12>  C        1.2547410000     0.1226930000    -0.7289160000
| 13>  C        2.6198780000    -0.0313290000    -0.0676950000
| 14>  C        3.1616880000     1.3142940000     0.4117750000
| 15>  O        2.3116600000     1.9768630000     1.3141050000
| 16>  C        2.5589600000    -1.0745880000     1.0221960000
| 17>  C        3.5097740000    -1.1879760000     2.1231050000
| 18>  O        2.2120220000    -0.6472880000     2.3435030000
| 19>  H        1.3089370000     0.8148510000    -1.5721310000
| 20>  H        0.5246420000     0.5190950000    -0.0214980000
| 21>  H        0.8867510000    -0.8361720000    -1.1024010000
| 22>  H        3.3295360000    -0.4113980000    -0.8158530000
| 23>  H        3.2714790000     1.9735230000    -0.4536760000
| 24>  H        4.1678410000     1.1838090000     0.8368120000
| 25>  H        2.1255910000     1.3510820000     2.0258840000
| 26>  H        2.0449730000    -1.9917400000     0.7332680000
| 27>  H        4.3278900000    -0.4794030000     2.2140260000
| 28>  H        3.6828380000    -2.1586150000     2.5804660000
| 29> *
| 30>
| 31>                          ****END OF INPUT****
 Total Charge           Charge          ....    0
 Multiplicity           Mult            ....    1
 Number of Electrons    NEL             ....   56
 Basis Dimension        Dim             ....  148

MULLIKEN ATOMIC CHARGES
-----------------------
   0 C :    0.025490
   1 C :   -0.106490
   2 C :    0.187619
   3 O :   -0.285467
   4 C :    0.021299
   5 C :    0.151855
   6 O :   -0.310989
   7 H :    0.021578
   8 H :    0.028316
   9 H :    0.012879
  10 H :    0.017851
  11 H :    0.006602
  12 H :   -0.008787
  13 H :    0.150723
  14 H :    0.017549
  15 H :    0.036885
  16 H :    0.033088
Sum of atomic charges:   -0.0000000

LOEWDIN ATOMIC CHARGES
----------------------
   0 C :   -0.055698
   1 C :   -0.077363
   2 C :    0.059071
   3 O :   -0.122691
   4 C :    0.051633
   5 C :    0.057770
   6 O :   -0.154125
   7 H :    0.029829
   8 H :    0.029136
   9 H :    0.023218
  10 H :    0.037578
  11 H :    0.022040
  12 H :   -0.000585
  13 H :    0.046005
  14 H :    0.018183
  15 H :    0.016441
  16 H :    0.019560

  Mayer bond orders larger than 0.1
B(  0-C ,  1-C ) :   1.0735 B(  0-C ,  7-H ) :   0.9583 B(  0-C ,  8-H ) :   0.9581
B(  0-C ,  9-H ) :   0.9584 B(  1-C ,  2-C ) :   1.0371 B(  1-C ,  4-C ) :   1.0053
B(  1-C , 10-H ) :   0.8868 B(  2-C ,  3-O ) :   1.0907 B(  2-C , 11-H ) :   0.9310
B(  2-C , 12-H ) :   0.9227 B(  3-O , 13-H ) :   0.9584 B(  4-C ,  5-C ) :   1.0874
B(  4-C ,  6-O ) :   0.9471 B(  4-C , 14-H ) :   0.9385 B(  5-C ,  6-O ) :   0.9772
B(  5-C , 15-H ) :   0.9278 B(  5-C , 16-H ) :   0.9371

FINAL SINGLE POINT ENERGY      -346.266959951682

DIPOLE MOMENT
-------------
                                X             Y             Z
Electronic contribution:     -0.01429       0.13104       4.28342
Nuclear contribution   :      0.59228      -1.02164      -4.65315
                        -----------------------------------------
Total Dipole Moment    :      0.57798      -0.89060      -0.36973
                        -----------------------------------------
Magnitude (a.u.)       :      1.12425
Magnitude (Debye)      :      2.85762

                             ****ORCA TERMINATED NORMALLY****
TOTAL RUN TIME: 0 days 0 hours 0 minutes 7 seconds 697 msec
