                         Program Version 3.0.3 - RELEASE   -
|  1> ! RI PBE def2-SVP def2-SVP/J NBO PAL2
|  2> % maxcore 2000
|  3> % output
|  4>     # printlevel mini
|  5>     print[ P_Basis ] 0
|  6>     print[ P_SCFInfo ] 1
|  7>     print[ P_SCFIterInfo ] 1
|  8>     print[ P_OrbEn ] 0
|  9>     print[ P_Cartesian ] 0
| 10> end
| 11> *xyz 0 1
| 12>  C        2.2234820000     0.7236850000     0.6461350000
| 13>  C        3.6049210000     0.1179290000     0.5267660000
| 14>  C        3.6739410000    -1.0594640000    -0.4106860000
| 15>  O        2.7401090000    -1.4374190000    -1.0696010000
| 16>  C        5.0004430000    -1.7665710000    -0.4604280000
| 17>  C        5.0087100000    -3.2352310000    -0.4993610000
| 18>  O        5.2981770000    -2.4748410000    -1.6449810000
| 19>  H        2.2330530000     1.5803060000     1.3222510000
| 20>  H        1.5080310000    -0.0074390000     1.0259270000
| 21>  H        1.8598410000     1.0544710000    -0.3275100000
| 22>  H        3.9910160000    -0.2088210000     1.5013530000
| 23>  H        4.3369490000     0.8546700000     0.1698260000
| 24>  H        5.8460230000    -1.2532310000    -0.0060860000
| 25>  H        4.0508670000    -3.7484840000    -0.5184260000
| 26>  H        5.8474280000    -3.7681500000    -0.0580700000
| 27> *
| 28>
| 29>                          ****END OF INPUT****
 Total Charge           Charge          ....    0
 Multiplicity           Mult            ....    1
 Number of Electrons    NEL             ....   54
 Basis Dimension        Dim             ....  138

MULLIKEN ATOMIC CHARGES
-----------------------
   0 C :    0.004829
   1 C :   -0.070640
   2 C :    0.014591
   3 O :   -0.146610
   4 C :    0.021462
   5 C :    0.162242
   6 O :   -0.256957
   7 H :    0.021466
   8 H :    0.032724
   9 H :    0.034716
  10 H :    0.039819
  11 H :    0.044957
  12 H :    0.012151
  13 H :    0.046499
  14 H :    0.038749
Sum of atomic charges:    0.0000000

LOEWDIN ATOMIC CHARGES
----------------------
   0 C :   -0.062775
   1 C :   -0.079206
   2 C :    0.043167
   3 O :   -0.108408
   4 C :    0.003480
   5 C :    0.078214
   6 O :   -0.119159
   7 H :    0.029416
   8 H :    0.033351
   9 H :    0.034365
  10 H :    0.043311
  11 H :    0.047881
  12 H :    0.016983
  13 H :    0.021262
  14 H :    0.018117

  Mayer bond orders larger than 0.1
B(  0-C ,  1-C ) :   1.1224 B(  0-C ,  7-H ) :   0.9561 B(  0-C ,  8-H ) :   0.9640
B(  0-C ,  9-H ) :   0.9620 B(  1-C ,  2-C ) :   0.9667 B(  1-C , 10-H ) :   0.9175
B(  1-C , 11-H ) :   0.9070 B(  2-C ,  3-O ) :   2.2165 B(  2-C ,  4-C ) :   0.9154
B(  4-C ,  5-C ) :   1.0568 B(  4-C ,  6-O ) :   0.9990 B(  4-C , 12-H ) :   0.9375
B(  5-C ,  6-O ) :   0.9996 B(  5-C , 13-H ) :   0.9314 B(  5-C , 14-H ) :   0.9372

FINAL SINGLE POINT ENERGY      -345.074304965367

DIPOLE MOMENT
-------------
                                X             Y             Z
Electronic contribution:      2.13984      -4.38230      -4.94571
Nuclear contribution   :     -1.61036       4.63150       6.08828
                        -----------------------------------------
Total Dipole Moment    :      0.52948       0.24920       1.14257
                        -----------------------------------------
Magnitude (a.u.)       :      1.28371
Magnitude (Debye)      :      3.26294

                             ****ORCA TERMINATED NORMALLY****
TOTAL RUN TIME: 0 days 0 hours 0 minutes 6 seconds 639 msec
