                         Program Version 3.0.3 - RELEASE   -
|  1> ! RI PBE def2-SVP def2-SVP/J NBO PAL2
|  2> % maxcore 2000
|  3> % output
|  4>     # printlevel mini
|  5>     print[ P_Basis ] 0
|  6>     print[ P_SCFInfo ] 1
|  7>     print[ P_SCFIterInfo ] 1
|  8>     print[ P_OrbEn ] 0
|  9>     print[ P_Cartesian ] 0
| 10> end
| 11> *xyz 0 1
| 12>  C        2.5538640000     1.2259410000    -1.7147810000
| 13>  C        2.7330620000     0.6378650000    -0.3246670000
| 14>  C        3.4279490000    -0.7216270000    -0.2955030000
| 15>  O        2.6994630000    -1.7089090000    -0.9861500000
| 16>  C        4.8447320000    -0.6499100000    -0.8244270000
| 17>  C        5.5548920000    -1.8393030000    -1.2737610000
| 18>  O        4.9918330000    -0.9265160000    -2.2131990000
| 19>  H        2.0435810000     2.1899200000    -1.6629920000
| 20>  H        1.9471870000     0.5702940000    -2.3435420000
| 21>  H        3.5100880000     1.3819580000    -2.2199520000
| 22>  H        1.7571790000     0.5170720000     0.1547350000
| 23>  H        3.3064220000     1.3279520000     0.3056490000
| 24>  H        3.4813630000    -1.0525590000     0.7486640000
| 25>  H        2.9575730000    -1.6378530000    -1.9139880000
| 26>  H        5.4333810000     0.1971210000    -0.4746960000
| 27>  H        5.0556300000    -2.8020850000    -1.2158230000
| 28>  H        6.6408910000    -1.8573820000    -1.2499770000
| 29> *
| 30>
| 31>                          ****END OF INPUT****
 Total Charge           Charge          ....    0
 Multiplicity           Mult            ....    1
 Number of Electrons    NEL             ....   56
 Basis Dimension        Dim             ....  148

MULLIKEN ATOMIC CHARGES
-----------------------
   0 C :   -0.046622
   1 C :   -0.004632
   2 C :    0.154682
   3 O :   -0.270454
   4 C :   -0.036404
   5 C :    0.146534
   6 O :   -0.304132
   7 H :    0.023685
   8 H :    0.022683
   9 H :    0.031854
  10 H :    0.017099
  11 H :    0.008202
  12 H :    0.011941
  13 H :    0.157244
  14 H :    0.018678
  15 H :    0.030480
  16 H :    0.039162
Sum of atomic charges:   -0.0000000

LOEWDIN ATOMIC CHARGES
----------------------
   0 C :   -0.072685
   1 C :   -0.058042
   2 C :    0.033713
   3 O :   -0.100962
   4 C :    0.025737
   5 C :    0.056806
   6 O :   -0.157856
   7 H :    0.029785
   8 H :    0.024511
   9 H :    0.026883
  10 H :    0.029200
  11 H :    0.024711
  12 H :    0.027230
  13 H :    0.057295
  14 H :    0.018670
  15 H :    0.015753
  16 H :    0.019252

  Mayer bond orders larger than 0.1
B(  0-C ,  1-C ) :   1.1092 B(  0-C ,  7-H ) :   0.9584 B(  0-C ,  8-H ) :   0.9606
B(  0-C ,  9-H ) :   0.9631 B(  1-C ,  2-C ) :   1.0624 B(  1-C , 10-H ) :   0.9271
B(  1-C , 11-H ) :   0.9231 B(  2-C ,  3-O ) :   1.0810 B(  2-C ,  4-C ) :   0.9636
B(  2-C , 12-H ) :   0.9065 B(  3-O , 13-H ) :   0.9549 B(  4-C ,  5-C ) :   1.0766
B(  4-C ,  6-O ) :   0.9650 B(  4-C , 14-H ) :   0.9366 B(  5-C ,  6-O ) :   0.9777
B(  5-C , 15-H ) :   0.9263 B(  5-C , 16-H ) :   0.9408

FINAL SINGLE POINT ENERGY      -346.270004112787

DIPOLE MOMENT
-------------
                                X             Y             Z
Electronic contribution:      2.28819      -4.14744      -0.87249
Nuclear contribution   :     -1.83788       4.35201       1.23130
                        -----------------------------------------
Total Dipole Moment    :      0.45031       0.20457       0.35881
                        -----------------------------------------
Magnitude (a.u.)       :      0.61104
Magnitude (Debye)      :      1.55315

                             ****ORCA TERMINATED NORMALLY****
TOTAL RUN TIME: 0 days 0 hours 0 minutes 7 seconds 586 msec
