                         Program Version 3.0.3 - RELEASE   -
|  1> ! RI PBE def2-SVP def2-SVP/J NBO PAL2
|  2> % maxcore 2000
|  3> % output
|  4>     # printlevel mini
|  5>     print[ P_Basis ] 0
|  6>     print[ P_SCFInfo ] 1
|  7>     print[ P_SCFIterInfo ] 1
|  8>     print[ P_OrbEn ] 0
|  9>     print[ P_Cartesian ] 0
| 10> end
| 11> *xyz 0 1
| 12>  C        1.1966650000     5.1536800000    -0.8632550000
| 13>  C        2.3609790000     4.2013170000    -1.0787410000
| 14>  C        2.6624620000     3.3937530000     0.1726160000
| 15>  O        3.6717030000     2.4284280000     0.0092000000
| 16>  C        4.9797010000     2.9467200000     0.0122610000
| 17>  C        5.9650870000     1.8018100000    -0.0625450000
| 18>  C        5.8651230000     1.0072890000    -1.3536720000
| 19>  H        0.9772380000     5.7252790000    -1.7671630000
| 20>  H        1.4101640000     5.8691680000    -0.0640100000
| 21>  H        0.2879520000     4.6119840000    -0.5856160000
| 22>  H        3.2472470000     4.7671860000    -1.3821400000
| 23>  H        2.1376790000     3.5054400000    -1.8935470000
| 24>  H        1.7660000000     2.8414780000     0.4717950000
| 25>  H        2.9195940000     4.0715040000     1.0027960000
| 26>  H        5.1438580000     3.5315440000     0.9310270000
| 27>  H        5.1351220000     3.6251660000    -0.8403060000
| 28>  H        5.7990900000     1.1448980000     0.7972800000
| 29>  H        6.9722710000     2.2177390000     0.0477790000
| 30>  H        4.8689310000     0.5771180000    -1.4678240000
| 31>  H        6.5915810000     0.1918650000    -1.3736130000
| 32>  H        6.0556620000     1.6445470000    -2.2223330000
| 33> *
| 34>
| 35>                          ****END OF INPUT****
 Total Charge           Charge          ....    0
 Multiplicity           Mult            ....    1
 Number of Electrons    NEL             ....   58
 Basis Dimension        Dim             ....  168

MULLIKEN ATOMIC CHARGES
-----------------------
   0 C :   -0.035862
   1 C :   -0.065051
   2 C :    0.169641
   3 O :   -0.340496
   4 C :    0.164962
   5 C :   -0.029048
   6 C :   -0.034434
   7 H :    0.023733
   8 H :    0.021195
   9 H :    0.019638
  10 H :    0.018415
  11 H :    0.021800
  12 H :    0.005928
  13 H :   -0.014127
  14 H :   -0.009380
  15 H :   -0.008387
  16 H :    0.018552
  17 H :    0.006198
  18 H :    0.032478
  19 H :    0.022527
  20 H :    0.011716
Sum of atomic charges:   -0.0000000

LOEWDIN ATOMIC CHARGES
----------------------
   0 C :   -0.064543
   1 C :   -0.066246
   2 C :    0.055737
   3 O :   -0.145022
   4 C :    0.060670
   5 C :   -0.055624
   6 C :   -0.068497
   7 H :    0.028785
   8 H :    0.024874
   9 H :    0.025022
  10 H :    0.022398
  11 H :    0.026737
  12 H :    0.018463
  13 H :    0.002129
  14 H :    0.003510
  15 H :   -0.000106
  16 H :    0.027368
  17 H :    0.027343
  18 H :    0.027911
  19 H :    0.026147
  20 H :    0.022944

  Mayer bond orders larger than 0.1
B(  0-C ,  1-C ) :   1.1051 B(  0-C ,  7-H ) :   0.9603 B(  0-C ,  8-H ) :   0.9681
B(  0-C ,  9-H ) :   0.9666 B(  1-C ,  2-C ) :   1.0859 B(  1-C , 10-H ) :   0.9319
B(  1-C , 11-H ) :   0.9315 B(  2-C ,  3-O ) :   1.0357 B(  2-C , 12-H ) :   0.9431
B(  2-C , 13-H ) :   0.9283 B(  3-O ,  4-C ) :   1.0106 B(  4-C ,  5-C ) :   1.0919
B(  4-C , 14-H ) :   0.9252 B(  4-C , 15-H ) :   0.9213 B(  5-C ,  6-C ) :   1.1183
B(  5-C , 16-H ) :   0.9343 B(  5-C , 17-H ) :   0.9283 B(  6-C , 18-H ) :   0.9664
B(  6-C , 19-H ) :   0.9644 B(  6-C , 20-H ) :   0.9656

FINAL SINGLE POINT ENERGY      -311.628987251468

DIPOLE MOMENT
-------------
                                X             Y             Z
Electronic contribution:      0.04924      -1.85487       1.86018
Nuclear contribution   :     -0.00242       2.26805      -1.86103
                        -----------------------------------------
Total Dipole Moment    :      0.04682       0.41318      -0.00085
                        -----------------------------------------
Magnitude (a.u.)       :      0.41582
Magnitude (Debye)      :      1.05694

                             ****ORCA TERMINATED NORMALLY****
TOTAL RUN TIME: 0 days 0 hours 0 minutes 8 seconds 780 msec
