                         Program Version 3.0.3 - RELEASE   -
|  1> ! RI PBE def2-SVP def2-SVP/J NBO PAL2
|  2> % maxcore 2000
|  3> % output
|  4>     # printlevel mini
|  5>     print[ P_Basis ] 0
|  6>     print[ P_SCFInfo ] 1
|  7>     print[ P_SCFIterInfo ] 1
|  8>     print[ P_OrbEn ] 0
|  9>     print[ P_Cartesian ] 0
| 10> end
| 11> *xyz 0 1
| 12>  C        1.4798980000     0.7707770000     0.4532290000
| 13>  C        2.7283720000     0.3941880000     0.2025180000
| 14>  C        3.0155620000    -0.6883870000    -0.7695110000
| 15>  O        2.1538490000    -1.2747380000    -1.3760800000
| 16>  C        4.4805940000    -1.0876080000    -0.9464980000
| 17>  C        5.3969700000     0.0299650000    -1.0652950000
| 18>  C        6.1414290000     0.9650470000    -1.1739350000
| 19>  H        1.2531380000     1.5537180000     1.1669630000
| 20>  H        0.6542320000     0.2930680000    -0.0637430000
| 21>  H        3.5730380000     0.8623750000     0.6963150000
| 22>  H        4.5386920000    -1.7396250000    -1.8202340000
| 23>  H        4.7534210000    -1.6928230000    -0.0715950000
| 24>  H        6.8053150000     1.7908320000    -1.2753340000
| 25> *
| 26>
| 27>                          ****END OF INPUT****
 Total Charge           Charge          ....    0
 Multiplicity           Mult            ....    1
 Number of Electrons    NEL             ....   50
 Basis Dimension        Dim             ....  128

MULLIKEN ATOMIC CHARGES
-----------------------
   0 C :    0.027608
   1 C :   -0.048004
   2 C :   -0.005751
   3 O :   -0.149683
   4 C :    0.126023
   5 C :    0.282372
   6 C :   -0.457269
   7 H :    0.041402
   8 H :    0.045517
   9 H :    0.015251
  10 H :    0.050641
  11 H :    0.069095
  12 H :    0.002799
Sum of atomic charges:   -0.0000000

LOEWDIN ATOMIC CHARGES
----------------------
   0 C :    0.027458
   1 C :   -0.069868
   2 C :    0.061618
   3 O :   -0.110567
   4 C :   -0.069565
   5 C :   -0.029237
   6 C :   -0.077277
   7 H :    0.033071
   8 H :    0.033814
   9 H :    0.033633
  10 H :    0.060491
  11 H :    0.069834
  12 H :    0.036594

  Mayer bond orders larger than 0.1
B(  0-C ,  1-C ) :   1.9362 B(  0-C ,  7-H ) :   0.9440 B(  0-C ,  8-H ) :   0.9337
B(  1-C ,  2-C ) :   0.9858 B(  1-C ,  9-H ) :   0.9461 B(  2-C ,  3-O ) :   2.1631
B(  2-C ,  4-C ) :   0.9505 B(  4-C ,  5-C ) :   1.0452 B(  4-C , 10-H ) :   0.8824
B(  4-C , 11-H ) :   0.8849 B(  5-C ,  6-C ) :   2.3628 B(  5-C , 12-H ) :  -0.1099
B(  6-C , 12-H ) :   1.1013

FINAL SINGLE POINT ENERGY      -306.759779518127

DIPOLE MOMENT
-------------
                                X             Y             Z
Electronic contribution:      0.17197      -1.45059      -1.86061
Nuclear contribution   :      0.16335       1.86462       2.47609
                        -----------------------------------------
Total Dipole Moment    :      0.33532       0.41404       0.61548
                        -----------------------------------------
Magnitude (a.u.)       :      0.81405
Magnitude (Debye)      :      2.06915

                             ****ORCA TERMINATED NORMALLY****
TOTAL RUN TIME: 0 days 0 hours 0 minutes 5 seconds 923 msec
