                         Program Version 3.0.3 - RELEASE   -
|  1> ! RI PBE def2-SVP def2-SVP/J NBO PAL2
|  2> % maxcore 2000
|  3> % output
|  4>     # printlevel mini
|  5>     print[ P_Basis ] 0
|  6>     print[ P_SCFInfo ] 1
|  7>     print[ P_SCFIterInfo ] 1
|  8>     print[ P_OrbEn ] 0
|  9>     print[ P_Cartesian ] 0
| 10> end
| 11> *xyz 0 1
| 12>  C        1.0838370000    -0.4346630000    -0.5500950000
| 13>  C        2.2679360000    -0.1372080000    -0.0376680000
| 14>  C        2.9678870000    -0.9624290000     0.9848920000
| 15>  O        4.2865500000    -1.2077860000     0.5599200000
| 16>  C        5.0407380000    -1.8935750000     1.5164640000
| 17>  C        6.4321810000    -2.1288440000     1.0419180000
| 18>  C        6.9130510000    -1.7560890000    -0.1337820000
| 19>  H        0.5960560000     0.2148460000    -1.2674030000
| 20>  H        0.5555400000    -1.3398290000    -0.2666010000
| 21>  H        2.7870520000     0.7680290000    -0.3428560000
| 22>  H        2.4283490000    -1.9069640000     1.1505570000
| 23>  H        2.9866040000    -0.4228080000     1.9471550000
| 24>  H        4.5699050000    -2.8628690000     1.7567440000
| 25>  H        5.0683320000    -1.3253580000     2.4628280000
| 26>  H        7.0673330000    -2.6536480000     1.7518530000
| 27>  H        6.2925930000    -1.2346260000    -0.8523780000
| 28>  H        7.9401550000    -1.9646590000    -0.4081590000
| 29> *
| 30>
| 31>                          ****END OF INPUT****
 Total Charge           Charge          ....    0
 Multiplicity           Mult            ....    1
 Number of Electrons    NEL             ....   54
 Basis Dimension        Dim             ....  148

MULLIKEN ATOMIC CHARGES
-----------------------
   0 C :   -0.038625
   1 C :   -0.077496
   2 C :    0.233849
   3 O :   -0.340906
   4 C :    0.234013
   5 C :   -0.132577
   6 C :   -0.012934
   7 H :    0.032364
   8 H :    0.022089
   9 H :    0.014933
  10 H :   -0.006458
  11 H :    0.005636
  12 H :    0.003433
  13 H :    0.001078
  14 H :    0.009565
  15 H :    0.030665
  16 H :    0.021374
Sum of atomic charges:    0.0000000

LOEWDIN ATOMIC CHARGES
----------------------
   0 C :   -0.051571
   1 C :   -0.034336
   2 C :    0.062157
   3 O :   -0.137323
   4 C :    0.058242
   5 C :   -0.051688
   6 C :   -0.058710
   7 H :    0.027289
   8 H :    0.022904
   9 H :    0.030338
  10 H :    0.009389
  11 H :    0.013956
  12 H :    0.015341
  13 H :    0.014467
  14 H :    0.029057
  15 H :    0.025871
  16 H :    0.024617

  Mayer bond orders larger than 0.1
B(  0-C ,  1-C ) :   2.0093 B(  0-C ,  7-H ) :   0.9490 B(  0-C ,  8-H ) :   0.9467
B(  1-C ,  2-C ) :   1.0500 B(  1-C ,  9-H ) :   0.9586 B(  2-C ,  3-O ) :   0.9791
B(  2-C , 10-H ) :   0.9249 B(  2-C , 11-H ) :   0.9068 B(  3-O ,  4-C ) :   1.0415
B(  4-C ,  5-C ) :   1.0468 B(  4-C , 12-H ) :   0.9100 B(  4-C , 13-H ) :   0.9082
B(  5-C ,  6-C ) :   2.0301 B(  5-C , 14-H ) :   0.9428 B(  6-C , 15-H ) :   0.9393
B(  6-C , 16-H ) :   0.9423

FINAL SINGLE POINT ENERGY      -309.177155173329

DIPOLE MOMENT
-------------
                                X             Y             Z
Electronic contribution:      0.75151       0.38448      -0.44553
Nuclear contribution   :     -1.00043      -0.47110       0.89832
                        -----------------------------------------
Total Dipole Moment    :     -0.24892      -0.08663       0.45280
                        -----------------------------------------
Magnitude (a.u.)       :      0.52392
Magnitude (Debye)      :      1.33169

                             ****ORCA TERMINATED NORMALLY****
TOTAL RUN TIME: 0 days 0 hours 0 minutes 7 seconds 35 msec
