                         Program Version 3.0.3 - RELEASE   -
|  1> ! RI PBE def2-SVP def2-SVP/J NBO PAL2
|  2> % maxcore 2000
|  3> % output
|  4>     # printlevel mini
|  5>     print[ P_Basis ] 0
|  6>     print[ P_SCFInfo ] 1
|  7>     print[ P_SCFIterInfo ] 1
|  8>     print[ P_OrbEn ] 0
|  9>     print[ P_Cartesian ] 0
| 10> end
| 11> *xyz 0 1
| 12>  C        0.9322170000     0.7953010000    -1.0637290000
| 13>  C        1.7963640000     0.3896000000    -0.1463450000
| 14>  C        2.6179450000    -0.8457110000    -0.2617890000
| 15>  O        3.9680860000    -0.5249080000    -0.0113500000
| 16>  C        4.7831010000    -1.6690460000    -0.0143350000
| 17>  C        6.1615580000    -1.3082580000     0.2680500000
| 18>  C        7.3068390000    -1.0387310000     0.4988980000
| 19>  H        0.3302230000     1.6849810000    -0.9214490000
| 20>  H        0.7920600000     0.2495090000    -1.9917280000
| 21>  H        1.9318600000     0.9567880000     0.7710660000
| 22>  H        2.5015550000    -1.2936660000    -1.2599340000
| 23>  H        2.2757670000    -1.5916810000     0.4757540000
| 24>  H        4.7345500000    -2.1768370000    -0.9905300000
| 25>  H        4.4350100000    -2.3922080000     0.7403680000
| 26>  H        8.3215660000    -0.7915220000     0.7039710000
| 27> *
| 28>
| 29>                          ****END OF INPUT****
 Total Charge           Charge          ....    0
 Multiplicity           Mult            ....    1
 Number of Electrons    NEL             ....   52
 Basis Dimension        Dim             ....  138

MULLIKEN ATOMIC CHARGES
-----------------------
   0 C :   -0.033667
   1 C :   -0.076304
   2 C :    0.228552
   3 O :   -0.340575
   4 C :    0.226526
   5 C :    0.318786
   6 C :   -0.447159
   7 H :    0.032676
   8 H :    0.021460
   9 H :    0.018379
  10 H :   -0.009591
  11 H :    0.009869
  12 H :    0.020612
  13 H :    0.023897
  14 H :    0.006539
Sum of atomic charges:   -0.0000000

LOEWDIN ATOMIC CHARGES
----------------------
   0 C :   -0.049056
   1 C :   -0.034726
   2 C :    0.061070
   3 O :   -0.139894
   4 C :    0.053820
   5 C :   -0.027459
   6 C :   -0.062341
   7 H :    0.027980
   8 H :    0.023188
   9 H :    0.031966
  10 H :    0.008948
  11 H :    0.014872
  12 H :    0.027381
  13 H :    0.027402
  14 H :    0.036849

  Mayer bond orders larger than 0.1
B(  0-C ,  1-C ) :   2.0172 B(  0-C ,  7-H ) :   0.9472 B(  0-C ,  8-H ) :   0.9454
B(  1-C ,  2-C ) :   1.0489 B(  1-C ,  9-H ) :   0.9568 B(  2-C ,  3-O ) :   0.9797
B(  2-C , 10-H ) :   0.9244 B(  2-C , 11-H ) :   0.9089 B(  3-O ,  4-C ) :   1.0416
B(  4-C ,  5-C ) :   1.0131 B(  4-C , 12-H ) :   0.9032 B(  4-C , 13-H ) :   0.9050
B(  5-C ,  6-C ) :   2.4003 B(  6-C , 14-H ) :   1.0890

FINAL SINGLE POINT ENERGY      -307.928331099508

DIPOLE MOMENT
-------------
                                X             Y             Z
Electronic contribution:      5.03128       0.06243       1.37197
Nuclear contribution   :     -5.32085      -0.49728      -1.43479
                        -----------------------------------------
Total Dipole Moment    :     -0.28958      -0.43485      -0.06282
                        -----------------------------------------
Magnitude (a.u.)       :      0.52621
Magnitude (Debye)      :      1.33752

                             ****ORCA TERMINATED NORMALLY****
TOTAL RUN TIME: 0 days 0 hours 0 minutes 6 seconds 807 msec
