                         Program Version 3.0.3 - RELEASE   -
|  1> ! RI PBE def2-SVP def2-SVP/J NBO PAL2
|  2> % maxcore 2000
|  3> % output
|  4>     # printlevel mini
|  5>     print[ P_Basis ] 0
|  6>     print[ P_SCFInfo ] 1
|  7>     print[ P_SCFIterInfo ] 1
|  8>     print[ P_OrbEn ] 0
|  9>     print[ P_Cartesian ] 0
| 10> end
| 11> *xyz 0 1
| 12>  C        1.1097760000     0.1301480000     0.1511170000
| 13>  C        2.3058960000     0.0963800000     0.0760620000
| 14>  C        3.7545520000     0.0322210000     0.0142280000
| 15>  O        4.2276020000     0.8648470000    -1.0220860000
| 16>  C        5.6311340000     0.8826280000    -1.1023770000
| 17>  C        6.2203770000    -0.3989470000    -1.4847970000
| 18>  C        6.7041060000    -1.4525670000    -1.7949620000
| 19>  H        0.0475990000     0.1638120000     0.2105890000
| 20>  H        4.0699370000    -1.0069740000    -0.1528580000
| 21>  H        4.1759940000     0.3509790000     0.9803150000
| 22>  H        6.0708800000     1.2083500000    -0.1473670000
| 23>  H        5.8790910000     1.6362600000    -1.8531970000
| 24>  H        7.1328550000    -2.3852270000    -2.0776670000
| 25> *
| 26>
| 27>                          ****END OF INPUT****
 Total Charge           Charge          ....    0
 Multiplicity           Mult            ....    1
 Number of Electrons    NEL             ....   50
 Basis Dimension        Dim             ....  128

MULLIKEN ATOMIC CHARGES
-----------------------
   0 C :   -0.436231
   1 C :    0.303612
   2 C :    0.237293
   3 O :   -0.328475
   4 C :    0.287867
   5 C :    0.252257
   6 C :   -0.459854
   7 H :    0.005850
   8 H :    0.041126
   9 H :    0.017847
  10 H :    0.022013
  11 H :    0.049382
  12 H :    0.007313
Sum of atomic charges:   -0.0000000

LOEWDIN ATOMIC CHARGES
----------------------
   0 C :   -0.059841
   1 C :   -0.027848
   2 C :    0.057121
   3 O :   -0.128150
   4 C :    0.055050
   5 C :   -0.046579
   6 C :   -0.064572
   7 H :    0.036545
   8 H :    0.034298
   9 H :    0.028653
  10 H :    0.028142
  11 H :    0.048911
  12 H :    0.038270

  Mayer bond orders larger than 0.1
B(  0-C ,  1-C ) :   2.4075 B(  0-C ,  7-H ) :   1.0914 B(  1-C ,  2-C ) :   1.0303
B(  1-C ,  7-H ) :  -0.1002 B(  2-C ,  3-O ) :   1.0263 B(  2-C ,  8-H ) :   0.9017
B(  2-C ,  9-H ) :   0.8982 B(  3-O ,  4-C ) :   1.0434 B(  4-C ,  5-C ) :   1.0142
B(  4-C , 10-H ) :   0.9119 B(  4-C , 11-H ) :   0.9077 B(  5-C ,  6-C ) :   2.3848
B(  5-C , 12-H ) :  -0.1055 B(  6-C , 12-H ) :   1.0959

FINAL SINGLE POINT ENERGY      -306.683413857825

DIPOLE MOMENT
-------------
                                X             Y             Z
Electronic contribution:     -1.12711       0.15876      -0.98442
Nuclear contribution   :      1.50542      -0.33427       1.27957
                        -----------------------------------------
Total Dipole Moment    :      0.37830      -0.17551       0.29515
                        -----------------------------------------
Magnitude (a.u.)       :      0.51091
Magnitude (Debye)      :      1.29863

                             ****ORCA TERMINATED NORMALLY****
TOTAL RUN TIME: 0 days 0 hours 0 minutes 5 seconds 627 msec
