                         Program Version 3.0.3 - RELEASE   -
|  1> ! RI PBE def2-SVP def2-SVP/J NBO PAL2
|  2> % maxcore 2000
|  3> % output
|  4>     # printlevel mini
|  5>     print[ P_Basis ] 0
|  6>     print[ P_SCFInfo ] 1
|  7>     print[ P_SCFIterInfo ] 1
|  8>     print[ P_OrbEn ] 0
|  9>     print[ P_Cartesian ] 0
| 10> end
| 11> *xyz 0 1
| 12>  C        0.4603710000     0.7040170000    -1.6287610000
| 13>  C        1.7361360000    -0.0469870000    -1.4637400000
| 14>  C        2.7613920000     0.0681820000    -2.2954700000
| 15>  O        3.9140670000    -0.6293500000    -2.1208520000
| 16>  C        4.9106500000    -0.4460300000    -3.0257920000
| 17>  C        6.0692000000    -1.0830700000    -2.9356290000
| 18>  C        7.1799870000    -0.9030780000    -3.9116260000
| 19>  H        0.2530560000     1.3360620000    -0.7593250000
| 20>  H       -0.3920530000     0.0255910000    -1.7359550000
| 21>  H        0.4867110000     1.3482290000    -2.5105790000
| 22>  H        1.8324030000    -0.7236220000    -0.6194140000
| 23>  H        2.7403700000     0.7252190000    -3.1631830000
| 24>  H        4.6904680000     0.2580900000    -3.8262930000
| 25>  H        6.2147340000    -1.7709630000    -2.1076110000
| 26>  H        6.9129930000    -0.1892360000    -4.6942180000
| 27>  H        7.4428080000    -1.8483590000    -4.3971650000
| 28>  H        8.0878090000    -0.5372660000    -3.4212980000
| 29> *
| 30>
| 31>                          ****END OF INPUT****
 Total Charge           Charge          ....    0
 Multiplicity           Mult            ....    1
 Number of Electrons    NEL             ....   54
 Basis Dimension        Dim             ....  148

MULLIKEN ATOMIC CHARGES
-----------------------
   0 C :    0.020240
   1 C :   -0.127507
   2 C :    0.123676
   3 O :   -0.199042
   4 C :    0.125024
   5 C :   -0.130140
   6 C :    0.026666
   7 H :    0.033988
   8 H :    0.034391
   9 H :    0.017000
  10 H :    0.009170
  11 H :   -0.011060
  12 H :   -0.011611
  13 H :    0.007349
  14 H :    0.017466
  15 H :    0.031896
  16 H :    0.032497
Sum of atomic charges:   -0.0000000

LOEWDIN ATOMIC CHARGES
----------------------
   0 C :   -0.060453
   1 C :   -0.090856
   2 C :    0.021692
   3 O :   -0.017760
   4 C :    0.021491
   5 C :   -0.090551
   6 C :   -0.059484
   7 H :    0.034304
   8 H :    0.034620
   9 H :    0.029330
  10 H :    0.030077
  11 H :    0.010154
  12 H :    0.009982
  13 H :    0.029717
  14 H :    0.029482
  15 H :    0.034149
  16 H :    0.034106

  Mayer bond orders larger than 0.1
B(  0-C ,  1-C ) :   1.0875 B(  0-C ,  7-H ) :   0.9501 B(  0-C ,  8-H ) :   0.9490
B(  0-C ,  9-H ) :   0.9632 B(  1-C ,  2-C ) :   1.8359 B(  1-C , 10-H ) :   0.9565
B(  2-C ,  3-O ) :   1.0731 B(  2-C , 11-H ) :   0.9483 B(  3-O ,  4-C ) :   1.0735
B(  4-C ,  5-C ) :   1.8317 B(  4-C , 12-H ) :   0.9492 B(  5-C ,  6-C ) :   1.0914
B(  5-C , 13-H ) :   0.9577 B(  6-C , 14-H ) :   0.9625 B(  6-C , 15-H ) :   0.9486
B(  6-C , 16-H ) :   0.9493

FINAL SINGLE POINT ENERGY      -309.201714470351

DIPOLE MOMENT
-------------
                                X             Y             Z
Electronic contribution:      0.26632      -1.49518       1.83018
Nuclear contribution   :     -0.31176       1.75929      -2.15617
                        -----------------------------------------
Total Dipole Moment    :     -0.04544       0.26411      -0.32599
                        -----------------------------------------
Magnitude (a.u.)       :      0.42200
Magnitude (Debye)      :      1.07264

                             ****ORCA TERMINATED NORMALLY****
TOTAL RUN TIME: 0 days 0 hours 0 minutes 7 seconds 241 msec
