                         Program Version 3.0.3 - RELEASE   -
|  1> ! RI PBE def2-SVP def2-SVP/J NBO PAL2
|  2> % maxcore 2000
|  3> % output
|  4>     # printlevel mini
|  5>     print[ P_Basis ] 0
|  6>     print[ P_SCFInfo ] 1
|  7>     print[ P_SCFIterInfo ] 1
|  8>     print[ P_OrbEn ] 0
|  9>     print[ P_Cartesian ] 0
| 10> end
| 11> *xyz 0 1
| 12>  C        5.5640160000    -0.9803760000    -4.0564740000
| 13>  C        5.7539810000     0.2211090000    -3.1906000000
| 14>  C        5.1756550000     0.3346720000    -1.9965100000
| 15>  O        5.2222700000     1.3505830000    -1.1115380000
| 16>  C        5.9967630000     2.5046990000    -1.4276600000
| 17>  C        5.4397160000     3.6329390000    -0.5889740000
| 18>  C        7.4678440000     2.2545200000    -1.1540720000
| 19>  H        5.1156770000    -0.7161950000    -5.0198330000
| 20>  H        4.9111400000    -1.7140500000    -3.5778190000
| 21>  H        6.5158240000    -1.4751420000    -4.2759830000
| 22>  H        6.3904900000     1.0108360000    -3.5754710000
| 23>  H        4.5485280000    -0.4633780000    -1.6082920000
| 24>  H        5.8477470000     2.7394090000    -2.4894250000
| 25>  H        5.5328730000     3.3963300000     0.4735760000
| 26>  H        4.3849020000     3.7979520000    -0.8140310000
| 27>  H        5.9866920000     4.5573670000    -0.7857240000
| 28>  H        7.6231060000     2.0688700000    -0.0885160000
| 29>  H        8.0608880000     3.1260060000    -1.4412580000
| 30>  H        7.8360970000     1.3911400000    -1.7093860000
| 31> *
| 32>
| 33>                          ****END OF INPUT****
 Total Charge           Charge          ....    0
 Multiplicity           Mult            ....    1
 Number of Electrons    NEL             ....   56
 Basis Dimension        Dim             ....  158

MULLIKEN ATOMIC CHARGES
-----------------------
   0 C :    0.035668
   1 C :   -0.171049
   2 C :    0.117610
   3 O :   -0.260283
   4 C :    0.010275
   5 C :    0.021258
   6 C :    0.011792
   7 H :    0.027225
   8 H :    0.018261
   9 H :    0.025388
  10 H :    0.005719
  11 H :   -0.001316
  12 H :    0.012327
  13 H :    0.029077
  14 H :    0.027614
  15 H :    0.017546
  16 H :    0.023472
  17 H :    0.021420
  18 H :    0.027996
Sum of atomic charges:    0.0000000

LOEWDIN ATOMIC CHARGES
----------------------
   0 C :   -0.060050
   1 C :   -0.132646
   2 C :    0.018920
   3 O :   -0.069152
   4 C :    0.052995
   5 C :   -0.064616
   6 C :   -0.071246
   7 H :    0.030818
   8 H :    0.029756
   9 H :    0.030121
  10 H :    0.019618
  11 H :    0.019057
  12 H :    0.012479
  13 H :    0.030362
  14 H :    0.030804
  15 H :    0.031077
  16 H :    0.030143
  17 H :    0.031514
  18 H :    0.030046

  Mayer bond orders larger than 0.1
B(  0-C ,  1-C ) :   1.0914 B(  0-C ,  7-H ) :   0.9487 B(  0-C ,  8-H ) :   0.9607
B(  0-C ,  9-H ) :   0.9487 B(  1-C ,  2-C ) :   1.7838 B(  1-C ,  3-O ) :   0.1011
B(  1-C , 10-H ) :   0.9499 B(  2-C ,  3-O ) :   1.1520 B(  2-C , 11-H ) :   0.9650
B(  3-O ,  4-C ) :   0.9457 B(  4-C ,  5-C ) :   1.0857 B(  4-C ,  6-C ) :   1.0963
B(  4-C , 12-H ) :   0.9146 B(  5-C , 13-H ) :   0.9574 B(  5-C , 14-H ) :   0.9566
B(  5-C , 15-H ) :   0.9559 B(  6-C , 16-H ) :   0.9528 B(  6-C , 17-H ) :   0.9558
B(  6-C , 18-H ) :   0.9503

FINAL SINGLE POINT ENERGY      -310.421348517896

DIPOLE MOMENT
-------------
                                X             Y             Z
Electronic contribution:     -2.57063      -1.15272       1.63954
Nuclear contribution   :      2.82456       1.43087      -1.77892
                        -----------------------------------------
Total Dipole Moment    :      0.25393       0.27815      -0.13938
                        -----------------------------------------
Magnitude (a.u.)       :      0.40159
Magnitude (Debye)      :      1.02077

                             ****ORCA TERMINATED NORMALLY****
TOTAL RUN TIME: 0 days 0 hours 0 minutes 8 seconds 426 msec
