                         Program Version 3.0.3 - RELEASE   -
|  1> ! RI PBE def2-SVP def2-SVP/J NBO PAL2
|  2> % maxcore 2000
|  3> % output
|  4>     # printlevel mini
|  5>     print[ P_Basis ] 0
|  6>     print[ P_SCFInfo ] 1
|  7>     print[ P_SCFIterInfo ] 1
|  8>     print[ P_OrbEn ] 0
|  9>     print[ P_Cartesian ] 0
| 10> end
| 11> *xyz 0 1
| 12>  C        1.6145270000     0.5647810000    -0.1698230000
| 13>  C        2.4728040000    -0.2213390000     0.7593330000
| 14>  C        2.1123270000    -1.3835020000     1.2817330000
| 15>  O        2.8818620000    -2.0220310000     2.2099550000
| 16>  C        2.9189540000    -3.3854990000     2.1992080000
| 17>  C        3.4885790000    -3.8962890000     3.4750830000
| 18>  C        2.5184080000    -4.1409280000     1.1789400000
| 19>  H        1.3669440000     1.5449780000     0.2499650000
| 20>  H        0.6775630000     0.0463540000    -0.3842460000
| 21>  H        2.1245930000     0.7484760000    -1.1203930000
| 22>  H        3.4420510000     0.1854720000     1.0343250000
| 23>  H        1.1670560000    -1.8725230000     1.0562720000
| 24>  H        2.8689860000    -3.5881520000     4.3214480000
| 25>  H        4.4862200000    -3.4785870000     3.6345840000
| 26>  H        3.5594310000    -4.9826020000     3.4609830000
| 27>  H        2.1571590000    -3.7209150000     0.2503500000
| 28>  H        2.5751440000    -5.2169850000     1.2606830000
| 29> *
| 30>
| 31>                          ****END OF INPUT****
 Total Charge           Charge          ....    0
 Multiplicity           Mult            ....    1
 Number of Electrons    NEL             ....   54
 Basis Dimension        Dim             ....  148

MULLIKEN ATOMIC CHARGES
-----------------------
   0 C :    0.028897
   1 C :   -0.108128
   2 C :    0.107617
   3 O :   -0.218826
   4 C :   -0.010618
   5 C :    0.066572
   6 C :   -0.094085
   7 H :    0.034369
   8 H :    0.016604
   9 H :    0.035172
  10 H :    0.004094
  11 H :    0.003281
  12 H :    0.038040
  13 H :    0.038116
  14 H :    0.021757
  15 H :    0.020632
  16 H :    0.016506
Sum of atomic charges:   -0.0000000

LOEWDIN ATOMIC CHARGES
----------------------
   0 C :   -0.059922
   1 C :   -0.076832
   2 C :    0.026644
   3 O :   -0.029490
   4 C :    0.030077
   5 C :   -0.062413
   6 C :   -0.145389
   7 H :    0.035903
   8 H :    0.030500
   9 H :    0.035690
  10 H :    0.029033
  11 H :    0.013197
  12 H :    0.040168
  13 H :    0.042204
  14 H :    0.037498
  15 H :    0.024305
  16 H :    0.028824

  Mayer bond orders larger than 0.1
B(  0-C ,  1-C ) :   1.0926 B(  0-C ,  7-H ) :   0.9452 B(  0-C ,  8-H ) :   0.9609
B(  0-C ,  9-H ) :   0.9501 B(  1-C ,  2-C ) :   1.8626 B(  1-C , 10-H ) :   0.9555
B(  2-C ,  3-O ) :   1.0552 B(  2-C , 11-H ) :   0.9381 B(  3-O ,  4-C ) :   1.0842
B(  4-C ,  5-C ) :   1.0959 B(  4-C ,  6-C ) :   1.8769 B(  5-C , 12-H ) :   0.9416
B(  5-C , 13-H ) :   0.9370 B(  5-C , 14-H ) :   0.9501 B(  6-C , 15-H ) :   0.9321
B(  6-C , 16-H ) :   0.9241

FINAL SINGLE POINT ENERGY      -309.205668692624

DIPOLE MOMENT
-------------
                                X             Y             Z
Electronic contribution:      1.10045      -0.28228       1.76600
Nuclear contribution   :     -1.20755       0.28407      -1.80047
                        -----------------------------------------
Total Dipole Moment    :     -0.10709       0.00179      -0.03448
                        -----------------------------------------
Magnitude (a.u.)       :      0.11252
Magnitude (Debye)      :      0.28601

                             ****ORCA TERMINATED NORMALLY****
TOTAL RUN TIME: 0 days 0 hours 0 minutes 7 seconds 401 msec
