                         Program Version 3.0.3 - RELEASE   -
|  1> ! RI PBE def2-SVP def2-SVP/J NBO PAL2
|  2> % maxcore 2000
|  3> % output
|  4>     # printlevel mini
|  5>     print[ P_Basis ] 0
|  6>     print[ P_SCFInfo ] 1
|  7>     print[ P_SCFIterInfo ] 1
|  8>     print[ P_OrbEn ] 0
|  9>     print[ P_Cartesian ] 0
| 10> end
| 11> *xyz 0 1
| 12>  C        2.4947590000    -6.2861010000     0.0502400000
| 13>  C        3.4887400000    -5.1749750000    -0.0262210000
| 14>  C        3.1323660000    -3.8934280000     0.0251190000
| 15>  O        3.9209420000    -2.8001660000    -0.0340300000
| 16>  C        5.3080670000    -3.0244910000    -0.1890500000
| 17>  C        5.9939740000    -1.7077710000    -0.2888520000
| 18>  C        7.0512200000    -1.3680780000     0.4321480000
| 19>  H        2.5253100000    -6.9152840000    -0.8450790000
| 20>  H        1.4771760000    -5.9019730000     0.1515850000
| 21>  H        2.6898260000    -6.9418480000     0.9048450000
| 22>  H        4.5332200000    -5.4508800000    -0.1257930000
| 23>  H        2.0921570000    -3.5992180000     0.1290560000
| 24>  H        5.4750620000    -3.6126180000    -1.1038630000
| 25>  H        5.6974510000    -3.6043800000     0.6573400000
| 26>  H        5.5860260000    -1.0192820000    -1.0246310000
| 27>  H        7.4664730000    -2.0376190000     1.1791360000
| 28>  H        7.5436330000    -0.4117890000     0.3011590000
| 29> *
| 30>
| 31>                          ****END OF INPUT****
 Total Charge           Charge          ....    0
 Multiplicity           Mult            ....    1
 Number of Electrons    NEL             ....   54
 Basis Dimension        Dim             ....  148

MULLIKEN ATOMIC CHARGES
-----------------------
   0 C :    0.040285
   1 C :   -0.187540
   2 C :    0.128629
   3 O :   -0.268583
   4 C :    0.194942
   5 C :   -0.072122
   6 C :   -0.037304
   7 H :    0.030989
   8 H :    0.013562
   9 H :    0.029826
  10 H :    0.003682
  11 H :    0.002815
  12 H :    0.027599
  13 H :    0.018068
  14 H :    0.018443
  15 H :    0.024300
  16 H :    0.032411
Sum of atomic charges:    0.0000000

LOEWDIN ATOMIC CHARGES
----------------------
   0 C :   -0.059779
   1 C :   -0.131098
   2 C :    0.019093
   3 O :   -0.070181
   4 C :    0.066611
   5 C :   -0.034214
   6 C :   -0.049458
   7 H :    0.032045
   8 H :    0.029347
   9 H :    0.032180
  10 H :    0.021215
  11 H :    0.020148
  12 H :    0.022482
  13 H :    0.018173
  14 H :    0.031379
  15 H :    0.023940
  16 H :    0.028118

  Mayer bond orders larger than 0.1
B(  0-C ,  1-C ) :   1.0777 B(  0-C ,  7-H ) :   0.9513 B(  0-C ,  8-H ) :   0.9606
B(  0-C ,  9-H ) :   0.9500 B(  1-C ,  2-C ) :   1.7879 B(  1-C , 10-H ) :   0.9560
B(  2-C ,  3-O ) :   1.1464 B(  2-C , 11-H ) :   0.9662 B(  3-O ,  4-C ) :   0.9548
B(  4-C ,  5-C ) :   1.0434 B(  4-C , 12-H ) :   0.9118 B(  4-C , 13-H ) :   0.9304
B(  5-C ,  6-C ) :   2.0135 B(  5-C , 14-H ) :   0.9567 B(  6-C , 15-H ) :   0.9487
B(  6-C , 16-H ) :   0.9471

FINAL SINGLE POINT ENERGY      -309.191241964999

DIPOLE MOMENT
-------------
                                X             Y             Z
Electronic contribution:     -0.11333       4.15060      -0.30348
Nuclear contribution   :      0.41161      -4.32180       0.23606
                        -----------------------------------------
Total Dipole Moment    :      0.29828      -0.17120      -0.06742
                        -----------------------------------------
Magnitude (a.u.)       :      0.35046
Magnitude (Debye)      :      0.89081

                             ****ORCA TERMINATED NORMALLY****
TOTAL RUN TIME: 0 days 0 hours 0 minutes 6 seconds 912 msec
