                         Program Version 3.0.3 - RELEASE   -
|  1> ! RI PBE def2-SVP def2-SVP/J NBO PAL2
|  2> % maxcore 2000
|  3> % output
|  4>     # printlevel mini
|  5>     print[ P_Basis ] 0
|  6>     print[ P_SCFInfo ] 1
|  7>     print[ P_SCFIterInfo ] 1
|  8>     print[ P_OrbEn ] 0
|  9>     print[ P_Cartesian ] 0
| 10> end
| 11> *xyz 0 1
| 12>  C        0.0816720000     0.0384130000     0.3698770000
| 13>  C        1.5143860000    -0.0957240000    -0.0273680000
| 14>  C        2.4809460000    -0.3242320000     0.8583330000
| 15>  O        3.8071930000    -0.4662270000     0.6394840000
| 16>  C        4.2262140000    -0.3574790000    -0.7028840000
| 17>  C        5.6653650000    -0.5289100000    -0.7802520000
| 18>  C        6.8519990000    -0.6659300000    -0.8803470000
| 19>  H       -0.3226680000     1.0156350000     0.0878520000
| 20>  H       -0.0431030000    -0.0747880000     1.4489840000
| 21>  H       -0.5422130000    -0.7162750000    -0.1192100000
| 22>  H        1.7439170000     0.0014340000    -1.0833290000
| 23>  H        2.2691690000    -0.4242240000     1.9181900000
| 24>  H        3.9461140000     0.6251750000    -1.1066770000
| 25>  H        3.7269800000    -1.1199330000    -1.3165230000
| 26>  H        7.9062290000    -0.7890450000    -0.9606220000
| 27> *
| 28>
| 29>                          ****END OF INPUT****
 Total Charge           Charge          ....    0
 Multiplicity           Mult            ....    1
 Number of Electrons    NEL             ....   52
 Basis Dimension        Dim             ....  138

MULLIKEN ATOMIC CHARGES
-----------------------
   0 C :    0.043012
   1 C :   -0.175113
   2 C :    0.115716
   3 O :   -0.256738
   4 C :    0.194051
   5 C :    0.346391
   6 C :   -0.458133
   7 H :    0.028260
   8 H :    0.019543
   9 H :    0.031776
  10 H :    0.011051
  11 H :    0.006465
  12 H :    0.040026
  13 H :    0.045986
  14 H :    0.007705
Sum of atomic charges:    0.0000000

LOEWDIN ATOMIC CHARGES
----------------------
   0 C :   -0.058597
   1 C :   -0.127007
   2 C :    0.019670
   3 O :   -0.063078
   4 C :    0.062573
   5 C :   -0.029939
   6 C :   -0.055241
   7 H :    0.032402
   8 H :    0.031099
   9 H :    0.033405
  10 H :    0.022332
  11 H :    0.022693
  12 H :    0.035468
  13 H :    0.036623
  14 H :    0.037598

  Mayer bond orders larger than 0.1
B(  0-C ,  1-C ) :   1.0800 B(  0-C ,  7-H ) :   0.9493 B(  0-C ,  8-H ) :   0.9598
B(  0-C ,  9-H ) :   0.9482 B(  1-C ,  2-C ) :   1.7830 B(  1-C , 10-H ) :   0.9531
B(  2-C ,  3-O ) :   1.1422 B(  2-C , 11-H ) :   0.9677 B(  3-O ,  4-C ) :   0.9999
B(  4-C ,  5-C ) :   0.9900 B(  4-C , 12-H ) :   0.9087 B(  4-C , 13-H ) :   0.9091
B(  5-C ,  6-C ) :   2.3728 B(  5-C , 14-H ) :  -0.1036 B(  6-C , 14-H ) :   1.0940

FINAL SINGLE POINT ENERGY      -307.943873383833

DIPOLE MOMENT
-------------
                                X             Y             Z
Electronic contribution:      8.02129      -1.05611       0.30771
Nuclear contribution   :     -8.21642       1.12021      -0.67066
                        -----------------------------------------
Total Dipole Moment    :     -0.19513       0.06410      -0.36295
                        -----------------------------------------
Magnitude (a.u.)       :      0.41704
Magnitude (Debye)      :      1.06002

                             ****ORCA TERMINATED NORMALLY****
TOTAL RUN TIME: 0 days 0 hours 0 minutes 6 seconds 427 msec
