                         Program Version 3.0.3 - RELEASE   -
|  1> ! RI PBE def2-SVP def2-SVP/J NBO PAL2
|  2> % maxcore 2000
|  3> % output
|  4>     # printlevel mini
|  5>     print[ P_Basis ] 0
|  6>     print[ P_SCFInfo ] 1
|  7>     print[ P_SCFIterInfo ] 1
|  8>     print[ P_OrbEn ] 0
|  9>     print[ P_Cartesian ] 0
| 10> end
| 11> *xyz 0 1
| 12>  C        3.2122880000     2.0010750000     2.2982000000
| 13>  C        4.3520950000     2.0300810000     1.3424810000
| 14>  C        4.9056700000     3.1299280000     0.8389640000
| 15>  O        4.7374320000     0.7578480000     1.0287650000
| 16>  C        5.9385800000     0.5616290000     0.3747360000
| 17>  C        7.1425800000     0.7024870000     1.2407450000
| 18>  C        5.9276920000     0.1782630000    -0.8930250000
| 19>  H        2.8637930000     3.0091380000     2.5167260000
| 20>  H        3.5083430000     1.5144660000     3.2314310000
| 21>  H        2.3851340000     1.4217930000     1.8792240000
| 22>  H        4.5310360000     4.0987770000     1.1365910000
| 23>  H        5.7123820000     3.0903240000     0.1189340000
| 24>  H        7.1023220000    -0.0299580000     2.0522760000
| 25>  H        7.1835720000     1.6941290000     1.6972260000
| 26>  H        8.0542140000     0.5403830000     0.6666190000
| 27>  H        4.9957950000     0.0810980000    -1.4346900000
| 28>  H        6.8519620000    -0.0568500000    -1.4037130000
| 29> *
| 30>
| 31>                          ****END OF INPUT****
 Total Charge           Charge          ....    0
 Multiplicity           Mult            ....    1
 Number of Electrons    NEL             ....   54
 Basis Dimension        Dim             ....  148

MULLIKEN ATOMIC CHARGES
-----------------------
   0 C :    0.078680
   1 C :   -0.019262
   2 C :   -0.077735
   3 O :   -0.240688
   4 C :   -0.065253
   5 C :    0.084587
   6 C :   -0.010370
   7 H :    0.014580
   8 H :    0.034407
   9 H :    0.039602
  10 H :    0.008212
  11 H :    0.028250
  12 H :    0.043910
  13 H :    0.029007
  14 H :    0.018135
  15 H :    0.022894
  16 H :    0.011044
Sum of atomic charges:   -0.0000000

LOEWDIN ATOMIC CHARGES
----------------------
   0 C :   -0.060490
   1 C :    0.034527
   2 C :   -0.149637
   3 O :   -0.044579
   4 C :    0.032561
   5 C :   -0.065216
   6 C :   -0.093565
   7 H :    0.036053
   8 H :    0.039103
   9 H :    0.041535
  10 H :    0.026992
  11 H :    0.025310
  12 H :    0.042653
  13 H :    0.038470
  14 H :    0.036860
  15 H :    0.030932
  16 H :    0.028490

  Mayer bond orders larger than 0.1
B(  0-C ,  1-C ) :   1.0950 B(  0-C ,  7-H ) :   0.9493 B(  0-C ,  8-H ) :   0.9407
B(  0-C ,  9-H ) :   0.9404 B(  1-C ,  2-C ) :   1.8655 B(  1-C ,  3-O ) :   1.0834
B(  2-C , 10-H ) :   0.9253 B(  2-C , 11-H ) :   0.9296 B(  3-O ,  4-C ) :   1.0092
B(  4-C ,  5-C ) :   1.0824 B(  4-C ,  6-C ) :   1.9742 B(  5-C , 12-H ) :   0.9397
B(  5-C , 13-H ) :   0.9293 B(  5-C , 14-H ) :   0.9478 B(  6-C , 15-H ) :   0.9264
B(  6-C , 16-H ) :   0.9246

FINAL SINGLE POINT ENERGY      -309.205267164079

DIPOLE MOMENT
-------------
                                X             Y             Z
Electronic contribution:     -1.19194      -1.83769      -1.07046
Nuclear contribution   :      1.38135       1.88761       1.26160
                        -----------------------------------------
Total Dipole Moment    :      0.18940       0.04992       0.19114
                        -----------------------------------------
Magnitude (a.u.)       :      0.27368
Magnitude (Debye)      :      0.69564

                             ****ORCA TERMINATED NORMALLY****
TOTAL RUN TIME: 0 days 0 hours 0 minutes 7 seconds 886 msec
