                         Program Version 3.0.3 - RELEASE   -
|  1> ! RI PBE def2-SVP def2-SVP/J NBO PAL2
|  2> % maxcore 2000
|  3> % output
|  4>     # printlevel mini
|  5>     print[ P_Basis ] 0
|  6>     print[ P_SCFInfo ] 1
|  7>     print[ P_SCFIterInfo ] 1
|  8>     print[ P_OrbEn ] 0
|  9>     print[ P_Cartesian ] 0
| 10> end
| 11> *xyz 0 1
| 12>  C        1.5045880000     0.8466650000     0.7403500000
| 13>  C        2.9027290000     0.7110770000     0.2442980000
| 14>  C        3.6270980000     1.7159880000    -0.2506230000
| 15>  O        3.3213490000    -0.5700740000     0.3702940000
| 16>  C        4.6251240000    -0.8747640000    -0.0528780000
| 17>  C        4.9201330000    -2.3188090000     0.1556230000
| 18>  C        4.0901700000    -3.2146250000     0.6661490000
| 19>  H        1.1561800000     1.8735850000     0.6442470000
| 20>  H        1.4445810000     0.5472850000     1.7901020000
| 21>  H        0.8371860000     0.1901370000     0.1757660000
| 22>  H        3.1889830000     2.7023960000    -0.3040570000
| 23>  H        4.6407140000     1.6015240000    -0.6066710000
| 24>  H        5.3519440000    -0.2616340000     0.5004960000
| 25>  H        4.7435120000    -0.6193970000    -1.1164520000
| 26>  H        5.9192070000    -2.6159670000    -0.1545770000
| 27>  H        3.0908180000    -2.9412960000     0.9817260000
| 28>  H        4.3902830000    -4.2490020000     0.7820860000
| 29> *
| 30>
| 31>                          ****END OF INPUT****
 Total Charge           Charge          ....    0
 Multiplicity           Mult            ....    1
 Number of Electrons    NEL             ....   54
 Basis Dimension        Dim             ....  148

MULLIKEN ATOMIC CHARGES
-----------------------
   0 C :    0.067820
   1 C :   -0.011110
   2 C :   -0.102297
   3 O :   -0.265529
   4 C :    0.216800
   5 C :   -0.131516
   6 C :   -0.010419
   7 H :    0.016372
   8 H :    0.038402
   9 H :    0.037581
  10 H :    0.009813
  11 H :    0.013580
  12 H :    0.029779
  13 H :    0.027316
  14 H :    0.009741
  15 H :    0.027481
  16 H :    0.026187
Sum of atomic charges:   -0.0000000

LOEWDIN ATOMIC CHARGES
----------------------
   0 C :   -0.061139
   1 C :    0.027373
   2 C :   -0.161802
   3 O :   -0.061313
   4 C :    0.067421
   5 C :   -0.049137
   6 C :   -0.057252
   7 H :    0.035913
   8 H :    0.040123
   9 H :    0.040023
  10 H :    0.027207
  11 H :    0.019607
  12 H :    0.025860
  13 H :    0.025046
  14 H :    0.030709
  15 H :    0.024908
  16 H :    0.026454

  Mayer bond orders larger than 0.1
B(  0-C ,  1-C ) :   1.0900 B(  0-C ,  7-H ) :   0.9515 B(  0-C ,  8-H ) :   0.9416
B(  0-C ,  9-H ) :   0.9411 B(  1-C ,  2-C ) :   1.8490 B(  1-C ,  3-O ) :   1.1254
B(  2-C , 10-H ) :   0.9213 B(  2-C , 11-H ) :   0.9378 B(  3-O ,  4-C ) :   0.9994
B(  4-C ,  5-C ) :   1.0386 B(  4-C , 12-H ) :   0.9147 B(  4-C , 13-H ) :   0.9164
B(  5-C ,  6-C ) :   2.0375 B(  5-C , 14-H ) :   0.9428 B(  6-C , 15-H ) :   0.9373
B(  6-C , 16-H ) :   0.9421

FINAL SINGLE POINT ENERGY      -309.197115543995

DIPOLE MOMENT
-------------
                                X             Y             Z
Electronic contribution:      0.85339      -1.27993      -0.03726
Nuclear contribution   :     -0.69841       1.29419      -0.02368
                        -----------------------------------------
Total Dipole Moment    :      0.15498       0.01426      -0.06094
                        -----------------------------------------
Magnitude (a.u.)       :      0.16714
Magnitude (Debye)      :      0.42483

                             ****ORCA TERMINATED NORMALLY****
TOTAL RUN TIME: 0 days 0 hours 0 minutes 7 seconds 778 msec
