                         Program Version 3.0.3 - RELEASE   -
|  1> ! RI PBE def2-SVP def2-SVP/J NBO PAL2
|  2> % maxcore 2000
|  3> % output
|  4>     # printlevel mini
|  5>     print[ P_Basis ] 0
|  6>     print[ P_SCFInfo ] 1
|  7>     print[ P_SCFIterInfo ] 1
|  8>     print[ P_OrbEn ] 0
|  9>     print[ P_Cartesian ] 0
| 10> end
| 11> *xyz 0 1
| 12>  C        0.4109760000    -0.0381890000    -0.0273260000
| 13>  C        1.8028190000     0.4903110000    -0.0634090000
| 14>  C        2.1265690000     1.7513590000    -0.3529820000
| 15>  O        2.6811200000    -0.4968000000     0.2404220000
| 16>  C        4.0488860000    -0.1487450000     0.2464530000
| 17>  C        4.8443260000    -1.3141700000     0.5867720000
| 18>  C        5.5316020000    -2.2561390000     0.8647660000
| 19>  H       -0.3066910000     0.7431690000    -0.2713760000
| 20>  H        0.1833580000    -0.4349670000     0.9653540000
| 21>  H        0.3004990000    -0.8600450000    -0.7393330000
| 22>  H        1.3390710000     2.4554690000    -0.5808100000
| 23>  H        3.1419380000     2.1203140000    -0.3747780000
| 24>  H        4.2306580000     0.6519680000     0.9754780000
| 25>  H        4.3456820000     0.2293410000    -0.7407730000
| 26>  H        6.1355880000    -3.0969660000     1.1121530000
| 27> *
| 28>
| 29>                          ****END OF INPUT****
 Total Charge           Charge          ....    0
 Multiplicity           Mult            ....    1
 Number of Electrons    NEL             ....   52
 Basis Dimension        Dim             ....  138

MULLIKEN ATOMIC CHARGES
-----------------------
   0 C :    0.074017
   1 C :   -0.014399
   2 C :   -0.102692
   3 O :   -0.264201
   4 C :    0.208491
   5 C :    0.338075
   6 C :   -0.459939
   7 H :    0.017479
   8 H :    0.038437
   9 H :    0.040810
  10 H :    0.011810
  11 H :    0.016402
  12 H :    0.044318
  13 H :    0.043204
  14 H :    0.008189
Sum of atomic charges:   -0.0000000

LOEWDIN ATOMIC CHARGES
----------------------
   0 C :   -0.059590
   1 C :    0.027616
   2 C :   -0.162406
   3 O :   -0.063935
   4 C :    0.064603
   5 C :   -0.029699
   6 C :   -0.057289
   7 H :    0.036749
   8 H :    0.041334
   9 H :    0.041604
  10 H :    0.029164
  11 H :    0.019823
  12 H :    0.037156
  13 H :    0.037099
  14 H :    0.037770

  Mayer bond orders larger than 0.1
B(  0-C ,  1-C ) :   1.0944 B(  0-C ,  7-H ) :   0.9492 B(  0-C ,  8-H ) :   0.9406
B(  0-C ,  9-H ) :   0.9414 B(  1-C ,  2-C ) :   1.8392 B(  1-C ,  3-O ) :   1.1290
B(  2-C , 10-H ) :   0.9177 B(  2-C , 11-H ) :   0.9419 B(  3-O ,  4-C ) :   0.9975
B(  4-C ,  5-C ) :   0.9891 B(  4-C , 12-H ) :   0.9104 B(  4-C , 13-H ) :   0.9108
B(  5-C ,  6-C ) :   2.3799 B(  5-C , 14-H ) :  -0.1018 B(  6-C , 14-H ) :   1.0921

FINAL SINGLE POINT ENERGY      -307.948507551554

DIPOLE MOMENT
-------------
                                X             Y             Z
Electronic contribution:      4.38995      -3.48242       1.15260
Nuclear contribution   :     -4.30315       3.59241      -1.17865
                        -----------------------------------------
Total Dipole Moment    :      0.08681       0.11000      -0.02605
                        -----------------------------------------
Magnitude (a.u.)       :      0.14253
Magnitude (Debye)      :      0.36227

                             ****ORCA TERMINATED NORMALLY****
TOTAL RUN TIME: 0 days 0 hours 0 minutes 6 seconds 553 msec
