                         Program Version 3.0.3 - RELEASE   -
|  1> ! RI PBE def2-SVP def2-SVP/J NBO PAL2
|  2> % maxcore 2000
|  3> % output
|  4>     # printlevel mini
|  5>     print[ P_Basis ] 0
|  6>     print[ P_SCFInfo ] 1
|  7>     print[ P_SCFIterInfo ] 1
|  8>     print[ P_OrbEn ] 0
|  9>     print[ P_Cartesian ] 0
| 10> end
| 11> *xyz 0 1
| 12>  C        0.9351790000    -0.0454950000     0.0421290000
| 13>  C        2.3531100000     0.3725210000    -0.1617190000
| 14>  C        2.5573450000     1.5632030000    -0.9975360000
| 15>  O        1.6487310000     2.1822660000    -1.4996340000
| 16>  C        3.3895640000    -0.2972830000     0.3850520000
| 17>  C        4.8027830000    -0.0142830000     0.2771690000
| 18>  C        5.7261030000    -0.7685740000     0.8766840000
| 19>  H        0.4529430000    -0.2518710000    -0.9169490000
| 20>  H        0.3583640000     0.7610380000     0.5022960000
| 21>  H        0.8698340000    -0.9333660000     0.6714290000
| 22>  H        3.6020090000     1.8877690000    -1.1595500000
| 23>  H        3.1504660000    -1.1700060000     0.9917310000
| 24>  H        5.1276460000     0.8380110000    -0.3092400000
| 25>  H        5.4478510000    -1.6313950000     1.4736990000
| 26>  H        6.7828710000    -0.5484350000     0.7899290000
| 27> *
| 28>
| 29>                          ****END OF INPUT****
 Total Charge           Charge          ....    0
 Multiplicity           Mult            ....    1
 Number of Electrons    NEL             ....   52
 Basis Dimension        Dim             ....  138

MULLIKEN ATOMIC CHARGES
-----------------------
   0 C :    0.062438
   1 C :   -0.147842
   2 C :    0.126883
   3 O :   -0.170829
   4 C :    0.017038
   5 C :    0.001543
   6 C :   -0.021794
   7 H :    0.044999
   8 H :    0.046960
   9 H :    0.015224
  10 H :   -0.026942
  11 H :   -0.014921
  12 H :    0.002817
  13 H :    0.027671
  14 H :    0.036756
Sum of atomic charges:   -0.0000000

LOEWDIN ATOMIC CHARGES
----------------------
   0 C :   -0.052061
   1 C :   -0.073784
   2 C :    0.073333
   3 O :   -0.117466
   4 C :    0.000710
   5 C :   -0.032884
   6 C :   -0.025084
   7 H :    0.045356
   8 H :    0.045680
   9 H :    0.029696
  10 H :   -0.010555
  11 H :    0.031134
  12 H :    0.029319
  13 H :    0.026205
  14 H :    0.030400

  Mayer bond orders larger than 0.1
B(  0-C ,  1-C ) :   1.0933 B(  0-C ,  7-H ) :   0.9368 B(  0-C ,  8-H ) :   0.9368
B(  0-C ,  9-H ) :   0.9502 B(  1-C ,  2-C ) :   1.0335 B(  1-C ,  4-C ) :   1.6448
B(  1-C ,  6-C ) :   0.1209 B(  2-C ,  3-O ) :   2.1196 B(  2-C , 10-H ) :   0.9357
B(  4-C ,  5-C ) :   1.1483 B(  4-C , 11-H ) :   0.9494 B(  5-C ,  6-C ) :   1.8672
B(  5-C , 12-H ) :   0.9539 B(  6-C , 13-H ) :   0.9498 B(  6-C , 14-H ) :   0.9412

FINAL SINGLE POINT ENERGY      -308.015139974916

DIPOLE MOMENT
-------------
                                X             Y             Z
Electronic contribution:     -0.88884       3.60088      -2.63301
Nuclear contribution   :      1.55359      -4.36103       3.21435
                        -----------------------------------------
Total Dipole Moment    :      0.66475      -0.76015       0.58134
                        -----------------------------------------
Magnitude (a.u.)       :      1.16519
Magnitude (Debye)      :      2.96169

                             ****ORCA TERMINATED NORMALLY****
TOTAL RUN TIME: 0 days 0 hours 0 minutes 6 seconds 844 msec
