                         Program Version 3.0.3 - RELEASE   -
|  1> ! RI PBE def2-SVP def2-SVP/J NBO PAL2
|  2> % maxcore 2000
|  3> % output
|  4>     # printlevel mini
|  5>     print[ P_Basis ] 0
|  6>     print[ P_SCFInfo ] 1
|  7>     print[ P_SCFIterInfo ] 1
|  8>     print[ P_OrbEn ] 0
|  9>     print[ P_Cartesian ] 0
| 10> end
| 11> *xyz 0 1
| 12>  C        0.9277770000    -0.0011300000    -0.2207990000
| 13>  C        2.4135900000    -0.0781150000    -0.1937540000
| 14>  C        3.0149900000    -1.3481050000     0.2512170000
| 15>  O        2.3603830000    -2.3047520000     0.5865610000
| 16>  C        3.2092460000     0.9473970000    -0.5530070000
| 17>  C        4.6236160000     0.9481930000    -0.5532000000
| 18>  C        5.8247740000     1.0248660000    -0.5801090000
| 19>  H        0.5182880000    -0.1977530000     0.7733530000
| 20>  H        0.5183720000    -0.7752220000    -0.8749010000
| 21>  H        0.5832070000     0.9749650000    -0.5627940000
| 22>  H        4.1208070000    -1.3752380000     0.2609820000
| 23>  H        2.7470070000     1.8768930000    -0.8786900000
| 24>  H        6.8880320000     1.0759500000    -0.5990190000
| 25> *
| 26>
| 27>                          ****END OF INPUT****
 Total Charge           Charge          ....    0
 Multiplicity           Mult            ....    1
 Number of Electrons    NEL             ....   50
 Basis Dimension        Dim             ....  128

MULLIKEN ATOMIC CHARGES
-----------------------
   0 C :    0.067080
   1 C :   -0.144563
   2 C :    0.128658
   3 O :   -0.156471
   4 C :   -0.039073
   5 C :    0.368062
   6 C :   -0.380809
   7 H :    0.048080
   8 H :    0.050340
   9 H :    0.018503
  10 H :   -0.003463
  11 H :    0.028923
  12 H :    0.014731
Sum of atomic charges:   -0.0000000

LOEWDIN ATOMIC CHARGES
----------------------
   0 C :   -0.049647
   1 C :   -0.054654
   2 C :    0.080088
   3 O :   -0.107904
   4 C :   -0.018365
   5 C :   -0.025102
   6 C :   -0.041118
   7 H :    0.048122
   8 H :    0.048598
   9 H :    0.031808
  10 H :   -0.000641
  11 H :    0.048751
  12 H :    0.040064

  Mayer bond orders larger than 0.1
B(  0-C ,  1-C ) :   1.0840 B(  0-C ,  7-H ) :   0.9374 B(  0-C ,  8-H ) :   0.9371
B(  0-C ,  9-H ) :   0.9521 B(  1-C ,  2-C ) :   1.0197 B(  1-C ,  4-C ) :   1.6810
B(  1-C ,  6-C ) :   0.1196 B(  2-C ,  3-O ) :   2.1443 B(  2-C , 10-H ) :   0.9288
B(  4-C ,  5-C ) :   1.0419 B(  4-C , 11-H ) :   0.9390 B(  5-C ,  6-C ) :   2.2549
B(  6-C , 12-H ) :   1.0870

FINAL SINGLE POINT ENERGY      -306.769936186265

DIPOLE MOMENT
-------------
                                X             Y             Z
Electronic contribution:      3.34839      -1.58660       0.55462
Nuclear contribution   :     -3.14984       2.48818      -0.87288
                        -----------------------------------------
Total Dipole Moment    :      0.19855       0.90158      -0.31827
                        -----------------------------------------
Magnitude (a.u.)       :      0.97650
Magnitude (Debye)      :      2.48208

                             ****ORCA TERMINATED NORMALLY****
TOTAL RUN TIME: 0 days 0 hours 0 minutes 5 seconds 958 msec
