                         Program Version 3.0.3 - RELEASE   -
|  1> ! RI PBE def2-SVP def2-SVP/J NBO PAL2
|  2> % maxcore 2000
|  3> % output
|  4>     # printlevel mini
|  5>     print[ P_Basis ] 0
|  6>     print[ P_SCFInfo ] 1
|  7>     print[ P_SCFIterInfo ] 1
|  8>     print[ P_OrbEn ] 0
|  9>     print[ P_Cartesian ] 0
| 10> end
| 11> *xyz 0 1
| 12>  C        1.0585230000    -0.1951240000    -0.1805380000
| 13>  C        2.3815510000     0.4660990000     0.1640030000
| 14>  C        3.0384680000     1.0906690000    -1.0507450000
| 15>  O        2.5424050000     1.1670200000    -2.1397960000
| 16>  C        2.2976420000     1.5269880000     1.2410340000
| 17>  C        1.2485360000     2.5807360000     1.0704980000
| 18>  C        3.1485660000     1.5319910000     2.2628290000
| 19>  H        1.2093170000    -0.9860010000    -0.9168190000
| 20>  H        0.3597380000     0.5191360000    -0.6173620000
| 21>  H        0.6035820000    -0.6307850000     0.7110150000
| 22>  H        3.0995100000    -0.2869040000     0.5155920000
| 23>  H        4.0522500000     1.5029320000    -0.8539770000
| 24>  H        0.2443970000     2.1550840000     1.1549090000
| 25>  H        1.3074880000     3.0459500000     0.0810180000
| 26>  H        1.3506160000     3.3605580000     1.8254950000
| 27>  H        3.8998260000     0.7585090000     2.3809370000
| 28>  H        3.1160750000     2.3068440000     3.0210160000
| 29> *
| 30>
| 31>                          ****END OF INPUT****
 Total Charge           Charge          ....    0
 Multiplicity           Mult            ....    1
 Number of Electrons    NEL             ....   54
 Basis Dimension        Dim             ....  148

MULLIKEN ATOMIC CHARGES
-----------------------
   0 C :    0.027231
   1 C :   -0.081400
   2 C :    0.125393
   3 O :   -0.149653
   4 C :   -0.176105
   5 C :    0.067816
   6 C :   -0.039366
   7 H :    0.031484
   8 H :    0.036021
   9 H :    0.025114
  10 H :    0.021591
  11 H :   -0.013598
  12 H :    0.036271
  13 H :    0.037452
  14 H :    0.022191
  15 H :    0.013498
  16 H :    0.016060
Sum of atomic charges:   -0.0000000

LOEWDIN ATOMIC CHARGES
----------------------
   0 C :   -0.054333
   1 C :   -0.079193
   2 C :    0.099862
   3 O :   -0.102333
   4 C :   -0.023767
   5 C :   -0.055911
   6 C :   -0.072868
   7 H :    0.034538
   8 H :    0.031059
   9 H :    0.030278
  10 H :    0.046368
  11 H :   -0.010152
  12 H :    0.039493
  13 H :    0.038440
  14 H :    0.034708
  15 H :    0.020738
  16 H :    0.023072

  Mayer bond orders larger than 0.1
B(  0-C ,  1-C ) :   1.0756 B(  0-C ,  7-H ) :   0.9533 B(  0-C ,  8-H ) :   0.9502
B(  0-C ,  9-H ) :   0.9596 B(  1-C ,  2-C ) :   0.9129 B(  1-C ,  4-C ) :   1.0045
B(  1-C , 10-H ) :   0.8747 B(  2-C ,  3-O ) :   2.1943 B(  2-C , 11-H ) :   0.9259
B(  4-C ,  5-C ) :   1.0791 B(  4-C ,  6-C ) :   1.9753 B(  5-C , 12-H ) :   0.9372
B(  5-C , 13-H ) :   0.9397 B(  5-C , 14-H ) :   0.9478 B(  6-C , 15-H ) :   0.9377
B(  6-C , 16-H ) :   0.9336

FINAL SINGLE POINT ENERGY      -309.221863574749

DIPOLE MOMENT
-------------
                                X             Y             Z
Electronic contribution:      2.84105      -0.14690      -4.59267
Nuclear contribution   :     -2.80935       0.06410       5.35877
                        -----------------------------------------
Total Dipole Moment    :      0.03170      -0.08279       0.76610
                        -----------------------------------------
Magnitude (a.u.)       :      0.77121
Magnitude (Debye)      :      1.96027

                             ****ORCA TERMINATED NORMALLY****
TOTAL RUN TIME: 0 days 0 hours 0 minutes 7 seconds 594 msec
