                         Program Version 3.0.3 - RELEASE   -
|  1> ! RI PBE def2-SVP def2-SVP/J NBO PAL2
|  2> % maxcore 2000
|  3> % output
|  4>     # printlevel mini
|  5>     print[ P_Basis ] 0
|  6>     print[ P_SCFInfo ] 1
|  7>     print[ P_SCFIterInfo ] 1
|  8>     print[ P_OrbEn ] 0
|  9>     print[ P_Cartesian ] 0
| 10> end
| 11> *xyz 0 1
| 12>  C        0.8543210000    -0.0138630000    -0.0887080000
| 13>  C        2.3671500000     0.0267510000     0.0796160000
| 14>  C        2.7512760000     0.8805110000     1.2795230000
| 15>  O        2.8662070000    -1.2991820000     0.2452430000
| 16>  C        3.0166520000     0.5439950000    -1.2088690000
| 17>  C        4.5074950000     0.5846490000    -1.1744790000
| 18>  C        5.2424130000     1.6584650000    -1.4297540000
| 19>  H        0.3784000000    -0.4119050000     0.8127640000
| 20>  H        0.5842580000    -0.6558530000    -0.9296950000
| 21>  H        0.4469100000     0.9844700000    -0.2664340000
| 22>  H        2.2899620000     0.4868900000     2.1908720000
| 23>  H        2.4117070000     1.9117240000     1.1543510000
| 24>  H        3.8338860000     0.8903330000     1.4131430000
| 25>  H        2.5191940000    -1.6480360000     1.0708550000
| 26>  H        2.6182070000     1.5377660000    -1.4333050000
| 27>  H        2.6953230000    -0.1263840000    -2.0153060000
| 28>  H        4.9972720000    -0.3534590000    -0.9260280000
| 29>  H        4.7875680000     2.6125820000    -1.6803680000
| 30>  H        6.3256690000     1.6240450000    -1.4046110000
| 31> *
| 32>
| 33>                          ****END OF INPUT****
 Total Charge           Charge          ....    0
 Multiplicity           Mult            ....    1
 Number of Electrons    NEL             ....   56
 Basis Dimension        Dim             ....  158

MULLIKEN ATOMIC CHARGES
-----------------------
   0 C :    0.085277
   1 C :   -0.191440
   2 C :    0.070301
   3 O :   -0.259212
   4 C :    0.132412
   5 C :   -0.077379
   6 C :   -0.034940
   7 H :    0.000690
   8 H :    0.018464
   9 H :    0.008744
  10 H :   -0.000055
  11 H :    0.009515
  12 H :    0.029945
  13 H :    0.149998
  14 H :   -0.006107
  15 H :    0.018553
  16 H :    0.009890
  17 H :    0.010064
  18 H :    0.025278
Sum of atomic charges:   -0.0000000

LOEWDIN ATOMIC CHARGES
----------------------
   0 C :   -0.064415
   1 C :    0.015785
   2 C :   -0.066120
   3 O :   -0.108773
   4 C :   -0.036386
   5 C :   -0.023263
   6 C :   -0.071228
   7 H :    0.020594
   8 H :    0.027091
   9 H :    0.027133
  10 H :    0.019949
  11 H :    0.029139
  12 H :    0.029741
  13 H :    0.064899
  14 H :    0.028475
  15 H :    0.037742
  16 H :    0.027629
  17 H :    0.018287
  18 H :    0.023722

  Mayer bond orders larger than 0.1
B(  0-C ,  1-C ) :   1.0667 B(  0-C ,  7-H ) :   0.9493 B(  0-C ,  8-H ) :   0.9509
B(  0-C ,  9-H ) :   0.9464 B(  1-C ,  2-C ) :   1.0551 B(  1-C ,  3-O ) :   1.0239
B(  1-C ,  4-C ) :   1.0090 B(  2-C , 10-H ) :   0.9478 B(  2-C , 11-H ) :   0.9467
B(  2-C , 12-H ) :   0.9480 B(  3-O , 13-H ) :   0.9807 B(  4-C ,  5-C ) :   1.0698
B(  4-C , 14-H ) :   0.9219 B(  4-C , 15-H ) :   0.8993 B(  5-C ,  6-C ) :   1.9865
B(  5-C , 16-H ) :   0.9558 B(  6-C , 17-H ) :   0.9442 B(  6-C , 18-H ) :   0.9460

FINAL SINGLE POINT ENERGY      -310.420595830077

DIPOLE MOMENT
-------------
                                X             Y             Z
Electronic contribution:      2.04917      -2.88623      -0.92307
Nuclear contribution   :     -2.50200       2.99599       1.33844
                        -----------------------------------------
Total Dipole Moment    :     -0.45283       0.10976       0.41536
                        -----------------------------------------
Magnitude (a.u.)       :      0.62420
Magnitude (Debye)      :      1.58660

                             ****ORCA TERMINATED NORMALLY****
TOTAL RUN TIME: 0 days 0 hours 0 minutes 8 seconds 391 msec
