                         Program Version 3.0.3 - RELEASE   -
|  1> ! RI PBE def2-SVP def2-SVP/J NBO PAL2
|  2> % maxcore 2000
|  3> % output
|  4>     # printlevel mini
|  5>     print[ P_Basis ] 0
|  6>     print[ P_SCFInfo ] 1
|  7>     print[ P_SCFIterInfo ] 1
|  8>     print[ P_OrbEn ] 0
|  9>     print[ P_Cartesian ] 0
| 10> end
| 11> *xyz 0 1
| 12>  C        0.8719280000     0.1631780000    -0.2410300000
| 13>  C        2.3820870000     0.1281980000    -0.0421200000
| 14>  C        2.8762470000     1.4202690000     0.5888950000
| 15>  O        2.7342290000    -0.9843080000     0.7691360000
| 16>  C        3.0572200000    -0.1325690000    -1.3965920000
| 17>  C        4.5091290000    -0.1124560000    -1.3689920000
| 18>  C        5.7091520000    -0.0870870000    -1.3632140000
| 19>  H        0.3678220000     0.2952650000     0.7203250000
| 20>  H        0.5250890000    -0.7742560000    -0.6806780000
| 21>  H        0.5716070000     0.9886220000    -0.8912200000
| 22>  H        2.3847800000     1.5807610000     1.5535620000
| 23>  H        2.6517790000     2.2822530000    -0.0440480000
| 24>  H        3.9545170000     1.3765140000     0.7473270000
| 25>  H        2.4328910000    -0.8096750000     1.6648970000
| 26>  H        2.7017330000     0.6130940000    -2.1148220000
| 27>  H        2.7179240000    -1.1096920000    -1.7550300000
| 28>  H        6.7730760000    -0.0737310000    -1.3542060000
| 29> *
| 30>
| 31>                          ****END OF INPUT****
 Total Charge           Charge          ....    0
 Multiplicity           Mult            ....    1
 Number of Electrons    NEL             ....   54
 Basis Dimension        Dim             ....  148

MULLIKEN ATOMIC CHARGES
-----------------------
   0 C :    0.099040
   1 C :   -0.196823
   2 C :    0.058577
   3 O :   -0.247267
   4 C :    0.145434
   5 C :    0.371511
   6 C :   -0.520264
   7 H :    0.003440
   8 H :    0.017704
   9 H :    0.008750
  10 H :    0.000840
  11 H :    0.012758
  12 H :    0.041021
  13 H :    0.149901
  14 H :    0.030703
  15 H :    0.031660
  16 H :   -0.006985
Sum of atomic charges:   -0.0000000

LOEWDIN ATOMIC CHARGES
----------------------
   0 C :   -0.064175
   1 C :    0.019769
   2 C :   -0.066100
   3 O :   -0.101650
   4 C :   -0.043471
   5 C :   -0.013926
   6 C :   -0.091724
   7 H :    0.022899
   8 H :    0.027901
   9 H :    0.026777
  10 H :    0.021287
  11 H :    0.030122
  12 H :    0.034106
  13 H :    0.065845
  14 H :    0.049246
  15 H :    0.051004
  16 H :    0.032089

  Mayer bond orders larger than 0.1
B(  0-C ,  1-C ) :   1.0663 B(  0-C ,  7-H ) :   0.9489 B(  0-C ,  8-H ) :   0.9475
B(  0-C ,  9-H ) :   0.9455 B(  1-C ,  2-C ) :   1.0583 B(  1-C ,  3-O ) :   1.0455
B(  1-C ,  4-C ) :   0.9943 B(  2-C , 10-H ) :   0.9457 B(  2-C , 11-H ) :   0.9472
B(  2-C , 12-H ) :   0.9468 B(  3-O , 13-H ) :   0.9813 B(  4-C ,  5-C ) :   1.0604
B(  4-C , 14-H ) :   0.8952 B(  4-C , 15-H ) :   0.8800 B(  5-C ,  6-C ) :   2.2925
B(  5-C , 16-H ) :  -0.1172 B(  6-C , 16-H ) :   1.1083

FINAL SINGLE POINT ENERGY      -309.176237131574

DIPOLE MOMENT
-------------
                                X             Y             Z
Electronic contribution:      4.80930      -3.14781      -1.14324
Nuclear contribution   :     -5.35338       3.58416       1.41670
                        -----------------------------------------
Total Dipole Moment    :     -0.54408       0.43635       0.27346
                        -----------------------------------------
Magnitude (a.u.)       :      0.74914
Magnitude (Debye)      :      1.90415

                             ****ORCA TERMINATED NORMALLY****
TOTAL RUN TIME: 0 days 0 hours 0 minutes 7 seconds 604 msec
