                         Program Version 3.0.3 - RELEASE   -
|  1> ! RI PBE def2-SVP def2-SVP/J NBO PAL2
|  2> % maxcore 2000
|  3> % output
|  4>     # printlevel mini
|  5>     print[ P_Basis ] 0
|  6>     print[ P_SCFInfo ] 1
|  7>     print[ P_SCFIterInfo ] 1
|  8>     print[ P_OrbEn ] 0
|  9>     print[ P_Cartesian ] 0
| 10> end
| 11> *xyz 0 1
| 12>  C        1.8492130000    -0.1076900000    -0.9384360000
| 13>  C        3.3552380000    -0.1048410000    -0.7880260000
| 14>  C        4.0361120000     0.6688140000    -1.9050030000
| 15>  O        3.6465110000     0.4701970000     0.4741300000
| 16>  C        4.8723510000     0.0681830000     1.0608550000
| 17>  C        5.3120800000     1.1857940000     1.9819020000
| 18>  C        4.7109680000    -1.2485790000     1.8023820000
| 19>  H        1.5560710000    -0.5277260000    -1.9032100000
| 20>  H        1.4662410000     0.9140860000    -0.8767480000
| 21>  H        1.3840900000    -0.6944830000    -0.1445330000
| 22>  H        3.7136700000    -1.1448610000    -0.8053230000
| 23>  H        3.6671770000     1.6972760000    -1.9252170000
| 24>  H        3.8333360000     0.2081630000    -2.8751880000
| 25>  H        5.1196390000     0.6972420000    -1.7693550000
| 26>  H        5.6290710000    -0.0576350000     0.2722110000
| 27>  H        4.5511860000     1.3598750000     2.7469090000
| 28>  H        5.4518640000     2.1127140000     1.4231290000
| 29>  H        6.2500790000     0.9316590000     2.4806240000
| 30>  H        3.9866930000    -1.1341410000     2.6126800000
| 31>  H        5.6631690000    -1.5714190000     2.2309430000
| 32>  H        4.3583510000    -2.0411370000     1.1384910000
| 33> *
| 34>
| 35>                          ****END OF INPUT****
 Total Charge           Charge          ....    0
 Multiplicity           Mult            ....    1
 Number of Electrons    NEL             ....   58
 Basis Dimension        Dim             ....  168

MULLIKEN ATOMIC CHARGES
-----------------------
   0 C :    0.027436
   1 C :    0.032554
   2 C :    0.012716
   3 O :   -0.341239
   4 C :    0.031294
   5 C :    0.026915
   6 C :    0.016039
   7 H :    0.011582
   8 H :    0.020246
   9 H :    0.021420
  10 H :   -0.006990
  11 H :    0.018583
  12 H :    0.013059
  13 H :    0.019759
  14 H :   -0.005546
  15 H :    0.023683
  16 H :    0.019280
  17 H :    0.010789
  18 H :    0.020910
  19 H :    0.012840
  20 H :    0.014672
Sum of atomic charges:   -0.0000000

LOEWDIN ATOMIC CHARGES
----------------------
   0 C :   -0.065021
   1 C :    0.045528
   2 C :   -0.075175
   3 O :   -0.143671
   4 C :    0.045340
   5 C :   -0.065867
   6 C :   -0.074991
   7 H :    0.027485
   8 H :    0.027977
   9 H :    0.027754
  10 H :    0.004486
  11 H :    0.027086
  12 H :    0.027210
  13 H :    0.024466
  14 H :    0.004933
  15 H :    0.028754
  16 H :    0.027458
  17 H :    0.027422
  18 H :    0.027331
  19 H :    0.027488
  20 H :    0.024007

  Mayer bond orders larger than 0.1
B(  0-C ,  1-C ) :   1.0861 B(  0-C ,  7-H ) :   0.9566 B(  0-C ,  8-H ) :   0.9568
B(  0-C ,  9-H ) :   0.9583 B(  1-C ,  2-C ) :   1.0941 B(  1-C ,  3-O ) :   0.9883
B(  1-C , 10-H ) :   0.9034 B(  2-C , 11-H ) :   0.9520 B(  2-C , 12-H ) :   0.9523
B(  2-C , 13-H ) :   0.9498 B(  3-O ,  4-C ) :   0.9851 B(  4-C ,  5-C ) :   1.0896
B(  4-C ,  6-C ) :   1.0973 B(  4-C , 14-H ) :   0.9026 B(  5-C , 15-H ) :   0.9573
B(  5-C , 16-H ) :   0.9561 B(  5-C , 17-H ) :   0.9553 B(  6-C , 18-H ) :   0.9532
B(  6-C , 19-H ) :   0.9509 B(  6-C , 20-H ) :   0.9480

FINAL SINGLE POINT ENERGY      -311.636650034219

DIPOLE MOMENT
-------------
                                X             Y             Z
Electronic contribution:     -0.76468       0.79409       0.54954
Nuclear contribution   :      1.02226      -1.06874      -0.73881
                        -----------------------------------------
Total Dipole Moment    :      0.25758      -0.27465      -0.18927
                        -----------------------------------------
Magnitude (a.u.)       :      0.42143
Magnitude (Debye)      :      1.07119

                             ****ORCA TERMINATED NORMALLY****
TOTAL RUN TIME: 0 days 0 hours 0 minutes 9 seconds 393 msec
