                         Program Version 3.0.3 - RELEASE   -
|  1> ! RI PBE def2-SVP def2-SVP/J NBO PAL2
|  2> % maxcore 2000
|  3> % output
|  4>     # printlevel mini
|  5>     print[ P_Basis ] 0
|  6>     print[ P_SCFInfo ] 1
|  7>     print[ P_SCFIterInfo ] 1
|  8>     print[ P_OrbEn ] 0
|  9>     print[ P_Cartesian ] 0
| 10> end
| 11> *xyz 0 1
| 12>  C        1.2096270000     0.7958390000     0.0082590000
| 13>  C        2.0155350000     0.1170940000     1.0993100000
| 14>  C        2.7020630000     1.1107220000     2.0094420000
| 15>  O        1.1686040000    -0.6700360000     1.9341020000
| 16>  C        0.7853890000    -1.9010510000     1.5278460000
| 17>  C       -0.0968540000    -2.5219850000     2.5574720000
| 18>  C        1.1298890000    -2.5046420000     0.3881770000
| 19>  H        1.8693430000     1.3600720000    -0.6551190000
| 20>  H        0.4921220000     1.4909950000     0.4511030000
| 21>  H        0.6599760000     0.0695080000    -0.5913970000
| 22>  H        2.7701960000    -0.5423100000     0.6539160000
| 23>  H        1.9630420000     1.7470650000     2.5018570000
| 24>  H        3.3766560000     1.7477950000     1.4337230000
| 25>  H        3.2810430000     0.5961850000     2.7779450000
| 26>  H        0.4237890000    -2.5789220000     3.5169880000
| 27>  H       -0.4024010000    -3.5231040000     2.2577180000
| 28>  H       -0.9889930000    -1.9084650000     2.7090410000
| 29>  H        1.7565000000    -2.0508780000    -0.3660940000
| 30>  H        0.7672540000    -3.5043700000     0.1963000000
| 31> *
| 32>
| 33>                          ****END OF INPUT****
 Total Charge           Charge          ....    0
 Multiplicity           Mult            ....    1
 Number of Electrons    NEL             ....   56
 Basis Dimension        Dim             ....  158

MULLIKEN ATOMIC CHARGES
-----------------------
   0 C :    0.008609
   1 C :    0.022264
   2 C :    0.017110
   3 O :   -0.269897
   4 C :   -0.015317
   5 C :    0.076405
   6 C :   -0.099736
   7 H :    0.022335
   8 H :    0.023154
   9 H :    0.028122
  10 H :    0.015526
  11 H :    0.024135
  12 H :    0.020923
  13 H :    0.026460
  14 H :    0.033366
  15 H :    0.011601
  16 H :    0.033234
  17 H :    0.016295
  18 H :    0.005411
Sum of atomic charges:   -0.0000000

LOEWDIN ATOMIC CHARGES
----------------------
   0 C :   -0.072149
   1 C :    0.054142
   2 C :   -0.064525
   3 O :   -0.068930
   4 C :    0.027594
   5 C :   -0.059901
   6 C :   -0.167605
   7 H :    0.031993
   8 H :    0.029099
   9 H :    0.030866
  10 H :    0.014658
  11 H :    0.029365
  12 H :    0.031652
  13 H :    0.030083
  14 H :    0.037959
  15 H :    0.034209
  16 H :    0.038461
  17 H :    0.017557
  18 H :    0.025473

  Mayer bond orders larger than 0.1
B(  0-C ,  1-C ) :   1.0930 B(  0-C ,  7-H ) :   0.9566 B(  0-C ,  8-H ) :   0.9545
B(  0-C ,  9-H ) :   0.9498 B(  1-C ,  2-C ) :   1.0834 B(  1-C ,  3-O ) :   0.9411
B(  1-C , 10-H ) :   0.9138 B(  2-C , 11-H ) :   0.9569 B(  2-C , 12-H ) :   0.9584
B(  2-C , 13-H ) :   0.9591 B(  3-O ,  4-C ) :   1.1374 B(  4-C ,  5-C ) :   1.0943
B(  4-C ,  6-C ) :   1.8365 B(  5-C , 14-H ) :   0.9424 B(  5-C , 15-H ) :   0.9495
B(  5-C , 16-H ) :   0.9418 B(  6-C , 17-H ) :   0.9391 B(  6-C , 18-H ) :   0.9194

FINAL SINGLE POINT ENERGY      -310.425910302733

DIPOLE MOMENT
-------------
                                X             Y             Z
Electronic contribution:     -0.48677      -1.74377       1.35223
Nuclear contribution   :      0.61206       1.97329      -1.43809
                        -----------------------------------------
Total Dipole Moment    :      0.12530       0.22952      -0.08586
                        -----------------------------------------
Magnitude (a.u.)       :      0.27523
Magnitude (Debye)      :      0.69958

                             ****ORCA TERMINATED NORMALLY****
TOTAL RUN TIME: 0 days 0 hours 0 minutes 8 seconds 120 msec
