                         Program Version 3.0.3 - RELEASE   -
|  1> ! RI PBE def2-SVP def2-SVP/J NBO PAL2
|  2> % maxcore 2000
|  3> % output
|  4>     # printlevel mini
|  5>     print[ P_Basis ] 0
|  6>     print[ P_SCFInfo ] 1
|  7>     print[ P_SCFIterInfo ] 1
|  8>     print[ P_OrbEn ] 0
|  9>     print[ P_Cartesian ] 0
| 10> end
| 11> *xyz 0 1
| 12>  C        0.8684050000     0.4998320000     1.9769550000
| 13>  C        1.5540280000    -0.2864980000     0.8716850000
| 14>  C        2.7969880000    -0.9909250000     1.3691760000
| 15>  O        0.7094860000    -1.2895030000     0.3331790000
| 16>  C       -0.2897930000    -0.8107010000    -0.5330920000
| 17>  C       -1.0894660000    -1.9640400000    -1.0321150000
| 18>  C       -1.3596740000    -2.1889250000    -2.3087640000
| 19>  H        1.5438340000     1.2592020000     2.3782880000
| 20>  H        0.5813300000    -0.1710460000     2.7906310000
| 21>  H       -0.0275030000     1.0123180000     1.6210090000
| 22>  H        1.8342540000     0.4057400000     0.0611630000
| 23>  H        2.5354950000    -1.7015940000     2.1570870000
| 24>  H        3.5115220000    -0.2721960000     1.7759640000
| 25>  H        3.2761270000    -1.5408930000     0.5577940000
| 26>  H        0.1573230000    -0.2628030000    -1.3764430000
| 27>  H       -0.9576240000    -0.1111380000    -0.0061750000
| 28>  H       -1.4717880000    -2.6327530000    -0.2647130000
| 29>  H       -0.9769280000    -1.5410620000    -3.0915300000
| 30>  H       -1.9752360000    -3.0246970000    -2.6203070000
| 31> *
| 32>
| 33>                          ****END OF INPUT****
 Total Charge           Charge          ....    0
 Multiplicity           Mult            ....    1
 Number of Electrons    NEL             ....   56
 Basis Dimension        Dim             ....  158

MULLIKEN ATOMIC CHARGES
-----------------------
   0 C :    0.003910
   1 C :    0.032780
   2 C :    0.022994
   3 O :   -0.344784
   4 C :    0.241841
   5 C :   -0.084693
   6 C :   -0.039155
   7 H :    0.017906
   8 H :    0.020683
   9 H :    0.016897
  10 H :   -0.009951
  11 H :    0.024878
  12 H :    0.014535
  13 H :    0.026376
  14 H :   -0.012334
  15 H :    0.006265
  16 H :    0.013981
  17 H :    0.019140
  18 H :    0.028733
Sum of atomic charges:   -0.0000000

LOEWDIN ATOMIC CHARGES
----------------------
   0 C :   -0.075134
   1 C :    0.044822
   2 C :   -0.066638
   3 O :   -0.145785
   4 C :    0.059523
   5 C :   -0.033292
   6 C :   -0.056321
   7 H :    0.030285
   8 H :    0.028286
   9 H :    0.023312
  10 H :    0.005363
  11 H :    0.029208
  12 H :    0.028945
  13 H :    0.029783
  14 H :    0.008071
  15 H :    0.011564
  16 H :    0.029948
  17 H :    0.022012
  18 H :    0.026051

  Mayer bond orders larger than 0.1
B(  0-C ,  1-C ) :   1.0902 B(  0-C ,  7-H ) :   0.9509 B(  0-C ,  8-H ) :   0.9540
B(  0-C ,  9-H ) :   0.9508 B(  1-C ,  2-C ) :   1.0867 B(  1-C ,  3-O ) :   1.0014
B(  1-C , 10-H ) :   0.9120 B(  2-C , 11-H ) :   0.9566 B(  2-C , 12-H ) :   0.9545
B(  2-C , 13-H ) :   0.9558 B(  3-O ,  4-C ) :   0.9923 B(  4-C ,  5-C ) :   1.0486
B(  4-C , 14-H ) :   0.9213 B(  4-C , 15-H ) :   0.9040 B(  5-C ,  6-C ) :   2.0171
B(  5-C , 16-H ) :   0.9567 B(  6-C , 17-H ) :   0.9449 B(  6-C , 18-H ) :   0.9481

FINAL SINGLE POINT ENERGY      -310.405870457808

DIPOLE MOMENT
-------------
                                X             Y             Z
Electronic contribution:     -2.00680      -2.54774      -2.21135
Nuclear contribution   :      2.00303       2.98705       2.22487
                        -----------------------------------------
Total Dipole Moment    :     -0.00377       0.43931       0.01353
                        -----------------------------------------
Magnitude (a.u.)       :      0.43953
Magnitude (Debye)      :      1.11721

                             ****ORCA TERMINATED NORMALLY****
TOTAL RUN TIME: 0 days 0 hours 0 minutes 7 seconds 991 msec
