                         Program Version 3.0.3 - RELEASE   -
|  1> ! RI PBE def2-SVP def2-SVP/J NBO PAL2
|  2> % maxcore 2000
|  3> % output
|  4>     # printlevel mini
|  5>     print[ P_Basis ] 0
|  6>     print[ P_SCFInfo ] 1
|  7>     print[ P_SCFIterInfo ] 1
|  8>     print[ P_OrbEn ] 0
|  9>     print[ P_Cartesian ] 0
| 10> end
| 11> *xyz 0 1
| 12>  C        0.6807980000     0.6679930000     0.3632970000
| 13>  C        1.9826360000    -0.0346650000     0.7094420000
| 14>  C        2.3539400000     0.1455510000     2.1642150000
| 15>  O        1.9101480000    -1.4351590000     0.4887450000
| 16>  C        1.8899370000    -1.8007360000    -0.8665770000
| 17>  C        2.0304280000    -3.2420550000    -0.9962480000
| 18>  C        2.1422220000    -4.4281470000    -1.1330820000
| 19>  H        0.7594820000     1.7354520000     0.5817700000
| 20>  H       -0.1382960000     0.2536290000     0.9564100000
| 21>  H        0.4260000000     0.5689020000    -0.6938120000
| 22>  H        2.7890720000     0.3737380000     0.0782670000
| 23>  H        1.5729370000    -0.2692370000     2.8059420000
| 24>  H        2.4706650000     1.2047960000     2.4021440000
| 25>  H        3.2896920000    -0.3691010000     2.3868580000
| 26>  H        2.7126900000    -1.3088450000    -1.4097330000
| 27>  H        0.9542690000    -1.4940430000    -1.3555700000
| 28>  H        2.2421890000    -5.4816730000    -1.2460780000
| 29> *
| 30>
| 31>                          ****END OF INPUT****
 Total Charge           Charge          ....    0
 Multiplicity           Mult            ....    1
 Number of Electrons    NEL             ....   54
 Basis Dimension        Dim             ....  148

MULLIKEN ATOMIC CHARGES
-----------------------
   0 C :   -0.013010
   1 C :    0.032729
   2 C :    0.024442
   3 O :   -0.332784
   4 C :    0.244789
   5 C :    0.311814
   6 C :   -0.453304
   7 H :    0.023562
   8 H :    0.026366
   9 H :    0.023973
  10 H :   -0.005346
  11 H :    0.025797
  12 H :    0.017130
  13 H :    0.027852
  14 H :    0.019049
  15 H :    0.023345
  16 H :    0.003598
Sum of atomic charges:   -0.0000000

LOEWDIN ATOMIC CHARGES
----------------------
   0 C :   -0.077287
   1 C :    0.044633
   2 C :   -0.064478
   3 O :   -0.137496
   4 C :    0.054389
   5 C :   -0.027368
   6 C :   -0.066344
   7 H :    0.032701
   8 H :    0.030729
   9 H :    0.024453
  10 H :    0.006058
  11 H :    0.030536
  12 H :    0.029811
  13 H :    0.031134
  14 H :    0.027200
  15 H :    0.025747
  16 H :    0.035582

  Mayer bond orders larger than 0.1
B(  0-C ,  1-C ) :   1.0855 B(  0-C ,  7-H ) :   0.9525 B(  0-C ,  8-H ) :   0.9513
B(  0-C ,  9-H ) :   0.9539 B(  1-C ,  2-C ) :   1.0897 B(  1-C ,  3-O ) :   0.9943
B(  1-C , 10-H ) :   0.9134 B(  2-C , 11-H ) :   0.9573 B(  2-C , 12-H ) :   0.9561
B(  2-C , 13-H ) :   0.9552 B(  3-O ,  4-C ) :   1.0380 B(  4-C ,  5-C ) :   1.0166
B(  4-C , 14-H ) :   0.9023 B(  4-C , 15-H ) :   0.9006 B(  5-C ,  6-C ) :   2.3934
B(  5-C , 16-H ) :  -0.1024 B(  6-C , 16-H ) :   1.0931

FINAL SINGLE POINT ENERGY      -309.159085261715

DIPOLE MOMENT
-------------
                                X             Y             Z
Electronic contribution:      1.24877      -7.62442      -3.02460
Nuclear contribution   :     -1.26446       8.14401       2.77412
                        -----------------------------------------
Total Dipole Moment    :     -0.01569       0.51958      -0.25048
                        -----------------------------------------
Magnitude (a.u.)       :      0.57702
Magnitude (Debye)      :      1.46667

                             ****ORCA TERMINATED NORMALLY****
TOTAL RUN TIME: 0 days 0 hours 0 minutes 7 seconds 700 msec
