                         Program Version 3.0.3 - RELEASE   -
|  1> ! RI PBE def2-SVP def2-SVP/J NBO PAL2
|  2> % maxcore 2000
|  3> % output
|  4>     # printlevel mini
|  5>     print[ P_Basis ] 0
|  6>     print[ P_SCFInfo ] 1
|  7>     print[ P_SCFIterInfo ] 1
|  8>     print[ P_OrbEn ] 0
|  9>     print[ P_Cartesian ] 0
| 10> end
| 11> *xyz 0 1
| 12>  C        1.0152010000    -0.0469060000     0.0060420000
| 13>  C        2.4880980000    -0.0582910000     0.2600520000
| 14>  C        2.8876290000    -0.4728380000     1.6458430000
| 15>  O        2.4105780000     0.4297840000     2.6317590000
| 16>  C        3.3647110000     0.2976910000    -0.6925890000
| 17>  C        4.8090140000     0.3447260000    -0.5992880000
| 18>  C        5.5976260000     0.7029630000    -1.6138540000
| 19>  H        0.6037040000    -1.0599140000     0.0816900000
| 20>  H        0.7775060000     0.3465570000    -0.9830290000
| 21>  H        0.4977010000     0.5542720000     0.7586290000
| 22>  H        3.9698390000    -0.6068740000     1.7327230000
| 23>  H        2.4225790000    -1.4334400000     1.8884090000
| 24>  H        2.7795510000     1.2955850000     2.4358030000
| 25>  H        2.9605010000     0.5884440000    -1.6613120000
| 26>  H        5.2731600000     0.0773290000     0.3453500000
| 27>  H        5.1849370000     0.9776440000    -2.5795300000
| 28>  H        6.6754540000     0.7315890000    -1.5120890000
| 29> *
| 30>
| 31>                          ****END OF INPUT****
 Total Charge           Charge          ....    0
 Multiplicity           Mult            ....    1
 Number of Electrons    NEL             ....   54
 Basis Dimension        Dim             ....  148

MULLIKEN ATOMIC CHARGES
-----------------------
   0 C :    0.074435
   1 C :   -0.248082
   2 C :    0.271386
   3 O :   -0.289903
   4 C :    0.015748
   5 C :   -0.014978
   6 C :   -0.035325
   7 H :    0.026232
   8 H :    0.014039
   9 H :    0.031661
  10 H :   -0.004419
  11 H :    0.003295
  12 H :    0.153909
  13 H :   -0.030201
  14 H :   -0.011630
  15 H :    0.017149
  16 H :    0.026685
Sum of atomic charges:    0.0000000

LOEWDIN ATOMIC CHARGES
----------------------
   0 C :   -0.054575
   1 C :   -0.055056
   2 C :    0.064010
   3 O :   -0.119409
   4 C :   -0.048144
   5 C :   -0.038581
   6 C :   -0.053192
   7 H :    0.037733
   8 H :    0.028952
   9 H :    0.035895
  10 H :    0.007178
  11 H :    0.026856
  12 H :    0.069227
  13 H :    0.026275
  14 H :    0.025096
  15 H :    0.022262
  16 H :    0.025472

  Mayer bond orders larger than 0.1
B(  0-C ,  1-C ) :   1.0799 B(  0-C ,  7-H ) :   0.9384 B(  0-C ,  8-H ) :   0.9541
B(  0-C ,  9-H ) :   0.9366 B(  1-C ,  2-C ) :   1.0686 B(  1-C ,  4-C ) :   1.7430
B(  1-C ,  6-C ) :   0.1292 B(  2-C ,  3-O ) :   1.0351 B(  2-C , 10-H ) :   0.9207
B(  2-C , 11-H ) :   0.9095 B(  3-O , 12-H ) :   0.9821 B(  4-C ,  5-C ) :   1.1351
B(  4-C , 13-H ) :   0.9437 B(  5-C ,  6-C ) :   1.8945 B(  5-C , 14-H ) :   0.9508
B(  6-C , 15-H ) :   0.9483 B(  6-C , 16-H ) :   0.9413

FINAL SINGLE POINT ENERGY      -309.203924820337

DIPOLE MOMENT
-------------
                                X             Y             Z
Electronic contribution:      0.77724       0.44485       2.14004
Nuclear contribution   :     -0.62872      -0.29613      -2.42308
                        -----------------------------------------
Total Dipole Moment    :      0.14852       0.14872      -0.28305
                        -----------------------------------------
Magnitude (a.u.)       :      0.35255
Magnitude (Debye)      :      0.89611

                             ****ORCA TERMINATED NORMALLY****
TOTAL RUN TIME: 0 days 0 hours 0 minutes 7 seconds 859 msec
