                         Program Version 3.0.3 - RELEASE   -
|  1> ! RI PBE def2-SVP def2-SVP/J NBO PAL2
|  2> % maxcore 2000
|  3> % output
|  4>     # printlevel mini
|  5>     print[ P_Basis ] 0
|  6>     print[ P_SCFInfo ] 1
|  7>     print[ P_SCFIterInfo ] 1
|  8>     print[ P_OrbEn ] 0
|  9>     print[ P_Cartesian ] 0
| 10> end
| 11> *xyz 0 1
| 12>  C        0.8764140000    -0.1499110000    -0.0141850000
| 13>  C        2.3651470000    -0.1056610000    -0.0798190000
| 14>  C        2.9583440000     0.8151210000    -1.1052840000
| 15>  O        2.5719980000     2.1630370000    -0.8975430000
| 16>  C        3.1305110000    -0.8394480000     0.7420630000
| 17>  C        4.5479240000    -0.8528600000     0.7525850000
| 18>  C        5.7503080000    -0.8959160000     0.8065620000
| 19>  H        0.4702860000     0.8581720000     0.1032170000
| 20>  H        0.5226600000    -0.7734900000     0.8075010000
| 21>  H        0.4647150000    -0.5429390000    -0.9504210000
| 22>  H        2.5762620000     0.5525390000    -2.0969130000
| 23>  H        4.0475560000     0.7102030000    -1.1258250000
| 24>  H        2.9667900000     2.4554830000    -0.0713700000
| 25>  H        2.6497480000    -1.4898580000     1.4691490000
| 26>  H        6.8132060000    -0.9309530000     0.8457730000
| 27> *
| 28>
| 29>                          ****END OF INPUT****
 Total Charge           Charge          ....    0
 Multiplicity           Mult            ....    1
 Number of Electrons    NEL             ....   52
 Basis Dimension        Dim             ....  138

MULLIKEN ATOMIC CHARGES
-----------------------
   0 C :    0.078282
   1 C :   -0.255229
   2 C :    0.280220
   3 O :   -0.291450
   4 C :   -0.046431
   5 C :    0.363838
   6 C :   -0.412271
   7 H :    0.035007
   8 H :    0.020039
   9 H :    0.031310
  10 H :    0.007061
  11 H :    0.013610
  12 H :    0.157519
  13 H :    0.014484
  14 H :    0.004012
Sum of atomic charges:   -0.0000000

LOEWDIN ATOMIC CHARGES
----------------------
   0 C :   -0.053516
   1 C :   -0.032273
   2 C :    0.065843
   3 O :   -0.117378
   4 C :   -0.068952
   5 C :   -0.024941
   6 C :   -0.074102
   7 H :    0.039012
   8 H :    0.030768
   9 H :    0.041401
  10 H :    0.028246
  11 H :    0.016555
  12 H :    0.072613
  13 H :    0.041660
  14 H :    0.035065

  Mayer bond orders larger than 0.1
B(  0-C ,  1-C ) :   1.0824 B(  0-C ,  7-H ) :   0.9345 B(  0-C ,  8-H ) :   0.9548
B(  0-C ,  9-H ) :   0.9369 B(  1-C ,  2-C ) :   1.0620 B(  1-C ,  4-C ) :   1.7590
B(  1-C ,  6-C ) :   0.1267 B(  2-C ,  3-O ) :   1.0412 B(  2-C , 10-H ) :   0.9109
B(  2-C , 11-H ) :   0.9164 B(  3-O , 12-H ) :   0.9826 B(  4-C ,  5-C ) :   1.0263
B(  4-C , 13-H ) :   0.9400 B(  5-C ,  6-C ) :   2.2536 B(  6-C , 14-H ) :   1.0903

FINAL SINGLE POINT ENERGY      -307.960618421173

DIPOLE MOMENT
-------------
                                X             Y             Z
Electronic contribution:      3.98371      -0.06227       1.05267
Nuclear contribution   :     -3.99893      -0.04798      -0.80085
                        -----------------------------------------
Total Dipole Moment    :     -0.01522      -0.11025       0.25182
                        -----------------------------------------
Magnitude (a.u.)       :      0.27532
Magnitude (Debye)      :      0.69981

                             ****ORCA TERMINATED NORMALLY****
TOTAL RUN TIME: 0 days 0 hours 0 minutes 7 seconds 89 msec
