                         Program Version 3.0.3 - RELEASE   -
|  1> ! RI PBE def2-SVP def2-SVP/J NBO PAL2
|  2> % maxcore 2000
|  3> % output
|  4>     # printlevel mini
|  5>     print[ P_Basis ] 0
|  6>     print[ P_SCFInfo ] 1
|  7>     print[ P_SCFIterInfo ] 1
|  8>     print[ P_OrbEn ] 0
|  9>     print[ P_Cartesian ] 0
| 10> end
| 11> *xyz 0 1
| 12>  C        1.2689600000     0.0707580000    -0.2485680000
| 13>  C        2.5026350000    -0.5275270000     0.4153410000
| 14>  C        2.7917780000     0.1845000000     1.7408010000
| 15>  O        3.9962380000    -0.2274310000     2.3338900000
| 16>  C        2.4041140000    -2.0152720000     0.6472230000
| 17>  C        1.1352220000    -2.5500770000     1.2365810000
| 18>  C        3.4379280000    -2.8132890000     0.3814570000
| 19>  H        1.4315530000     1.1282680000    -0.4698090000
| 20>  H        0.3883710000     0.0004840000     0.3953630000
| 21>  H        1.0386830000    -0.4360900000    -1.1882640000
| 22>  H        3.3712670000    -0.3501530000    -0.2280030000
| 23>  H        1.9421860000     0.0451150000     2.4276640000
| 24>  H        2.8843340000     1.2583050000     1.5561510000
| 25>  H        4.0314020000    -1.1897490000     2.2731030000
| 26>  H        0.3030740000    -2.4446880000     0.5341340000
| 27>  H        0.8505760000    -2.0054240000     2.1421840000
| 28>  H        1.2328950000    -3.6062360000     1.4892790000
| 29>  H        4.3476410000    -2.4270390000    -0.0662020000
| 30>  H        3.3988220000    -3.8793350000     0.5800560000
| 31> *
| 32>
| 33>                          ****END OF INPUT****
 Total Charge           Charge          ....    0
 Multiplicity           Mult            ....    1
 Number of Electrons    NEL             ....   56
 Basis Dimension        Dim             ....  158

MULLIKEN ATOMIC CHARGES
-----------------------
   0 C :    0.009443
   1 C :   -0.118012
   2 C :    0.218298
   3 O :   -0.275517
   4 C :   -0.201074
   5 C :    0.078917
   6 C :   -0.042656
   7 H :    0.022654
   8 H :    0.021893
   9 H :    0.026571
  10 H :    0.006477
  11 H :   -0.013166
  12 H :    0.010165
  13 H :    0.145438
  14 H :    0.036937
  15 H :    0.026634
  16 H :    0.014712
  17 H :    0.017941
  18 H :    0.014345
Sum of atomic charges:    0.0000000

LOEWDIN ATOMIC CHARGES
----------------------
   0 C :   -0.054299
   1 C :   -0.059911
   2 C :    0.062810
   3 O :   -0.118298
   4 C :   -0.030224
   5 C :   -0.056666
   6 C :   -0.083123
   7 H :    0.030128
   8 H :    0.024337
   9 H :    0.029782
  10 H :    0.030991
  11 H :   -0.001833
  12 H :    0.019997
  13 H :    0.057282
  14 H :    0.039834
  15 H :    0.034023
  16 H :    0.032883
  17 H :    0.021657
  18 H :    0.020632

  Mayer bond orders larger than 0.1
B(  0-C ,  1-C ) :   1.0643 B(  0-C ,  7-H ) :   0.9557 B(  0-C ,  8-H ) :   0.9538
B(  0-C ,  9-H ) :   0.9584 B(  1-C ,  2-C ) :   1.0184 B(  1-C ,  4-C ) :   1.0219
B(  1-C , 10-H ) :   0.8912 B(  2-C ,  3-O ) :   1.0964 B(  2-C , 11-H ) :   0.9225
B(  2-C , 12-H ) :   0.9327 B(  3-O , 13-H ) :   0.9719 B(  4-C ,  5-C ) :   1.0894
B(  4-C ,  6-C ) :   1.9567 B(  5-C , 14-H ) :   0.9335 B(  5-C , 15-H ) :   0.9391
B(  5-C , 16-H ) :   0.9416 B(  6-C , 17-H ) :   0.9310 B(  6-C , 18-H ) :   0.9337

FINAL SINGLE POINT ENERGY      -310.418691518218

DIPOLE MOMENT
-------------
                                X             Y             Z
Electronic contribution:      4.06565       0.39387       1.71577
Nuclear contribution   :     -4.64083      -0.72037      -2.01880
                        -----------------------------------------
Total Dipole Moment    :     -0.57518      -0.32649      -0.30303
                        -----------------------------------------
Magnitude (a.u.)       :      0.72750
Magnitude (Debye)      :      1.84915

                             ****ORCA TERMINATED NORMALLY****
TOTAL RUN TIME: 0 days 0 hours 0 minutes 8 seconds 441 msec
