                         Program Version 3.0.3 - RELEASE   -
|  1> ! RI PBE def2-SVP def2-SVP/J NBO PAL2
|  2> % maxcore 2000
|  3> % output
|  4>     # printlevel mini
|  5>     print[ P_Basis ] 0
|  6>     print[ P_SCFInfo ] 1
|  7>     print[ P_SCFIterInfo ] 1
|  8>     print[ P_OrbEn ] 0
|  9>     print[ P_Cartesian ] 0
| 10> end
| 11> *xyz 0 1
| 12>  C        1.0264180000    -0.4969330000     0.4305200000
| 13>  C        2.3318340000    -0.4219400000    -0.3449070000
| 14>  C        2.5309610000    -1.6611960000    -1.2080340000
| 15>  O        2.5793240000    -2.8621630000    -0.4640520000
| 16>  C        2.3980390000     0.8502120000    -1.1967000000
| 17>  C        3.7419170000     1.1272970000    -1.7855610000
| 18>  C        3.9984480000     1.3020980000    -3.0745410000
| 19>  H        0.9583910000    -1.4325670000     0.9875230000
| 20>  H        0.1714950000    -0.4522320000    -0.2519130000
| 21>  H        0.9345020000     0.3335370000     1.1350250000
| 22>  H        3.1636540000    -0.3852300000     0.3750220000
| 23>  H        3.4297360000    -1.5461990000    -1.8268050000
| 24>  H        1.6803900000    -1.7693330000    -1.8892440000
| 25>  H        3.3799240000    -2.8539200000     0.0663820000
| 26>  H        2.1134820000     1.6957610000    -0.5578530000
| 27>  H        1.6461360000     0.7980410000    -1.9928790000
| 28>  H        4.5646370000     1.1964210000    -1.0739730000
| 29>  H        3.2122910000     1.2426380000    -3.8212830000
| 30>  H        4.9996310000     1.5150150000    -3.4311130000
| 31> *
| 32>
| 33>                          ****END OF INPUT****
 Total Charge           Charge          ....    0
 Multiplicity           Mult            ....    1
 Number of Electrons    NEL             ....   56
 Basis Dimension        Dim             ....  158

MULLIKEN ATOMIC CHARGES
-----------------------
   0 C :    0.037135
   1 C :   -0.197120
   2 C :    0.207111
   3 O :   -0.281661
   4 C :    0.088393
   5 C :   -0.088210
   6 C :   -0.028219
   7 H :    0.020851
   8 H :    0.009996
   9 H :    0.015780
  10 H :   -0.002665
  11 H :    0.004124
  12 H :    0.000483
  13 H :    0.152137
  14 H :    0.018725
  15 H :    0.000196
  16 H :    0.003142
  17 H :    0.018779
  18 H :    0.021021
Sum of atomic charges:   -0.0000000

LOEWDIN ATOMIC CHARGES
----------------------
   0 C :   -0.059949
   1 C :   -0.064996
   2 C :    0.057265
   3 O :   -0.118640
   4 C :   -0.035583
   5 C :   -0.031696
   6 C :   -0.066642
   7 H :    0.025394
   8 H :    0.025111
   9 H :    0.023912
  10 H :    0.017845
  11 H :    0.006334
  12 H :    0.019433
  13 H :    0.067330
  14 H :    0.036445
  15 H :    0.027651
  16 H :    0.024945
  17 H :    0.021899
  18 H :    0.023942

  Mayer bond orders larger than 0.1
B(  0-C ,  1-C ) :   1.0737 B(  0-C ,  7-H ) :   0.9509 B(  0-C ,  8-H ) :   0.9592
B(  0-C ,  9-H ) :   0.9598 B(  1-C ,  2-C ) :   1.0288 B(  1-C ,  4-C ) :   1.0299
B(  1-C , 10-H ) :   0.9088 B(  2-C ,  3-O ) :   1.0594 B(  2-C , 11-H ) :   0.9416
B(  2-C , 12-H ) :   0.9273 B(  3-O , 13-H ) :   0.9857 B(  4-C ,  5-C ) :   1.0599
B(  4-C , 14-H ) :   0.9082 B(  4-C , 15-H ) :   0.9222 B(  5-C ,  6-C ) :   1.9977
B(  5-C , 16-H ) :   0.9549 B(  6-C , 17-H ) :   0.9476 B(  6-C , 18-H ) :   0.9426

FINAL SINGLE POINT ENERGY      -310.412392946988

DIPOLE MOMENT
-------------
                                X             Y             Z
Electronic contribution:      1.70073      -2.43300      -0.21612
Nuclear contribution   :     -1.32110       2.79833       0.40512
                        -----------------------------------------
Total Dipole Moment    :      0.37963       0.36533       0.18899
                        -----------------------------------------
Magnitude (a.u.)       :      0.55973
Magnitude (Debye)      :      1.42273

                             ****ORCA TERMINATED NORMALLY****
TOTAL RUN TIME: 0 days 0 hours 0 minutes 8 seconds 311 msec
