                         Program Version 3.0.3 - RELEASE   -
|  1> ! RI PBE def2-SVP def2-SVP/J NBO PAL2
|  2> % maxcore 2000
|  3> % output
|  4>     # printlevel mini
|  5>     print[ P_Basis ] 0
|  6>     print[ P_SCFInfo ] 1
|  7>     print[ P_SCFIterInfo ] 1
|  8>     print[ P_OrbEn ] 0
|  9>     print[ P_Cartesian ] 0
| 10> end
| 11> *xyz 0 1
| 12>  C        0.9528730000    -0.3608730000    -0.2625660000
| 13>  C        2.3745360000     0.0657230000     0.0621600000
| 14>  C        2.4606080000     1.5654120000     0.3149480000
| 15>  O        2.0836580000     2.3385290000    -0.8050970000
| 16>  C        2.9110940000    -0.7166810000     1.2684910000
| 17>  C        4.3273670000    -0.5142590000     1.5263930000
| 18>  C        5.5007740000    -0.3489440000     1.7215890000
| 19>  H        0.5503940000     0.2395140000    -1.0795280000
| 20>  H        0.3004580000    -0.2230830000     0.6058130000
| 21>  H        0.9072970000    -1.4136040000    -0.5525010000
| 22>  H        3.0215230000    -0.1652620000    -0.7945370000
| 23>  H        3.4704830000     1.8270360000     0.6540730000
| 24>  H        1.7644920000     1.8400040000     1.1145580000
| 25>  H        2.7618470000     2.2422230000    -1.4782850000
| 26>  H        2.7312310000    -1.7852120000     1.1100650000
| 27>  H        2.3378630000    -0.4411600000     2.1624060000
| 28>  H        6.5396920000    -0.2053650000     1.9020880000
| 29> *
| 30>
| 31>                          ****END OF INPUT****
 Total Charge           Charge          ....    0
 Multiplicity           Mult            ....    1
 Number of Electrons    NEL             ....   54
 Basis Dimension        Dim             ....  148

MULLIKEN ATOMIC CHARGES
-----------------------
   0 C :    0.048320
   1 C :   -0.194664
   2 C :    0.211500
   3 O :   -0.281026
   4 C :    0.087641
   5 C :    0.357136
   6 C :   -0.514406
   7 H :    0.024890
   8 H :    0.012068
   9 H :    0.015160
  10 H :    0.006613
  11 H :    0.006370
  12 H :   -0.000430
  13 H :    0.154284
  14 H :    0.036500
  15 H :    0.032832
  16 H :   -0.002787
Sum of atomic charges:   -0.0000000

LOEWDIN ATOMIC CHARGES
----------------------
   0 C :   -0.059524
   1 C :   -0.058077
   2 C :    0.059611
   3 O :   -0.116803
   4 C :   -0.041435
   5 C :   -0.022477
   6 C :   -0.094299
   7 H :    0.028352
   8 H :    0.025640
   9 H :    0.025139
  10 H :    0.023555
  11 H :    0.009748
  12 H :    0.019164
  13 H :    0.069221
  14 H :    0.050435
  15 H :    0.047876
  16 H :    0.033873

  Mayer bond orders larger than 0.1
B(  0-C ,  1-C ) :   1.0796 B(  0-C ,  7-H ) :   0.9493 B(  0-C ,  8-H ) :   0.9561
B(  0-C ,  9-H ) :   0.9564 B(  1-C ,  2-C ) :   1.0241 B(  1-C ,  4-C ) :   1.0293
B(  1-C , 10-H ) :   0.9097 B(  2-C ,  3-O ) :   1.0623 B(  2-C , 11-H ) :   0.9422
B(  2-C , 12-H ) :   0.9301 B(  3-O , 13-H ) :   0.9863 B(  4-C ,  5-C ) :   1.0621
B(  4-C , 14-H ) :   0.8937 B(  4-C , 15-H ) :   0.8885 B(  5-C ,  6-C ) :   2.2981
B(  5-C , 16-H ) :  -0.1150 B(  6-C , 16-H ) :   1.1058

FINAL SINGLE POINT ENERGY      -309.170332097041

DIPOLE MOMENT
-------------
                                X             Y             Z
Electronic contribution:      4.16808       1.27896       0.90006
Nuclear contribution   :     -3.94198      -1.57958      -1.03696
                        -----------------------------------------
Total Dipole Moment    :      0.22610      -0.30062      -0.13689
                        -----------------------------------------
Magnitude (a.u.)       :      0.40029
Magnitude (Debye)      :      1.01746

                             ****ORCA TERMINATED NORMALLY****
TOTAL RUN TIME: 0 days 0 hours 0 minutes 7 seconds 775 msec
