                         Program Version 3.0.3 - RELEASE   -
|  1> ! RI PBE def2-SVP def2-SVP/J NBO PAL2
|  2> % maxcore 2000
|  3> % output
|  4>     # printlevel mini
|  5>     print[ P_Basis ] 0
|  6>     print[ P_SCFInfo ] 1
|  7>     print[ P_SCFIterInfo ] 1
|  8>     print[ P_OrbEn ] 0
|  9>     print[ P_Cartesian ] 0
| 10> end
| 11> *xyz 0 1
| 12>  C        1.1235710000     0.2027440000    -0.1787270000
| 13>  C        2.6317220000     0.1491030000    -0.0733330000
| 14>  C        3.1372450000    -0.6623250000     1.0963940000
| 15>  O        2.3827140000    -1.2120920000     1.8681880000
| 16>  C        4.6113380000    -0.7395060000     1.2349450000
| 17>  C        5.1821630000    -1.4236510000     2.2244230000
| 18>  C        6.6412120000    -1.5627340000     2.4512900000
| 19>  H        0.8151430000     0.8002330000    -1.0387950000
| 20>  H        0.6856340000     0.6389460000     0.7203400000
| 21>  H        0.7047790000    -0.7990520000    -0.2855070000
| 22>  H        3.0643690000     1.1542120000     0.0150140000
| 23>  H        3.0833400000    -0.2707170000    -0.9816410000
| 24>  H        5.2172260000    -0.2167250000     0.4988040000
| 25>  H        4.5137370000    -1.9220560000     2.9245130000
| 26>  H        7.2273240000    -1.0302670000     1.7007290000
| 27>  H        6.9329300000    -2.6180120000     2.4384970000
| 28>  H        6.9137530000    -1.1830910000     3.4414780000
| 29> *
| 30>
| 31>                          ****END OF INPUT****
 Total Charge           Charge          ....    0
 Multiplicity           Mult            ....    1
 Number of Electrons    NEL             ....   54
 Basis Dimension        Dim             ....  148

MULLIKEN ATOMIC CHARGES
-----------------------
   0 C :    0.021157
   1 C :   -0.052820
   2 C :   -0.002462
   3 O :   -0.173183
   4 C :   -0.029533
   5 C :   -0.058494
   6 C :    0.048312
   7 H :    0.012736
   8 H :    0.029395
   9 H :    0.027107
  10 H :    0.033847
  11 H :    0.030512
  12 H :   -0.017548
  13 H :    0.020124
  14 H :    0.024911
  15 H :    0.043703
  16 H :    0.042235
Sum of atomic charges:   -0.0000000

LOEWDIN ATOMIC CHARGES
----------------------
   0 C :   -0.062183
   1 C :   -0.077721
   2 C :    0.048101
   3 O :   -0.133676
   4 C :   -0.092124
   5 C :    0.029040
   6 C :   -0.062323
   7 H :    0.026131
   8 H :    0.031819
   9 H :    0.031289
  10 H :    0.042116
  11 H :    0.041668
  12 H :    0.022011
  13 H :    0.032130
  14 H :    0.032753
  15 H :    0.045463
  16 H :    0.045504

  Mayer bond orders larger than 0.1
B(  0-C ,  1-C ) :   1.1226 B(  0-C ,  7-H ) :   0.9562 B(  0-C ,  8-H ) :   0.9632
B(  0-C ,  9-H ) :   0.9627 B(  1-C ,  2-C ) :   0.9706 B(  1-C , 10-H ) :   0.9147
B(  1-C , 11-H ) :   0.9139 B(  2-C ,  3-O ) :   2.1459 B(  2-C ,  4-C ) :   1.0058
B(  4-C ,  5-C ) :   1.8306 B(  4-C , 12-H ) :   0.9523 B(  5-C ,  6-C ) :   1.0918
B(  5-C , 13-H ) :   0.9392 B(  6-C , 14-H ) :   0.9593 B(  6-C , 15-H ) :   0.9390
B(  6-C , 16-H ) :   0.9374

FINAL SINGLE POINT ENERGY      -309.239464679703

DIPOLE MOMENT
-------------
                                X             Y             Z
Electronic contribution:     -1.57949      -1.62716       2.29426
Nuclear contribution   :      2.51853       1.89617      -2.66209
                        -----------------------------------------
Total Dipole Moment    :      0.93904       0.26902      -0.36783
                        -----------------------------------------
Magnitude (a.u.)       :      1.04378
Magnitude (Debye)      :      2.65307

                             ****ORCA TERMINATED NORMALLY****
TOTAL RUN TIME: 0 days 0 hours 0 minutes 7 seconds 179 msec
