                         Program Version 3.0.3 - RELEASE   -
|  1> ! RI PBE def2-SVP def2-SVP/J NBO PAL2
|  2> % maxcore 2000
|  3> % output
|  4>     # printlevel mini
|  5>     print[ P_Basis ] 0
|  6>     print[ P_SCFInfo ] 1
|  7>     print[ P_SCFIterInfo ] 1
|  8>     print[ P_OrbEn ] 0
|  9>     print[ P_Cartesian ] 0
| 10> end
| 11> *xyz 0 1
| 12>  C        1.0934290000    -0.6123300000    -0.1425480000
| 13>  C        2.5225580000    -0.2909030000    -0.5211470000
| 14>  C        3.3740840000    -1.5013390000    -0.8110650000
| 15>  O        2.9379290000    -2.6245560000    -0.7427110000
| 16>  C        4.8246890000    -1.2465690000    -1.1983790000
| 17>  C        5.7456570000    -1.9011390000    -0.1738720000
| 18>  C        5.0789850000    -1.7921110000    -2.5997760000
| 19>  H        0.5279350000     0.3003070000     0.0549540000
| 20>  H        1.0589270000    -1.2400080000     0.7492120000
| 21>  H        0.5936460000    -1.1624730000    -0.9412750000
| 22>  H        3.0318520000     0.2804690000     0.2662870000
| 23>  H        2.5715120000     0.3572140000    -1.4062690000
| 24>  H        4.9982880000    -0.1648800000    -1.1974260000
| 25>  H        5.5554460000    -2.9754980000    -0.1340110000
| 26>  H        5.5928570000    -1.4927730000     0.8284130000
| 27>  H        6.7918620000    -1.7431480000    -0.4460630000
| 28>  H        4.8703270000    -2.8634460000    -2.6265330000
| 29>  H        6.1210300000    -1.6335540000    -2.8871780000
| 30>  H        4.4458050000    -1.3050720000    -3.3458030000
| 31> *
| 32>
| 33>                          ****END OF INPUT****
 Total Charge           Charge          ....    0
 Multiplicity           Mult            ....    1
 Number of Electrons    NEL             ....   56
 Basis Dimension        Dim             ....  158

MULLIKEN ATOMIC CHARGES
-----------------------
   0 C :    0.005180
   1 C :   -0.040649
   2 C :   -0.027230
   3 O :   -0.167253
   4 C :   -0.111156
   5 C :    0.016491
   6 C :    0.023321
   7 H :    0.015997
   8 H :    0.031010
   9 H :    0.032982
  10 H :    0.036387
  11 H :    0.035918
  12 H :   -0.002770
  13 H :    0.038694
  14 H :    0.017895
  15 H :    0.021788
  16 H :    0.036796
  17 H :    0.019620
  18 H :    0.016980
Sum of atomic charges:   -0.0000000

LOEWDIN ATOMIC CHARGES
----------------------
   0 C :   -0.064881
   1 C :   -0.079713
   2 C :    0.069385
   3 O :   -0.122906
   4 C :   -0.075134
   5 C :   -0.049503
   6 C :   -0.048820
   7 H :    0.027411
   8 H :    0.032474
   9 H :    0.032755
  10 H :    0.043869
  11 H :    0.043806
  12 H :    0.022345
  13 H :    0.031321
  14 H :    0.026124
  15 H :    0.027303
  16 H :    0.031088
  17 H :    0.026908
  18 H :    0.026166

  Mayer bond orders larger than 0.1
B(  0-C ,  1-C ) :   1.1238 B(  0-C ,  7-H ) :   0.9549 B(  0-C ,  8-H ) :   0.9630
B(  0-C ,  9-H ) :   0.9636 B(  1-C ,  2-C ) :   0.9828 B(  1-C , 10-H ) :   0.9071
B(  1-C , 11-H ) :   0.9066 B(  2-C ,  3-O ) :   2.1858 B(  2-C ,  4-C ) :   0.9327
B(  4-C ,  5-C ) :   1.0737 B(  4-C ,  6-C ) :   1.0727 B(  4-C , 12-H ) :   0.9090
B(  5-C , 13-H ) :   0.9591 B(  5-C , 14-H ) :   0.9608 B(  5-C , 15-H ) :   0.9611
B(  6-C , 16-H ) :   0.9586 B(  6-C , 17-H ) :   0.9608 B(  6-C , 18-H ) :   0.9598

FINAL SINGLE POINT ENERGY      -310.452940379721

DIPOLE MOMENT
-------------
                                X             Y             Z
Electronic contribution:     -1.86538      -2.50915       0.39608
Nuclear contribution   :      2.21806       3.36369      -0.45327
                        -----------------------------------------
Total Dipole Moment    :      0.35269       0.85454      -0.05719
                        -----------------------------------------
Magnitude (a.u.)       :      0.92622
Magnitude (Debye)      :      2.35427

                             ****ORCA TERMINATED NORMALLY****
TOTAL RUN TIME: 0 days 0 hours 0 minutes 8 seconds 204 msec
