                         Program Version 3.0.3 - RELEASE   -
|  1> ! RI PBE def2-SVP def2-SVP/J NBO PAL2
|  2> % maxcore 2000
|  3> % output
|  4>     # printlevel mini
|  5>     print[ P_Basis ] 0
|  6>     print[ P_SCFInfo ] 1
|  7>     print[ P_SCFIterInfo ] 1
|  8>     print[ P_OrbEn ] 0
|  9>     print[ P_Cartesian ] 0
| 10> end
| 11> *xyz 0 1
| 12>  C        1.6320600000    -0.1182130000    -0.2897260000
| 13>  C        3.0645060000    -0.5541030000    -0.0596830000
| 14>  C        4.0499060000     0.5927060000    -0.1309680000
| 15>  O        3.6759820000     1.7232480000    -0.3523810000
| 16>  C        5.5076920000     0.3300460000     0.0744110000
| 17>  C        6.3952870000     1.5277120000    -0.0159110000
| 18>  C        5.9657110000    -0.8970930000     0.3205140000
| 19>  H        0.9574810000    -0.9745160000    -0.2296250000
| 20>  H        1.5156590000     0.3451100000    -1.2704040000
| 21>  H        1.3221360000     0.6185030000     0.4526620000
| 22>  H        3.3648280000    -1.3092160000    -0.7945730000
| 23>  H        3.1725350000    -1.0375530000     0.9175870000
| 24>  H        6.1042430000     2.2795760000     0.7213860000
| 25>  H        6.2966810000     2.0077180000    -0.9923750000
| 26>  H        7.4386150000     1.2546840000     0.1445580000
| 27>  H        5.3106960000    -1.7571180000     0.3833900000
| 28>  H        7.0244900000    -1.0805910000     0.4685190000
| 29> *
| 30>
| 31>                          ****END OF INPUT****
 Total Charge           Charge          ....    0
 Multiplicity           Mult            ....    1
 Number of Electrons    NEL             ....   54
 Basis Dimension        Dim             ....  148

MULLIKEN ATOMIC CHARGES
-----------------------
   0 C :    0.021941
   1 C :   -0.069528
   2 C :    0.000882
   3 O :   -0.158744
   4 C :   -0.128257
   5 C :    0.075613
   6 C :   -0.034897
   7 H :    0.014844
   8 H :    0.026158
   9 H :    0.028989
  10 H :    0.043978
  11 H :    0.039269
  12 H :    0.043944
  13 H :    0.041545
  14 H :    0.009672
  15 H :    0.022775
  16 H :    0.021815
Sum of atomic charges:   -0.0000000

LOEWDIN ATOMIC CHARGES
----------------------
   0 C :   -0.060719
   1 C :   -0.079707
   2 C :    0.057815
   3 O :   -0.118329
   4 C :   -0.060605
   5 C :   -0.053469
   6 C :   -0.026126
   7 H :    0.026922
   8 H :    0.030948
   9 H :    0.031110
  10 H :    0.042561
  11 H :    0.041882
  12 H :    0.044271
  13 H :    0.043714
  14 H :    0.028977
  15 H :    0.023891
  16 H :    0.026864

  Mayer bond orders larger than 0.1
B(  0-C ,  1-C ) :   1.1287 B(  0-C ,  7-H ) :   0.9541 B(  0-C ,  8-H ) :   0.9614
B(  0-C ,  9-H ) :   0.9629 B(  1-C ,  2-C ) :   1.0050 B(  1-C , 10-H ) :   0.9061
B(  1-C , 11-H ) :   0.9052 B(  2-C ,  3-O ) :   2.1650 B(  2-C ,  4-C ) :   0.9597
B(  4-C ,  5-C ) :   1.0889 B(  4-C ,  6-C ) :   1.9247 B(  5-C , 12-H ) :   0.9398
B(  5-C , 13-H ) :   0.9406 B(  5-C , 14-H ) :   0.9457 B(  6-C , 15-H ) :   0.9241
B(  6-C , 16-H ) :   0.9323

FINAL SINGLE POINT ENERGY      -309.236286668806

DIPOLE MOMENT
-------------
                                X             Y             Z
Electronic contribution:      0.78069       2.51690      -0.30919
Nuclear contribution   :     -0.40541      -3.33558       0.48373
                        -----------------------------------------
Total Dipole Moment    :      0.37528      -0.81868       0.17454
                        -----------------------------------------
Magnitude (a.u.)       :      0.91735
Magnitude (Debye)      :      2.33173

                             ****ORCA TERMINATED NORMALLY****
TOTAL RUN TIME: 0 days 0 hours 0 minutes 7 seconds 867 msec
