                         Program Version 3.0.3 - RELEASE   -
|  1> ! RI PBE def2-SVP def2-SVP/J NBO PAL2
|  2> % maxcore 2000
|  3> % output
|  4>     # printlevel mini
|  5>     print[ P_Basis ] 0
|  6>     print[ P_SCFInfo ] 1
|  7>     print[ P_SCFIterInfo ] 1
|  8>     print[ P_OrbEn ] 0
|  9>     print[ P_Cartesian ] 0
| 10> end
| 11> *xyz 0 1
| 12>  C        2.5652200000    -1.3201560000    -0.7451480000
| 13>  C        2.3149410000     0.0005330000    -0.0254320000
| 14>  C        2.7859480000     1.1925990000    -0.8209430000
| 15>  O        2.0359510000     2.0524630000    -1.2210860000
| 16>  C        4.2100200000     1.2520480000    -1.0885640000
| 17>  C        5.3961210000     1.2970640000    -1.2972830000
| 18>  C        6.8156440000     1.3785100000    -1.5645910000
| 19>  H        2.2254930000    -2.1572480000    -0.1327130000
| 20>  H        3.6276010000    -1.4620660000    -0.9528770000
| 21>  H        2.0260610000    -1.3562940000    -1.6942370000
| 22>  H        2.8481850000     0.0035040000     0.9318280000
| 23>  H        1.2521150000     0.1486950000     0.1734980000
| 24>  H        7.3600460000     0.5621280000    -1.0850040000
| 25>  H        7.2199630000     2.3249860000    -1.1970120000
| 26>  H        7.0038910000     1.3318460000    -2.6402360000
| 27> *
| 28>
| 29>                          ****END OF INPUT****
 Total Charge           Charge          ....    0
 Multiplicity           Mult            ....    1
 Number of Electrons    NEL             ....   52
 Basis Dimension        Dim             ....  138

MULLIKEN ATOMIC CHARGES
-----------------------
   0 C :   -0.038705
   1 C :    0.014457
   2 C :   -0.042872
   3 O :   -0.148017
   4 C :    0.023222
   5 C :   -0.199698
   6 C :    0.056000
   7 H :    0.033063
   8 H :    0.035490
   9 H :    0.030490
  10 H :    0.036269
  11 H :    0.022918
  12 H :    0.055771
  13 H :    0.060141
  14 H :    0.061471
Sum of atomic charges:   -0.0000000

LOEWDIN ATOMIC CHARGES
----------------------
   0 C :   -0.057333
   1 C :   -0.061178
   2 C :    0.037415
   3 O :   -0.105432
   4 C :   -0.080799
   5 C :   -0.011009
   6 C :   -0.064797
   7 H :    0.031770
   8 H :    0.029107
   9 H :    0.031039
  10 H :    0.042193
  11 H :    0.034832
  12 H :    0.053873
  13 H :    0.059926
  14 H :    0.060394

  Mayer bond orders larger than 0.1
B(  0-C ,  1-C ) :   1.1039 B(  0-C ,  7-H ) :   0.9613 B(  0-C ,  8-H ) :   0.9651
B(  0-C ,  9-H ) :   0.9628 B(  1-C ,  2-C ) :   1.0291 B(  1-C , 10-H ) :   0.9148
B(  1-C , 11-H ) :   0.9128 B(  2-C ,  3-O ) :   2.1682 B(  2-C ,  4-C ) :   0.8455
B(  3-O ,  5-C ) :   0.1109 B(  4-C ,  5-C ) :   2.5677 B(  5-C ,  6-C ) :   1.1378
B(  6-C , 12-H ) :   0.9321 B(  6-C , 13-H ) :   0.9260 B(  6-C , 14-H ) :   0.9241

FINAL SINGLE POINT ENERGY      -307.993244178983

DIPOLE MOMENT
-------------
                                X             Y             Z
Electronic contribution:     -2.53756       5.88230      -0.82522
Nuclear contribution   :      3.69001      -6.62907       1.04890
                        -----------------------------------------
Total Dipole Moment    :      1.15245      -0.74677       0.22367
                        -----------------------------------------
Magnitude (a.u.)       :      1.39134
Magnitude (Debye)      :      3.53651

                             ****ORCA TERMINATED NORMALLY****
TOTAL RUN TIME: 0 days 0 hours 0 minutes 6 seconds 831 msec
