                         Program Version 3.0.3 - RELEASE   -
|  1> ! RI PBE def2-SVP def2-SVP/J NBO PAL2
|  2> % maxcore 2000
|  3> % output
|  4>     # printlevel mini
|  5>     print[ P_Basis ] 0
|  6>     print[ P_SCFInfo ] 1
|  7>     print[ P_SCFIterInfo ] 1
|  8>     print[ P_OrbEn ] 0
|  9>     print[ P_Cartesian ] 0
| 10> end
| 11> *xyz 0 1
| 12>  C        1.1807400000     0.3396920000    -0.1308770000
| 13>  C        2.6107610000     0.0810190000     0.2910370000
| 14>  C        3.1539550000    -1.2497950000    -0.1622480000
| 15>  O        2.4771440000    -2.0731040000    -0.7247970000
| 16>  C        4.6341840000    -1.4991130000     0.0937010000
| 17>  C        5.4139190000    -1.1969950000    -1.1479370000
| 18>  C        6.3560410000    -0.2694040000    -1.2429570000
| 19>  H        0.8339810000     1.3043820000     0.2442030000
| 20>  H        0.5163920000    -0.4382930000     0.2475960000
| 21>  H        1.0894860000     0.3404200000    -1.2182330000
| 22>  H        2.7171990000     0.1110490000     1.3836210000
| 23>  H        3.2933330000     0.8561080000    -0.0790680000
| 24>  H        4.7400610000    -2.5569750000     0.3518170000
| 25>  H        4.9967000000    -0.8884420000     0.9241180000
| 26>  H        5.1493200000    -1.7906850000    -2.0196390000
| 27>  H        6.6435870000     0.3399050000    -0.3914950000
| 28>  H        6.8810170000    -0.0923510000    -2.1743440000
| 29> *
| 30>
| 31>                          ****END OF INPUT****
 Total Charge           Charge          ....    0
 Multiplicity           Mult            ....    1
 Number of Electrons    NEL             ....   54
 Basis Dimension        Dim             ....  148

MULLIKEN ATOMIC CHARGES
-----------------------
   0 C :    0.004189
   1 C :   -0.034860
   2 C :   -0.070643
   3 O :   -0.162454
   4 C :    0.125034
   5 C :   -0.092837
   6 C :   -0.031524
   7 H :    0.013952
   8 H :    0.033359
   9 H :    0.033903
  10 H :    0.041823
  11 H :    0.031211
  12 H :    0.034275
  13 H :    0.002053
  14 H :    0.022374
  15 H :    0.018928
  16 H :    0.031219
Sum of atomic charges:   -0.0000000

LOEWDIN ATOMIC CHARGES
----------------------
   0 C :   -0.063153
   1 C :   -0.079105
   2 C :    0.065977
   3 O :   -0.119877
   4 C :   -0.062785
   5 C :   -0.019619
   6 C :   -0.064623
   7 H :    0.027475
   8 H :    0.032603
   9 H :    0.032785
  10 H :    0.046178
  11 H :    0.043435
  12 H :    0.048434
  13 H :    0.030397
  14 H :    0.031782
  15 H :    0.022059
  16 H :    0.028037

  Mayer bond orders larger than 0.1
B(  0-C ,  1-C ) :   1.1224 B(  0-C ,  7-H ) :   0.9552 B(  0-C ,  8-H ) :   0.9623
B(  0-C ,  9-H ) :   0.9675 B(  1-C ,  2-C ) :   0.9778 B(  1-C , 10-H ) :   0.9047
B(  1-C , 11-H ) :   0.9077 B(  2-C ,  3-O ) :   2.1877 B(  2-C ,  4-C ) :   0.9626
B(  4-C ,  5-C ) :   1.0659 B(  4-C , 12-H ) :   0.8881 B(  4-C , 13-H ) :   0.9184
B(  5-C ,  6-C ) :   2.0003 B(  5-C , 14-H ) :   0.9529 B(  6-C , 15-H ) :   0.9470
B(  6-C , 16-H ) :   0.9444

FINAL SINGLE POINT ENERGY      -309.227798346307

DIPOLE MOMENT
-------------
                                X             Y             Z
Electronic contribution:      0.03570      -4.51963      -1.00759
Nuclear contribution   :      0.41614       5.13926       1.44461
                        -----------------------------------------
Total Dipole Moment    :      0.45183       0.61963       0.43702
                        -----------------------------------------
Magnitude (a.u.)       :      0.88266
Magnitude (Debye)      :      2.24354

                             ****ORCA TERMINATED NORMALLY****
TOTAL RUN TIME: 0 days 0 hours 0 minutes 7 seconds 330 msec
