                         Program Version 3.0.3 - RELEASE   -
|  1> ! RI PBE def2-SVP def2-SVP/J NBO PAL2
|  2> % maxcore 2000
|  3> % output
|  4>     # printlevel mini
|  5>     print[ P_Basis ] 0
|  6>     print[ P_SCFInfo ] 1
|  7>     print[ P_SCFIterInfo ] 1
|  8>     print[ P_OrbEn ] 0
|  9>     print[ P_Cartesian ] 0
| 10> end
| 11> *xyz 0 1
| 12>  C        1.2432580000     0.2944160000     0.4276790000
| 13>  C        2.6713300000     0.2461020000    -0.0704880000
| 14>  C        2.9137530000    -0.8161040000    -1.1045690000
| 15>  O        2.0409170000    -1.5155640000    -1.5481040000
| 16>  C        4.3540530000    -1.0406940000    -1.5775570000
| 17>  C        5.2677980000     0.0766250000    -1.4440190000
| 18>  C        6.0235710000     1.0036320000    -1.3436090000
| 19>  H        1.1208900000     1.0874560000     1.1674750000
| 20>  H        0.9549650000    -0.6525740000     0.8868880000
| 21>  H        0.5494040000     0.4788410000    -0.3935920000
| 22>  H        3.3871690000     0.0850860000     0.7453820000
| 23>  H        2.9816880000     1.2001700000    -0.5134870000
| 24>  H        4.3015310000    -1.3822790000    -2.6142410000
| 25>  H        4.7284590000    -1.8922840000    -0.9948730000
| 26>  H        6.6959140000     1.8241700000    -1.2561730000
| 27> *
| 28>
| 29>                          ****END OF INPUT****
 Total Charge           Charge          ....    0
 Multiplicity           Mult            ....    1
 Number of Electrons    NEL             ....   52
 Basis Dimension        Dim             ....  138

MULLIKEN ATOMIC CHARGES
-----------------------
   0 C :   -0.000981
   1 C :   -0.011489
   2 C :   -0.096698
   3 O :   -0.155404
   4 C :    0.151272
   5 C :    0.279538
   6 C :   -0.469133
   7 H :    0.020537
   8 H :    0.031106
   9 H :    0.034744
  10 H :    0.039761
  11 H :    0.051341
  12 H :    0.053848
  13 H :    0.069442
  14 H :    0.002114
Sum of atomic charges:   -0.0000000

LOEWDIN ATOMIC CHARGES
----------------------
   0 C :   -0.063028
   1 C :   -0.075902
   2 C :    0.069092
   3 O :   -0.112651
   4 C :   -0.072770
   5 C :   -0.030785
   6 C :   -0.081918
   7 H :    0.029381
   8 H :    0.031781
   9 H :    0.033607
  10 H :    0.047453
  11 H :    0.052961
  12 H :    0.063915
  13 H :    0.072873
  14 H :    0.035993

  Mayer bond orders larger than 0.1
B(  0-C ,  1-C ) :   1.1180 B(  0-C ,  7-H ) :   0.9564 B(  0-C ,  8-H ) :   0.9659
B(  0-C ,  9-H ) :   0.9625 B(  1-C ,  2-C ) :   1.0091 B(  1-C , 10-H ) :   0.9100
B(  1-C , 11-H ) :   0.8854 B(  2-C ,  3-O ) :   2.1842 B(  2-C ,  4-C ) :   0.9244
B(  4-C ,  5-C ) :   1.0353 B(  4-C , 12-H ) :   0.8828 B(  4-C , 13-H ) :   0.8753
B(  5-C ,  6-C ) :   2.3614 B(  5-C , 14-H ) :  -0.1096 B(  6-C , 14-H ) :   1.1008

FINAL SINGLE POINT ENERGY      -307.984172435639

DIPOLE MOMENT
-------------
                                X             Y             Z
Electronic contribution:      2.90104      -2.32417      -3.75907
Nuclear contribution   :     -2.39872       2.73952       4.16418
                        -----------------------------------------
Total Dipole Moment    :      0.50232       0.41536       0.40511
                        -----------------------------------------
Magnitude (a.u.)       :      0.76744
Magnitude (Debye)      :      1.95067

                             ****ORCA TERMINATED NORMALLY****
TOTAL RUN TIME: 0 days 0 hours 0 minutes 6 seconds 793 msec
