                         Program Version 3.0.3 - RELEASE   -
|  1> ! RI PBE def2-SVP def2-SVP/J NBO PAL2
|  2> % maxcore 2000
|  3> % output
|  4>     # printlevel mini
|  5>     print[ P_Basis ] 0
|  6>     print[ P_SCFInfo ] 1
|  7>     print[ P_SCFIterInfo ] 1
|  8>     print[ P_OrbEn ] 0
|  9>     print[ P_Cartesian ] 0
| 10> end
| 11> *xyz 0 1
| 12>  C        1.3994960000     0.6746610000     0.3216060000
| 13>  C        2.7175070000     0.2497380000    -0.3020280000
| 14>  C        3.2816840000    -1.0141670000     0.3279560000
| 15>  O        2.3653850000    -2.1019260000     0.2312520000
| 16>  C        4.6209310000    -1.4479960000    -0.1883980000
| 17>  C        5.3466200000    -0.8599190000    -1.1327480000
| 18>  C        6.6646600000    -1.3553350000    -1.6215340000
| 19>  H        0.9982740000     1.5630760000    -0.1708940000
| 20>  H        1.5251910000     0.9107480000     1.3820340000
| 21>  H        0.6589550000    -0.1231290000     0.2466290000
| 22>  H        3.4538710000     1.0535130000    -0.1995500000
| 23>  H        2.5866000000     0.0818330000    -1.3780360000
| 24>  H        3.3712480000    -0.8448790000     1.4090490000
| 25>  H        2.3753320000    -2.4022830000    -0.6828570000
| 26>  H        4.9918050000    -2.3653080000     0.2677890000
| 27>  H        4.9803920000     0.0547250000    -1.5940450000
| 28>  H        6.9585510000    -2.2774620000    -1.1167900000
| 29>  H        7.4499270000    -0.6103950000    -1.4572880000
| 30>  H        6.6382730000    -1.5467940000    -2.6990350000
| 31> *
| 32>
| 33>                          ****END OF INPUT****
 Total Charge           Charge          ....    0
 Multiplicity           Mult            ....    1
 Number of Electrons    NEL             ....   56
 Basis Dimension        Dim             ....  158

MULLIKEN ATOMIC CHARGES
-----------------------
   0 C :    0.014693
   1 C :   -0.044768
   2 C :    0.147963
   3 O :   -0.281172
   4 C :   -0.077790
   5 C :   -0.107849
   6 C :    0.045435
   7 H :    0.013245
   8 H :    0.013494
   9 H :    0.022765
  10 H :    0.019790
  11 H :    0.004171
  12 H :    0.003716
  13 H :    0.147678
  14 H :   -0.010548
  15 H :    0.001159
  16 H :    0.017023
  17 H :    0.037010
  18 H :    0.033984
Sum of atomic charges:   -0.0000000

LOEWDIN ATOMIC CHARGES
----------------------
   0 C :   -0.066698
   1 C :   -0.062406
   2 C :    0.043064
   3 O :   -0.109945
   4 C :   -0.065608
   5 C :   -0.042086
   6 C :   -0.065440
   7 H :    0.025076
   8 H :    0.025645
   9 H :    0.025054
  10 H :    0.027732
  11 H :    0.020162
  12 H :    0.028755
  13 H :    0.064807
  14 H :    0.022789
  15 H :    0.022546
  16 H :    0.030776
  17 H :    0.038360
  18 H :    0.037418

  Mayer bond orders larger than 0.1
B(  0-C ,  1-C ) :   1.1165 B(  0-C ,  7-H ) :   0.9578 B(  0-C ,  8-H ) :   0.9601
B(  0-C ,  9-H ) :   0.9571 B(  1-C ,  2-C ) :   1.0784 B(  1-C , 10-H ) :   0.9159
B(  1-C , 11-H ) :   0.9116 B(  2-C ,  3-O ) :   1.0021 B(  2-C ,  4-C ) :   1.0236
B(  2-C , 12-H ) :   0.8823 B(  3-O , 13-H ) :   0.9839 B(  4-C ,  5-C ) :   1.9097
B(  4-C , 14-H ) :   0.9553 B(  5-C ,  6-C ) :   1.0830 B(  5-C , 15-H ) :   0.9353
B(  6-C , 16-H ) :   0.9581 B(  6-C , 17-H ) :   0.9448 B(  6-C , 18-H ) :   0.9445

FINAL SINGLE POINT ENERGY      -310.421135069249

DIPOLE MOMENT
-------------
                                X             Y             Z
Electronic contribution:     -0.81534      -3.26801       1.32354
Nuclear contribution   :      1.21842       3.46116      -1.84743
                        -----------------------------------------
Total Dipole Moment    :      0.40309       0.19315      -0.52388
                        -----------------------------------------
Magnitude (a.u.)       :      0.68865
Magnitude (Debye)      :      1.75041

                             ****ORCA TERMINATED NORMALLY****
TOTAL RUN TIME: 0 days 0 hours 0 minutes 8 seconds 103 msec
