                         Program Version 3.0.3 - RELEASE   -
|  1> ! RI PBE def2-SVP def2-SVP/J NBO PAL2
|  2> % maxcore 2000
|  3> % output
|  4>     # printlevel mini
|  5>     print[ P_Basis ] 0
|  6>     print[ P_SCFInfo ] 1
|  7>     print[ P_SCFIterInfo ] 1
|  8>     print[ P_OrbEn ] 0
|  9>     print[ P_Cartesian ] 0
| 10> end
| 11> *xyz 0 1
| 12>  C        0.8432460000    -0.0140120000    -0.1451000000
| 13>  C        2.3296610000     0.0109640000     0.1677970000
| 14>  C        3.0721760000     1.1251900000    -0.5577760000
| 15>  O        2.5856520000     2.4024360000    -0.1738590000
| 16>  C        4.5995780000     1.0313980000    -0.4339350000
| 17>  C        5.2741900000     2.0270110000    -1.3669340000
| 18>  C        5.0929560000     1.2157090000     0.9959850000
| 19>  H        0.3301950000    -0.7937470000     0.4222030000
| 20>  H        0.6701430000    -0.2066180000    -1.2075430000
| 21>  H        0.3785950000     0.9439420000     0.0954310000
| 22>  H        2.7864330000    -0.9479860000    -0.1008400000
| 23>  H        2.4775650000     0.1260840000     1.2487000000
| 24>  H        2.8274860000     1.0571590000    -1.6247770000
| 25>  H        2.6962350000     2.4875250000     0.7776220000
| 26>  H        4.8703310000     0.0180920000    -0.7578290000
| 27>  H        4.9892450000     3.0493130000    -1.1074280000
| 28>  H        4.9842630000     1.8558470000    -2.4070150000
| 29>  H        6.3626050000     1.9501570000    -1.3041480000
| 30>  H        4.8622500000     2.2193920000     1.3678940000
| 31>  H        6.1789730000     1.1068070000     1.0416480000
| 32>  H        4.6620110000     0.4865150000     1.6856930000
| 33> *
| 34>
| 35>                          ****END OF INPUT****
 Total Charge           Charge          ....    0
 Multiplicity           Mult            ....    1
 Number of Electrons    NEL             ....   58
 Basis Dimension        Dim             ....  168

MULLIKEN ATOMIC CHARGES
-----------------------
   0 C :    0.015325
   1 C :   -0.033087
   2 C :    0.085113
   3 O :   -0.275397
   4 C :   -0.088659
   5 C :    0.027641
   6 C :   -0.024053
   7 H :    0.016430
   8 H :    0.015120
   9 H :    0.016718
  10 H :    0.002809
  11 H :    0.007320
  12 H :   -0.009337
  13 H :    0.151163
  14 H :   -0.006648
  15 H :    0.018224
  16 H :    0.011465
  17 H :    0.017449
  18 H :    0.006087
  19 H :    0.024975
  20 H :    0.021343
Sum of atomic charges:   -0.0000000

LOEWDIN ATOMIC CHARGES
----------------------
   0 C :   -0.065348
   1 C :   -0.062234
   2 C :    0.048808
   3 O :   -0.105392
   4 C :   -0.058850
   5 C :   -0.060730
   6 C :   -0.067293
   7 H :    0.025270
   8 H :    0.025392
   9 H :    0.023679
  10 H :    0.026117
  11 H :    0.019452
  12 H :    0.020016
  13 H :    0.061849
  14 H :    0.023867
  15 H :    0.024521
  16 H :    0.024721
  17 H :    0.023654
  18 H :    0.018849
  19 H :    0.030632
  20 H :    0.023021

  Mayer bond orders larger than 0.1
B(  0-C ,  1-C ) :   1.1188 B(  0-C ,  7-H ) :   0.9603 B(  0-C ,  8-H ) :   0.9642
B(  0-C ,  9-H ) :   0.9565 B(  1-C ,  2-C ) :   1.0552 B(  1-C , 10-H ) :   0.9228
B(  1-C , 11-H ) :   0.9191 B(  2-C ,  3-O ) :   1.0243 B(  2-C ,  4-C ) :   1.0096
B(  2-C , 12-H ) :   0.9081 B(  3-O , 13-H ) :   0.9813 B(  4-C ,  5-C ) :   1.0811
B(  4-C ,  6-C ) :   1.0639 B(  4-C , 14-H ) :   0.8987 B(  5-C , 15-H ) :   0.9557
B(  5-C , 16-H ) :   0.9570 B(  5-C , 17-H ) :   0.9616 B(  6-C , 18-H ) :   0.9564
B(  6-C , 19-H ) :   0.9576 B(  6-C , 20-H ) :   0.9597

FINAL SINGLE POINT ENERGY      -311.641114797543

DIPOLE MOMENT
-------------
                                X             Y             Z
Electronic contribution:     -1.39032       2.08181      -0.53570
Nuclear contribution   :      1.60337      -2.45706       0.91446
                        -----------------------------------------
Total Dipole Moment    :      0.21305      -0.37525       0.37875
                        -----------------------------------------
Magnitude (a.u.)       :      0.57416
Magnitude (Debye)      :      1.45939

                             ****ORCA TERMINATED NORMALLY****
TOTAL RUN TIME: 0 days 0 hours 0 minutes 9 seconds 269 msec
