                         Program Version 3.0.3 - RELEASE   -
|  1> ! RI PBE def2-SVP def2-SVP/J NBO PAL2
|  2> % maxcore 2000
|  3> % output
|  4>     # printlevel mini
|  5>     print[ P_Basis ] 0
|  6>     print[ P_SCFInfo ] 1
|  7>     print[ P_SCFIterInfo ] 1
|  8>     print[ P_OrbEn ] 0
|  9>     print[ P_Cartesian ] 0
| 10> end
| 11> *xyz 0 1
| 12>  C        1.0498450000     0.2356000000    -0.0097240000
| 13>  C        2.4920830000    -0.0969790000    -0.3525360000
| 14>  C        3.2815190000    -0.5699460000     0.8570660000
| 15>  O        2.6937840000    -1.7329230000     1.4361990000
| 16>  C        4.7572820000    -0.8120720000     0.6304890000
| 17>  C        5.5464310000    -1.0687660000     1.8762430000
| 18>  C        5.3162750000    -0.8229640000    -0.5757930000
| 19>  H        0.4922740000     0.5350450000    -0.8997380000
| 20>  H        0.9970240000     1.0590040000     0.7080420000
| 21>  H        0.5470510000    -0.6240290000     0.4361290000
| 22>  H        2.9884950000     0.7814900000    -0.7761920000
| 23>  H        2.5205970000    -0.8745020000    -1.1255180000
| 24>  H        3.1867050000     0.1899460000     1.6438830000
| 25>  H        2.8311910000    -2.4577060000     0.8178010000
| 26>  H        5.5500530000    -0.1800130000     2.5165140000
| 27>  H        6.5804180000    -1.3317340000     1.6500860000
| 28>  H        5.0947530000    -1.8734140000     2.4614640000
| 29>  H        4.7517560000    -0.6271360000    -1.4791130000
| 30>  H        6.3751560000    -1.0248110000    -0.6979030000
| 31> *
| 32>
| 33>                          ****END OF INPUT****
 Total Charge           Charge          ....    0
 Multiplicity           Mult            ....    1
 Number of Electrons    NEL             ....   56
 Basis Dimension        Dim             ....  158

MULLIKEN ATOMIC CHARGES
-----------------------
   0 C :    0.008442
   1 C :   -0.037692
   2 C :    0.140135
   3 O :   -0.277335
   4 C :   -0.187886
   5 C :    0.078947
   6 C :   -0.036805
   7 H :    0.016973
   8 H :    0.017279
   9 H :    0.019789
  10 H :    0.014958
  11 H :    0.008707
  12 H :   -0.001302
  13 H :    0.152237
  14 H :    0.028337
  15 H :    0.010103
  16 H :    0.028919
  17 H :    0.010101
  18 H :    0.006095
Sum of atomic charges:    0.0000000

LOEWDIN ATOMIC CHARGES
----------------------
   0 C :   -0.066736
   1 C :   -0.060580
   2 C :    0.050303
   3 O :   -0.105525
   4 C :   -0.046501
   5 C :   -0.057334
   6 C :   -0.075169
   7 H :    0.026193
   8 H :    0.025982
   9 H :    0.024567
  10 H :    0.028837
  11 H :    0.020893
  12 H :    0.026328
  13 H :    0.067404
  14 H :    0.037804
  15 H :    0.028721
  16 H :    0.034500
  17 H :    0.019042
  18 H :    0.021271

  Mayer bond orders larger than 0.1
B(  0-C ,  1-C ) :   1.1176 B(  0-C ,  7-H ) :   0.9584 B(  0-C ,  8-H ) :   0.9633
B(  0-C ,  9-H ) :   0.9554 B(  1-C ,  2-C ) :   1.0710 B(  1-C , 10-H ) :   0.9189
B(  1-C , 11-H ) :   0.9121 B(  2-C ,  3-O ) :   0.9981 B(  2-C ,  4-C ) :   0.9925
B(  2-C , 12-H ) :   0.8931 B(  3-O , 13-H ) :   0.9800 B(  4-C ,  5-C ) :   1.0869
B(  4-C ,  6-C ) :   1.9775 B(  5-C , 14-H ) :   0.9402 B(  5-C , 15-H ) :   0.9479
B(  5-C , 16-H ) :   0.9382 B(  6-C , 17-H ) :   0.9258 B(  6-C , 18-H ) :   0.9269

FINAL SINGLE POINT ENERGY      -310.420846031929

DIPOLE MOMENT
-------------
                                X             Y             Z
Electronic contribution:      0.77378      -2.06460       1.17794
Nuclear contribution   :     -0.58117       2.03163      -1.50969
                        -----------------------------------------
Total Dipole Moment    :      0.19260      -0.03297      -0.33174
                        -----------------------------------------
Magnitude (a.u.)       :      0.38501
Magnitude (Debye)      :      0.97863

                             ****ORCA TERMINATED NORMALLY****
TOTAL RUN TIME: 0 days 0 hours 0 minutes 8 seconds 25 msec
