                         Program Version 3.0.3 - RELEASE   -
|  1> ! RI PBE def2-SVP def2-SVP/J NBO PAL2
|  2> % maxcore 2000
|  3> % output
|  4>     # printlevel mini
|  5>     print[ P_Basis ] 0
|  6>     print[ P_SCFInfo ] 1
|  7>     print[ P_SCFIterInfo ] 1
|  8>     print[ P_OrbEn ] 0
|  9>     print[ P_Cartesian ] 0
| 10> end
| 11> *xyz 0 1
| 12>  C        2.8635950000     0.5612600000     1.3455190000
| 13>  C        2.5025240000     0.0990040000    -0.0542870000
| 14>  C        3.0574780000    -1.2816000000    -0.4037770000
| 15>  O        2.5400680000    -1.7497050000    -1.6386760000
| 16>  C        4.5201590000    -1.3026200000    -0.3925540000
| 17>  C        5.7232370000    -1.2975300000    -0.4149470000
| 18>  C        7.1736150000    -1.3107550000    -0.4357770000
| 19>  H        2.4321110000     1.5418270000     1.5562860000
| 20>  H        3.9461140000     0.6348680000     1.4702810000
| 21>  H        2.4873620000    -0.1349580000     2.1005550000
| 22>  H        2.8683030000     0.8160680000    -0.7974320000
| 23>  H        1.4168950000     0.0396240000    -0.1726920000
| 24>  H        2.6933840000    -1.9982850000     0.3417100000
| 25>  H        3.0114970000    -1.2960880000    -2.3434440000
| 26>  H        7.5448830000    -1.8580590000    -1.3058250000
| 27>  H        7.5713760000    -1.7968050000     0.4586080000
| 28>  H        7.5791400000    -0.2968950000    -0.4773380000
| 29> *
| 30>
| 31>                          ****END OF INPUT****
 Total Charge           Charge          ....    0
 Multiplicity           Mult            ....    1
 Number of Electrons    NEL             ....   54
 Basis Dimension        Dim             ....  148

MULLIKEN ATOMIC CHARGES
-----------------------
   0 C :   -0.022755
   1 C :   -0.015710
   2 C :    0.148859
   3 O :   -0.263724
   4 C :   -0.062883
   5 C :   -0.249134
   6 C :    0.056042
   7 H :    0.020781
   8 H :    0.031955
   9 H :    0.017954
  10 H :    0.002087
  11 H :    0.023465
  12 H :    0.014686
  13 H :    0.152705
  14 H :    0.049481
  15 H :    0.050287
  16 H :    0.045902
Sum of atomic charges:   -0.0000000

LOEWDIN ATOMIC CHARGES
----------------------
   0 C :   -0.066530
   1 C :   -0.052974
   2 C :    0.037199
   3 O :   -0.101804
   4 C :   -0.081741
   5 C :   -0.060618
   6 C :   -0.067434
   7 H :    0.028944
   8 H :    0.028492
   9 H :    0.026237
  10 H :    0.021824
  11 H :    0.028528
  12 H :    0.037607
  13 H :    0.067632
  14 H :    0.052488
  15 H :    0.052464
  16 H :    0.049687

  Mayer bond orders larger than 0.1
B(  0-C ,  1-C ) :   1.0973 B(  0-C ,  7-H ) :   0.9548 B(  0-C ,  8-H ) :   0.9643
B(  0-C ,  9-H ) :   0.9620 B(  1-C ,  2-C ) :   1.0582 B(  1-C , 10-H ) :   0.9228
B(  1-C , 11-H ) :   0.9292 B(  2-C ,  3-O ) :   1.0442 B(  2-C ,  4-C ) :   0.9677
B(  2-C , 12-H ) :   0.8712 B(  3-O , 13-H ) :   0.9829 B(  4-C ,  5-C ) :   2.6287
B(  5-C ,  6-C ) :   1.1357 B(  6-C , 14-H ) :   0.9298 B(  6-C , 15-H ) :   0.9328
B(  6-C , 16-H ) :   0.9326

FINAL SINGLE POINT ENERGY      -309.182386604695

DIPOLE MOMENT
-------------
                                X             Y             Z
Electronic contribution:     -0.75994      -3.78623      -3.56817
Nuclear contribution   :      1.40356       4.20596       3.59420
                        -----------------------------------------
Total Dipole Moment    :      0.64362       0.41973       0.02603
                        -----------------------------------------
Magnitude (a.u.)       :      0.76883
Magnitude (Debye)      :      1.95421

                             ****ORCA TERMINATED NORMALLY****
TOTAL RUN TIME: 0 days 0 hours 0 minutes 7 seconds 480 msec
