                         Program Version 3.0.3 - RELEASE   -
|  1> ! RI PBE def2-SVP def2-SVP/J NBO PAL2
|  2> % maxcore 2000
|  3> % output
|  4>     # printlevel mini
|  5>     print[ P_Basis ] 0
|  6>     print[ P_SCFInfo ] 1
|  7>     print[ P_SCFIterInfo ] 1
|  8>     print[ P_OrbEn ] 0
|  9>     print[ P_Cartesian ] 0
| 10> end
| 11> *xyz 0 1
| 12>  C        1.1474490000     0.1301900000     0.5674230000
| 13>  C        2.5678210000     0.5522900000     0.2357980000
| 14>  C        3.1060400000    -0.1327990000    -1.0146140000
| 15>  O        2.3244720000     0.1688740000    -2.1530370000
| 16>  C        4.5878620000     0.1669950000    -1.2851140000
| 17>  C        4.8392390000     1.6104500000    -1.5732700000
| 18>  C        5.0410230000     2.1101500000    -2.7873340000
| 19>  H        0.7681110000     0.6614330000     1.4431100000
| 20>  H        1.0961520000    -0.9415850000     0.7798730000
| 21>  H        0.4802700000     0.3331390000    -0.2720640000
| 22>  H        3.2344860000     0.3253270000     1.0759940000
| 23>  H        2.6068050000     1.6382500000     0.0917890000
| 24>  H        3.0071340000    -1.2163750000    -0.8828740000
| 25>  H        2.5776430000     1.0516450000    -2.4486760000
| 26>  H        4.9005680000    -0.4380410000    -2.1404220000
| 27>  H        5.1748910000    -0.1533240000    -0.4178900000
| 28>  H        4.8206300000     2.2930510000    -0.7261990000
| 29>  H        5.0808590000     1.4688060000    -3.6630110000
| 30>  H        5.1935560000     3.1715320000    -2.9473610000
| 31> *
| 32>
| 33>                          ****END OF INPUT****
 Total Charge           Charge          ....    0
 Multiplicity           Mult            ....    1
 Number of Electrons    NEL             ....   56
 Basis Dimension        Dim             ....  158

MULLIKEN ATOMIC CHARGES
-----------------------
   0 C :   -0.001907
   1 C :   -0.025345
   2 C :    0.055920
   3 O :   -0.273405
   4 C :    0.099998
   5 C :   -0.126089
   6 C :   -0.046326
   7 H :    0.016098
   8 H :    0.014492
   9 H :    0.025942
  10 H :    0.002428
  11 H :    0.005363
  12 H :    0.002180
  13 H :    0.147872
  14 H :    0.015611
  15 H :    0.011327
  16 H :    0.017510
  17 H :    0.027046
  18 H :    0.031286
Sum of atomic charges:   -0.0000000

LOEWDIN ATOMIC CHARGES
----------------------
   0 C :   -0.067741
   1 C :   -0.063569
   2 C :    0.048969
   3 O :   -0.109850
   4 C :   -0.052806
   5 C :   -0.034850
   6 C :   -0.065917
   7 H :    0.025277
   8 H :    0.024958
   9 H :    0.026625
  10 H :    0.023921
  11 H :    0.020813
  12 H :    0.020612
  13 H :    0.059644
  14 H :    0.032359
  15 H :    0.034740
  16 H :    0.026673
  17 H :    0.023948
  18 H :    0.026193

  Mayer bond orders larger than 0.1
B(  0-C ,  1-C ) :   1.1206 B(  0-C ,  7-H ) :   0.9601 B(  0-C ,  8-H ) :   0.9640
B(  0-C ,  9-H ) :   0.9576 B(  1-C ,  2-C ) :   1.0399 B(  1-C , 10-H ) :   0.9255
B(  1-C , 11-H ) :   0.9192 B(  2-C ,  3-O ) :   1.0463 B(  2-C ,  4-C ) :   1.0417
B(  2-C , 12-H ) :   0.9098 B(  3-O , 13-H ) :   0.9723 B(  4-C ,  5-C ) :   1.0561
B(  4-C , 14-H ) :   0.9227 B(  4-C , 15-H ) :   0.9018 B(  5-C ,  6-C ) :   1.9816
B(  5-C , 16-H ) :   0.9555 B(  6-C , 17-H ) :   0.9451 B(  6-C , 18-H ) :   0.9489

FINAL SINGLE POINT ENERGY      -310.418396685027

DIPOLE MOMENT
-------------
                                X             Y             Z
Electronic contribution:      1.23325      -0.13761      -3.17361
Nuclear contribution   :     -0.81468       0.45776       3.42662
                        -----------------------------------------
Total Dipole Moment    :      0.41857       0.32014       0.25300
                        -----------------------------------------
Magnitude (a.u.)       :      0.58455
Magnitude (Debye)      :      1.48581

                             ****ORCA TERMINATED NORMALLY****
TOTAL RUN TIME: 0 days 0 hours 0 minutes 8 seconds 298 msec
