                         Program Version 3.0.3 - RELEASE   -
|  1> ! RI PBE def2-SVP def2-SVP/J NBO PAL2
|  2> % maxcore 2000
|  3> % output
|  4>     # printlevel mini
|  5>     print[ P_Basis ] 0
|  6>     print[ P_SCFInfo ] 1
|  7>     print[ P_SCFIterInfo ] 1
|  8>     print[ P_OrbEn ] 0
|  9>     print[ P_Cartesian ] 0
| 10> end
| 11> *xyz 0 1
| 12>  C        1.0038140000     0.1364290000     0.2387120000
| 13>  C        2.5137210000     0.1102770000     0.0816350000
| 14>  C        2.9603120000    -0.5196750000    -1.2295850000
| 15>  O        2.4344620000     0.1531660000    -2.3521420000
| 16>  C        4.4891640000    -0.6328660000    -1.3366070000
| 17>  C        5.1300250000     0.6690340000    -1.4218660000
| 18>  C        5.6138230000     1.7647130000    -1.5166810000
| 19>  H        0.7124180000     0.6271890000     1.1697650000
| 20>  H        0.5912190000    -0.8764630000     0.2531780000
| 21>  H        0.5368090000     0.6710710000    -0.5900280000
| 22>  H        2.9689280000    -0.4466400000     0.9086240000
| 23>  H        2.9199900000     1.1270590000     0.1357100000
| 24>  H        2.5542580000    -1.5351630000    -1.2915950000
| 25>  H        2.8725750000     1.0106980000    -2.4064940000
| 26>  H        4.7352420000    -1.2089240000    -2.2337180000
| 27>  H        4.8816610000    -1.1845970000    -0.4763240000
| 28>  H        6.0646980000     2.7259810000    -1.5926720000
| 29> *
| 30>
| 31>                          ****END OF INPUT****
 Total Charge           Charge          ....    0
 Multiplicity           Mult            ....    1
 Number of Electrons    NEL             ....   54
 Basis Dimension        Dim             ....  148

MULLIKEN ATOMIC CHARGES
-----------------------
   0 C :    0.011228
   1 C :   -0.020864
   2 C :    0.057037
   3 O :   -0.272409
   4 C :    0.131056
   5 C :    0.277350
   6 C :   -0.477490
   7 H :    0.017430
   8 H :    0.011075
   9 H :    0.022236
  10 H :    0.001054
  11 H :    0.009033
  12 H :    0.002172
  13 H :    0.154630
  14 H :    0.043467
  15 H :    0.031757
  16 H :    0.001238
Sum of atomic charges:    0.0000000

LOEWDIN ATOMIC CHARGES
----------------------
   0 C :   -0.064922
   1 C :   -0.060902
   2 C :    0.052788
   3 O :   -0.105168
   4 C :   -0.057794
   5 C :   -0.026087
   6 C :   -0.091821
   7 H :    0.026229
   8 H :    0.024064
   9 H :    0.025600
  10 H :    0.025534
  11 H :    0.024930
  12 H :    0.022546
  13 H :    0.066657
  14 H :    0.052533
  15 H :    0.049762
  16 H :    0.036050

  Mayer bond orders larger than 0.1
B(  0-C ,  1-C ) :   1.1150 B(  0-C ,  7-H ) :   0.9622 B(  0-C ,  8-H ) :   0.9643
B(  0-C ,  9-H ) :   0.9588 B(  1-C ,  2-C ) :   1.0348 B(  1-C , 10-H ) :   0.9229
B(  1-C , 11-H ) :   0.9232 B(  2-C ,  3-O ) :   1.0439 B(  2-C ,  4-C ) :   1.0362
B(  2-C , 12-H ) :   0.9084 B(  3-O , 13-H ) :   0.9760 B(  4-C ,  5-C ) :   1.0554
B(  4-C , 14-H ) :   0.8893 B(  4-C , 15-H ) :   0.8891 B(  5-C ,  6-C ) :   2.3286
B(  5-C , 16-H ) :  -0.1119 B(  6-C , 16-H ) :   1.1030

FINAL SINGLE POINT ENERGY      -309.176524059563

DIPOLE MOMENT
-------------
                                X             Y             Z
Electronic contribution:      4.68095       1.27462      -4.03664
Nuclear contribution   :     -4.38759      -1.22328       4.37595
                        -----------------------------------------
Total Dipole Moment    :      0.29336       0.05134       0.33931
                        -----------------------------------------
Magnitude (a.u.)       :      0.45147
Magnitude (Debye)      :      1.14755

                             ****ORCA TERMINATED NORMALLY****
TOTAL RUN TIME: 0 days 0 hours 0 minutes 7 seconds 479 msec
