                         Program Version 3.0.3 - RELEASE   -
|  1> ! RI PBE def2-SVP def2-SVP/J NBO PAL2
|  2> % maxcore 2000
|  3> % output
|  4>     # printlevel mini
|  5>     print[ P_Basis ] 0
|  6>     print[ P_SCFInfo ] 1
|  7>     print[ P_SCFIterInfo ] 1
|  8>     print[ P_OrbEn ] 0
|  9>     print[ P_Cartesian ] 0
| 10> end
| 11> *xyz 0 1
| 12>  C        1.8114960000     0.8312340000    -1.1388940000
| 13>  C        2.5376920000    -0.0306080000    -0.1104950000
| 14>  C        3.1045500000     0.7652040000     1.0251450000
| 15>  O        2.2197750000     1.4796700000     1.7912110000
| 16>  C        1.0707900000     0.7990430000     2.2408600000
| 17>  C        4.4106990000     0.8888420000     1.2611420000
| 18>  C        5.0240930000     1.6935930000     2.3541180000
| 19>  H        1.3900290000     0.2150850000    -1.9364280000
| 20>  H        2.4972280000     1.5516670000    -1.5900850000
| 21>  H        0.9962170000     1.3971820000    -0.6834110000
| 22>  H        3.3604850000    -0.5683790000    -0.5860590000
| 23>  H        1.8549150000    -0.7992110000     0.2703850000
| 24>  H        0.5540350000     1.4802850000     2.9165780000
| 25>  H        1.3344620000    -0.1128420000     2.7889100000
| 26>  H        0.3914980000     0.5381760000     1.4220430000
| 27>  H        5.0792150000     0.3738100000     0.5784730000
| 28>  H        4.2618530000     2.1135300000     3.0097870000
| 29>  H        5.6171520000     2.5217930000     1.9516830000
| 30>  H        5.7051160000     1.0845250000     2.9570380000
| 31> *
| 32>
| 33>                          ****END OF INPUT****
 Total Charge           Charge          ....    0
 Multiplicity           Mult            ....    1
 Number of Electrons    NEL             ....   56
 Basis Dimension        Dim             ....  158

MULLIKEN ATOMIC CHARGES
-----------------------
   0 C :   -0.013176
   1 C :    0.017821
   2 C :    0.029703
   3 O :   -0.295589
   4 C :    0.136724
   5 C :   -0.152304
   6 C :    0.055185
   7 H :    0.020851
   8 H :    0.025931
   9 H :    0.022479
  10 H :    0.003958
  11 H :    0.016280
  12 H :    0.037717
  13 H :    0.022217
  14 H :    0.021465
  15 H :   -0.020301
  16 H :    0.020827
  17 H :    0.027601
  18 H :    0.022609
Sum of atomic charges:   -0.0000000

LOEWDIN ATOMIC CHARGES
----------------------
   0 C :   -0.061141
   1 C :   -0.053600
   2 C :    0.010204
   3 O :   -0.097325
   4 C :    0.057351
   5 C :   -0.095380
   6 C :   -0.066996
   7 H :    0.026682
   8 H :    0.029334
   9 H :    0.024544
  10 H :    0.033763
  11 H :    0.027818
  12 H :    0.026276
  13 H :    0.012315
  14 H :    0.007511
  15 H :    0.023095
  16 H :    0.029353
  17 H :    0.034056
  18 H :    0.032139

  Mayer bond orders larger than 0.1
B(  0-C ,  1-C ) :   1.0978 B(  0-C ,  7-H ) :   0.9611 B(  0-C ,  8-H ) :   0.9650
B(  0-C ,  9-H ) :   0.9636 B(  1-C ,  2-C ) :   1.0459 B(  1-C , 10-H ) :   0.9172
B(  1-C , 11-H ) :   0.9096 B(  2-C ,  3-O ) :   1.1049 B(  2-C ,  5-C ) :   1.8559
B(  3-O ,  4-C ) :   0.9898 B(  4-C , 12-H ) :   0.9756 B(  4-C , 13-H ) :   0.9584
B(  4-C , 14-H ) :   0.9509 B(  5-C ,  6-C ) :   1.0883 B(  5-C , 15-H ) :   0.9311
B(  6-C , 16-H ) :   0.9525 B(  6-C , 17-H ) :   0.9492 B(  6-C , 18-H ) :   0.9474

FINAL SINGLE POINT ENERGY      -310.414491366583

DIPOLE MOMENT
-------------
                                X             Y             Z
Electronic contribution:      0.63652       0.87839       1.60279
Nuclear contribution   :     -0.99101      -1.25160      -1.65851
                        -----------------------------------------
Total Dipole Moment    :     -0.35449      -0.37320      -0.05572
                        -----------------------------------------
Magnitude (a.u.)       :      0.51774
Magnitude (Debye)      :      1.31598

                             ****ORCA TERMINATED NORMALLY****
TOTAL RUN TIME: 0 days 0 hours 0 minutes 8 seconds 199 msec
