                         Program Version 3.0.3 - RELEASE   -
|  1> ! RI PBE def2-SVP def2-SVP/J NBO PAL2
|  2> % maxcore 2000
|  3> % output
|  4>     # printlevel mini
|  5>     print[ P_Basis ] 0
|  6>     print[ P_SCFInfo ] 1
|  7>     print[ P_SCFIterInfo ] 1
|  8>     print[ P_OrbEn ] 0
|  9>     print[ P_Cartesian ] 0
| 10> end
| 11> *xyz 0 1
| 12>  C        1.8664400000     0.0246620000     1.6066620000
| 13>  C        3.0226380000     0.9207740000     1.2007950000
| 14>  C        4.3097820000     0.1627610000     0.9105690000
| 15>  O        5.2223340000     1.1072500000     0.3818540000
| 16>  C        6.3651250000     0.5312020000    -0.1934330000
| 17>  C        4.8677070000    -0.4935400000     2.1372010000
| 18>  C        5.0262550000    -1.7992430000     2.2966220000
| 19>  H        0.9663860000     0.6139910000     1.7930310000
| 20>  H        2.0927980000    -0.5381860000     2.5149130000
| 21>  H        1.6310650000    -0.6985630000     0.8206360000
| 22>  H        3.2279400000     1.6603620000     1.9818670000
| 23>  H        2.7701360000     1.4842850000     0.2979400000
| 24>  H        4.1083990000    -0.6135060000     0.1529720000
| 25>  H        6.9731070000     1.3471040000    -0.5852200000
| 26>  H        6.0990640000    -0.1418550000    -1.0208670000
| 27>  H        6.9558750000    -0.0365600000     0.5353960000
| 28>  H        5.1498930000     0.1921880000     2.9350460000
| 29>  H        4.7577600000    -2.5002160000     1.5116170000
| 30>  H        5.4225880000    -2.2189090000     3.2143790000
| 31> *
| 32>
| 33>                          ****END OF INPUT****
 Total Charge           Charge          ....    0
 Multiplicity           Mult            ....    1
 Number of Electrons    NEL             ....   56
 Basis Dimension        Dim             ....  158

MULLIKEN ATOMIC CHARGES
-----------------------
   0 C :   -0.026747
   1 C :    0.000336
   2 C :    0.120449
   3 O :   -0.337057
   4 C :    0.152308
   5 C :   -0.058788
   6 C :   -0.017706
   7 H :    0.023247
   8 H :    0.025310
   9 H :    0.019128
  10 H :    0.015738
  11 H :    0.016124
  12 H :   -0.023571
  13 H :    0.030409
  14 H :    0.000858
  15 H :    0.010790
  16 H :    0.002341
  17 H :    0.021979
  18 H :    0.024852
Sum of atomic charges:   -0.0000000

LOEWDIN ATOMIC CHARGES
----------------------
   0 C :   -0.066853
   1 C :   -0.044447
   2 C :    0.046150
   3 O :   -0.140967
   4 C :    0.048359
   5 C :   -0.034652
   6 C :   -0.057108
   7 H :    0.029231
   8 H :    0.025779
   9 H :    0.024968
  10 H :    0.026511
  11 H :    0.028368
  12 H :    0.006137
  13 H :    0.022550
  14 H :    0.004462
  15 H :    0.005235
  16 H :    0.027858
  17 H :    0.022607
  18 H :    0.025810

  Mayer bond orders larger than 0.1
B(  0-C ,  1-C ) :   1.1029 B(  0-C ,  7-H ) :   0.9591 B(  0-C ,  8-H ) :   0.9627
B(  0-C ,  9-H ) :   0.9646 B(  1-C ,  2-C ) :   1.0388 B(  1-C , 10-H ) :   0.9324
B(  1-C , 11-H ) :   0.9255 B(  2-C ,  3-O ) :   1.0155 B(  2-C ,  5-C ) :   1.0259
B(  2-C , 12-H ) :   0.9141 B(  3-O ,  4-C ) :   1.0146 B(  4-C , 13-H ) :   0.9764
B(  4-C , 14-H ) :   0.9532 B(  4-C , 15-H ) :   0.9541 B(  5-C ,  6-C ) :   1.9650
B(  5-C , 16-H ) :   0.9481 B(  6-C , 17-H ) :   0.9458 B(  6-C , 18-H ) :   0.9381

FINAL SINGLE POINT ENERGY      -310.403663529751

DIPOLE MOMENT
-------------
                                X             Y             Z
Electronic contribution:      2.42563       1.94337      -0.23144
Nuclear contribution   :     -2.37649      -2.28989       0.23109
                        -----------------------------------------
Total Dipole Moment    :      0.04914      -0.34652      -0.00035
                        -----------------------------------------
Magnitude (a.u.)       :      0.34999
Magnitude (Debye)      :      0.88960

                             ****ORCA TERMINATED NORMALLY****
TOTAL RUN TIME: 0 days 0 hours 0 minutes 8 seconds 218 msec
