                         Program Version 3.0.3 - RELEASE   -
|  1> ! RI PBE def2-SVP def2-SVP/J NBO PAL2
|  2> % maxcore 2000
|  3> % output
|  4>     # printlevel mini
|  5>     print[ P_Basis ] 0
|  6>     print[ P_SCFInfo ] 1
|  7>     print[ P_SCFIterInfo ] 1
|  8>     print[ P_OrbEn ] 0
|  9>     print[ P_Cartesian ] 0
| 10> end
| 11> *xyz 0 1
| 12>  C        2.8936120000    -1.9749460000     1.2495270000
| 13>  C        2.4563420000    -0.7976910000     0.3981220000
| 14>  C        2.9179810000    -0.8928740000    -1.0506830000
| 15>  O        2.3400040000     0.1852650000    -1.7491970000
| 16>  C        2.5249350000     0.1248720000    -3.1405780000
| 17>  C        4.3813080000    -0.8966320000    -1.1607710000
| 18>  C        5.5791320000    -0.8941920000    -1.2453240000
| 19>  H        2.5253020000    -1.8677600000     2.2715190000
| 20>  H        3.9820740000    -2.0529270000     1.2914260000
| 21>  H        2.5052680000    -2.9181860000     0.8551220000
| 22>  H        2.8337380000     0.1412970000     0.8116650000
| 23>  H        1.3658080000    -0.7228480000     0.3739030000
| 24>  H        2.5507800000    -1.8421440000    -1.4776600000
| 25>  H        2.0046680000     0.9816350000    -3.5683330000
| 26>  H        2.0990650000    -0.7973140000    -3.5598140000
| 27>  H        3.5858570000     0.1763430000    -3.4115780000
| 28>  H        6.6410450000    -0.8893270000    -1.3204350000
| 29> *
| 30>
| 31>                          ****END OF INPUT****
 Total Charge           Charge          ....    0
 Multiplicity           Mult            ....    1
 Number of Electrons    NEL             ....   54
 Basis Dimension        Dim             ....  148

MULLIKEN ATOMIC CHARGES
-----------------------
   0 C :   -0.029285
   1 C :   -0.002989
   2 C :    0.158959
   3 O :   -0.328581
   4 C :    0.153167
   5 C :    0.382436
   6 C :   -0.524185
   7 H :    0.025057
   8 H :    0.038500
   9 H :    0.015433
  10 H :    0.022142
  11 H :    0.025992
  12 H :    0.011640
  13 H :    0.033500
  14 H :   -0.000248
  15 H :    0.018618
  16 H :   -0.000157
Sum of atomic charges:   -0.0000000

LOEWDIN ATOMIC CHARGES
----------------------
   0 C :   -0.065236
   1 C :   -0.037007
   2 C :    0.039954
   3 O :   -0.132924
   4 C :    0.052431
   5 C :   -0.027679
   6 C :   -0.076946
   7 H :    0.031005
   8 H :    0.030506
   9 H :    0.025156
  10 H :    0.031046
  11 H :    0.030949
  12 H :    0.023347
  13 H :    0.024357
  14 H :    0.005374
  15 H :    0.010069
  16 H :    0.035598

  Mayer bond orders larger than 0.1
B(  0-C ,  1-C ) :   1.1012 B(  0-C ,  7-H ) :   0.9579 B(  0-C ,  8-H ) :   0.9650
B(  0-C ,  9-H ) :   0.9628 B(  1-C ,  2-C ) :   1.0422 B(  1-C , 10-H ) :   0.9299
B(  1-C , 11-H ) :   0.9295 B(  2-C ,  3-O ) :   1.0505 B(  2-C ,  5-C ) :   0.9456
B(  2-C , 12-H ) :   0.8999 B(  3-O ,  4-C ) :   1.0059 B(  4-C , 13-H ) :   0.9772
B(  4-C , 14-H ) :   0.9506 B(  4-C , 15-H ) :   0.9568 B(  5-C ,  6-C ) :   2.3219
B(  5-C , 16-H ) :  -0.1211 B(  6-C , 16-H ) :   1.1113

FINAL SINGLE POINT ENERGY      -309.157870625488

DIPOLE MOMENT
-------------
                                X             Y             Z
Electronic contribution:      2.15884       2.10001      -1.99622
Nuclear contribution   :     -2.08619      -2.39109       1.83580
                        -----------------------------------------
Total Dipole Moment    :      0.07265      -0.29109      -0.16043
                        -----------------------------------------
Magnitude (a.u.)       :      0.34021
Magnitude (Debye)      :      0.86475

                             ****ORCA TERMINATED NORMALLY****
TOTAL RUN TIME: 0 days 0 hours 0 minutes 7 seconds 341 msec
