                         Program Version 3.0.3 - RELEASE   -
|  1> ! RI PBE def2-SVP def2-SVP/J NBO PAL2
|  2> % maxcore 2000
|  3> % output
|  4>     # printlevel mini
|  5>     print[ P_Basis ] 0
|  6>     print[ P_SCFInfo ] 1
|  7>     print[ P_SCFIterInfo ] 1
|  8>     print[ P_OrbEn ] 0
|  9>     print[ P_Cartesian ] 0
| 10> end
| 11> *xyz 0 1
| 12>  C        0.8080830000    -0.3230950000     0.1318760000
| 13>  C        2.2794390000    -0.0271750000    -0.1023540000
| 14>  C        2.9153730000     0.6425480000     1.0920920000
| 15>  O        4.2750430000     0.8856550000     0.8029840000
| 16>  C        5.0102950000     1.4838060000     1.7625690000
| 17>  C        4.6243150000     1.8860610000     2.9715460000
| 18>  C        5.5589010000     2.5391120000     3.9347920000
| 19>  H        0.3612180000    -0.8067670000    -0.7386200000
| 20>  H        0.2428300000     0.5924880000     0.3270030000
| 21>  H        0.6660110000    -0.9883400000     0.9881130000
| 22>  H        2.4030970000     0.6204910000    -0.9754300000
| 23>  H        2.8238590000    -0.9513340000    -0.3181390000
| 24>  H        2.8354220000     0.0050160000     1.9839540000
| 25>  H        2.4105750000     1.5919330000     1.3203520000
| 26>  H        6.0338330000     1.6160230000     1.4234620000
| 27>  H        3.5978820000     1.7458860000     3.2935080000
| 28>  H        6.5626020000     2.6316760000     3.5133930000
| 29>  H        5.6407800000     1.9693200000     4.8661150000
| 30>  H        5.2192400000     3.5434980000     4.2078640000
| 31> *
| 32>
| 33>                          ****END OF INPUT****
 Total Charge           Charge          ....    0
 Multiplicity           Mult            ....    1
 Number of Electrons    NEL             ....   56
 Basis Dimension        Dim             ....  158

MULLIKEN ATOMIC CHARGES
-----------------------
   0 C :   -0.051138
   1 C :   -0.019579
   2 C :    0.121982
   3 O :   -0.260922
   4 C :    0.127612
   5 C :   -0.186314
   6 C :    0.045958
   7 H :    0.029177
   8 H :    0.024459
   9 H :    0.026153
  10 H :    0.024079
  11 H :    0.022120
  12 H :    0.012938
  13 H :    0.015155
  14 H :   -0.000953
  15 H :    0.002059
  16 H :    0.014205
  17 H :    0.027819
  18 H :    0.025190
Sum of atomic charges:   -0.0000000

LOEWDIN ATOMIC CHARGES
----------------------
   0 C :   -0.066109
   1 C :   -0.053410
   2 C :    0.065842
   3 O :   -0.069492
   4 C :    0.017888
   5 C :   -0.130711
   6 C :   -0.059191
   7 H :    0.031023
   8 H :    0.026174
   9 H :    0.026236
  10 H :    0.028869
  11 H :    0.028789
  12 H :    0.011277
  13 H :    0.012006
  14 H :    0.018651
  15 H :    0.020761
  16 H :    0.029353
  17 H :    0.031084
  18 H :    0.030960

  Mayer bond orders larger than 0.1
B(  0-C ,  1-C ) :   1.1018 B(  0-C ,  7-H ) :   0.9620 B(  0-C ,  8-H ) :   0.9666
B(  0-C ,  9-H ) :   0.9687 B(  1-C ,  2-C ) :   1.0785 B(  1-C , 10-H ) :   0.9358
B(  1-C , 11-H ) :   0.9328 B(  2-C ,  3-O ) :   0.9861 B(  2-C , 12-H ) :   0.9344
B(  2-C , 13-H ) :   0.9321 B(  3-O ,  4-C ) :   1.1475 B(  4-C ,  5-C ) :   1.7856
B(  4-C , 14-H ) :   0.9666 B(  5-C ,  6-C ) :   1.0883 B(  5-C , 15-H ) :   0.9538
B(  6-C , 16-H ) :   0.9594 B(  6-C , 17-H ) :   0.9497 B(  6-C , 18-H ) :   0.9481

FINAL SINGLE POINT ENERGY      -310.418781668325

DIPOLE MOMENT
-------------
                                X             Y             Z
Electronic contribution:      3.92928       0.37055      -1.63353
Nuclear contribution   :     -4.29094      -0.42258       1.73617
                        -----------------------------------------
Total Dipole Moment    :     -0.36166      -0.05203       0.10265
                        -----------------------------------------
Magnitude (a.u.)       :      0.37953
Magnitude (Debye)      :      0.96470

                             ****ORCA TERMINATED NORMALLY****
TOTAL RUN TIME: 0 days 0 hours 0 minutes 8 seconds 119 msec
