                         Program Version 3.0.3 - RELEASE   -
|  1> ! RI PBE def2-SVP def2-SVP/J NBO PAL2
|  2> % maxcore 2000
|  3> % output
|  4>     # printlevel mini
|  5>     print[ P_Basis ] 0
|  6>     print[ P_SCFInfo ] 1
|  7>     print[ P_SCFIterInfo ] 1
|  8>     print[ P_OrbEn ] 0
|  9>     print[ P_Cartesian ] 0
| 10> end
| 11> *xyz 0 1
| 12>  C        1.1374430000    -0.3288800000    -1.4608400000
| 13>  C        2.5666290000     0.1820410000    -1.5191070000
| 14>  C        2.6698920000     1.6381560000    -1.1252130000
| 15>  O        4.0142380000     2.0368460000    -1.1981980000
| 16>  C        4.2401510000     3.4219790000    -1.0159760000
| 17>  C        4.0664320000     3.8449690000     0.4337220000
| 18>  C        5.6392960000     3.7025820000    -1.5191940000
| 19>  H        1.0825110000    -1.3805600000    -1.7486230000
| 20>  H        0.4851220000     0.2322310000    -2.1359850000
| 21>  H        0.7228660000    -0.2409490000    -0.4526370000
| 22>  H        2.9736960000     0.0637290000    -2.5278190000
| 23>  H        3.2075170000    -0.4042520000    -0.8535710000
| 24>  H        2.2686620000     1.7747260000    -0.1096760000
| 25>  H        2.0561990000     2.2573480000    -1.8003670000
| 26>  H        3.5175410000     3.9770640000    -1.6369080000
| 27>  H        4.7642780000     3.2954590000     1.0708800000
| 28>  H        3.0526620000     3.6614130000     0.7945360000
| 29>  H        4.2672570000     4.9133020000     0.5439060000
| 30>  H        6.3699810000     3.1435590000    -0.9293730000
| 31>  H        5.8724730000     4.7664750000    -1.4391140000
| 32>  H        5.7389510000     3.4000310000    -2.5628420000
| 33> *
| 34>
| 35>                          ****END OF INPUT****
 Total Charge           Charge          ....    0
 Multiplicity           Mult            ....    1
 Number of Electrons    NEL             ....   58
 Basis Dimension        Dim             ....  168

MULLIKEN ATOMIC CHARGES
-----------------------
   0 C :   -0.045926
   1 C :   -0.034999
   2 C :    0.170850
   3 O :   -0.336728
   4 C :    0.041006
   5 C :   -0.000539
   6 C :    0.018494
   7 H :    0.025711
   8 H :    0.021783
   9 H :    0.021205
  10 H :    0.017534
  11 H :    0.022360
  12 H :   -0.011519
  13 H :   -0.014766
  14 H :   -0.008723
  15 H :    0.019502
  16 H :    0.018190
  17 H :    0.016976
  18 H :    0.019979
  19 H :    0.015450
  20 H :    0.024157
Sum of atomic charges:    0.0000000

LOEWDIN ATOMIC CHARGES
----------------------
   0 C :   -0.066655
   1 C :   -0.054781
   2 C :    0.059220
   3 O :   -0.144013
   4 C :    0.044510
   5 C :   -0.076187
   6 C :   -0.067153
   7 H :    0.029581
   8 H :    0.024942
   9 H :    0.024089
  10 H :    0.025686
  11 H :    0.027873
  12 H :   -0.000652
  13 H :    0.001807
  14 H :    0.004881
  15 H :    0.027995
  16 H :    0.023571
  17 H :    0.029765
  18 H :    0.028423
  19 H :    0.028322
  20 H :    0.028775

  Mayer bond orders larger than 0.1
B(  0-C ,  1-C ) :   1.0987 B(  0-C ,  7-H ) :   0.9615 B(  0-C ,  8-H ) :   0.9669
B(  0-C ,  9-H ) :   0.9679 B(  1-C ,  2-C ) :   1.0867 B(  1-C , 10-H ) :   0.9376
B(  1-C , 11-H ) :   0.9351 B(  2-C ,  3-O ) :   1.0234 B(  2-C , 12-H ) :   0.9276
B(  2-C , 13-H ) :   0.9240 B(  3-O ,  4-C ) :   1.0070 B(  4-C ,  5-C ) :   1.0844
B(  4-C ,  6-C ) :   1.0864 B(  4-C , 14-H ) :   0.9115 B(  5-C , 15-H ) :   0.9526
B(  5-C , 16-H ) :   0.9531 B(  5-C , 17-H ) :   0.9535 B(  6-C , 18-H ) :   0.9558
B(  6-C , 19-H ) :   0.9581 B(  6-C , 20-H ) :   0.9558

FINAL SINGLE POINT ENERGY      -311.633300611053

DIPOLE MOMENT
-------------
                                X             Y             Z
Electronic contribution:      1.84030      -0.15660      -0.82944
Nuclear contribution   :     -2.11823       0.39235       0.89622
                        -----------------------------------------
Total Dipole Moment    :     -0.27793       0.23575       0.06678
                        -----------------------------------------
Magnitude (a.u.)       :      0.37052
Magnitude (Debye)      :      0.94178

                             ****ORCA TERMINATED NORMALLY****
TOTAL RUN TIME: 0 days 0 hours 0 minutes 8 seconds 804 msec
