                         Program Version 3.0.3 - RELEASE   -
|  1> ! RI PBE def2-SVP def2-SVP/J NBO PAL2
|  2> % maxcore 2000
|  3> % output
|  4>     # printlevel mini
|  5>     print[ P_Basis ] 0
|  6>     print[ P_SCFInfo ] 1
|  7>     print[ P_SCFIterInfo ] 1
|  8>     print[ P_OrbEn ] 0
|  9>     print[ P_Cartesian ] 0
| 10> end
| 11> *xyz 0 1
| 12>  C        0.2193910000     0.2226780000    -0.6806290000
| 13>  C        1.3122980000     0.1659780000     0.3727970000
| 14>  C        2.6462880000    -0.2173900000    -0.2223950000
| 15>  O        3.6072000000    -0.2492720000     0.8112800000
| 16>  C        4.8782620000    -0.5745820000     0.4840720000
| 17>  C        5.7442610000    -0.5563680000     1.6969380000
| 18>  C        5.3101350000    -0.8715040000    -0.7429710000
| 19>  H       -0.7388150000     0.5005720000    -0.2378770000
| 20>  H        0.0878860000    -0.7455400000    -1.1716400000
| 21>  H        0.4505210000     0.9581780000    -1.4561630000
| 22>  H        1.0529550000    -0.5578410000     1.1512420000
| 23>  H        1.4135610000     1.1362210000     0.8683000000
| 24>  H        2.9521150000     0.5071250000    -0.9894870000
| 25>  H        2.5880760000    -1.2031500000    -0.7038180000
| 26>  H        5.7305810000     0.4353040000     2.1570160000
| 27>  H        6.7713210000    -0.8169460000     1.4464400000
| 28>  H        5.3686930000    -1.2639690000     2.4409260000
| 29>  H        4.6687400000    -0.8801400000    -1.6122980000
| 30>  H        6.3523330000    -1.1176540000    -0.8880410000
| 31> *
| 32>
| 33>                          ****END OF INPUT****
 Total Charge           Charge          ....    0
 Multiplicity           Mult            ....    1
 Number of Electrons    NEL             ....   56
 Basis Dimension        Dim             ....  158

MULLIKEN ATOMIC CHARGES
-----------------------
   0 C :   -0.039542
   1 C :   -0.031038
   2 C :    0.131135
   3 O :   -0.269475
   4 C :   -0.007506
   5 C :    0.068540
   6 C :   -0.112949
   7 H :    0.025863
   8 H :    0.022454
   9 H :    0.023819
  10 H :    0.024441
  11 H :    0.021712
  12 H :    0.019240
  13 H :    0.013210
  14 H :    0.035548
  15 H :    0.015540
  16 H :    0.037372
  17 H :    0.015036
  18 H :    0.006598
Sum of atomic charges:   -0.0000000

LOEWDIN ATOMIC CHARGES
----------------------
   0 C :   -0.063996
   1 C :   -0.053978
   2 C :    0.067249
   3 O :   -0.069892
   4 C :    0.025766
   5 C :   -0.062056
   6 C :   -0.166567
   7 H :    0.030390
   8 H :    0.025756
   9 H :    0.025968
  10 H :    0.028496
  11 H :    0.028220
  12 H :    0.013368
  13 H :    0.012346
  14 H :    0.038867
  15 H :    0.035333
  16 H :    0.039412
  17 H :    0.019418
  18 H :    0.025900

  Mayer bond orders larger than 0.1
B(  0-C ,  1-C ) :   1.1007 B(  0-C ,  7-H ) :   0.9621 B(  0-C ,  8-H ) :   0.9673
B(  0-C ,  9-H ) :   0.9686 B(  1-C ,  2-C ) :   1.0778 B(  1-C , 10-H ) :   0.9367
B(  1-C , 11-H ) :   0.9347 B(  2-C ,  3-O ) :   0.9813 B(  2-C , 12-H ) :   0.9353
B(  2-C , 13-H ) :   0.9329 B(  3-O ,  4-C ) :   1.1341 B(  4-C ,  5-C ) :   1.0925
B(  4-C ,  6-C ) :   1.8407 B(  5-C , 14-H ) :   0.9422 B(  5-C , 15-H ) :   0.9505
B(  5-C , 16-H ) :   0.9412 B(  6-C , 17-H ) :   0.9428 B(  6-C , 18-H ) :   0.9204

FINAL SINGLE POINT ENERGY      -310.423233164689

DIPOLE MOMENT
-------------
                                X             Y             Z
Electronic contribution:      3.08782      -0.36357       1.78581
Nuclear contribution   :     -3.36193       0.40695      -1.84751
                        -----------------------------------------
Total Dipole Moment    :     -0.27410       0.04338      -0.06170
                        -----------------------------------------
Magnitude (a.u.)       :      0.28429
Magnitude (Debye)      :      0.72260

                             ****ORCA TERMINATED NORMALLY****
TOTAL RUN TIME: 0 days 0 hours 0 minutes 7 seconds 670 msec
