                         Program Version 3.0.3 - RELEASE   -
|  1> ! RI PBE def2-SVP def2-SVP/J NBO PAL2
|  2> % maxcore 2000
|  3> % output
|  4>     # printlevel mini
|  5>     print[ P_Basis ] 0
|  6>     print[ P_SCFInfo ] 1
|  7>     print[ P_SCFIterInfo ] 1
|  8>     print[ P_OrbEn ] 0
|  9>     print[ P_Cartesian ] 0
| 10> end
| 11> *xyz 0 1
| 12>  C        0.8164400000     0.0714070000     0.1762830000
| 13>  C        2.3213490000    -0.0215760000    -0.0079220000
| 14>  C        2.7117650000    -1.1306340000    -0.9567140000
| 15>  O        4.1105090000    -1.1638310000    -1.0822580000
| 16>  C        4.5551480000    -2.1860670000    -1.9385070000
| 17>  C        6.0440180000    -2.2112570000    -1.9434010000
| 18>  C        6.7861800000    -2.2307560000    -3.0398720000
| 19>  H        0.5527780000     0.8779240000     0.8630930000
| 20>  H        0.4062360000    -0.8567120000     0.5841590000
| 21>  H        0.3096420000     0.2674450000    -0.7728040000
| 22>  H        2.8128300000    -0.1969590000     0.9537900000
| 23>  H        2.7171850000     0.9226140000    -0.3937730000
| 24>  H        2.2457840000    -0.9688060000    -1.9426200000
| 25>  H        2.3427960000    -2.1000950000    -0.5825090000
| 26>  H        4.1712060000    -2.0380010000    -2.9593560000
| 27>  H        4.1694220000    -3.1575670000    -1.5837320000
| 28>  H        6.5131360000    -2.2316120000    -0.9627020000
| 29>  H        6.3373930000    -2.1989370000    -4.0280620000
| 30>  H        7.8675810000    -2.2836800000    -2.9929840000
| 31> *
| 32>
| 33>                          ****END OF INPUT****
 Total Charge           Charge          ....    0
 Multiplicity           Mult            ....    1
 Number of Electrons    NEL             ....   56
 Basis Dimension        Dim             ....  158

MULLIKEN ATOMIC CHARGES
-----------------------
   0 C :   -0.040633
   1 C :   -0.030029
   2 C :    0.163896
   3 O :   -0.348213
   4 C :    0.241469
   5 C :   -0.079709
   6 C :   -0.041974
   7 H :    0.026783
   8 H :    0.020704
   9 H :    0.020372
  10 H :    0.019002
  11 H :    0.019397
  12 H :   -0.011969
  13 H :   -0.014972
  14 H :   -0.009285
  15 H :    0.000498
  16 H :    0.012230
  17 H :    0.019884
  18 H :    0.032549
Sum of atomic charges:   -0.0000000

LOEWDIN ATOMIC CHARGES
----------------------
   0 C :   -0.064990
   1 C :   -0.053808
   2 C :    0.059055
   3 O :   -0.147085
   4 C :    0.061208
   5 C :   -0.034309
   6 C :   -0.054670
   7 H :    0.029599
   8 H :    0.024585
   9 H :    0.024719
  10 H :    0.027202
  11 H :    0.027485
  12 H :    0.001894
  13 H :    0.000844
  14 H :    0.007745
  15 H :    0.012196
  16 H :    0.029356
  17 H :    0.022152
  18 H :    0.026823

  Mayer bond orders larger than 0.1
B(  0-C ,  1-C ) :   1.1007 B(  0-C ,  7-H ) :   0.9634 B(  0-C ,  8-H ) :   0.9680
B(  0-C ,  9-H ) :   0.9666 B(  1-C ,  2-C ) :   1.0818 B(  1-C , 10-H ) :   0.9357
B(  1-C , 11-H ) :   0.9373 B(  2-C ,  3-O ) :   1.0258 B(  2-C , 12-H ) :   0.9275
B(  2-C , 13-H ) :   0.9276 B(  3-O ,  4-C ) :   0.9865 B(  4-C ,  5-C ) :   1.0474
B(  4-C , 14-H ) :   0.9266 B(  4-C , 15-H ) :   0.9066 B(  5-C ,  6-C ) :   2.0109
B(  5-C , 16-H ) :   0.9578 B(  6-C , 17-H ) :   0.9478 B(  6-C , 18-H ) :   0.9488

FINAL SINGLE POINT ENERGY      -310.402830893884

DIPOLE MOMENT
-------------
                                X             Y             Z
Electronic contribution:      5.08577      -1.20190      -1.06478
Nuclear contribution   :     -5.39309       0.98258       0.95974
                        -----------------------------------------
Total Dipole Moment    :     -0.30731      -0.21932      -0.10504
                        -----------------------------------------
Magnitude (a.u.)       :      0.39189
Magnitude (Debye)      :      0.99610

                             ****ORCA TERMINATED NORMALLY****
TOTAL RUN TIME: 0 days 0 hours 0 minutes 7 seconds 822 msec
