                         Program Version 3.0.3 - RELEASE   -
|  1> ! RI PBE def2-SVP def2-SVP/J NBO PAL2
|  2> % maxcore 2000
|  3> % output
|  4>     # printlevel mini
|  5>     print[ P_Basis ] 0
|  6>     print[ P_SCFInfo ] 1
|  7>     print[ P_SCFIterInfo ] 1
|  8>     print[ P_OrbEn ] 0
|  9>     print[ P_Cartesian ] 0
| 10> end
| 11> *xyz 0 1
| 12>  C        0.8298760000     0.0021670000     0.0926290000
| 13>  C        2.3480760000     0.0350100000     0.0513170000
| 14>  C        2.8771760000     1.3970720000    -0.3292510000
| 15>  O        4.2840400000     1.3562290000    -0.3477900000
| 16>  C        4.8402980000     2.5967080000    -0.6955600000
| 17>  C        6.2913580000     2.5184480000    -0.7046070000
| 18>  C        7.4898280000     2.4830980000    -0.7201000000
| 19>  H        0.4663950000    -0.9893590000     0.3686020000
| 20>  H        0.3981770000     0.2526320000    -0.8803990000
| 21>  H        0.4345720000     0.7134750000     0.8231360000
| 22>  H        2.7258260000    -0.6985730000    -0.6669640000
| 23>  H        2.7619610000    -0.2394910000     1.0260560000
| 24>  H        2.5307750000     2.1569200000     0.3904540000
| 25>  H        2.4947690000     1.6930080000    -1.3199670000
| 26>  H        4.5248100000     3.3759350000     0.0164870000
| 27>  H        4.4891980000     2.9133060000    -1.6906670000
| 28>  H        8.5533520000     2.4440140000    -0.7316970000
| 29> *
| 30>
| 31>                          ****END OF INPUT****
 Total Charge           Charge          ....    0
 Multiplicity           Mult            ....    1
 Number of Electrons    NEL             ....   54
 Basis Dimension        Dim             ....  148

MULLIKEN ATOMIC CHARGES
-----------------------
   0 C :   -0.036104
   1 C :   -0.030415
   2 C :    0.156680
   3 O :   -0.334339
   4 C :    0.236767
   5 C :    0.311842
   6 C :   -0.444001
   7 H :    0.025344
   8 H :    0.020464
   9 H :    0.021771
  10 H :    0.026814
  11 H :    0.022218
  12 H :   -0.006941
  13 H :   -0.012480
  14 H :    0.022460
  15 H :    0.015852
  16 H :    0.004071
Sum of atomic charges:   -0.0000000

LOEWDIN ATOMIC CHARGES
----------------------
   0 C :   -0.063532
   1 C :   -0.053640
   2 C :    0.059586
   3 O :   -0.138809
   4 C :    0.054809
   5 C :   -0.027700
   6 C :   -0.063789
   7 H :    0.030144
   8 H :    0.024741
   9 H :    0.025055
  10 H :    0.029640
  11 H :    0.028841
  12 H :    0.003448
  13 H :    0.002357
  14 H :    0.027151
  15 H :    0.026023
  16 H :    0.035676

  Mayer bond orders larger than 0.1
B(  0-C ,  1-C ) :   1.0987 B(  0-C ,  7-H ) :   0.9627 B(  0-C ,  8-H ) :   0.9680
B(  0-C ,  9-H ) :   0.9684 B(  1-C ,  2-C ) :   1.0840 B(  1-C , 10-H ) :   0.9370
B(  1-C , 11-H ) :   0.9357 B(  2-C ,  3-O ) :   1.0118 B(  2-C , 12-H ) :   0.9287
B(  2-C , 13-H ) :   0.9270 B(  3-O ,  4-C ) :   1.0389 B(  4-C ,  5-C ) :   1.0135
B(  4-C , 14-H ) :   0.9042 B(  4-C , 15-H ) :   0.9007 B(  5-C ,  6-C ) :   2.4027
B(  5-C , 16-H ) :  -0.1013 B(  6-C , 16-H ) :   1.0924

FINAL SINGLE POINT ENERGY      -309.155861614320

DIPOLE MOMENT
-------------
                                X             Y             Z
Electronic contribution:      9.70802       2.93531      -0.99827
Nuclear contribution   :    -10.14762      -2.66255       0.93587
                        -----------------------------------------
Total Dipole Moment    :     -0.43960       0.27276      -0.06240
                        -----------------------------------------
Magnitude (a.u.)       :      0.52110
Magnitude (Debye)      :      1.32452

                             ****ORCA TERMINATED NORMALLY****
TOTAL RUN TIME: 0 days 0 hours 0 minutes 7 seconds 520 msec
