                         Program Version 3.0.3 - RELEASE   -
|  1> ! RI PBE def2-SVP def2-SVP/J NBO PAL2
|  2> % maxcore 2000
|  3> % output
|  4>     # printlevel mini
|  5>     print[ P_Basis ] 0
|  6>     print[ P_SCFInfo ] 1
|  7>     print[ P_SCFIterInfo ] 1
|  8>     print[ P_OrbEn ] 0
|  9>     print[ P_Cartesian ] 0
| 10> end
| 11> *xyz 0 1
| 12>  C       -0.3079270000     1.0363520000     1.1093600000
| 13>  C        0.8062620000     0.7641890000     0.1131400000
| 14>  C        1.9522680000     0.0028880000     0.7369420000
| 15>  O        2.9421500000    -0.2320220000    -0.2339900000
| 16>  C        4.0591560000    -0.9274300000     0.2635380000
| 17>  C        5.0772490000    -1.0019770000    -0.8464100000
| 18>  O        5.4922960000     0.2768870000    -1.2612050000
| 19>  H       -1.1269560000     1.5867170000     0.6427780000
| 20>  H        0.0493170000     1.6303460000     1.9551030000
| 21>  H       -0.7205460000     0.1060180000     1.5091160000
| 22>  H        1.1897240000     1.7052550000    -0.2930030000
| 23>  H        0.4252640000     0.1882550000    -0.7355910000
| 24>  H        1.5941920000    -0.9554320000     1.1458810000
| 25>  H        2.3783480000     0.5734770000     1.5775270000
| 26>  H        3.7751120000    -1.9396520000     0.5903530000
| 27>  H        4.4838640000    -0.3936380000     1.1268380000
| 28>  H        4.6533300000    -1.5719800000    -1.6852910000
| 29>  H        5.9653440000    -1.5317860000    -0.4936350000
| 30>  H        4.6899730000     0.7818510000    -1.4283630000
| 31> *
| 32>
| 33>                          ****END OF INPUT****
 Total Charge           Charge          ....    0
 Multiplicity           Mult            ....    1
 Number of Electrons    NEL             ....   58
 Basis Dimension        Dim             ....  158

MULLIKEN ATOMIC CHARGES
-----------------------
   0 C :   -0.049207
   1 C :   -0.032642
   2 C :    0.164595
   3 O :   -0.361423
   4 C :    0.127688
   5 C :    0.180206
   6 O :   -0.294172
   7 H :    0.029927
   8 H :    0.026264
   9 H :    0.021664
  10 H :    0.017128
  11 H :    0.023788
  12 H :   -0.009148
  13 H :   -0.004481
  14 H :   -0.006255
  15 H :   -0.001917
  16 H :    0.004818
  17 H :    0.011043
  18 H :    0.152125
Sum of atomic charges:   -0.0000000

LOEWDIN ATOMIC CHARGES
----------------------
   0 C :   -0.065765
   1 C :   -0.055145
   2 C :    0.060569
   3 O :   -0.151967
   4 C :    0.039260
   5 C :    0.044329
   6 O :   -0.123515
   7 H :    0.030885
   8 H :    0.026130
   9 H :    0.025710
  10 H :    0.026461
  11 H :    0.028064
  12 H :    0.004090
  13 H :    0.004587
  14 H :    0.007065
  15 H :    0.005805
  16 H :    0.007714
  17 H :    0.024511
  18 H :    0.061214

  Mayer bond orders larger than 0.1
B(  0-C ,  1-C ) :   1.1038 B(  0-C ,  7-H ) :   0.9624 B(  0-C ,  8-H ) :   0.9688
B(  0-C ,  9-H ) :   0.9660 B(  1-C ,  2-C ) :   1.0858 B(  1-C , 10-H ) :   0.9338
B(  1-C , 11-H ) :   0.9375 B(  2-C ,  3-O ) :   1.0110 B(  2-C , 12-H ) :   0.9285
B(  2-C , 13-H ) :   0.9313 B(  3-O ,  4-C ) :   0.9935 B(  4-C ,  5-C ) :   1.0816
B(  4-C , 14-H ) :   0.9177 B(  4-C , 15-H ) :   0.9193 B(  5-C ,  6-O ) :   1.0682
B(  5-C , 16-H ) :   0.9288 B(  5-C , 17-H ) :   0.9309 B(  6-O , 18-H ) :   0.9764

FINAL SINGLE POINT ENERGY      -347.486357624596

DIPOLE MOMENT
-------------
                                X             Y             Z
Electronic contribution:      6.23127      -0.43847      -3.55378
Nuclear contribution   :     -6.90685       0.23560       4.02109
                        -----------------------------------------
Total Dipole Moment    :     -0.67558      -0.20287       0.46731
                        -----------------------------------------
Magnitude (a.u.)       :      0.84614
Magnitude (Debye)      :      2.15070

                             ****ORCA TERMINATED NORMALLY****
TOTAL RUN TIME: 0 days 0 hours 0 minutes 7 seconds 905 msec
