                         Program Version 3.0.3 - RELEASE   -
|  1> ! RI PBE def2-SVP def2-SVP/J NBO PAL2
|  2> % maxcore 2000
|  3> % output
|  4>     # printlevel mini
|  5>     print[ P_Basis ] 0
|  6>     print[ P_SCFInfo ] 1
|  7>     print[ P_SCFIterInfo ] 1
|  8>     print[ P_OrbEn ] 0
|  9>     print[ P_Cartesian ] 0
| 10> end
| 11> *xyz 0 1
| 12>  C        1.2112490000    -0.5126510000    -0.4740650000
| 13>  C        2.4702270000    -0.0925540000    -0.4168930000
| 14>  C        2.9542500000     0.7108940000     0.7320040000
| 15>  O        2.2303260000     1.0650030000     1.6343450000
| 16>  C        4.4155790000     1.1120490000     0.7337610000
| 17>  C        4.5515870000     2.6182900000     0.7532350000
| 18>  O        5.3268270000     3.2229410000     0.0699520000
| 19>  H        0.8437560000    -1.1025300000    -1.3050730000
| 20>  H        0.5211260000    -0.2658360000     0.3259190000
| 21>  H        3.1790980000    -0.3295710000    -1.2034110000
| 22>  H        4.9911250000     0.7029170000    -0.0957620000
| 23>  H        4.8376300000     0.7523950000     1.6799310000
| 24>  H        3.8694180000     3.1294630000     1.4609580000
| 25> *
| 26>
| 27>                          ****END OF INPUT****
 Total Charge           Charge          ....    0
 Multiplicity           Mult            ....    1
 Number of Electrons    NEL             ....   52
 Basis Dimension        Dim             ....  128

MULLIKEN ATOMIC CHARGES
-----------------------
   0 C :    0.030783
   1 C :   -0.055616
   2 C :   -0.017884
   3 O :   -0.164899
   4 C :    0.061198
   5 C :    0.075111
   6 O :   -0.146789
   7 H :    0.042028
   8 H :    0.052491
   9 H :    0.009617
  10 H :    0.022634
  11 H :    0.074160
  12 H :    0.017166
Sum of atomic charges:   -0.0000000

LOEWDIN ATOMIC CHARGES
----------------------
   0 C :    0.029893
   1 C :   -0.073638
   2 C :    0.047551
   3 O :   -0.123884
   4 C :   -0.098528
   5 C :    0.103083
   6 O :   -0.091478
   7 H :    0.034344
   8 H :    0.036148
   9 H :    0.030748
  10 H :    0.035643
  11 H :    0.071700
  12 H :   -0.001582

  Mayer bond orders larger than 0.1
B(  0-C ,  1-C ) :   1.9417 B(  0-C ,  7-H ) :   0.9408 B(  0-C ,  8-H ) :   0.9342
B(  1-C ,  2-C ) :   0.9977 B(  1-C ,  9-H ) :   0.9462 B(  2-C ,  3-O ) :   2.1079
B(  2-C ,  4-C ) :   0.9526 B(  4-C ,  5-C ) :   0.9535 B(  4-C , 10-H ) :   0.9186
B(  4-C , 11-H ) :   0.8897 B(  5-C ,  6-O ) :   2.1826 B(  5-C , 12-H ) :   0.9221

FINAL SINGLE POINT ENERGY      -343.885378224668

DIPOLE MOMENT
-------------
                                X             Y             Z
Electronic contribution:      1.46168       3.07813       1.39807
Nuclear contribution   :     -1.61858      -4.01086      -1.70861
                        -----------------------------------------
Total Dipole Moment    :     -0.15690      -0.93273      -0.31054
                        -----------------------------------------
Magnitude (a.u.)       :      0.99551
Magnitude (Debye)      :      2.53039

                             ****ORCA TERMINATED NORMALLY****
TOTAL RUN TIME: 0 days 0 hours 0 minutes 6 seconds 119 msec
