                         Program Version 3.0.3 - RELEASE   -
|  1> ! RI PBE def2-SVP def2-SVP/J NBO PAL2
|  2> % maxcore 2000
|  3> % output
|  4>     # printlevel mini
|  5>     print[ P_Basis ] 0
|  6>     print[ P_SCFInfo ] 1
|  7>     print[ P_SCFIterInfo ] 1
|  8>     print[ P_OrbEn ] 0
|  9>     print[ P_Cartesian ] 0
| 10> end
| 11> *xyz 0 1
| 12>  C       -0.2258960000     1.3415360000     0.4714450000
| 13>  C        0.6146160000     0.3186200000     0.4685450000
| 14>  C        2.0197040000     0.3956030000    -0.0145070000
| 15>  O        2.8758900000    -0.1540510000     0.9683240000
| 16>  C        4.2153120000    -0.1700250000     0.5717410000
| 17>  C        4.8790200000     1.1847130000     0.6870220000
| 18>  O        5.9232590000     1.4633800000     0.1695630000
| 19>  H       -1.2522210000     1.2312640000     0.8009400000
| 20>  H        0.0805820000     2.3284150000     0.1384860000
| 21>  H        0.2929010000    -0.6600550000     0.8156480000
| 22>  H        2.2891610000     1.4377560000    -0.2393720000
| 23>  H        2.1301980000    -0.1797020000    -0.9483770000
| 24>  H        4.3512440000    -0.5537820000    -0.4491390000
| 25>  H        4.7481590000    -0.8452620000     1.2511820000
| 26>  H        4.3298620000     1.9081010000     1.3305780000
| 27> *
| 28>
| 29>                          ****END OF INPUT****
 Total Charge           Charge          ....    0
 Multiplicity           Mult            ....    1
 Number of Electrons    NEL             ....   54
 Basis Dimension        Dim             ....  138

MULLIKEN ATOMIC CHARGES
-----------------------
   0 C :   -0.032987
   1 C :   -0.082556
   2 C :    0.226695
   3 O :   -0.341498
   4 C :    0.184579
   5 C :    0.035365
   6 O :   -0.158430
   7 H :    0.035288
   8 H :    0.025467
   9 H :    0.017013
  10 H :   -0.001531
  11 H :    0.011395
  12 H :    0.016333
  13 H :    0.057924
  14 H :    0.006942
Sum of atomic charges:   -0.0000000

LOEWDIN ATOMIC CHARGES
----------------------
   0 C :   -0.046551
   1 C :   -0.035868
   2 C :    0.062863
   3 O :   -0.139825
   4 C :    0.015213
   5 C :    0.070957
   6 O :   -0.100116
   7 H :    0.029119
   8 H :    0.024374
   9 H :    0.031558
  10 H :    0.009581
  11 H :    0.017472
  12 H :    0.021588
  13 H :    0.048942
  14 H :   -0.009308

  Mayer bond orders larger than 0.1
B(  0-C ,  1-C ) :   2.0173 B(  0-C ,  7-H ) :   0.9456 B(  0-C ,  8-H ) :   0.9465
B(  1-C ,  2-C ) :   1.0545 B(  1-C ,  9-H ) :   0.9568 B(  2-C ,  3-O ) :   0.9782
B(  2-C , 10-H ) :   0.9251 B(  2-C , 11-H ) :   0.9055 B(  3-O ,  4-C ) :   1.0296
B(  4-C ,  5-C ) :   0.9390 B(  4-C , 12-H ) :   0.9097 B(  4-C , 13-H ) :   0.9169
B(  5-C ,  6-O ) :   2.1696 B(  5-C , 14-H ) :   0.9153

FINAL SINGLE POINT ENERGY      -345.055372368475

DIPOLE MOMENT
-------------
                                X             Y             Z
Electronic contribution:      5.54339       0.05548       0.91122
Nuclear contribution   :     -6.22985      -0.30863      -0.99961
                        -----------------------------------------
Total Dipole Moment    :     -0.68646      -0.25315      -0.08839
                        -----------------------------------------
Magnitude (a.u.)       :      0.73697
Magnitude (Debye)      :      1.87322

                             ****ORCA TERMINATED NORMALLY****
TOTAL RUN TIME: 0 days 0 hours 0 minutes 6 seconds 703 msec
