                         Program Version 3.0.3 - RELEASE   -
|  1> ! RI PBE def2-SVP def2-SVP/J NBO PAL2
|  2> % maxcore 2000
|  3> % output
|  4>     # printlevel mini
|  5>     print[ P_Basis ] 0
|  6>     print[ P_SCFInfo ] 1
|  7>     print[ P_SCFIterInfo ] 1
|  8>     print[ P_OrbEn ] 0
|  9>     print[ P_Cartesian ] 0
| 10> end
| 11> *xyz 0 1
| 12>  C        0.6701250000    -1.5870250000     3.8218570000
| 13>  C        2.1048300000    -1.6150320000     3.4116130000
| 14>  C        2.6087080000    -0.7688100000     2.5175920000
| 15>  O        3.8791860000    -0.6922870000     2.0631040000
| 16>  C        4.8199510000    -1.5963400000     2.6067590000
| 17>  C        6.1549890000    -1.2695150000     1.9880610000
| 18>  O        6.5918700000     0.0259370000     2.3176900000
| 19>  H        0.1740840000    -2.5397030000     3.6109420000
| 20>  H        0.1215030000    -0.8025540000     3.2958280000
| 21>  H        0.5639720000    -1.4054370000     4.8960430000
| 22>  H        2.7392490000    -2.3630820000     3.8750680000
| 23>  H        1.9922280000    -0.0135190000     2.0395320000
| 24>  H        4.5289810000    -2.6300730000     2.3777110000
| 25>  H        4.8634490000    -1.4745910000     3.6962640000
| 26>  H        6.0908300000    -1.4034170000     0.8991850000
| 27>  H        6.9057890000    -1.9663240000     2.3680770000
| 28>  H        5.8879460000     0.6327720000     2.0690740000
| 29> *
| 30>
| 31>                          ****END OF INPUT****
 Total Charge           Charge          ....    0
 Multiplicity           Mult            ....    1
 Number of Electrons    NEL             ....   56
 Basis Dimension        Dim             ....  148

MULLIKEN ATOMIC CHARGES
-----------------------
   0 C :    0.037244
   1 C :   -0.177684
   2 C :    0.125365
   3 O :   -0.284484
   4 C :    0.086252
   5 C :    0.187233
   6 O :   -0.289620
   7 H :    0.029824
   8 H :    0.015717
   9 H :    0.033421
  10 H :    0.009696
  11 H :    0.003035
  12 H :    0.015525
  13 H :    0.029098
  14 H :    0.008093
  15 H :    0.015816
  16 H :    0.155468
Sum of atomic charges:   -0.0000000

LOEWDIN ATOMIC CHARGES
----------------------
   0 C :   -0.059393
   1 C :   -0.123529
   2 C :    0.017545
   3 O :   -0.079039
   4 C :    0.045024
   5 C :    0.044797
   6 O :   -0.119724
   7 H :    0.032595
   8 H :    0.030054
   9 H :    0.033488
  10 H :    0.023145
  11 H :    0.019808
  12 H :    0.016189
  13 H :    0.016534
  14 H :    0.009974
  15 H :    0.027447
  16 H :    0.065084

  Mayer bond orders larger than 0.1
B(  0-C ,  1-C ) :   1.0840 B(  0-C ,  7-H ) :   0.9499 B(  0-C ,  8-H ) :   0.9602
B(  0-C ,  9-H ) :   0.9494 B(  1-C ,  2-C ) :   1.7988 B(  1-C , 10-H ) :   0.9542
B(  2-C ,  3-O ) :   1.1312 B(  2-C , 11-H ) :   0.9649 B(  3-O ,  4-C ) :   0.9650
B(  4-C ,  5-C ) :   1.0704 B(  4-C , 12-H ) :   0.9217 B(  4-C , 13-H ) :   0.9259
B(  5-C ,  6-O ) :   1.0749 B(  5-C , 14-H ) :   0.9275 B(  5-C , 15-H ) :   0.9294
B(  6-O , 16-H ) :   0.9787

FINAL SINGLE POINT ENERGY      -346.273832121754

DIPOLE MOMENT
-------------
                                X             Y             Z
Electronic contribution:      4.30349       2.91642      -2.34998
Nuclear contribution   :     -4.75951      -3.26594       2.34985
                        -----------------------------------------
Total Dipole Moment    :     -0.45602      -0.34952      -0.00013
                        -----------------------------------------
Magnitude (a.u.)       :      0.57456
Magnitude (Debye)      :      1.46041

                             ****ORCA TERMINATED NORMALLY****
TOTAL RUN TIME: 0 days 0 hours 0 minutes 7 seconds 202 msec
