                         Program Version 3.0.3 - RELEASE   -
|  1> ! RI PBE def2-SVP def2-SVP/J NBO PAL2
|  2> % maxcore 2000
|  3> % output
|  4>     # printlevel mini
|  5>     print[ P_Basis ] 0
|  6>     print[ P_SCFInfo ] 1
|  7>     print[ P_SCFIterInfo ] 1
|  8>     print[ P_OrbEn ] 0
|  9>     print[ P_Cartesian ] 0
| 10> end
| 11> *xyz 0 1
| 12>  C       -0.0054860000     0.1818290000     0.0026810000
| 13>  C        1.4390250000    -0.1415610000     0.1626950000
| 14>  C        2.2745020000    -0.2602030000    -0.8562700000
| 15>  O        3.5983590000    -0.5613770000    -0.6311040000
| 16>  C        4.4159500000    -0.6729200000    -1.7061830000
| 17>  C        5.8071820000    -1.0019770000    -1.2671320000
| 18>  O        4.0527510000    -0.5247760000    -2.8382160000
| 19>  H       -0.6361290000    -0.6076580000     0.4231110000
| 20>  H       -0.2738750000     0.3047580000    -1.0482240000
| 21>  H       -0.2641440000     1.1061060000     0.5285780000
| 22>  H        1.8245890000    -0.2871220000     1.1681930000
| 23>  H        2.0073400000    -0.1380810000    -1.8986350000
| 24>  H        6.1798410000    -0.2222410000    -0.6000470000
| 25>  H        6.4514930000    -1.0886670000    -2.1381000000
| 26>  H        5.8072030000    -1.9378200000    -0.7049390000
| 27> *
| 28>
| 29>                          ****END OF INPUT****
 Total Charge           Charge          ....    0
 Multiplicity           Mult            ....    1
 Number of Electrons    NEL             ....   54
 Basis Dimension        Dim             ....  138

MULLIKEN ATOMIC CHARGES
-----------------------
   0 C :    0.025342
   1 C :   -0.110780
   2 C :    0.119481
   3 O :   -0.214423
   4 C :    0.061349
   5 C :    0.019570
   6 O :   -0.180838
   7 H :    0.039589
   8 H :    0.023985
   9 H :    0.035957
  10 H :    0.009055
  11 H :    0.015346
  12 H :    0.056399
  13 H :    0.046584
  14 H :    0.053385
Sum of atomic charges:   -0.0000000

LOEWDIN ATOMIC CHARGES
----------------------
   0 C :   -0.059371
   1 C :   -0.066390
   2 C :    0.029671
   3 O :   -0.032492
   4 C :    0.050322
   5 C :   -0.084188
   6 O :   -0.139123
   7 H :    0.037869
   8 H :    0.032861
   9 H :    0.037265
  10 H :    0.028956
  11 H :    0.017238
  12 H :    0.051629
  13 H :    0.044434
  14 H :    0.051318

  Mayer bond orders larger than 0.1
B(  0-C ,  1-C ) :   1.0920 B(  0-C ,  7-H ) :   0.9480 B(  0-C ,  8-H ) :   0.9637
B(  0-C ,  9-H ) :   0.9479 B(  1-C ,  2-C ) :   1.8450 B(  1-C , 10-H ) :   0.9547
B(  2-C ,  3-O ) :   1.0181 B(  2-C , 11-H ) :   0.9592 B(  3-O ,  4-C ) :   1.1052
B(  4-C ,  5-C ) :   1.0533 B(  4-C ,  6-O ) :   2.0929 B(  5-C , 12-H ) :   0.9408
B(  5-C , 13-H ) :   0.9519 B(  5-C , 14-H ) :   0.9393

FINAL SINGLE POINT ENERGY      -345.117310541736

DIPOLE MOMENT
-------------
                                X             Y             Z
Electronic contribution:      3.53936      -0.58043      -3.06956
Nuclear contribution   :     -3.50140       0.52920       3.75636
                        -----------------------------------------
Total Dipole Moment    :      0.03796      -0.05124       0.68679
                        -----------------------------------------
Magnitude (a.u.)       :      0.68975
Magnitude (Debye)      :      1.75320

                             ****ORCA TERMINATED NORMALLY****
TOTAL RUN TIME: 0 days 0 hours 0 minutes 6 seconds 443 msec
