                         Program Version 3.0.3 - RELEASE   -
|  1> ! RI PBE def2-SVP def2-SVP/J NBO PAL2
|  2> % maxcore 2000
|  3> % output
|  4>     # printlevel mini
|  5>     print[ P_Basis ] 0
|  6>     print[ P_SCFInfo ] 1
|  7>     print[ P_SCFIterInfo ] 1
|  8>     print[ P_OrbEn ] 0
|  9>     print[ P_Cartesian ] 0
| 10> end
| 11> *xyz 0 1
| 12>  C       -0.0707430000     0.3552220000     0.0997960000
| 13>  C        1.2826910000    -0.2719190000     0.1413020000
| 14>  C        2.3797510000     0.4151040000     0.4462900000
| 15>  O        3.6533260000    -0.0374170000     0.5166190000
| 16>  C        3.8612460000    -1.3939980000     0.2366310000
| 17>  C        5.3333270000    -1.6819740000     0.3711740000
| 18>  O        5.8041610000    -2.7677450000     0.1877400000
| 19>  H       -0.5238710000     0.2618790000    -0.8919900000
| 20>  H       -0.0250880000     1.4179440000     0.3471580000
| 21>  H       -0.7546550000    -0.1237370000     0.8072860000
| 22>  H        1.3450780000    -1.3300860000    -0.0904180000
| 23>  H        2.3463020000     1.4738230000     0.6820550000
| 24>  H        3.5390500000    -1.6503790000    -0.7822210000
| 25>  H        3.3064750000    -2.0396670000     0.9316100000
| 26>  H        5.9532510000    -0.8058580000     0.6552580000
| 27> *
| 28>
| 29>                          ****END OF INPUT****
 Total Charge           Charge          ....    0
 Multiplicity           Mult            ....    1
 Number of Electrons    NEL             ....   54
 Basis Dimension        Dim             ....  138

MULLIKEN ATOMIC CHARGES
-----------------------
   0 C :    0.033055
   1 C :   -0.177211
   2 C :    0.127759
   3 O :   -0.271148
   4 C :    0.153087
   5 C :    0.078975
   6 O :   -0.159705
   7 H :    0.033895
   8 H :    0.019347
   9 H :    0.035737
  10 H :    0.011381
  11 H :    0.005339
  12 H :    0.045831
  13 H :    0.053324
  14 H :    0.010333
Sum of atomic charges:   -0.0000000

LOEWDIN ATOMIC CHARGES
----------------------
   0 C :   -0.059377
   1 C :   -0.120672
   2 C :    0.020688
   3 O :   -0.069484
   4 C :    0.026019
   5 C :    0.088663
   6 O :   -0.097085
   7 H :    0.034170
   8 H :    0.031448
   9 H :    0.034943
  10 H :    0.023776
  11 H :    0.022062
  12 H :    0.034720
  13 H :    0.036087
  14 H :   -0.005958

  Mayer bond orders larger than 0.1
B(  0-C ,  1-C ) :   1.0867 B(  0-C ,  7-H ) :   0.9498 B(  0-C ,  8-H ) :   0.9590
B(  0-C ,  9-H ) :   0.9482 B(  1-C ,  2-C ) :   1.7969 B(  1-C , 10-H ) :   0.9530
B(  2-C ,  3-O ) :   1.1264 B(  2-C , 11-H ) :   0.9655 B(  3-O ,  4-C ) :   0.9722
B(  4-C ,  5-C ) :   0.9249 B(  4-C , 12-H ) :   0.9126 B(  4-C , 13-H ) :   0.9135
B(  5-C ,  6-O ) :   2.1815 B(  5-C , 14-H ) :   0.9296

FINAL SINGLE POINT ENERGY      -345.071027450491

DIPOLE MOMENT
-------------
                                X             Y             Z
Electronic contribution:      8.98479      -2.83000       0.57899
Nuclear contribution   :     -9.71089       3.25519      -0.57818
                        -----------------------------------------
Total Dipole Moment    :     -0.72609       0.42520       0.00081
                        -----------------------------------------
Magnitude (a.u.)       :      0.84143
Magnitude (Debye)      :      2.13875

                             ****ORCA TERMINATED NORMALLY****
TOTAL RUN TIME: 0 days 0 hours 0 minutes 7 seconds 86 msec
