                         Program Version 3.0.3 - RELEASE   -
|  1> ! RI PBE def2-SVP def2-SVP/J NBO PAL2
|  2> % maxcore 2000
|  3> % output
|  4>     # printlevel mini
|  5>     print[ P_Basis ] 0
|  6>     print[ P_SCFInfo ] 1
|  7>     print[ P_SCFIterInfo ] 1
|  8>     print[ P_OrbEn ] 0
|  9>     print[ P_Cartesian ] 0
| 10> end
| 11> *xyz 0 1
| 12>  C        2.9707770000    -0.3852220000     2.6909550000
| 13>  C        3.9282080000     0.3939050000     1.8571290000
| 14>  C        4.6945770000     1.3848130000     2.3130080000
| 15>  O        3.9088760000    -0.0515770000     0.5772790000
| 16>  C        4.7436700000     0.5928060000    -0.3649810000
| 17>  C        4.4926720000    -0.0632180000    -1.6986160000
| 18>  O        3.1684730000     0.1109250000    -2.1395640000
| 19>  H        2.9869130000    -0.0418850000     3.7239020000
| 20>  H        3.2235300000    -1.4485270000     2.6659930000
| 21>  H        1.9548190000    -0.2824600000     2.2999560000
| 22>  H        4.6334870000     1.6600480000     3.3561990000
| 23>  H        5.3834580000     1.9371340000     1.6902830000
| 24>  H        5.7964630000     0.4860110000    -0.0741230000
| 25>  H        4.4950260000     1.6597800000    -0.4110540000
| 26>  H        4.7536230000    -1.1286830000    -1.6327570000
| 27>  H        5.1413500000     0.3948470000    -2.4489690000
| 28>  H        2.5928670000    -0.2125890000    -1.4400600000
| 29> *
| 30>
| 31>                          ****END OF INPUT****
 Total Charge           Charge          ....    0
 Multiplicity           Mult            ....    1
 Number of Electrons    NEL             ....   56
 Basis Dimension        Dim             ....  148

MULLIKEN ATOMIC CHARGES
-----------------------
   0 C :    0.062998
   1 C :   -0.007118
   2 C :   -0.103841
   3 O :   -0.291943
   4 C :    0.090045
   5 C :    0.187524
   6 O :   -0.289839
   7 H :    0.019929
   8 H :    0.040340
   9 H :    0.035637
  10 H :    0.010133
  11 H :    0.019829
  12 H :    0.021640
  13 H :    0.029434
  14 H :    0.004394
  15 H :    0.016259
  16 H :    0.154579
Sum of atomic charges:   -0.0000000

LOEWDIN ATOMIC CHARGES
----------------------
   0 C :   -0.062203
   1 C :    0.026355
   2 C :   -0.158953
   3 O :   -0.079060
   4 C :    0.046177
   5 C :    0.045592
   6 O :   -0.119944
   7 H :    0.037456
   8 H :    0.040124
   9 H :    0.038551
  10 H :    0.027814
  11 H :    0.021401
  12 H :    0.017885
  13 H :    0.017664
  14 H :    0.009050
  15 H :    0.027777
  16 H :    0.064314

  Mayer bond orders larger than 0.1
B(  0-C ,  1-C ) :   1.0926 B(  0-C ,  7-H ) :   0.9500 B(  0-C ,  8-H ) :   0.9424
B(  0-C ,  9-H ) :   0.9423 B(  1-C ,  2-C ) :   1.8514 B(  1-C ,  3-O ) :   1.1182
B(  2-C , 10-H ) :   0.9205 B(  2-C , 11-H ) :   0.9417 B(  3-O ,  4-C ) :   0.9596
B(  4-C ,  5-C ) :   1.0727 B(  4-C , 12-H ) :   0.9244 B(  4-C , 13-H ) :   0.9258
B(  5-C ,  6-O ) :   1.0752 B(  5-C , 14-H ) :   0.9267 B(  5-C , 15-H ) :   0.9293
B(  6-O , 16-H ) :   0.9791

FINAL SINGLE POINT ENERGY      -346.278219474383

DIPOLE MOMENT
-------------
                                X             Y             Z
Electronic contribution:     -1.05278      -0.49711      -3.09394
Nuclear contribution   :      1.24085       0.34082       3.50389
                        -----------------------------------------
Total Dipole Moment    :      0.18807      -0.15629       0.40994
                        -----------------------------------------
Magnitude (a.u.)       :      0.47734
Magnitude (Debye)      :      1.21329

                             ****ORCA TERMINATED NORMALLY****
TOTAL RUN TIME: 0 days 0 hours 0 minutes 7 seconds 577 msec
