                         Program Version 3.0.3 - RELEASE   -
|  1> ! RI PBE def2-SVP def2-SVP/J NBO PAL2
|  2> % maxcore 2000
|  3> % output
|  4>     # printlevel mini
|  5>     print[ P_Basis ] 0
|  6>     print[ P_SCFInfo ] 1
|  7>     print[ P_SCFIterInfo ] 1
|  8>     print[ P_OrbEn ] 0
|  9>     print[ P_Cartesian ] 0
| 10> end
| 11> *xyz 0 1
| 12>  C        0.2047880000     0.2950550000    -0.5717070000
| 13>  C        1.6592120000     0.5971220000    -0.5969050000
| 14>  C        2.3185720000     1.2413180000    -1.5445170000
| 15>  O        2.3575940000     0.2380920000     0.5580280000
| 16>  C        2.5345300000    -1.0773010000     0.8210110000
| 17>  C        3.2443720000    -1.2566300000     2.1269230000
| 18>  O        2.1728380000    -1.9571160000     0.0936030000
| 19>  H       -0.2801100000     0.6958280000    -1.4611310000
| 20>  H       -0.2587390000     0.7425740000     0.3124670000
| 21>  H        0.0371500000    -0.7828470000    -0.5316920000
| 22>  H        1.7995600000     1.5974950000    -2.4239310000
| 23>  H        3.3813270000     1.4260440000    -1.4592190000
| 24>  H        2.6481520000    -0.8270610000     2.9343260000
| 25>  H        4.1974010000    -0.7250770000     2.1088540000
| 26>  H        3.4086530000    -2.3157850000     2.3074890000
| 27> *
| 28>
| 29>                          ****END OF INPUT****
 Total Charge           Charge          ....    0
 Multiplicity           Mult            ....    1
 Number of Electrons    NEL             ....   54
 Basis Dimension        Dim             ....  138

MULLIKEN ATOMIC CHARGES
-----------------------
   0 C :    0.067741
   1 C :   -0.035905
   2 C :   -0.012930
   3 O :   -0.233372
   4 C :    0.070535
   5 C :    0.027733
   6 O :   -0.180809
   7 H :    0.021571
   8 H :    0.037390
   9 H :    0.054779
  10 H :    0.015639
  11 H :    0.021333
  12 H :    0.050520
  13 H :    0.051307
  14 H :    0.044469
Sum of atomic charges:    0.0000000

LOEWDIN ATOMIC CHARGES
----------------------
   0 C :   -0.066740
   1 C :    0.039008
   2 C :   -0.085503
   3 O :   -0.045798
   4 C :    0.052334
   5 C :   -0.083424
   6 O :   -0.139815
   7 H :    0.039774
   8 H :    0.040234
   9 H :    0.043858
  10 H :    0.031500
  11 H :    0.030482
  12 H :    0.050269
  13 H :    0.050578
  14 H :    0.043242

  Mayer bond orders larger than 0.1
B(  0-C ,  1-C ) :   1.0853 B(  0-C ,  7-H ) :   0.9453 B(  0-C ,  8-H ) :   0.9376
B(  0-C ,  9-H ) :   0.9289 B(  1-C ,  2-C ) :   2.0026 B(  1-C ,  3-O ) :   0.9551
B(  2-C , 10-H ) :   0.9259 B(  2-C , 11-H ) :   0.9277 B(  3-O ,  4-C ) :   1.1230
B(  4-C ,  5-C ) :   1.0460 B(  4-C ,  6-O ) :   2.0893 B(  5-C , 12-H ) :   0.9423
B(  5-C , 13-H ) :   0.9398 B(  5-C , 14-H ) :   0.9547

FINAL SINGLE POINT ENERGY      -345.115050068385

DIPOLE MOMENT
-------------
                                X             Y             Z
Electronic contribution:      1.48965      -1.59035      -0.14969
Nuclear contribution   :     -1.51578       2.06284       0.55384
                        -----------------------------------------
Total Dipole Moment    :     -0.02612       0.47248       0.40414
                        -----------------------------------------
Magnitude (a.u.)       :      0.62230
Magnitude (Debye)      :      1.58176

                             ****ORCA TERMINATED NORMALLY****
TOTAL RUN TIME: 0 days 0 hours 0 minutes 6 seconds 871 msec
