                         Program Version 3.0.3 - RELEASE   -
|  1> ! RI PBE def2-SVP def2-SVP/J NBO PAL2
|  2> % maxcore 2000
|  3> % output
|  4>     # printlevel mini
|  5>     print[ P_Basis ] 0
|  6>     print[ P_SCFInfo ] 1
|  7>     print[ P_SCFIterInfo ] 1
|  8>     print[ P_OrbEn ] 0
|  9>     print[ P_Cartesian ] 0
| 10> end
| 11> *xyz 0 1
| 12>  C        0.4023460000     0.3168450000     0.2730240000
| 13>  C        1.7030300000     0.4922980000     0.9755670000
| 14>  C        1.8432130000     0.9834870000     2.2065320000
| 15>  O        2.7244570000     0.0801360000     0.1821270000
| 16>  C        4.0255580000     0.1772380000     0.6932190000
| 17>  C        4.9812710000    -0.3327590000    -0.3531180000
| 18>  O        6.1671290000    -0.3676860000    -0.1896700000
| 19>  H       -0.4243920000     0.6441790000     0.9009520000
| 20>  H        0.2533250000    -0.7330180000     0.0074390000
| 21>  H        0.3926450000     0.8922800000    -0.6563520000
| 22>  H        0.9625450000     1.2837100000     2.7559720000
| 23>  H        2.7993540000     1.1014520000     2.6959520000
| 24>  H        4.1461080000    -0.4199030000     1.6071730000
| 25>  H        4.2867970000     1.2155020000     0.9384930000
| 26>  H        4.5015160000    -0.6763510000    -1.2936000000
| 27> *
| 28>
| 29>                          ****END OF INPUT****
 Total Charge           Charge          ....    0
 Multiplicity           Mult            ....    1
 Number of Electrons    NEL             ....   54
 Basis Dimension        Dim             ....  138

MULLIKEN ATOMIC CHARGES
-----------------------
   0 C :    0.077518
   1 C :   -0.017997
   2 C :   -0.096426
   3 O :   -0.279700
   4 C :    0.165720
   5 C :    0.076007
   6 O :   -0.161618
   7 H :    0.018827
   8 H :    0.038073
   9 H :    0.038079
  10 H :    0.014131
  11 H :    0.017881
  12 H :    0.051337
  13 H :    0.050778
  14 H :    0.007392
Sum of atomic charges:   -0.0000000

LOEWDIN ATOMIC CHARGES
----------------------
   0 C :   -0.059118
   1 C :    0.027439
   2 C :   -0.154440
   3 O :   -0.070441
   4 C :    0.028352
   5 C :    0.088166
   6 O :   -0.097025
   7 H :    0.037732
   8 H :    0.040903
   9 H :    0.041157
  10 H :    0.029872
  11 H :    0.021206
  12 H :    0.036745
  13 H :    0.036587
  14 H :   -0.007134

  Mayer bond orders larger than 0.1
B(  0-C ,  1-C ) :   1.0931 B(  0-C ,  7-H ) :   0.9497 B(  0-C ,  8-H ) :   0.9415
B(  0-C ,  9-H ) :   0.9402 B(  1-C ,  2-C ) :   1.8544 B(  1-C ,  3-O ) :   1.1142
B(  2-C , 10-H ) :   0.9189 B(  2-C , 11-H ) :   0.9402 B(  3-O ,  4-C ) :   0.9672
B(  4-C ,  5-C ) :   0.9278 B(  4-C , 12-H ) :   0.9138 B(  4-C , 13-H ) :   0.9142
B(  5-C ,  6-O ) :   2.1757 B(  5-C , 14-H ) :   0.9279

FINAL SINGLE POINT ENERGY      -345.075537979809

DIPOLE MOMENT
-------------
                                X             Y             Z
Electronic contribution:      6.89507      -1.59404      -2.45591
Nuclear contribution   :     -7.69778       1.71449       2.57647
                        -----------------------------------------
Total Dipole Moment    :     -0.80271       0.12045       0.12056
                        -----------------------------------------
Magnitude (a.u.)       :      0.82060
Magnitude (Debye)      :      2.08579

                             ****ORCA TERMINATED NORMALLY****
TOTAL RUN TIME: 0 days 0 hours 0 minutes 6 seconds 836 msec
