                         Program Version 3.0.3 - RELEASE   -
|  1> ! RI PBE def2-SVP def2-SVP/J NBO PAL2
|  2> % maxcore 2000
|  3> % output
|  4>     # printlevel mini
|  5>     print[ P_Basis ] 0
|  6>     print[ P_SCFInfo ] 1
|  7>     print[ P_SCFIterInfo ] 1
|  8>     print[ P_OrbEn ] 0
|  9>     print[ P_Cartesian ] 0
| 10> end
| 11> *xyz 0 1
| 12>  C        0.8739220000    -0.0163690000    -0.1485850000
| 13>  C        2.3434870000    -0.1220560000     0.1135440000
| 14>  C        2.7411290000    -1.2050370000     1.0395040000
| 15>  O        1.9263740000    -1.9102230000     1.5880840000
| 16>  C        3.2257370000     0.6945630000    -0.4821400000
| 17>  C        4.7138900000     0.8151510000    -0.3688530000
| 18>  O        5.3327070000     0.2652610000     0.7669760000
| 19>  H        0.3318370000     0.1830970000     0.7790060000
| 20>  H        0.4823450000    -0.9622340000    -0.5302310000
| 21>  H        0.6546160000     0.7764580000    -0.8642540000
| 22>  H        3.8214140000    -1.3601720000     1.1880050000
| 23>  H        2.8150910000     1.4134770000    -1.1915510000
| 24>  H        4.9667080000     1.8806100000    -0.4714980000
| 25>  H        5.1729810000     0.3195550000    -1.2328230000
| 26>  H        5.0169530000     0.7379080000     1.5424130000
| 27> *
| 28>
| 29>                          ****END OF INPUT****
 Total Charge           Charge          ....    0
 Multiplicity           Mult            ....    1
 Number of Electrons    NEL             ....   54
 Basis Dimension        Dim             ....  138

MULLIKEN ATOMIC CHARGES
-----------------------
   0 C :    0.057901
   1 C :   -0.134792
   2 C :    0.098078
   3 O :   -0.173655
   4 C :   -0.138842
   5 C :    0.250194
   6 O :   -0.264880
   7 H :    0.043114
   8 H :    0.042637
   9 H :    0.015405
  10 H :   -0.008970
  11 H :    0.001900
  12 H :    0.011769
  13 H :    0.039149
  14 H :    0.160993
Sum of atomic charges:   -0.0000000

LOEWDIN ATOMIC CHARGES
----------------------
   0 C :   -0.052344
   1 C :   -0.083750
   2 C :    0.067986
   3 O :   -0.120034
   4 C :   -0.031271
   5 C :    0.050288
   6 O :   -0.102771
   7 H :    0.043210
   8 H :    0.042825
   9 H :    0.028229
  10 H :   -0.009773
  11 H :    0.031066
  12 H :    0.020139
  13 H :    0.043332
  14 H :    0.072866

  Mayer bond orders larger than 0.1
B(  0-C ,  1-C ) :   1.0846 B(  0-C ,  7-H ) :   0.9410 B(  0-C ,  8-H ) :   0.9408
B(  0-C ,  9-H ) :   0.9524 B(  1-C ,  2-C ) :   1.0052 B(  1-C ,  4-C ) :   1.7954
B(  2-C ,  3-O ) :   2.1173 B(  2-C , 10-H ) :   0.9338 B(  4-C ,  5-C ) :   1.0382
B(  4-C , 11-H ) :   0.9211 B(  5-C ,  6-O ) :   1.0690 B(  5-C , 12-H ) :   0.9227
B(  5-C , 13-H ) :   0.9099 B(  6-O , 14-H ) :   0.9767

FINAL SINGLE POINT ENERGY      -345.081748346774

DIPOLE MOMENT
-------------
                                X             Y             Z
Electronic contribution:      1.42049      -3.14716       3.05180
Nuclear contribution   :     -1.13786       4.38330      -3.61307
                        -----------------------------------------
Total Dipole Moment    :      0.28263       1.23614      -0.56127
                        -----------------------------------------
Magnitude (a.u.)       :      1.38671
Magnitude (Debye)      :      3.52473

                             ****ORCA TERMINATED NORMALLY****
TOTAL RUN TIME: 0 days 0 hours 0 minutes 6 seconds 893 msec
