                         Program Version 3.0.3 - RELEASE   -
|  1> ! RI PBE def2-SVP def2-SVP/J NBO PAL2
|  2> % maxcore 2000
|  3> % output
|  4>     # printlevel mini
|  5>     print[ P_Basis ] 0
|  6>     print[ P_SCFInfo ] 1
|  7>     print[ P_SCFIterInfo ] 1
|  8>     print[ P_OrbEn ] 0
|  9>     print[ P_Cartesian ] 0
| 10> end
| 11> *xyz 0 1
| 12>  C        1.0132010000     0.0844650000    -0.1114610000
| 13>  C        2.4882170000     0.1257050000     0.0839640000
| 14>  C        2.9613520000     0.9617280000     1.2254180000
| 15>  O        2.1786130000     1.5538670000     1.9267560000
| 16>  C        3.3338060000    -0.5478440000    -0.7180800000
| 17>  C        4.8072690000    -0.6152970000    -0.6652900000
| 18>  O        5.5370150000    -0.0673580000     0.1230320000
| 19>  H        0.6246880000     1.0948340000    -0.2632390000
| 20>  H        0.5235930000    -0.2886740000     0.7918010000
| 21>  H        0.7371500000    -0.5417400000    -0.9590630000
| 22>  H        4.0469100000     1.0074420000     1.3894150000
| 23>  H        2.9040030000    -1.1339210000    -1.5276780000
| 24>  H        5.2391820000    -1.2551170000    -1.4627740000
| 25> *
| 26>
| 27>                          ****END OF INPUT****
 Total Charge           Charge          ....    0
 Multiplicity           Mult            ....    1
 Number of Electrons    NEL             ....   52
 Basis Dimension        Dim             ....  128

MULLIKEN ATOMIC CHARGES
-----------------------
   0 C :    0.057945
   1 C :   -0.129898
   2 C :    0.135173
   3 O :   -0.152279
   4 C :   -0.040762
   5 C :    0.134949
   6 O :   -0.148933
   7 H :    0.055063
   8 H :    0.056818
   9 H :    0.026750
  10 H :    0.014349
  11 H :   -0.000242
  12 H :   -0.008933
Sum of atomic charges:   -0.0000000

LOEWDIN ATOMIC CHARGES
----------------------
   0 C :   -0.049547
   1 C :   -0.018934
   2 C :    0.086337
   3 O :   -0.094416
   4 C :   -0.065512
   5 C :    0.075696
   6 O :   -0.102149
   7 H :    0.052739
   8 H :    0.053254
   9 H :    0.033496
  10 H :    0.001095
  11 H :    0.032765
  12 H :   -0.004823

  Mayer bond orders larger than 0.1
B(  0-C ,  1-C ) :   1.0990 B(  0-C ,  7-H ) :   0.9313 B(  0-C ,  8-H ) :   0.9313
B(  0-C ,  9-H ) :   0.9533 B(  1-C ,  2-C ) :   0.9782 B(  1-C ,  4-C ) :   1.7070
B(  2-C ,  3-O ) :   2.1323 B(  2-C , 10-H ) :   0.9356 B(  4-C ,  5-C ) :   1.0343
B(  4-C , 11-H ) :   0.9283 B(  5-C ,  6-O ) :   2.1007 B(  5-C , 12-H ) :   0.9229

FINAL SINGLE POINT ENERGY      -343.888249939597

DIPOLE MOMENT
-------------
                                X             Y             Z
Electronic contribution:      4.18206       1.62880       2.53081
Nuclear contribution   :     -4.73710      -2.33906      -3.52067
                        -----------------------------------------
Total Dipole Moment    :     -0.55504      -0.71026      -0.98986
                        -----------------------------------------
Magnitude (a.u.)       :      1.33879
Magnitude (Debye)      :      3.40294

                             ****ORCA TERMINATED NORMALLY****
TOTAL RUN TIME: 0 days 0 hours 0 minutes 6 seconds 186 msec
