                         Program Version 3.0.3 - RELEASE   -
|  1> ! RI PBE def2-SVP def2-SVP/J NBO PAL2
|  2> % maxcore 2000
|  3> % output
|  4>     # printlevel mini
|  5>     print[ P_Basis ] 0
|  6>     print[ P_SCFInfo ] 1
|  7>     print[ P_SCFIterInfo ] 1
|  8>     print[ P_OrbEn ] 0
|  9>     print[ P_Cartesian ] 0
| 10> end
| 11> *xyz 0 1
| 12>  C        0.6880140000     0.4942660000    -0.0202720000
| 13>  C        2.1032470000    -0.0446050000     0.0585290000
| 14>  C        2.7874550000     0.3894810000     1.3405830000
| 15>  O        3.9706400000     0.5358270000     1.4659960000
| 16>  C        2.1382860000    -1.5794990000     0.0377300000
| 17>  C        3.4405120000    -2.1988490000    -0.3721810000
| 18>  O        1.1681550000    -2.2231580000     0.3417720000
| 19>  H        0.6821900000     1.5851380000     0.0315540000
| 20>  H        0.0823390000     0.0997830000     0.7967530000
| 21>  H        0.2113990000     0.1922550000    -0.9535830000
| 22>  H        2.7351200000     0.3123080000    -0.7603970000
| 23>  H        2.0956990000     0.5525710000     2.1949380000
| 24>  H        4.2792540000    -1.6898430000     0.1088270000
| 25>  H        3.5672960000    -2.0681610000    -1.4517490000
| 26>  H        3.4424950000    -3.2618030000    -0.1379000000
| 27> *
| 28>
| 29>                          ****END OF INPUT****
 Total Charge           Charge          ....    0
 Multiplicity           Mult            ....    1
 Number of Electrons    NEL             ....   54
 Basis Dimension        Dim             ....  138

MULLIKEN ATOMIC CHARGES
-----------------------
   0 C :    0.024722
   1 C :   -0.123061
   2 C :    0.116133
   3 O :   -0.150529
   4 C :   -0.054952
   5 C :    0.039976
   6 O :   -0.143820
   7 H :    0.031984
   8 H :    0.043265
   9 H :    0.031945
  10 H :    0.034121
  11 H :    0.007020
  12 H :    0.045569
  13 H :    0.053367
  14 H :    0.044260
Sum of atomic charges:    0.0000000

LOEWDIN ATOMIC CHARGES
----------------------
   0 C :   -0.053317
   1 C :   -0.110121
   2 C :    0.102233
   3 O :   -0.098204
   4 C :    0.064866
   5 C :   -0.085772
   6 O :   -0.106207
   7 H :    0.031675
   8 H :    0.034585
   9 H :    0.036650
  10 H :    0.044923
  11 H :   -0.003259
  12 H :    0.045849
  13 H :    0.054417
  14 H :    0.041682

  Mayer bond orders larger than 0.1
B(  0-C ,  1-C ) :   1.0584 B(  0-C ,  7-H ) :   0.9614 B(  0-C ,  8-H ) :   0.9502
B(  0-C ,  9-H ) :   0.9577 B(  1-C ,  2-C ) :   0.9084 B(  1-C ,  4-C ) :   0.8847
B(  1-C , 10-H ) :   0.9001 B(  2-C ,  3-O ) :   2.1575 B(  2-C , 11-H ) :   0.9292
B(  4-C ,  5-C ) :   1.0535 B(  4-C ,  6-O ) :   2.1895 B(  5-C , 12-H ) :   0.9274
B(  5-C , 13-H ) :   0.9311 B(  5-C , 14-H ) :   0.9448

FINAL SINGLE POINT ENERGY      -345.111170688570

DIPOLE MOMENT
-------------
                                X             Y             Z
Electronic contribution:      1.40093      -0.68619       2.72021
Nuclear contribution   :     -1.45584       0.97498      -3.24206
                        -----------------------------------------
Total Dipole Moment    :     -0.05491       0.28879      -0.52184
                        -----------------------------------------
Magnitude (a.u.)       :      0.59895
Magnitude (Debye)      :      1.52240

                             ****ORCA TERMINATED NORMALLY****
TOTAL RUN TIME: 0 days 0 hours 0 minutes 6 seconds 790 msec
