                         Program Version 3.0.3 - RELEASE   -
|  1> ! RI PBE def2-SVP def2-SVP/J NBO PAL2
|  2> % maxcore 2000
|  3> % output
|  4>     # printlevel mini
|  5>     print[ P_Basis ] 0
|  6>     print[ P_SCFInfo ] 1
|  7>     print[ P_SCFIterInfo ] 1
|  8>     print[ P_OrbEn ] 0
|  9>     print[ P_Cartesian ] 0
| 10> end
| 11> *xyz 0 1
| 12>  C        0.9013060000    -0.0586850000    -0.0804450000
| 13>  C        2.4106870000     0.0432160000     0.0567700000
| 14>  C        2.8259040000     1.2738180000     0.8322640000
| 15>  O        2.9579840000    -1.0728540000     0.7407880000
| 16>  C        3.0272140000    -2.2629960000    -0.0062140000
| 17>  C        3.6482430000    -3.3109560000     0.8838630000
| 18>  O        2.8684910000    -3.5517330000     2.0303890000
| 19>  H        0.5090530000     0.8178960000    -0.6013210000
| 20>  H        0.4362600000    -0.1085090000     0.9074120000
| 21>  H        0.5998310000    -0.9413810000    -0.6470510000
| 22>  H        2.8602450000     0.0837160000    -0.9481070000
| 23>  H        2.4099260000     1.2411270000     1.8424480000
| 24>  H        2.4627780000     2.1787280000     0.3408430000
| 25>  H        3.9127240000     1.3305210000     0.9105400000
| 26>  H        3.6416280000    -2.1185360000    -0.9082920000
| 27>  H        2.0281430000    -2.5953320000    -0.3181010000
| 28>  H        4.6649470000    -2.9944380000     1.1565010000
| 29>  H        3.7224010000    -4.2559220000     0.3401760000
| 30>  H        2.6907450000    -2.6911880000     2.4234370000
| 31> *
| 32>
| 33>                          ****END OF INPUT****
 Total Charge           Charge          ....    0
 Multiplicity           Mult            ....    1
 Number of Electrons    NEL             ....   58
 Basis Dimension        Dim             ....  158

MULLIKEN ATOMIC CHARGES
-----------------------
   0 C :    0.004170
   1 C :    0.044832
   2 C :    0.020028
   3 O :   -0.361864
   4 C :    0.137302
   5 C :    0.176955
   6 O :   -0.294381
   7 H :    0.019093
   8 H :    0.021068
   9 H :    0.024658
  10 H :   -0.009382
  11 H :    0.019296
  12 H :    0.015722
  13 H :    0.028470
  14 H :   -0.006822
  15 H :   -0.003665
  16 H :    0.001871
  17 H :    0.010401
  18 H :    0.152248
Sum of atomic charges:    0.0000000

LOEWDIN ATOMIC CHARGES
----------------------
   0 C :   -0.074186
   1 C :    0.046874
   2 C :   -0.065986
   3 O :   -0.150663
   4 C :    0.039544
   5 C :    0.045004
   6 O :   -0.123793
   7 H :    0.031309
   8 H :    0.028230
   9 H :    0.025916
  10 H :    0.007010
  11 H :    0.028211
  12 H :    0.029937
  13 H :    0.029716
  14 H :    0.007607
  15 H :    0.003749
  16 H :    0.006504
  17 H :    0.023684
  18 H :    0.061331

  Mayer bond orders larger than 0.1
B(  0-C ,  1-C ) :   1.0917 B(  0-C ,  7-H ) :   0.9533 B(  0-C ,  8-H ) :   0.9536
B(  0-C ,  9-H ) :   0.9515 B(  1-C ,  2-C ) :   1.0875 B(  1-C ,  3-O ) :   0.9859
B(  1-C , 10-H ) :   0.9105 B(  2-C , 11-H ) :   0.9565 B(  2-C , 12-H ) :   0.9558
B(  2-C , 13-H ) :   0.9580 B(  3-O ,  4-C ) :   0.9968 B(  4-C ,  5-C ) :   1.0864
B(  4-C , 14-H ) :   0.9166 B(  4-C , 15-H ) :   0.9148 B(  5-C ,  6-O ) :   1.0699
B(  5-C , 16-H ) :   0.9272 B(  5-C , 17-H ) :   0.9321 B(  6-O , 18-H ) :   0.9764

FINAL SINGLE POINT ENERGY      -347.489666618435

DIPOLE MOMENT
-------------
                                X             Y             Z
Electronic contribution:      1.82975      -4.58419       2.64154
Nuclear contribution   :     -1.87960       5.23490      -3.23031
                        -----------------------------------------
Total Dipole Moment    :     -0.04985       0.65070      -0.58877
                        -----------------------------------------
Magnitude (a.u.)       :      0.87895
Magnitude (Debye)      :      2.23412

                             ****ORCA TERMINATED NORMALLY****
TOTAL RUN TIME: 0 days 0 hours 0 minutes 8 seconds 161 msec
