                         Program Version 3.0.3 - RELEASE   -
|  1> ! RI PBE def2-SVP def2-SVP/J NBO PAL2
|  2> % maxcore 2000
|  3> % output
|  4>     # printlevel mini
|  5>     print[ P_Basis ] 0
|  6>     print[ P_SCFInfo ] 1
|  7>     print[ P_SCFIterInfo ] 1
|  8>     print[ P_OrbEn ] 0
|  9>     print[ P_Cartesian ] 0
| 10> end
| 11> *xyz 0 1
| 12>  C        1.0335580000    -0.4589590000     0.1881950000
| 13>  C        2.4948150000    -0.0938040000     0.4066420000
| 14>  C        2.7528230000     0.1978910000     1.8784180000
| 15>  O        3.3200920000    -1.1923900000    -0.0118440000
| 16>  C        2.8776940000     1.0831150000    -0.4924850000
| 17>  C        4.3501790000     1.4634680000    -0.5048080000
| 18>  O        5.1653130000     0.5199990000    -1.1559740000
| 19>  H        0.7527130000    -1.3163710000     0.8077430000
| 20>  H        0.8614520000    -0.7191990000    -0.8578050000
| 21>  H        0.3760780000     0.3725590000     0.4531160000
| 22>  H        2.4652080000    -0.6622450000     2.4912620000
| 23>  H        2.1661220000     1.0546850000     2.2177160000
| 24>  H        3.8077000000     0.4058570000     2.0618750000
| 25>  H        3.1560700000    -1.9382650000     0.5719590000
| 26>  H        2.2879190000     1.9501220000    -0.1767800000
| 27>  H        2.5779360000     0.8460660000    -1.5186880000
| 28>  H        4.7050440000     1.6502790000     0.5201420000
| 29>  H        4.4662730000     2.4042830000    -1.0502870000
| 30>  H        4.8826910000    -0.3473980000    -0.8403850000
| 31> *
| 32>
| 33>                          ****END OF INPUT****
 Total Charge           Charge          ....    0
 Multiplicity           Mult            ....    1
 Number of Electrons    NEL             ....   58
 Basis Dimension        Dim             ....  158

MULLIKEN ATOMIC CHARGES
-----------------------
   0 C :    0.068952
   1 C :   -0.142559
   2 C :    0.051827
   3 O :   -0.272122
   4 C :   -0.015301
   5 C :    0.217648
   6 O :   -0.297824
   7 H :    0.003255
   8 H :    0.024593
   9 H :    0.015420
  10 H :    0.005248
  11 H :    0.017407
  12 H :    0.028582
  13 H :    0.156936
  14 H :    0.003416
  15 H :    0.014783
  16 H :   -0.020542
  17 H :   -0.001881
  18 H :    0.142166
Sum of atomic charges:    0.0000000

LOEWDIN ATOMIC CHARGES
----------------------
   0 C :   -0.064534
   1 C :    0.017948
   2 C :   -0.067091
   3 O :   -0.096673
   4 C :   -0.059097
   5 C :    0.056214
   6 O :   -0.133084
   7 H :    0.021053
   8 H :    0.029637
   9 H :    0.030122
  10 H :    0.022188
  11 H :    0.031439
  12 H :    0.027477
  13 H :    0.068280
  14 H :    0.031111
  15 H :    0.028708
  16 H :   -0.002218
  17 H :    0.018558
  18 H :    0.039962

  Mayer bond orders larger than 0.1
B(  0-C ,  1-C ) :   1.0674 B(  0-C ,  7-H ) :   0.9476 B(  0-C ,  8-H ) :   0.9503
B(  0-C ,  9-H ) :   0.9485 B(  1-C ,  2-C ) :   1.0589 B(  1-C ,  3-O ) :   0.9680
B(  1-C ,  4-C ) :   1.0332 B(  2-C , 10-H ) :   0.9463 B(  2-C , 11-H ) :   0.9497
B(  2-C , 12-H ) :   0.9496 B(  3-O , 13-H ) :   0.9719 B(  3-O , 18-H ) :   0.1009
B(  4-C ,  5-C ) :   1.0806 B(  4-C , 14-H ) :   0.9125 B(  4-C , 15-H ) :   0.9179
B(  5-C ,  6-O ) :   1.0872 B(  5-C , 16-H ) :   0.9199 B(  5-C , 17-H ) :   0.9305
B(  6-O , 18-H ) :   0.9608

FINAL SINGLE POINT ENERGY      -347.503379950326

DIPOLE MOMENT
-------------
                                X             Y             Z
Electronic contribution:      4.28055      -1.68379      -3.07814
Nuclear contribution   :     -5.22898       1.37024       3.96563
                        -----------------------------------------
Total Dipole Moment    :     -0.94844      -0.31355       0.88749
                        -----------------------------------------
Magnitude (a.u.)       :      1.33622
Magnitude (Debye)      :      3.39641

                             ****ORCA TERMINATED NORMALLY****
TOTAL RUN TIME: 0 days 0 hours 0 minutes 7 seconds 876 msec
