                         Program Version 3.0.3 - RELEASE   -
|  1> ! RI PBE def2-SVP def2-SVP/J NBO PAL2
|  2> % maxcore 2000
|  3> % output
|  4>     # printlevel mini
|  5>     print[ P_Basis ] 0
|  6>     print[ P_SCFInfo ] 1
|  7>     print[ P_SCFIterInfo ] 1
|  8>     print[ P_OrbEn ] 0
|  9>     print[ P_Cartesian ] 0
| 10> end
| 11> *xyz 0 1
| 12>  C        0.9269790000     0.0721810000     0.1280420000
| 13>  C        2.4462450000     0.1575300000     0.1592330000
| 14>  C        2.8989960000     1.5815740000     0.4551970000
| 15>  O        2.9621180000    -0.7364450000     1.1425050000
| 16>  C        3.0217070000    -0.3372610000    -1.1705310000
| 17>  C        4.5215300000    -0.3028570000    -1.2284310000
| 18>  O        5.1482060000     0.2179480000    -2.1125760000
| 19>  H        0.5084400000     0.3973760000     1.0853820000
| 20>  H        0.6081480000    -0.9559680000    -0.0535430000
| 21>  H        0.5090600000     0.7119420000    -0.6526970000
| 22>  H        2.4793340000     1.9249100000     1.4056050000
| 23>  H        2.5670890000     2.2709710000    -0.3243710000
| 24>  H        3.9873970000     1.6397650000     0.5222150000
| 25>  H        2.6659700000    -0.4375740000     2.0068920000
| 26>  H        2.6250190000     0.2437010000    -2.0049380000
| 27>  H        2.7145070000    -1.3830990000    -1.2947160000
| 28>  H        5.0379550000    -0.8093020000    -0.3886570000
| 29> *
| 30>
| 31>                          ****END OF INPUT****
 Total Charge           Charge          ....    0
 Multiplicity           Mult            ....    1
 Number of Electrons    NEL             ....   56
 Basis Dimension        Dim             ....  148

MULLIKEN ATOMIC CHARGES
-----------------------
   0 C :    0.091068
   1 C :   -0.203601
   2 C :    0.056470
   3 O :   -0.257134
   4 C :    0.100119
   5 C :    0.072397
   6 O :   -0.164449
   7 H :    0.003901
   8 H :    0.019050
   9 H :    0.014686
  10 H :    0.007478
  11 H :    0.023813
  12 H :    0.037019
  13 H :    0.152804
  14 H :    0.013507
  15 H :    0.033276
  16 H :   -0.000405
Sum of atomic charges:   -0.0000000

LOEWDIN ATOMIC CHARGES
----------------------
   0 C :   -0.062209
   1 C :    0.017236
   2 C :   -0.066409
   3 O :   -0.107907
   4 C :   -0.071759
   5 C :    0.092031
   6 O :   -0.111191
   7 H :    0.022375
   8 H :    0.028124
   9 H :    0.030031
  10 H :    0.023779
  11 H :    0.033954
  12 H :    0.031186
  13 H :    0.067197
  14 H :    0.034549
  15 H :    0.047472
  16 H :   -0.008457

  Mayer bond orders larger than 0.1
B(  0-C ,  1-C ) :   1.0636 B(  0-C ,  7-H ) :   0.9478 B(  0-C ,  8-H ) :   0.9519
B(  0-C ,  9-H ) :   0.9472 B(  1-C ,  2-C ) :   1.0570 B(  1-C ,  3-O ) :   1.0221
B(  1-C ,  4-C ) :   1.0051 B(  2-C , 10-H ) :   0.9478 B(  2-C , 11-H ) :   0.9473
B(  2-C , 12-H ) :   0.9462 B(  3-O , 13-H ) :   0.9788 B(  4-C ,  5-C ) :   0.9761
B(  4-C , 14-H ) :   0.9159 B(  4-C , 15-H ) :   0.8960 B(  5-C ,  6-O ) :   2.1690
B(  5-C , 16-H ) :   0.9235

FINAL SINGLE POINT ENERGY      -346.301536873054

DIPOLE MOMENT
-------------
                                X             Y             Z
Electronic contribution:      6.05900      -2.37508      -2.65722
Nuclear contribution   :     -7.09182       2.50585       3.50377
                        -----------------------------------------
Total Dipole Moment    :     -1.03281       0.13077       0.84655
                        -----------------------------------------
Magnitude (a.u.)       :      1.34181
Magnitude (Debye)      :      3.41060

                             ****ORCA TERMINATED NORMALLY****
TOTAL RUN TIME: 0 days 0 hours 0 minutes 7 seconds 985 msec
