                         Program Version 3.0.3 - RELEASE   -
|  1> ! RI PBE def2-SVP def2-SVP/J NBO PAL2
|  2> % maxcore 2000
|  3> % output
|  4>     # printlevel mini
|  5>     print[ P_Basis ] 0
|  6>     print[ P_SCFInfo ] 1
|  7>     print[ P_SCFIterInfo ] 1
|  8>     print[ P_OrbEn ] 0
|  9>     print[ P_Cartesian ] 0
| 10> end
| 11> *xyz 0 1
| 12>  C        0.6958490000     0.5916910000    -0.1440670000
| 13>  C        2.1892610000     0.3509940000    -0.1854260000
| 14>  C        3.0002100000     1.6180750000    -0.0516470000
| 15>  O        2.5745830000    -0.4951790000     0.9189280000
| 16>  C        2.4482390000    -1.8181870000     0.7507710000
| 17>  C        2.8787320000    -2.5565720000     1.9828130000
| 18>  O        2.0450620000    -2.3346040000    -0.2574540000
| 19>  H        0.3992680000     1.2413580000    -0.9706580000
| 20>  H        0.4123800000     1.0777260000     0.7928940000
| 21>  H        0.1500640000    -0.3477200000    -0.2378760000
| 22>  H        2.4484010000    -0.1764190000    -1.1066360000
| 23>  H        2.7698020000     2.1279850000     0.8868250000
| 24>  H        2.7704180000     2.2964390000    -0.8758730000
| 25>  H        4.0694600000     1.4008800000    -0.0730960000
| 26>  H        3.9123660000    -2.3047280000     2.2268080000
| 27>  H        2.7831450000    -3.6267330000     1.8175590000
| 28>  H        2.2617810000    -2.2528950000     2.8307450000
| 29> *
| 30>
| 31>                          ****END OF INPUT****
 Total Charge           Charge          ....    0
 Multiplicity           Mult            ....    1
 Number of Electrons    NEL             ....   56
 Basis Dimension        Dim             ....  148

MULLIKEN ATOMIC CHARGES
-----------------------
   0 C :    0.013230
   1 C :    0.023827
   2 C :    0.015036
   3 O :   -0.261721
   4 C :    0.059083
   5 C :    0.023174
   6 O :   -0.199279
   7 H :    0.024739
   8 H :    0.020495
   9 H :    0.035895
  10 H :    0.021457
  11 H :    0.024873
  12 H :    0.025667
  13 H :    0.032193
  14 H :    0.046629
  15 H :    0.046069
  16 H :    0.048633
Sum of atomic charges:   -0.0000000

LOEWDIN ATOMIC CHARGES
----------------------
   0 C :   -0.067404
   1 C :    0.056489
   2 C :   -0.066988
   3 O :   -0.068299
   4 C :    0.041455
   5 C :   -0.085567
   6 O :   -0.156521
   7 H :    0.034089
   8 H :    0.027231
   9 H :    0.032911
  10 H :    0.018837
  11 H :    0.029310
  12 H :    0.034070
  13 H :    0.031343
  14 H :    0.048033
  15 H :    0.042311
  16 H :    0.048698

  Mayer bond orders larger than 0.1
B(  0-C ,  1-C ) :   1.1071 B(  0-C ,  7-H ) :   0.9572 B(  0-C ,  8-H ) :   0.9540
B(  0-C ,  9-H ) :   0.9526 B(  1-C ,  2-C ) :   1.0915 B(  1-C ,  3-O ) :   0.8912
B(  1-C , 10-H ) :   0.9147 B(  2-C , 11-H ) :   0.9533 B(  2-C , 12-H ) :   0.9561
B(  2-C , 13-H ) :   0.9585 B(  3-O ,  4-C ) :   1.1750 B(  4-C ,  5-C ) :   1.0430
B(  4-C ,  6-O ) :   2.0572 B(  5-C , 14-H ) :   0.9405 B(  5-C , 15-H ) :   0.9561
B(  5-C , 16-H ) :   0.9425

FINAL SINGLE POINT ENERGY      -346.339237802186

DIPOLE MOMENT
-------------
                                X             Y             Z
Electronic contribution:      0.72204      -5.09810      -0.49467
Nuclear contribution   :     -0.57490       5.66090       0.90311
                        -----------------------------------------
Total Dipole Moment    :      0.14714       0.56280       0.40843
                        -----------------------------------------
Magnitude (a.u.)       :      0.71079
Magnitude (Debye)      :      1.80668

                             ****ORCA TERMINATED NORMALLY****
TOTAL RUN TIME: 0 days 0 hours 0 minutes 7 seconds 835 msec
