                         Program Version 3.0.3 - RELEASE   -
|  1> ! RI PBE def2-SVP def2-SVP/J NBO PAL2
|  2> % maxcore 2000
|  3> % output
|  4>     # printlevel mini
|  5>     print[ P_Basis ] 0
|  6>     print[ P_SCFInfo ] 1
|  7>     print[ P_SCFIterInfo ] 1
|  8>     print[ P_OrbEn ] 0
|  9>     print[ P_Cartesian ] 0
| 10> end
| 11> *xyz 0 1
| 12>  C        0.6130860000     0.4750890000     0.5110070000
| 13>  C        1.9573740000    -0.2296520000     0.5545590000
| 14>  C        2.2483400000    -0.8166020000     1.9170820000
| 15>  O        2.0233460000    -1.3056550000    -0.3699310000
| 16>  C        2.0748520000    -0.9310650000    -1.7122340000
| 17>  C        2.4183330000    -2.1439840000    -2.5387510000
| 18>  O        2.4709840000    -2.1327320000    -3.7358350000
| 19>  H        0.5846160000     1.2763840000     1.2526190000
| 20>  H       -0.1900430000    -0.2312230000     0.7359910000
| 21>  H        0.4157800000     0.9243940000    -0.4644100000
| 22>  H        2.7486770000     0.4922710000     0.2949780000
| 23>  H        1.4818000000    -1.5479000000     2.1844050000
| 24>  H        2.2575810000    -0.0331190000     2.6772760000
| 25>  H        3.2174930000    -1.3177220000     1.9205590000
| 26>  H        2.8484730000    -0.1673250000    -1.8948440000
| 27>  H        1.1246700000    -0.5236370000    -2.0853720000
| 28>  H        2.6270390000    -3.0590130000    -1.9448890000
| 29> *
| 30>
| 31>                          ****END OF INPUT****
 Total Charge           Charge          ....    0
 Multiplicity           Mult            ....    1
 Number of Electrons    NEL             ....   56
 Basis Dimension        Dim             ....  148

MULLIKEN ATOMIC CHARGES
-----------------------
   0 C :   -0.010325
   1 C :    0.036720
   2 C :    0.015434
   3 O :   -0.345214
   4 C :    0.189400
   5 C :    0.066228
   6 O :   -0.166462
   7 H :    0.026478
   8 H :    0.025814
   9 H :    0.022884
  10 H :   -0.001289
  11 H :    0.027055
  12 H :    0.023094
  13 H :    0.025600
  14 H :    0.030421
  15 H :    0.029365
  16 H :    0.004795
Sum of atomic charges:   -0.0000000

LOEWDIN ATOMIC CHARGES
----------------------
   0 C :   -0.076151
   1 C :    0.047034
   2 C :   -0.066281
   3 O :   -0.141844
   4 C :    0.018050
   5 C :    0.087691
   6 O :   -0.102785
   7 H :    0.034026
   8 H :    0.030328
   9 H :    0.025551
  10 H :    0.007724
  11 H :    0.030303
  12 H :    0.032091
  13 H :    0.030358
  14 H :    0.028110
  15 H :    0.024253
  16 H :   -0.008460

  Mayer bond orders larger than 0.1
B(  0-C ,  1-C ) :   1.0857 B(  0-C ,  7-H ) :   0.9530 B(  0-C ,  8-H ) :   0.9539
B(  0-C ,  9-H ) :   0.9530 B(  1-C ,  2-C ) :   1.0878 B(  1-C ,  3-O ) :   0.9877
B(  1-C , 10-H ) :   0.9170 B(  2-C , 11-H ) :   0.9599 B(  2-C , 12-H ) :   0.9557
B(  2-C , 13-H ) :   0.9538 B(  3-O ,  4-C ) :   1.0066 B(  4-C ,  5-C ) :   0.9318
B(  4-C , 14-H ) :   0.9076 B(  4-C , 15-H ) :   0.9073 B(  5-C ,  6-O ) :   2.1707
B(  5-C , 16-H ) :   0.9269

FINAL SINGLE POINT ENERGY      -346.286828190156

DIPOLE MOMENT
-------------
                                X             Y             Z
Electronic contribution:      2.27761      -4.85623      -8.75717
Nuclear contribution   :     -2.39773       5.51472       9.65835
                        -----------------------------------------
Total Dipole Moment    :     -0.12011       0.65849       0.90118
                        -----------------------------------------
Magnitude (a.u.)       :      1.12257
Magnitude (Debye)      :      2.85335

                             ****ORCA TERMINATED NORMALLY****
TOTAL RUN TIME: 0 days 0 hours 0 minutes 7 seconds 554 msec
