                         Program Version 3.0.3 - RELEASE   -
|  1> ! RI PBE def2-SVP def2-SVP/J NBO PAL2
|  2> % maxcore 2000
|  3> % output
|  4>     # printlevel mini
|  5>     print[ P_Basis ] 0
|  6>     print[ P_SCFInfo ] 1
|  7>     print[ P_SCFIterInfo ] 1
|  8>     print[ P_OrbEn ] 0
|  9>     print[ P_Cartesian ] 0
| 10> end
| 11> *xyz 0 1
| 12>  C        1.2414490000    -0.6690510000    -0.4450680000
| 13>  C        2.4847690000     0.1738120000    -0.1862150000
| 14>  C        2.4478200000     1.4079750000    -1.0848370000
| 15>  O        3.6611350000     2.1071980000    -1.1770130000
| 16>  C        2.5888330000     0.4748880000     1.3118130000
| 17>  C        3.8794580000     1.0718480000     1.8321350000
| 18>  O        3.9321670000     2.4648980000     1.5327270000
| 19>  H        1.1682070000    -0.9550100000    -1.4970300000
| 20>  H        0.3325370000    -0.1152740000    -0.1881000000
| 21>  H        1.2481440000    -1.5845340000     0.1515860000
| 22>  H        3.3691530000    -0.4064800000    -0.4813010000
| 23>  H        1.6291920000     2.0673920000    -0.7524100000
| 24>  H        2.2035830000     1.0872210000    -2.1019430000
| 25>  H        3.8511070000     2.4650650000    -0.2962280000
| 26>  H        2.4474330000    -0.4688900000     1.8507560000
| 27>  H        1.7602460000     1.1259310000     1.6178100000
| 28>  H        4.7408610000     0.5539310000     1.3907700000
| 29>  H        3.9219730000     0.9371460000     2.9193880000
| 30>  H        4.7444530000     2.8281350000     1.8941700000
| 31> *
| 32>
| 33>                          ****END OF INPUT****
 Total Charge           Charge          ....    0
 Multiplicity           Mult            ....    1
 Number of Electrons    NEL             ....   58
 Basis Dimension        Dim             ....  158

MULLIKEN ATOMIC CHARGES
-----------------------
   0 C :    0.019045
   1 C :   -0.171772
   2 C :    0.227073
   3 O :   -0.301365
   4 C :   -0.008225
   5 C :    0.155717
   6 O :   -0.285462
   7 H :    0.019702
   8 H :    0.012539
   9 H :    0.013003
  10 H :    0.003244
  11 H :   -0.021349
  12 H :   -0.006295
  13 H :    0.135511
  14 H :    0.008270
  15 H :    0.012866
  16 H :    0.005958
  17 H :    0.010877
  18 H :    0.170664
Sum of atomic charges:   -0.0000000

LOEWDIN ATOMIC CHARGES
----------------------
   0 C :   -0.055859
   1 C :   -0.068587
   2 C :    0.056061
   3 O :   -0.136294
   4 C :   -0.050782
   5 C :    0.058065
   6 O :   -0.100881
   7 H :    0.026474
   8 H :    0.024121
   9 H :    0.023629
  10 H :    0.022016
  11 H :   -0.000568
  12 H :    0.015157
  13 H :    0.025423
  14 H :    0.032663
  15 H :    0.028412
  16 H :    0.009216
  17 H :    0.013352
  18 H :    0.078380

  Mayer bond orders larger than 0.1
B(  0-C ,  1-C ) :   1.0712 B(  0-C ,  7-H ) :   0.9578 B(  0-C ,  8-H ) :   0.9616
B(  0-C ,  9-H ) :   0.9549 B(  1-C ,  2-C ) :   1.0203 B(  1-C ,  4-C ) :   1.0672
B(  1-C , 10-H ) :   0.9030 B(  2-C ,  3-O ) :   1.1085 B(  2-C , 11-H ) :   0.9248
B(  2-C , 12-H ) :   0.9373 B(  3-O , 13-H ) :   0.9400 B(  4-C ,  5-C ) :   1.1012
B(  4-C , 14-H ) :   0.9223 B(  4-C , 15-H ) :   0.9217 B(  5-C ,  6-O ) :   1.0232
B(  5-C , 16-H ) :   0.9304 B(  5-C , 17-H ) :   0.9338 B(  6-O , 13-H ) :   0.1406
B(  6-O , 18-H ) :   0.9680

FINAL SINGLE POINT ENERGY      -347.497514658186

DIPOLE MOMENT
-------------
                                X             Y             Z
Electronic contribution:      3.72310       4.51222      -0.17917
Nuclear contribution   :     -3.46915      -4.81624       1.26615
                        -----------------------------------------
Total Dipole Moment    :      0.25396      -0.30402       1.08698
                        -----------------------------------------
Magnitude (a.u.)       :      1.15691
Magnitude (Debye)      :      2.94063

                             ****ORCA TERMINATED NORMALLY****
TOTAL RUN TIME: 0 days 0 hours 0 minutes 7 seconds 797 msec
