                         Program Version 3.0.3 - RELEASE   -
|  1> ! RI PBE def2-SVP def2-SVP/J NBO PAL2
|  2> % maxcore 2000
|  3> % output
|  4>     # printlevel mini
|  5>     print[ P_Basis ] 0
|  6>     print[ P_SCFInfo ] 1
|  7>     print[ P_SCFIterInfo ] 1
|  8>     print[ P_OrbEn ] 0
|  9>     print[ P_Cartesian ] 0
| 10> end
| 11> *xyz 0 1
| 12>  C        1.0380810000     0.0109340000    -0.0445010000
| 13>  C        2.5295540000    -0.0771310000    -0.1340910000
| 14>  C        3.0786360000     0.0235740000    -1.5296750000
| 15>  O        2.7228130000    -1.0966240000    -2.3238800000
| 16>  C        3.2838560000    -0.2666330000     0.9528790000
| 17>  C        4.7698780000    -0.3720630000     1.0412780000
| 18>  O        5.3226290000     0.6444700000     1.8611710000
| 19>  H        0.6904560000     0.9952400000    -0.3765160000
| 20>  H        0.6822150000    -0.1553420000     0.9728760000
| 21>  H        0.5710330000    -0.7241460000    -0.7056010000
| 22>  H        4.1630330000     0.1720160000    -1.5290640000
| 23>  H        2.6320050000     0.8851920000    -2.0348370000
| 24>  H        3.0656700000    -1.8824150000    -1.8891880000
| 25>  H        2.7802450000    -0.3298360000     1.9166300000
| 26>  H        5.2407250000    -0.3757480000     0.0517450000
| 27>  H        5.0441530000    -1.3114680000     1.5306050000
| 28>  H        5.0048180000     1.4894720000     1.5314910000
| 29> *
| 30>
| 31>                          ****END OF INPUT****
 Total Charge           Charge          ....    0
 Multiplicity           Mult            ....    1
 Number of Electrons    NEL             ....   56
 Basis Dimension        Dim             ....  148

MULLIKEN ATOMIC CHARGES
-----------------------
   0 C :    0.079806
   1 C :   -0.236891
   2 C :    0.267267
   3 O :   -0.289254
   4 C :   -0.153024
   5 C :    0.273843
   6 O :   -0.297446
   7 H :    0.022488
   8 H :    0.014709
   9 H :    0.033316
  10 H :   -0.006540
  11 H :   -0.000924
  12 H :    0.152877
  13 H :   -0.008051
  14 H :   -0.008427
  15 H :    0.007160
  16 H :    0.149091
Sum of atomic charges:   -0.0000000

LOEWDIN ATOMIC CHARGES
----------------------
   0 C :   -0.053474
   1 C :   -0.062046
   2 C :    0.062186
   3 O :   -0.119886
   4 C :   -0.076820
   5 C :    0.052615
   6 O :   -0.123510
   7 H :    0.035840
   8 H :    0.028915
   9 H :    0.036626
  10 H :    0.004356
  11 H :    0.024788
  12 H :    0.068371
  13 H :    0.024235
  14 H :    0.004225
  15 H :    0.028064
  16 H :    0.065514

  Mayer bond orders larger than 0.1
B(  0-C ,  1-C ) :   1.0749 B(  0-C ,  7-H ) :   0.9410 B(  0-C ,  8-H ) :   0.9564
B(  0-C ,  9-H ) :   0.9388 B(  1-C ,  2-C ) :   1.0628 B(  1-C ,  4-C ) :   1.8341
B(  2-C ,  3-O ) :   1.0416 B(  2-C , 10-H ) :   0.9207 B(  2-C , 11-H ) :   0.9093
B(  3-O , 12-H ) :   0.9820 B(  4-C ,  5-C ) :   1.0763 B(  4-C , 13-H ) :   0.9395
B(  5-C ,  6-O ) :   1.0249 B(  5-C , 14-H ) :   0.9277 B(  5-C , 15-H ) :   0.9075
B(  6-O , 16-H ) :   0.9854

FINAL SINGLE POINT ENERGY      -346.270677909340

DIPOLE MOMENT
-------------
                                X             Y             Z
Electronic contribution:      2.56768      -0.31559       0.06079
Nuclear contribution   :     -2.75947       0.36833      -0.09068
                        -----------------------------------------
Total Dipole Moment    :     -0.19179       0.05274      -0.02989
                        -----------------------------------------
Magnitude (a.u.)       :      0.20114
Magnitude (Debye)      :      0.51127

                             ****ORCA TERMINATED NORMALLY****
TOTAL RUN TIME: 0 days 0 hours 0 minutes 7 seconds 394 msec
