                         Program Version 3.0.3 - RELEASE   -
|  1> ! RI PBE def2-SVP def2-SVP/J NBO PAL2
|  2> % maxcore 2000
|  3> % output
|  4>     # printlevel mini
|  5>     print[ P_Basis ] 0
|  6>     print[ P_SCFInfo ] 1
|  7>     print[ P_SCFIterInfo ] 1
|  8>     print[ P_OrbEn ] 0
|  9>     print[ P_Cartesian ] 0
| 10> end
| 11> *xyz 0 1
| 12>  C        1.1900380000    -0.1206360000    -0.0326870000
| 13>  C        2.6634860000     0.0838660000     0.0690120000
| 14>  C        3.4891150000    -0.8385680000    -0.7781820000
| 15>  O        3.0187360000    -2.1597970000    -0.6016370000
| 16>  C        3.1776770000     1.0615800000     0.8312920000
| 17>  C        4.5916820000     1.3493690000     1.0487980000
| 18>  O        4.9790650000     2.2832760000     1.7112880000
| 19>  H        0.8662450000    -0.0687650000    -1.0776210000
| 20>  H        0.6431850000     0.6233970000     0.5456330000
| 21>  H        0.9240230000    -1.1197100000     0.3205560000
| 22>  H        4.5529200000    -0.7643590000    -0.5384780000
| 23>  H        3.3628230000    -0.5184160000    -1.8248510000
| 24>  H        3.4680800000    -2.7291590000    -1.2299620000
| 25>  H        2.5053060000     1.7293220000     1.3631650000
| 26>  H        5.3271200000     0.6615220000     0.5867740000
| 27> *
| 28>
| 29>                          ****END OF INPUT****
 Total Charge           Charge          ....    0
 Multiplicity           Mult            ....    1
 Number of Electrons    NEL             ....   54
 Basis Dimension        Dim             ....  138

MULLIKEN ATOMIC CHARGES
-----------------------
   0 C :    0.072223
   1 C :   -0.173902
   2 C :    0.214798
   3 O :   -0.276077
   4 C :   -0.032822
   5 C :    0.109934
   6 O :   -0.179408
   7 H :    0.030217
   8 H :    0.024559
   9 H :    0.055166
  10 H :    0.003334
  11 H :    0.020156
  12 H :    0.162585
  13 H :   -0.004279
  14 H :   -0.026485
Sum of atomic charges:   -0.0000000

LOEWDIN ATOMIC CHARGES
----------------------
   0 C :   -0.050916
   1 C :    0.004570
   2 C :    0.061728
   3 O :   -0.120059
   4 C :   -0.086020
   5 C :    0.062660
   6 O :   -0.121583
   7 H :    0.042353
   8 H :    0.033158
   9 H :    0.049261
  10 H :    0.008814
  11 H :    0.021718
  12 H :    0.075357
  13 H :    0.033964
  14 H :   -0.015003

  Mayer bond orders larger than 0.1
B(  0-C ,  1-C ) :   1.0816 B(  0-C ,  7-H ) :   0.9361 B(  0-C ,  8-H ) :   0.9547
B(  0-C ,  9-H ) :   0.9287 B(  1-C ,  2-C ) :   1.0617 B(  1-C ,  4-C ) :   1.7092
B(  2-C ,  3-O ) :   1.0946 B(  2-C , 10-H ) :   0.9174 B(  2-C , 11-H ) :   0.9041
B(  3-O , 12-H ) :   0.9762 B(  4-C ,  5-C ) :   1.0556 B(  4-C , 13-H ) :   0.9488
B(  5-C ,  6-O ) :   2.0867 B(  5-C , 14-H ) :   0.9307

FINAL SINGLE POINT ENERGY      -345.080765469690

DIPOLE MOMENT
-------------
                                X             Y             Z
Electronic contribution:      4.05782       2.41191       2.75899
Nuclear contribution   :     -4.50397      -3.42016      -3.94807
                        -----------------------------------------
Total Dipole Moment    :     -0.44615      -1.00825      -1.18908
                        -----------------------------------------
Magnitude (a.u.)       :      1.62158
Magnitude (Debye)      :      4.12174

                             ****ORCA TERMINATED NORMALLY****
TOTAL RUN TIME: 0 days 0 hours 0 minutes 6 seconds 633 msec
