                         Program Version 3.0.3 - RELEASE   -
|  1> ! RI PBE def2-SVP def2-SVP/J NBO PAL2
|  2> % maxcore 2000
|  3> % output
|  4>     # printlevel mini
|  5>     print[ P_Basis ] 0
|  6>     print[ P_SCFInfo ] 1
|  7>     print[ P_SCFIterInfo ] 1
|  8>     print[ P_OrbEn ] 0
|  9>     print[ P_Cartesian ] 0
| 10> end
| 11> *xyz 0 1
| 12>  C        0.6632420000     0.3274950000     0.3668280000
| 13>  C        2.0800600000    -0.1804140000     0.1407910000
| 14>  C        2.9668900000     0.1558160000     1.3271350000
| 15>  O        4.2858440000    -0.2615460000     1.0296510000
| 16>  C        2.0830930000    -1.6959780000    -0.0471850000
| 17>  C        2.8319850000    -2.2345540000    -1.2283920000
| 18>  O        1.5152740000    -2.4100190000     0.7424000000
| 19>  H        0.6621170000     1.4032560000     0.5575530000
| 20>  H        0.2111830000    -0.1818830000     1.2195760000
| 21>  H        0.0335200000     0.1409350000    -0.5054460000
| 22>  H        2.5152710000     0.2932690000    -0.7451960000
| 23>  H        2.5757080000    -0.3606710000     2.2129360000
| 24>  H        2.9289810000     1.2382030000     1.5111570000
| 25>  H        4.8156720000    -0.2061670000     1.8274860000
| 26>  H        3.8722120000    -1.9022210000    -1.1636650000
| 27>  H        2.4220860000    -1.8180220000    -2.1537510000
| 28>  H        2.7801620000    -3.3216990000    -1.2530790000
| 29> *
| 30>
| 31>                          ****END OF INPUT****
 Total Charge           Charge          ....    0
 Multiplicity           Mult            ....    1
 Number of Electrons    NEL             ....   56
 Basis Dimension        Dim             ....  148

MULLIKEN ATOMIC CHARGES
-----------------------
   0 C :    0.010433
   1 C :   -0.109931
   2 C :    0.177799
   3 O :   -0.277813
   4 C :   -0.038835
   5 C :    0.028306
   6 O :   -0.168800
   7 H :    0.020803
   8 H :    0.036475
   9 H :    0.026586
  10 H :    0.000804
  11 H :    0.008134
  12 H :    0.003435
  13 H :    0.160920
  14 H :    0.051142
  15 H :    0.035968
  16 H :    0.034574
Sum of atomic charges:   -0.0000000

LOEWDIN ATOMIC CHARGES
----------------------
   0 C :   -0.050045
   1 C :   -0.082122
   2 C :    0.070463
   3 O :   -0.126672
   4 C :    0.070213
   5 C :   -0.088692
   6 O :   -0.125039
   7 H :    0.026785
   8 H :    0.030402
   9 H :    0.030756
  10 H :    0.025083
  11 H :    0.009185
  12 H :    0.004744
  13 H :    0.075083
  14 H :    0.050298
  15 H :    0.044078
  16 H :    0.035479

  Mayer bond orders larger than 0.1
B(  0-C ,  1-C ) :   1.0654 B(  0-C ,  7-H ) :   0.9583 B(  0-C ,  8-H ) :   0.9553
B(  0-C ,  9-H ) :   0.9623 B(  1-C ,  2-C ) :   1.0505 B(  1-C ,  4-C ) :   0.8927
B(  1-C , 10-H ) :   0.9036 B(  2-C ,  3-O ) :   1.0876 B(  2-C , 11-H ) :   0.9278
B(  2-C , 12-H ) :   0.9375 B(  3-O , 13-H ) :   0.9768 B(  4-C ,  5-C ) :   1.0545
B(  4-C ,  6-O ) :   2.1786 B(  5-C , 14-H ) :   0.9262 B(  5-C , 15-H ) :   0.9338
B(  5-C , 16-H ) :   0.9464

FINAL SINGLE POINT ENERGY      -346.306416556687

DIPOLE MOMENT
-------------
                                X             Y             Z
Electronic contribution:      1.37245      -3.16146       1.88795
Nuclear contribution   :     -0.93964       3.92859      -1.93084
                        -----------------------------------------
Total Dipole Moment    :      0.43281       0.76713      -0.04289
                        -----------------------------------------
Magnitude (a.u.)       :      0.88185
Magnitude (Debye)      :      2.24147

                             ****ORCA TERMINATED NORMALLY****
TOTAL RUN TIME: 0 days 0 hours 0 minutes 8 seconds 3 msec
