                         Program Version 3.0.3 - RELEASE   -
|  1> ! RI PBE def2-SVP def2-SVP/J NBO PAL2
|  2> % maxcore 2000
|  3> % output
|  4>     # printlevel mini
|  5>     print[ P_Basis ] 0
|  6>     print[ P_SCFInfo ] 1
|  7>     print[ P_SCFIterInfo ] 1
|  8>     print[ P_OrbEn ] 0
|  9>     print[ P_Cartesian ] 0
| 10> end
| 11> *xyz 0 1
| 12>  C        1.1547480000    -0.3703680000     0.3431600000
| 13>  C        2.3732970000    -0.1643530000    -0.5469190000
| 14>  C        2.4713620000    -1.2260610000    -1.6332670000
| 15>  O        1.4306160000    -1.1518470000    -2.5856290000
| 16>  C        2.4319480000     1.2570740000    -1.1382140000
| 17>  C        1.2900340000     1.5769150000    -2.0700380000
| 18>  O        0.2027010000     1.9239850000    -1.6879810000
| 19>  H        1.1489080000    -1.3813160000     0.7600630000
| 20>  H        0.2190370000    -0.2099070000    -0.1977150000
| 21>  H        1.1539690000     0.3363480000     1.1752960000
| 22>  H        3.2699930000    -0.2805620000     0.0748230000
| 23>  H        2.5075130000    -2.2215510000    -1.1693850000
| 24>  H        3.3968310000    -1.0971320000    -2.2009640000
| 25>  H        0.5954100000    -1.3327650000    -2.1458020000
| 26>  H        3.3777350000     1.3851380000    -1.6733810000
| 27>  H        2.3951370000     1.9802330000    -0.3184850000
| 28>  H        1.5023530000     1.4914800000    -3.1535800000
| 29> *
| 30>
| 31>                          ****END OF INPUT****
 Total Charge           Charge          ....    0
 Multiplicity           Mult            ....    1
 Number of Electrons    NEL             ....   56
 Basis Dimension        Dim             ....  148

MULLIKEN ATOMIC CHARGES
-----------------------
   0 C :    0.006125
   1 C :   -0.196160
   2 C :    0.210344
   3 O :   -0.273556
   4 C :    0.073537
   5 C :    0.073452
   6 O :   -0.188126
   7 H :    0.017697
   8 H :    0.027129
   9 H :    0.030771
  10 H :    0.017001
  11 H :    0.002916
  12 H :    0.005329
  13 H :    0.162613
  14 H :    0.002194
  15 H :    0.031243
  16 H :   -0.002508
Sum of atomic charges:   -0.0000000

LOEWDIN ATOMIC CHARGES
----------------------
   0 C :   -0.064485
   1 C :   -0.056411
   2 C :    0.062421
   3 O :   -0.099303
   4 C :   -0.070187
   5 C :    0.083057
   6 O :   -0.127896
   7 H :    0.025612
   8 H :    0.023383
   9 H :    0.034091
  10 H :    0.032525
  11 H :    0.008581
  12 H :    0.020556
  13 H :    0.071402
  14 H :    0.028337
  15 H :    0.040713
  16 H :   -0.012396

  Mayer bond orders larger than 0.1
B(  0-C ,  1-C ) :   1.0727 B(  0-C ,  7-H ) :   0.9601 B(  0-C ,  8-H ) :   0.9513
B(  0-C ,  9-H ) :   0.9573 B(  1-C ,  2-C ) :   1.0325 B(  1-C ,  4-C ) :   1.0623
B(  1-C , 10-H ) :   0.8985 B(  2-C ,  3-O ) :   1.0683 B(  2-C , 11-H ) :   0.9359
B(  2-C , 12-H ) :   0.9363 B(  3-O , 13-H ) :   0.9753 B(  4-C ,  5-C ) :   0.9726
B(  4-C , 14-H ) :   0.9130 B(  4-C , 15-H ) :   0.9162 B(  5-C ,  6-O ) :   2.1144
B(  5-C , 16-H ) :   0.9237

FINAL SINGLE POINT ENERGY      -346.295258772836

DIPOLE MOMENT
-------------
                                X             Y             Z
Electronic contribution:     -2.66836       2.84026      -3.83039
Nuclear contribution   :      3.39639      -3.43900       4.34123
                        -----------------------------------------
Total Dipole Moment    :      0.72804      -0.59874       0.51085
                        -----------------------------------------
Magnitude (a.u.)       :      1.07214
Magnitude (Debye)      :      2.72518

                             ****ORCA TERMINATED NORMALLY****
TOTAL RUN TIME: 0 days 0 hours 0 minutes 8 seconds 160 msec
