                         Program Version 3.0.3 - RELEASE   -
|  1> ! RI PBE def2-SVP def2-SVP/J NBO PAL2
|  2> % maxcore 2000
|  3> % output
|  4>     # printlevel mini
|  5>     print[ P_Basis ] 0
|  6>     print[ P_SCFInfo ] 1
|  7>     print[ P_SCFIterInfo ] 1
|  8>     print[ P_OrbEn ] 0
|  9>     print[ P_Cartesian ] 0
| 10> end
| 11> *xyz 0 1
| 12>  C        1.0457210000     0.2964430000     0.0326860000
| 13>  C        2.5385290000     0.0671690000     0.1366180000
| 14>  C        2.9273860000    -1.3701310000     0.3748780000
| 15>  O        2.0983870000    -2.2271270000     0.5878360000
| 16>  C        4.4020120000    -1.6928050000     0.3290390000
| 17>  C        4.7308210000    -3.0732410000     0.8710450000
| 18>  O        4.1562150000    -4.1010520000     0.1052310000
| 19>  H        0.8278060000     1.3552200000    -0.1179460000
| 20>  H        0.5362470000    -0.0359890000     0.9378930000
| 21>  H        0.6203120000    -0.2634980000    -0.8017400000
| 22>  H        2.9731890000     0.6528230000     0.9571250000
| 23>  H        3.0659040000     0.4114520000    -0.7612290000
| 24>  H        4.9576180000    -0.9148060000     0.8651530000
| 25>  H        4.7181830000    -1.6231460000    -0.7197130000
| 26>  H        4.4134030000    -3.1367100000     1.9214180000
| 27>  H        5.8121770000    -3.2272740000     0.8473760000
| 28>  H        3.2022000000    -3.9721080000     0.1724310000
| 29> *
| 30>
| 31>                          ****END OF INPUT****
 Total Charge           Charge          ....    0
 Multiplicity           Mult            ....    1
 Number of Electrons    NEL             ....   56
 Basis Dimension        Dim             ....  148

MULLIKEN ATOMIC CHARGES
-----------------------
   0 C :    0.006435
   1 C :   -0.028873
   2 C :   -0.045845
   3 O :   -0.187704
   4 C :   -0.016101
   5 C :    0.177542
   6 O :   -0.291894
   7 H :    0.019655
   8 H :    0.034261
   9 H :    0.030502
  10 H :    0.042972
  11 H :    0.031488
  12 H :    0.020853
  13 H :    0.042409
  14 H :    0.002869
  15 H :    0.012449
  16 H :    0.148981
Sum of atomic charges:   -0.0000000

LOEWDIN ATOMIC CHARGES
----------------------
   0 C :   -0.061871
   1 C :   -0.075663
   2 C :    0.071593
   3 O :   -0.125128
   4 C :   -0.093218
   5 C :    0.055629
   6 O :   -0.125648
   7 H :    0.029132
   8 H :    0.032938
   9 H :    0.032339
  10 H :    0.047648
  11 H :    0.042888
  12 H :    0.039841
  13 H :    0.049397
  14 H :    0.007342
  15 H :    0.022063
  16 H :    0.050717

  Mayer bond orders larger than 0.1
B(  0-C ,  1-C ) :   1.1196 B(  0-C ,  7-H ) :   0.9568 B(  0-C ,  8-H ) :   0.9623
B(  0-C ,  9-H ) :   0.9676 B(  1-C ,  2-C ) :   0.9894 B(  1-C , 10-H ) :   0.9080
B(  1-C , 11-H ) :   0.9166 B(  2-C ,  3-O ) :   2.1107 B(  2-C ,  4-C ) :   0.9900
B(  4-C ,  5-C ) :   1.0655 B(  4-C , 12-H ) :   0.9049 B(  4-C , 13-H ) :   0.8902
B(  5-C ,  6-O ) :   1.0777 B(  5-C , 14-H ) :   0.9357 B(  5-C , 15-H ) :   0.9378
B(  6-O , 16-H ) :   0.9683

FINAL SINGLE POINT ENERGY      -346.312598063320

DIPOLE MOMENT
-------------
                                X             Y             Z
Electronic contribution:      0.37108      -5.28154       0.21725
Nuclear contribution   :     -0.13220       6.53460      -0.15194
                        -----------------------------------------
Total Dipole Moment    :      0.23887       1.25306       0.06531
                        -----------------------------------------
Magnitude (a.u.)       :      1.27730
Magnitude (Debye)      :      3.24664

                             ****ORCA TERMINATED NORMALLY****
TOTAL RUN TIME: 0 days 0 hours 0 minutes 7 seconds 827 msec
