                         Program Version 3.0.3 - RELEASE   -
|  1> ! RI PBE def2-SVP def2-SVP/J NBO PAL2
|  2> % maxcore 2000
|  3> % output
|  4>     # printlevel mini
|  5>     print[ P_Basis ] 0
|  6>     print[ P_SCFInfo ] 1
|  7>     print[ P_SCFIterInfo ] 1
|  8>     print[ P_OrbEn ] 0
|  9>     print[ P_Cartesian ] 0
| 10> end
| 11> *xyz 0 1
| 12>  C        1.8660710000     1.0869610000     1.2709860000
| 13>  C        3.0442170000     0.4967060000     0.5223460000
| 14>  C        3.0734550000     0.8575060000    -0.9372860000
| 15>  O        2.3770520000     1.7287830000    -1.4059670000
| 16>  C        4.0057450000     0.0880560000    -1.8607780000
| 17>  C        5.4530710000     0.1179680000    -1.3918700000
| 18>  O        3.9050380000     0.5903210000    -3.1581320000
| 19>  H        1.9128270000     0.8247320000     2.3292640000
| 20>  H        0.9209910000     0.7184870000     0.8681840000
| 21>  H        1.8548530000     2.1736290000     1.1831450000
| 22>  H        3.0770880000    -0.5948670000     0.6105260000
| 23>  H        3.9915380000     0.8457170000     0.9526300000
| 24>  H        3.6531960000    -0.9580580000    -1.8366960000
| 25>  H        5.5775910000    -0.3760660000    -0.4261480000
| 26>  H        6.0717630000    -0.4010690000    -2.1248560000
| 27>  H        5.8083230000     1.1482000000    -1.3166260000
| 28>  H        3.2128020000     1.2697960000    -3.1178120000
| 29> *
| 30>
| 31>                          ****END OF INPUT****
 Total Charge           Charge          ....    0
 Multiplicity           Mult            ....    1
 Number of Electrons    NEL             ....   56
 Basis Dimension        Dim             ....  148

MULLIKEN ATOMIC CHARGES
-----------------------
   0 C :   -0.002618
   1 C :   -0.033176
   2 C :   -0.042412
   3 O :   -0.183387
   4 C :    0.071676
   5 C :    0.011315
   6 O :   -0.243192
   7 H :    0.022462
   8 H :    0.028815
   9 H :    0.042749
  10 H :    0.037879
  11 H :    0.048962
  12 H :    0.014366
  13 H :    0.016134
  14 H :    0.042937
  15 H :    0.023289
  16 H :    0.144202
Sum of atomic charges:   -0.0000000

LOEWDIN ATOMIC CHARGES
----------------------
   0 C :   -0.060959
   1 C :   -0.073837
   2 C :    0.056997
   3 O :   -0.114578
   4 C :    0.009909
   5 C :   -0.064404
   6 O :   -0.110180
   7 H :    0.029750
   8 H :    0.032159
   9 H :    0.034605
  10 H :    0.041423
  11 H :    0.051380
  12 H :    0.024496
  13 H :    0.025150
  14 H :    0.037920
  15 H :    0.028979
  16 H :    0.051190

  Mayer bond orders larger than 0.1
B(  0-C ,  1-C ) :   1.1173 B(  0-C ,  7-H ) :   0.9570 B(  0-C ,  8-H ) :   0.9674
B(  0-C ,  9-H ) :   0.9619 B(  1-C ,  2-C ) :   0.9852 B(  1-C , 10-H ) :   0.9188
B(  1-C , 11-H ) :   0.8979 B(  2-C ,  3-O ) :   2.1137 B(  2-C ,  4-C ) :   0.9412
B(  3-O , 16-H ) :   0.1073 B(  4-C ,  5-C ) :   1.0495 B(  4-C ,  6-O ) :   1.1823
B(  4-C , 12-H ) :   0.8828 B(  5-C , 13-H ) :   0.9433 B(  5-C , 14-H ) :   0.9551
B(  5-C , 15-H ) :   0.9558 B(  6-O , 16-H ) :   0.9376

FINAL SINGLE POINT ENERGY      -346.315494529251

DIPOLE MOMENT
-------------
                                X             Y             Z
Electronic contribution:     -1.81531       1.94549      -5.90262
Nuclear contribution   :      2.02509      -2.38356       6.88069
                        -----------------------------------------
Total Dipole Moment    :      0.20978      -0.43807       0.97807
                        -----------------------------------------
Magnitude (a.u.)       :      1.09203
Magnitude (Debye)      :      2.77571

                             ****ORCA TERMINATED NORMALLY****
TOTAL RUN TIME: 0 days 0 hours 0 minutes 7 seconds 981 msec
