                         Program Version 3.0.3 - RELEASE   -
|  1> ! RI PBE def2-SVP def2-SVP/J NBO PAL2
|  2> % maxcore 2000
|  3> % output
|  4>     # printlevel mini
|  5>     print[ P_Basis ] 0
|  6>     print[ P_SCFInfo ] 1
|  7>     print[ P_SCFIterInfo ] 1
|  8>     print[ P_OrbEn ] 0
|  9>     print[ P_Cartesian ] 0
| 10> end
| 11> *xyz 0 1
| 12>  C        1.3045990000    -0.1234080000    -0.2030180000
| 13>  C        2.8133310000    -0.0332720000    -0.1271940000
| 14>  C        3.3118510000     0.5467720000     1.1612170000
| 15>  O        2.6007430000     0.9126180000     2.0629500000
| 16>  C        4.8442820000     0.6709910000     1.3125390000
| 17>  C        5.3355580000     1.2509070000     2.5994210000
| 18>  O        5.5609660000     0.3082800000     0.4146860000
| 19>  H        0.9931910000    -0.5509240000    -1.1574330000
| 20>  H        0.8461250000     0.8617520000    -0.1022420000
| 21>  H        0.9070490000    -0.7477880000     0.5988530000
| 22>  H        3.2340090000     0.5699570000    -0.9402310000
| 23>  H        3.2938240000    -1.0107750000    -0.2517020000
| 24>  H        4.9766490000     0.6507560000     3.4392230000
| 25>  H        4.9144460000     2.2490890000     2.7428180000
| 26>  H        6.4227670000     1.2907550000     2.5938030000
| 27> *
| 28>
| 29>                          ****END OF INPUT****
 Total Charge           Charge          ....    0
 Multiplicity           Mult            ....    1
 Number of Electrons    NEL             ....   54
 Basis Dimension        Dim             ....  138

MULLIKEN ATOMIC CHARGES
-----------------------
   0 C :    0.016001
   1 C :   -0.030506
   2 C :   -0.034843
   3 O :   -0.134867
   4 C :   -0.038958
   5 C :    0.036760
   6 O :   -0.132479
   7 H :    0.018597
   8 H :    0.028260
   9 H :    0.030316
  10 H :    0.046397
  11 H :    0.045868
  12 H :    0.054709
  13 H :    0.054528
  14 H :    0.040217
Sum of atomic charges:   -0.0000000

LOEWDIN ATOMIC CHARGES
----------------------
   0 C :   -0.060237
   1 C :   -0.075676
   2 C :    0.030114
   3 O :   -0.094458
   4 C :    0.029973
   5 C :   -0.085843
   6 O :   -0.094194
   7 H :    0.029492
   8 H :    0.031523
   9 H :    0.031826
  10 H :    0.052854
  11 H :    0.052812
  12 H :    0.055659
  13 H :    0.055923
  14 H :    0.040233

  Mayer bond orders larger than 0.1
B(  0-C ,  1-C ) :   1.1210 B(  0-C ,  7-H ) :   0.9582 B(  0-C ,  8-H ) :   0.9622
B(  0-C ,  9-H ) :   0.9631 B(  1-C ,  2-C ) :   0.9901 B(  1-C , 10-H ) :   0.9007
B(  1-C , 11-H ) :   0.9002 B(  2-C ,  3-O ) :   2.1857 B(  2-C ,  4-C ) :   0.8168
B(  4-C ,  5-C ) :   1.0561 B(  4-C ,  6-O ) :   2.1903 B(  5-C , 12-H ) :   0.9293
B(  5-C , 13-H ) :   0.9286 B(  5-C , 14-H ) :   0.9435

FINAL SINGLE POINT ENERGY      -345.117492705070

DIPOLE MOMENT
-------------
                                X             Y             Z
Electronic contribution:      3.50413       0.68453       1.26544
Nuclear contribution   :     -3.56059      -0.68533      -1.26435
                        -----------------------------------------
Total Dipole Moment    :     -0.05646      -0.00080       0.00109
                        -----------------------------------------
Magnitude (a.u.)       :      0.05647
Magnitude (Debye)      :      0.14354

                             ****ORCA TERMINATED NORMALLY****
TOTAL RUN TIME: 0 days 0 hours 0 minutes 6 seconds 572 msec
