                         Program Version 3.0.3 - RELEASE   -
|  1> ! RI PBE def2-SVP def2-SVP/J NBO PAL2
|  2> % maxcore 2000
|  3> % output
|  4>     # printlevel mini
|  5>     print[ P_Basis ] 0
|  6>     print[ P_SCFInfo ] 1
|  7>     print[ P_SCFIterInfo ] 1
|  8>     print[ P_OrbEn ] 0
|  9>     print[ P_Cartesian ] 0
| 10> end
| 11> *xyz 0 1
| 12>  C        1.8675960000     0.8211230000     0.6428980000
| 13>  C        3.1699770000     0.1512500000     0.2628380000
| 14>  C        3.2565280000    -0.2407950000    -1.1872120000
| 15>  O        2.3706480000    -0.0409620000    -1.9796050000
| 16>  C        4.5292150000    -0.9481130000    -1.6252420000
| 17>  C        4.2048560000    -2.3246480000    -2.1539040000
| 18>  O        4.7756290000    -3.3204010000    -1.8100450000
| 19>  H        1.8635980000     1.0824280000     1.7023870000
| 20>  H        1.0193710000     0.1640570000     0.4461510000
| 21>  H        1.7127330000     1.7315840000     0.0622080000
| 22>  H        3.3487890000    -0.7574590000     0.8527740000
| 23>  H        4.0343620000     0.7933310000     0.4768420000
| 24>  H        5.2789570000    -1.0259560000    -0.8381590000
| 25>  H        4.9351240000    -0.3709640000    -2.4641570000
| 26>  H        3.3796270000    -2.3498950000    -2.8927540000
| 27> *
| 28>
| 29>                          ****END OF INPUT****
 Total Charge           Charge          ....    0
 Multiplicity           Mult            ....    1
 Number of Electrons    NEL             ....   54
 Basis Dimension        Dim             ....  138

MULLIKEN ATOMIC CHARGES
-----------------------
   0 C :    0.001942
   1 C :   -0.033821
   2 C :   -0.080244
   3 O :   -0.159299
   4 C :    0.063354
   5 C :    0.073179
   6 O :   -0.151712
   7 H :    0.022468
   8 H :    0.036000
   9 H :    0.033067
  10 H :    0.044912
  11 H :    0.042277
  12 H :    0.020707
  13 H :    0.071010
  14 H :    0.016161
Sum of atomic charges:   -0.0000000

LOEWDIN ATOMIC CHARGES
----------------------
   0 C :   -0.061937
   1 C :   -0.076504
   2 C :    0.059133
   3 O :   -0.118487
   4 C :   -0.101834
   5 C :    0.099968
   6 O :   -0.096059
   7 H :    0.030543
   8 H :    0.033979
   9 H :    0.033562
  10 H :    0.048555
  11 H :    0.046780
  12 H :    0.035512
  13 H :    0.069195
  14 H :   -0.002407

  Mayer bond orders larger than 0.1
B(  0-C ,  1-C ) :   1.1262 B(  0-C ,  7-H ) :   0.9557 B(  0-C ,  8-H ) :   0.9646
B(  0-C ,  9-H ) :   0.9644 B(  1-C ,  2-C ) :   0.9857 B(  1-C , 10-H ) :   0.9044
B(  1-C , 11-H ) :   0.9066 B(  2-C ,  3-O ) :   2.1621 B(  2-C ,  4-C ) :   0.9515
B(  4-C ,  5-C ) :   0.9581 B(  4-C , 12-H ) :   0.9186 B(  4-C , 13-H ) :   0.8879
B(  5-C ,  6-O ) :   2.1805 B(  5-C , 14-H ) :   0.9246

FINAL SINGLE POINT ENERGY      -345.109692982311

DIPOLE MOMENT
-------------
                                X             Y             Z
Electronic contribution:      2.13741      -4.95245      -5.36906
Nuclear contribution   :     -1.84066       5.66294       5.88862
                        -----------------------------------------
Total Dipole Moment    :      0.29674       0.71049       0.51956
                        -----------------------------------------
Magnitude (a.u.)       :      0.92886
Magnitude (Debye)      :      2.36098

                             ****ORCA TERMINATED NORMALLY****
TOTAL RUN TIME: 0 days 0 hours 0 minutes 6 seconds 624 msec
