                         Program Version 3.0.3 - RELEASE   -
|  1> ! RI PBE def2-SVP def2-SVP/J NBO PAL2
|  2> % maxcore 2000
|  3> % output
|  4>     # printlevel mini
|  5>     print[ P_Basis ] 0
|  6>     print[ P_SCFInfo ] 1
|  7>     print[ P_SCFIterInfo ] 1
|  8>     print[ P_OrbEn ] 0
|  9>     print[ P_Cartesian ] 0
| 10> end
| 11> *xyz 0 1
| 12>  C        1.0293200000    -0.1096690000     0.3193480000
| 13>  C        2.5292240000     0.0311230000     0.1275600000
| 14>  C        2.9802120000    -0.1627230000    -1.3112410000
| 15>  O        2.3496480000     0.7835900000    -2.1787840000
| 16>  C        4.4940810000    -0.1284480000    -1.4629690000
| 17>  C        4.9778020000    -0.4272550000    -2.8732940000
| 18>  O        4.6312500000     0.5663810000    -3.8080080000
| 19>  H        0.7459000000     0.0690470000     1.3586200000
| 20>  H        0.6937170000    -1.1149860000     0.0506720000
| 21>  H        0.4831210000     0.5970570000    -0.3078410000
| 22>  H        3.0579460000    -0.6939100000     0.7550810000
| 23>  H        2.8639350000     1.0213810000     0.4654290000
| 24>  H        2.6128980000    -1.1321230000    -1.6697920000
| 25>  H        2.5570190000     1.6650210000    -1.8503510000
| 26>  H        4.9284370000    -0.8664470000    -0.7789940000
| 27>  H        4.8714400000     0.8541610000    -1.1516300000
| 28>  H        4.5923760000    -1.4115550000    -3.1848050000
| 29>  H        6.0688330000    -0.4947850000    -2.8819930000
| 30>  H        3.6872300000     0.7316500000    -3.6892190000
| 31> *
| 32>
| 33>                          ****END OF INPUT****
 Total Charge           Charge          ....    0
 Multiplicity           Mult            ....    1
 Number of Electrons    NEL             ....   58
 Basis Dimension        Dim             ....  158

MULLIKEN ATOMIC CHARGES
-----------------------
   0 C :    0.018880
   1 C :   -0.025683
   2 C :    0.065649
   3 O :   -0.290701
   4 C :   -0.029124
   5 C :    0.209931
   6 O :   -0.297615
   7 H :    0.020181
   8 H :    0.014997
   9 H :    0.018274
  10 H :    0.013288
  11 H :   -0.001718
  12 H :   -0.004773
  13 H :    0.161182
  14 H :    0.004236
  15 H :   -0.001890
  16 H :   -0.019097
  17 H :    0.010048
  18 H :    0.133932
Sum of atomic charges:    0.0000000

LOEWDIN ATOMIC CHARGES
----------------------
   0 C :   -0.065109
   1 C :   -0.058648
   2 C :    0.045580
   3 O :   -0.098501
   4 C :   -0.076135
   5 C :    0.055740
   6 O :   -0.132824
   7 H :    0.027522
   8 H :    0.026538
   9 H :    0.024227
  10 H :    0.030471
  11 H :    0.020368
  12 H :    0.020714
  13 H :    0.069218
  14 H :    0.032304
  15 H :    0.021084
  16 H :    0.000373
  17 H :    0.019395
  18 H :    0.037683

  Mayer bond orders larger than 0.1
B(  0-C ,  1-C ) :   1.1124 B(  0-C ,  7-H ) :   0.9611 B(  0-C ,  8-H ) :   0.9640
B(  0-C ,  9-H ) :   0.9584 B(  1-C ,  2-C ) :   1.0609 B(  1-C , 10-H ) :   0.9234
B(  1-C , 11-H ) :   0.9235 B(  2-C ,  3-O ) :   0.9692 B(  2-C ,  4-C ) :   1.0618
B(  2-C , 12-H ) :   0.9095 B(  3-O , 13-H ) :   0.9705 B(  3-O , 18-H ) :   0.1138
B(  4-C ,  5-C ) :   1.0754 B(  4-C , 14-H ) :   0.9039 B(  4-C , 15-H ) :   0.9114
B(  5-C ,  6-O ) :   1.0881 B(  5-C , 16-H ) :   0.9223 B(  5-C , 17-H ) :   0.9383
B(  6-O , 18-H ) :   0.9582

FINAL SINGLE POINT ENERGY      -347.501720117195

DIPOLE MOMENT
-------------
                                X             Y             Z
Electronic contribution:      1.81308       1.88210      -5.36240
Nuclear contribution   :     -2.03803      -1.92621       6.38171
                        -----------------------------------------
Total Dipole Moment    :     -0.22495      -0.04411       1.01931
                        -----------------------------------------
Magnitude (a.u.)       :      1.04477
Magnitude (Debye)      :      2.65558

                             ****ORCA TERMINATED NORMALLY****
TOTAL RUN TIME: 0 days 0 hours 0 minutes 8 seconds 256 msec
