                         Program Version 3.0.3 - RELEASE   -
|  1> ! RI PBE def2-SVP def2-SVP/J NBO PAL2
|  2> % maxcore 2000
|  3> % output
|  4>     # printlevel mini
|  5>     print[ P_Basis ] 0
|  6>     print[ P_SCFInfo ] 1
|  7>     print[ P_SCFIterInfo ] 1
|  8>     print[ P_OrbEn ] 0
|  9>     print[ P_Cartesian ] 0
| 10> end
| 11> *xyz 0 1
| 12>  C        1.3409140000     0.9635290000     0.5588310000
| 13>  C        2.7796120000     0.9668520000     0.0716480000
| 14>  C        3.2173290000    -0.3673920000    -0.5073280000
| 15>  O        2.4448520000    -0.7275180000    -1.6397730000
| 16>  C        4.7051910000    -0.3958380000    -0.8559690000
| 17>  C        5.1401910000    -1.7452500000    -1.3870650000
| 18>  O        5.4121340000    -0.0508940000     0.3232940000
| 19>  H        1.0480240000     1.9482980000     0.9294070000
| 20>  H        1.2087320000     0.2490170000     1.3758890000
| 21>  H        0.6500560000     0.6820520000    -0.2384280000
| 22>  H        3.4592330000     1.2296750000     0.8851000000
| 23>  H        2.9160860000     1.7373270000    -0.7011410000
| 24>  H        3.0343700000    -1.1584800000     0.2297080000
| 25>  H        2.4328650000     0.0244920000    -2.2398510000
| 26>  H        4.8786110000     0.3719500000    -1.6307830000
| 27>  H        4.9996890000    -2.5128240000    -0.6213030000
| 28>  H        4.5558130000    -2.0211010000    -2.2652890000
| 29>  H        6.1971840000    -1.7293860000    -1.6707420000
| 30>  H        6.3430130000    -0.2378990000     0.1812250000
| 31> *
| 32>
| 33>                          ****END OF INPUT****
 Total Charge           Charge          ....    0
 Multiplicity           Mult            ....    1
 Number of Electrons    NEL             ....   58
 Basis Dimension        Dim             ....  158

MULLIKEN ATOMIC CHARGES
-----------------------
   0 C :    0.013437
   1 C :   -0.027892
   2 C :    0.083314
   3 O :   -0.272259
   4 C :    0.049558
   5 C :    0.029994
   6 O :   -0.258175
   7 H :    0.016125
   8 H :    0.018614
   9 H :    0.013247
  10 H :    0.024711
  11 H :   -0.011366
  12 H :   -0.004218
  13 H :    0.149603
  14 H :   -0.026026
  15 H :    0.020394
  16 H :    0.018551
  17 H :    0.009720
  18 H :    0.152666
Sum of atomic charges:   -0.0000000

LOEWDIN ATOMIC CHARGES
----------------------
   0 C :   -0.067497
   1 C :   -0.060970
   2 C :    0.038827
   3 O :   -0.102716
   4 C :    0.026574
   5 C :   -0.079261
   6 O :   -0.111701
   7 H :    0.025793
   8 H :    0.027241
   9 H :    0.021393
  10 H :    0.032321
  11 H :    0.017551
  12 H :    0.021091
  13 H :    0.064264
  14 H :   -0.001602
  15 H :    0.028258
  16 H :    0.031234
  17 H :    0.021199
  18 H :    0.068002

  Mayer bond orders larger than 0.1
B(  0-C ,  1-C ) :   1.1166 B(  0-C ,  7-H ) :   0.9599 B(  0-C ,  8-H ) :   0.9636
B(  0-C ,  9-H ) :   0.9569 B(  1-C ,  2-C ) :   1.0716 B(  1-C , 10-H ) :   0.9160
B(  1-C , 11-H ) :   0.9188 B(  2-C ,  3-O ) :   1.0192 B(  2-C ,  4-C ) :   0.9938
B(  2-C , 12-H ) :   0.8967 B(  3-O , 13-H ) :   0.9809 B(  4-C ,  5-C ) :   1.0959
B(  4-C ,  6-O ) :   1.0728 B(  4-C , 14-H ) :   0.8939 B(  5-C , 15-H ) :   0.9512
B(  5-C , 16-H ) :   0.9356 B(  5-C , 17-H ) :   0.9509 B(  6-O , 18-H ) :   0.9767

FINAL SINGLE POINT ENERGY      -347.500286662336

DIPOLE MOMENT
-------------
                                X             Y             Z
Electronic contribution:      1.83358      -0.63993      -0.59377
Nuclear contribution   :     -1.29002       0.91629       0.24306
                        -----------------------------------------
Total Dipole Moment    :      0.54355       0.27635      -0.35071
                        -----------------------------------------
Magnitude (a.u.)       :      0.70343
Magnitude (Debye)      :      1.78798

                             ****ORCA TERMINATED NORMALLY****
TOTAL RUN TIME: 0 days 0 hours 0 minutes 7 seconds 715 msec
