                         Program Version 3.0.3 - RELEASE   -
|  1> ! RI PBE def2-SVP def2-SVP/J NBO PAL2
|  2> % maxcore 2000
|  3> % output
|  4>     # printlevel mini
|  5>     print[ P_Basis ] 0
|  6>     print[ P_SCFInfo ] 1
|  7>     print[ P_SCFIterInfo ] 1
|  8>     print[ P_OrbEn ] 0
|  9>     print[ P_Cartesian ] 0
| 10> end
| 11> *xyz 0 1
| 12>  C        1.4266310000    -0.6117700000     0.3397230000
| 13>  C        2.8979840000    -0.2442920000     0.2662110000
| 14>  C        3.1523470000     0.8986340000    -0.7160520000
| 15>  O        2.4265230000     2.0348470000    -0.3603050000
| 16>  C        4.6276290000     1.2441990000    -0.8154830000
| 17>  C        5.5969250000     0.1716770000    -1.2105970000
| 18>  O        4.9823360000     2.3747060000    -0.5705050000
| 19>  H        1.2576480000    -1.4032210000     1.0729410000
| 20>  H        1.0620980000    -0.9674920000    -0.6280800000
| 21>  H        0.8289040000     0.2544910000     0.6258330000
| 22>  H        3.4876900000    -1.1168890000    -0.0325760000
| 23>  H        3.2566150000     0.0692280000     1.2525880000
| 24>  H        2.8460180000     0.5606630000    -1.7223280000
| 25>  H        3.0868250000     2.7422260000    -0.2771330000
| 26>  H        5.8646670000    -0.4086290000    -0.3222070000
| 27>  H        6.5028810000     0.6248990000    -1.6100440000
| 28>  H        5.1638710000    -0.5203870000    -1.9349850000
| 29> *
| 30>
| 31>                          ****END OF INPUT****
 Total Charge           Charge          ....    0
 Multiplicity           Mult            ....    1
 Number of Electrons    NEL             ....   56
 Basis Dimension        Dim             ....  148

MULLIKEN ATOMIC CHARGES
-----------------------
   0 C :    0.003352
   1 C :   -0.032730
   2 C :    0.082965
   3 O :   -0.241431
   4 C :   -0.052745
   5 C :    0.028598
   6 O :   -0.179119
   7 H :    0.023412
   8 H :    0.011905
   9 H :    0.038419
  10 H :    0.005185
  11 H :    0.012873
  12 H :    0.005263
  13 H :    0.143785
  14 H :    0.064271
  15 H :    0.043901
  16 H :    0.042096
Sum of atomic charges:   -0.0000000

LOEWDIN ATOMIC CHARGES
----------------------
   0 C :   -0.064145
   1 C :   -0.048824
   2 C :    0.012164
   3 O :   -0.106886
   4 C :    0.054056
   5 C :   -0.083243
   6 O :   -0.115772
   7 H :    0.027618
   8 H :    0.024914
   9 H :    0.032399
  10 H :    0.022641
  11 H :    0.027010
  12 H :    0.022893
  13 H :    0.051428
  14 H :    0.057668
  15 H :    0.045364
  16 H :    0.040717

  Mayer bond orders larger than 0.1
B(  0-C ,  1-C ) :   1.1269 B(  0-C ,  7-H ) :   0.9623 B(  0-C ,  8-H ) :   0.9611
B(  0-C ,  9-H ) :   0.9589 B(  1-C ,  2-C ) :   1.0171 B(  1-C , 10-H ) :   0.9199
B(  1-C , 11-H ) :   0.9254 B(  2-C ,  3-O ) :   1.1781 B(  2-C ,  4-C ) :   0.9276
B(  2-C , 12-H ) :   0.8726 B(  3-O , 13-H ) :   0.9350 B(  4-C ,  5-C ) :   1.0454
B(  4-C ,  6-O ) :   2.1140 B(  5-C , 14-H ) :   0.9288 B(  5-C , 15-H ) :   0.9358
B(  5-C , 16-H ) :   0.9463 B(  6-O , 13-H ) :   0.1140

FINAL SINGLE POINT ENERGY      -346.315476657902

DIPOLE MOMENT
-------------
                                X             Y             Z
Electronic contribution:      2.61643       7.21358      -0.89764
Nuclear contribution   :     -2.20839      -8.18944       0.70007
                        -----------------------------------------
Total Dipole Moment    :      0.40804      -0.97586      -0.19757
                        -----------------------------------------
Magnitude (a.u.)       :      1.07602
Magnitude (Debye)      :      2.73504

                             ****ORCA TERMINATED NORMALLY****
TOTAL RUN TIME: 0 days 0 hours 0 minutes 7 seconds 999 msec
