                         Program Version 3.0.3 - RELEASE   -
|  1> ! RI PBE def2-SVP def2-SVP/J NBO PAL2
|  2> % maxcore 2000
|  3> % output
|  4>     # printlevel mini
|  5>     print[ P_Basis ] 0
|  6>     print[ P_SCFInfo ] 1
|  7>     print[ P_SCFIterInfo ] 1
|  8>     print[ P_OrbEn ] 0
|  9>     print[ P_Cartesian ] 0
| 10> end
| 11> *xyz 0 1
| 12>  C        1.1020740000    -0.3083750000     0.1759570000
| 13>  C        2.6041050000    -0.0883040000     0.1441250000
| 14>  C        3.0704620000     0.7063190000    -1.0662690000
| 15>  O        2.4679830000     1.9872900000    -1.1260000000
| 16>  C        4.5945940000     0.8157800000    -1.1174840000
| 17>  C        5.0912590000     1.4597880000    -2.3800900000
| 18>  O        6.0074670000     1.0383410000    -3.0334210000
| 19>  H        0.8026460000    -0.8479970000     1.0766560000
| 20>  H        0.7745180000    -0.8935610000    -0.6874250000
| 21>  H        0.5641840000     0.6409000000     0.1530490000
| 22>  H        3.1262710000    -1.0506220000     0.1515910000
| 23>  H        2.9301060000     0.4400150000     1.0508570000
| 24>  H        2.7205250000     0.1995260000    -1.9732350000
| 25>  H        2.6515650000     2.4438580000    -0.2987200000
| 26>  H        5.0727090000    -0.1608870000    -1.0147280000
| 27>  H        4.9253220000     1.4381550000    -0.2732930000
| 28>  H        4.5457190000     2.3744950000    -2.6896590000
| 29> *
| 30>
| 31>                          ****END OF INPUT****
 Total Charge           Charge          ....    0
 Multiplicity           Mult            ....    1
 Number of Electrons    NEL             ....   56
 Basis Dimension        Dim             ....  148

MULLIKEN ATOMIC CHARGES
-----------------------
   0 C :    0.015174
   1 C :   -0.022577
   2 C :    0.025318
   3 O :   -0.271235
   4 C :    0.053475
   5 C :    0.090994
   6 O :   -0.163572
   7 H :    0.022859
   8 H :    0.021239
   9 H :    0.017382
  10 H :    0.013644
  11 H :   -0.003292
  12 H :    0.013726
  13 H :    0.152899
  14 H :    0.017643
  15 H :    0.022373
  16 H :   -0.006050
Sum of atomic charges:    0.0000000

LOEWDIN ATOMIC CHARGES
----------------------
   0 C :   -0.065194
   1 C :   -0.059090
   2 C :    0.047564
   3 O :   -0.104877
   4 C :   -0.091460
   5 C :    0.091534
   6 O :   -0.109088
   7 H :    0.028517
   8 H :    0.028302
   9 H :    0.024441
  10 H :    0.030939
  11 H :    0.019884
  12 H :    0.025004
  13 H :    0.066293
  14 H :    0.036630
  15 H :    0.040944
  16 H :   -0.010342

  Mayer bond orders larger than 0.1
B(  0-C ,  1-C ) :   1.1150 B(  0-C ,  7-H ) :   0.9606 B(  0-C ,  8-H ) :   0.9648
B(  0-C ,  9-H ) :   0.9565 B(  1-C ,  2-C ) :   1.0561 B(  1-C , 10-H ) :   0.9212
B(  1-C , 11-H ) :   0.9228 B(  2-C ,  3-O ) :   1.0107 B(  2-C ,  4-C ) :   1.0140
B(  2-C , 12-H ) :   0.9164 B(  3-O , 13-H ) :   0.9801 B(  4-C ,  5-C ) :   0.9695
B(  4-C , 14-H ) :   0.9107 B(  4-C , 15-H ) :   0.8967 B(  5-C ,  6-O ) :   2.1786
B(  5-C , 16-H ) :   0.9253

FINAL SINGLE POINT ENERGY      -346.298146380044

DIPOLE MOMENT
-------------
                                X             Y             Z
Electronic contribution:      6.29877       3.38550      -5.80791
Nuclear contribution   :     -6.82614      -3.40243       6.95960
                        -----------------------------------------
Total Dipole Moment    :     -0.52738      -0.01692       1.15169
                        -----------------------------------------
Magnitude (a.u.)       :      1.26681
Magnitude (Debye)      :      3.21997

                             ****ORCA TERMINATED NORMALLY****
TOTAL RUN TIME: 0 days 0 hours 0 minutes 6 seconds 654 msec
