                         Program Version 3.0.3 - RELEASE   -
|  1> ! RI PBE def2-SVP def2-SVP/J NBO PAL2
|  2> % maxcore 2000
|  3> % output
|  4>     # printlevel mini
|  5>     print[ P_Basis ] 0
|  6>     print[ P_SCFInfo ] 1
|  7>     print[ P_SCFIterInfo ] 1
|  8>     print[ P_OrbEn ] 0
|  9>     print[ P_Cartesian ] 0
| 10> end
| 11> *xyz 0 1
| 12>  C        2.8514800000    -0.9222140000     1.1845020000
| 13>  C        2.6887900000     0.0629720000     0.0408210000
| 14>  C        3.1064940000    -0.4960480000    -1.3152970000
| 15>  O        2.6937790000     0.4143650000    -2.3028940000
| 16>  C        2.7962850000    -0.1014470000    -3.6073550000
| 17>  C        4.6128950000    -0.6523490000    -1.3460160000
| 18>  O        5.2082390000    -1.6537460000    -1.0623370000
| 19>  H        2.5486680000    -0.4643260000     2.1279620000
| 20>  H        3.8853330000    -1.2568310000     1.2910170000
| 21>  H        2.2338510000    -1.8105940000     1.0312670000
| 22>  H        3.2585020000     0.9789230000     0.2330070000
| 23>  H        1.6436860000     0.3685180000    -0.0615530000
| 24>  H        2.6489270000    -1.4845620000    -1.4708980000
| 25>  H        2.4427000000     0.6715920000    -4.2891410000
| 26>  H        2.1758970000    -0.9990150000    -3.7294570000
| 27>  H        3.8303940000    -0.3584780000    -3.8729270000
| 28>  H        5.1461900000     0.2842310000    -1.6294910000
| 29> *
| 30>
| 31>                          ****END OF INPUT****
 Total Charge           Charge          ....    0
 Multiplicity           Mult            ....    1
 Number of Electrons    NEL             ....   56
 Basis Dimension        Dim             ....  148

MULLIKEN ATOMIC CHARGES
-----------------------
   0 C :   -0.016412
   1 C :   -0.013425
   2 C :    0.087708
   3 O :   -0.330105
   4 C :    0.141574
   5 C :    0.085728
   6 O :   -0.148329
   7 H :    0.024540
   8 H :    0.033813
   9 H :    0.024140
  10 H :    0.016483
  11 H :    0.030196
  12 H :   -0.000176
  13 H :    0.040812
  14 H :    0.011857
  15 H :    0.015034
  16 H :   -0.003437
Sum of atomic charges:   -0.0000000

LOEWDIN ATOMIC CHARGES
----------------------
   0 C :   -0.062892
   1 C :   -0.038018
   2 C :    0.008132
   3 O :   -0.134810
   4 C :    0.051744
   5 C :    0.076865
   6 O :   -0.098972
   7 H :    0.030873
   8 H :    0.028633
   9 H :    0.028188
  10 H :    0.028240
  11 H :    0.034326
  12 H :    0.014262
  13 H :    0.026916
  14 H :    0.009572
  15 H :    0.007120
  16 H :   -0.010179

  Mayer bond orders larger than 0.1
B(  0-C ,  1-C ) :   1.1040 B(  0-C ,  7-H ) :   0.9591 B(  0-C ,  8-H ) :   0.9634
B(  0-C ,  9-H ) :   0.9627 B(  1-C ,  2-C ) :   1.0417 B(  1-C , 10-H ) :   0.9296
B(  1-C , 11-H ) :   0.9255 B(  2-C ,  3-O ) :   1.0198 B(  2-C ,  5-C ) :   0.9151
B(  2-C , 12-H ) :   0.9026 B(  3-O ,  4-C ) :   1.0078 B(  4-C , 13-H ) :   0.9767
B(  4-C , 14-H ) :   0.9548 B(  4-C , 15-H ) :   0.9552 B(  5-C ,  6-O ) :   2.1678
B(  5-C , 16-H ) :   0.9062

FINAL SINGLE POINT ENERGY      -346.283140813026

DIPOLE MOMENT
-------------
                                X             Y             Z
Electronic contribution:      3.58967      -0.43085      -1.95395
Nuclear contribution   :     -4.10177       0.70238       1.72757
                        -----------------------------------------
Total Dipole Moment    :     -0.51211       0.27153      -0.22638
                        -----------------------------------------
Magnitude (a.u.)       :      0.62228
Magnitude (Debye)      :      1.58171

                             ****ORCA TERMINATED NORMALLY****
TOTAL RUN TIME: 0 days 0 hours 0 minutes 6 seconds 671 msec
