                         Program Version 3.0.3 - RELEASE   -
|  1> ! RI PBE def2-SVP def2-SVP/J NBO PAL2
|  2> % maxcore 2000
|  3> % output
|  4>     # printlevel mini
|  5>     print[ P_Basis ] 0
|  6>     print[ P_SCFInfo ] 1
|  7>     print[ P_SCFIterInfo ] 1
|  8>     print[ P_OrbEn ] 0
|  9>     print[ P_Cartesian ] 0
| 10> end
| 11> *xyz 0 1
| 12>  C        0.2324050000    -0.3098280000    -0.1312030000
| 13>  C        1.6480400000     0.0272570000    -0.5686320000
| 14>  C        2.6299940000    -0.1206810000     0.5730420000
| 15>  O        3.9551140000     0.2621810000     0.1883920000
| 16>  C        4.7157700000    -0.6871120000    -0.3765370000
| 17>  C        6.0662370000    -0.1454530000    -0.7356210000
| 18>  O        4.3513750000    -1.8174740000    -0.5608400000
| 19>  H       -0.4716290000    -0.1921330000    -0.9569060000
| 20>  H       -0.0999820000     0.3412830000     0.6822840000
| 21>  H        0.1613770000    -1.3427570000     0.2193710000
| 22>  H        1.6945360000     1.0539780000    -0.9448890000
| 23>  H        1.9566240000    -0.6315250000    -1.3847210000
| 24>  H        2.6472660000    -1.1498460000     0.9379920000
| 25>  H        2.3735070000     0.5478890000     1.3974000000
| 26>  H        6.5581280000     0.2499830000     0.1549150000
| 27>  H        5.9581730000     0.6808860000    -1.4407680000
| 28>  H        6.6691850000    -0.9349490000    -1.1768680000
| 29> *
| 30>
| 31>                          ****END OF INPUT****
 Total Charge           Charge          ....    0
 Multiplicity           Mult            ....    1
 Number of Electrons    NEL             ....   56
 Basis Dimension        Dim             ....  148

MULLIKEN ATOMIC CHARGES
-----------------------
   0 C :   -0.049431
   1 C :   -0.052900
   2 C :    0.167368
   3 O :   -0.259816
   4 C :    0.055656
   5 C :    0.018555
   6 O :   -0.197507
   7 H :    0.032093
   8 H :    0.023714
   9 H :    0.028263
  10 H :    0.019765
  11 H :    0.031609
  12 H :    0.019711
  13 H :    0.016275
  14 H :    0.050389
  15 H :    0.052565
  16 H :    0.043692
Sum of atomic charges:   -0.0000000

LOEWDIN ATOMIC CHARGES
----------------------
   0 C :   -0.064945
   1 C :   -0.058466
   2 C :    0.069736
   3 O :   -0.068539
   4 C :    0.041571
   5 C :   -0.086444
   6 O :   -0.155348
   7 H :    0.031924
   8 H :    0.025590
   9 H :    0.028617
  10 H :    0.025807
  11 H :    0.030826
  12 H :    0.017005
  13 H :    0.021284
  14 H :    0.049338
  15 H :    0.049602
  16 H :    0.042444

  Mayer bond orders larger than 0.1
B(  0-C ,  1-C ) :   1.1167 B(  0-C ,  7-H ) :   0.9608 B(  0-C ,  8-H ) :   0.9668
B(  0-C ,  9-H ) :   0.9672 B(  1-C ,  2-C ) :   1.1080 B(  1-C , 10-H ) :   0.9327
B(  1-C , 11-H ) :   0.9322 B(  2-C ,  3-O ) :   0.9309 B(  2-C , 12-H ) :   0.9282
B(  2-C , 13-H ) :   0.9446 B(  3-O ,  4-C ) :   1.1738 B(  4-C ,  5-C ) :   1.0454
B(  4-C ,  6-O ) :   2.0625 B(  5-C , 14-H ) :   0.9399 B(  5-C , 15-H ) :   0.9427
B(  5-C , 16-H ) :   0.9535

FINAL SINGLE POINT ENERGY      -346.334421728842

DIPOLE MOMENT
-------------
                                X             Y             Z
Electronic contribution:      5.73438      -1.82794       0.33460
Nuclear contribution   :     -5.84783       2.47359      -0.20869
                        -----------------------------------------
Total Dipole Moment    :     -0.11345       0.64565       0.12591
                        -----------------------------------------
Magnitude (a.u.)       :      0.66752
Magnitude (Debye)      :      1.69671

                             ****ORCA TERMINATED NORMALLY****
TOTAL RUN TIME: 0 days 0 hours 0 minutes 7 seconds 762 msec
