                         Program Version 3.0.3 - RELEASE   -
|  1> ! RI PBE def2-SVP def2-SVP/J NBO PAL2
|  2> % maxcore 2000
|  3> % output
|  4>     # printlevel mini
|  5>     print[ P_Basis ] 0
|  6>     print[ P_SCFInfo ] 1
|  7>     print[ P_SCFIterInfo ] 1
|  8>     print[ P_OrbEn ] 0
|  9>     print[ P_Cartesian ] 0
| 10> end
| 11> *xyz 0 1
| 12>  C        0.4359090000     0.2488630000     0.0018100000
| 13>  C        1.9407970000     0.0417290000    -0.0015010000
| 14>  C        2.6629200000     1.1164380000     0.7754180000
| 15>  O        4.0485510000     0.8686590000     0.7348930000
| 16>  C        4.7954450000     1.8186830000     1.4306960000
| 17>  C        6.2556800000     1.4638430000     1.3257430000
| 18>  O        7.1292660000     2.1099980000     1.8308660000
| 19>  H       -0.0689830000    -0.5361730000    -0.5638600000
| 20>  H        0.1635600000     1.2072360000    -0.4487500000
| 21>  H        0.0328760000     0.2342820000     1.0181790000
| 22>  H        2.3220020000     0.0361960000    -1.0270330000
| 23>  H        2.1920830000    -0.9310240000     0.4317120000
| 24>  H        2.3158610000     1.1324460000     1.8208870000
| 25>  H        2.4473730000     2.1087610000     0.3481700000
| 26>  H        4.5241890000     1.8585360000     2.4977540000
| 27>  H        4.6552660000     2.8336360000     1.0257180000
| 28>  H        6.4630950000     0.5454910000     0.7365790000
| 29> *
| 30>
| 31>                          ****END OF INPUT****
 Total Charge           Charge          ....    0
 Multiplicity           Mult            ....    1
 Number of Electrons    NEL             ....   56
 Basis Dimension        Dim             ....  148

MULLIKEN ATOMIC CHARGES
-----------------------
   0 C :   -0.041459
   1 C :   -0.034549
   2 C :    0.160789
   3 O :   -0.347848
   4 C :    0.188589
   5 C :    0.071578
   6 O :   -0.166275
   7 H :    0.029796
   8 H :    0.022676
   9 H :    0.022537
  10 H :    0.023659
  11 H :    0.021922
  12 H :   -0.004337
  13 H :   -0.006445
  14 H :    0.028399
  15 H :    0.024864
  16 H :    0.006103
Sum of atomic charges:   -0.0000000

LOEWDIN ATOMIC CHARGES
----------------------
   0 C :   -0.063830
   1 C :   -0.054345
   2 C :    0.062933
   3 O :   -0.144043
   4 C :    0.019888
   5 C :    0.087562
   6 O :   -0.101620
   7 H :    0.031364
   8 H :    0.025713
   9 H :    0.025502
  10 H :    0.028546
  11 H :    0.028276
  12 H :    0.005113
  13 H :    0.004512
  14 H :    0.026255
  15 H :    0.025918
  16 H :   -0.007744

  Mayer bond orders larger than 0.1
B(  0-C ,  1-C ) :   1.0991 B(  0-C ,  7-H ) :   0.9627 B(  0-C ,  8-H ) :   0.9685
B(  0-C ,  9-H ) :   0.9682 B(  1-C ,  2-C ) :   1.0825 B(  1-C , 10-H ) :   0.9370
B(  1-C , 11-H ) :   0.9373 B(  2-C ,  3-O ) :   1.0080 B(  2-C , 12-H ) :   0.9308
B(  2-C , 13-H ) :   0.9318 B(  3-O ,  4-C ) :   1.0045 B(  4-C ,  5-C ) :   0.9317
B(  4-C , 14-H ) :   0.9112 B(  4-C , 15-H ) :   0.9082 B(  5-C ,  6-O ) :   2.1702
B(  5-C , 16-H ) :   0.9282

FINAL SINGLE POINT ENERGY      -346.283290141757

DIPOLE MOMENT
-------------
                                X             Y             Z
Electronic contribution:     11.86365       2.26360       2.55884
Nuclear contribution   :    -12.95063      -2.36165      -2.71809
                        -----------------------------------------
Total Dipole Moment    :     -1.08699      -0.09805      -0.15925
                        -----------------------------------------
Magnitude (a.u.)       :      1.10296
Magnitude (Debye)      :      2.80349

                             ****ORCA TERMINATED NORMALLY****
TOTAL RUN TIME: 0 days 0 hours 0 minutes 6 seconds 880 msec
