                         Program Version 3.0.3 - RELEASE   -
|  1> ! RI PBE def2-SVP def2-SVP/J NBO PAL2
|  2> % maxcore 2000
|  3> % output
|  4>     # printlevel mini
|  5>     print[ P_Basis ] 0
|  6>     print[ P_SCFInfo ] 1
|  7>     print[ P_SCFIterInfo ] 1
|  8>     print[ P_OrbEn ] 0
|  9>     print[ P_Cartesian ] 0
| 10> end
| 11> *xyz 0 1
| 12>  C        0.4103380000     1.3894710000    -1.6536420000
| 13>  C        1.1129270000     0.2594750000    -0.9204680000
| 14>  C        2.3509690000     0.7361120000    -0.1987260000
| 15>  O        2.9592250000    -0.3647300000     0.4483020000
| 16>  C        4.1450640000    -0.0459320000     1.1018450000
| 17>  O        3.9742050000     0.7546050000     2.2286800000
| 18>  C        3.3194090000     0.0947140000     3.2868730000
| 19>  H       -0.4816840000     1.0296850000    -2.1699060000
| 20>  H        1.0640550000     1.8453490000    -2.4023740000
| 21>  H        0.0977220000     2.1785170000    -0.9641150000
| 22>  H        1.3972110000    -0.5310650000    -1.6216370000
| 23>  H        0.4367710000    -0.1980490000    -0.1917420000
| 24>  H        2.0946790000     1.5131660000     0.5325710000
| 25>  H        3.0627090000     1.1808430000    -0.9119020000
| 26>  H        4.8156610000     0.5188080000     0.4417940000
| 27>  H        4.5984990000    -1.0078140000     1.3741690000
| 28>  H        3.2724260000     0.7932500000     4.1219690000
| 29>  H        3.8777680000    -0.7980670000     3.5988800000
| 30>  H        2.3041370000    -0.2072400000     3.0107090000
| 31> *
| 32>
| 33>                          ****END OF INPUT****
 Total Charge           Charge          ....    0
 Multiplicity           Mult            ....    1
 Number of Electrons    NEL             ....   58
 Basis Dimension        Dim             ....  158

MULLIKEN ATOMIC CHARGES
-----------------------
   0 C :   -0.039548
   1 C :   -0.043962
   2 C :    0.159410
   3 O :   -0.341204
   4 C :    0.323200
   5 O :   -0.345590
   6 C :    0.137648
   7 H :    0.024854
   8 H :    0.023371
   9 H :    0.022240
  10 H :    0.021759
  11 H :    0.022641
  12 H :    0.004594
  13 H :   -0.009980
  14 H :   -0.007699
  15 H :   -0.008532
  16 H :    0.035278
  17 H :    0.003660
  18 H :    0.017859
Sum of atomic charges:    0.0000000

LOEWDIN ATOMIC CHARGES
----------------------
   0 C :   -0.065415
   1 C :   -0.056353
   2 C :    0.060101
   3 O :   -0.141712
   4 C :    0.116424
   5 O :   -0.146327
   6 C :    0.047863
   7 H :    0.029383
   8 H :    0.025410
   9 H :    0.025616
  10 H :    0.027029
  11 H :    0.027421
  12 H :    0.006092
  13 H :    0.005122
  14 H :    0.000594
  15 H :   -0.000302
  16 H :    0.023496
  17 H :    0.007473
  18 H :    0.008083

  Mayer bond orders larger than 0.1
B(  0-C ,  1-C ) :   1.1029 B(  0-C ,  7-H ) :   0.9617 B(  0-C ,  8-H ) :   0.9673
B(  0-C ,  9-H ) :   0.9673 B(  1-C ,  2-C ) :   1.0843 B(  1-C , 10-H ) :   0.9349
B(  1-C , 11-H ) :   0.9377 B(  2-C ,  3-O ) :   0.9931 B(  2-C , 12-H ) :   0.9344
B(  2-C , 13-H ) :   0.9295 B(  3-O ,  4-C ) :   1.0615 B(  4-C ,  5-O ) :   1.0648
B(  4-C , 14-H ) :   0.9311 B(  4-C , 15-H ) :   0.9320 B(  5-O ,  6-C ) :   1.0002
B(  6-C , 16-H ) :   0.9777 B(  6-C , 17-H ) :   0.9561 B(  6-C , 18-H ) :   0.9594

FINAL SINGLE POINT ENERGY      -347.482457191550

DIPOLE MOMENT
-------------
                                X             Y             Z
Electronic contribution:      4.55322      -1.41220       2.71343
Nuclear contribution   :     -4.68034       1.39813      -2.71159
                        -----------------------------------------
Total Dipole Moment    :     -0.12712      -0.01407       0.00185
                        -----------------------------------------
Magnitude (a.u.)       :      0.12791
Magnitude (Debye)      :      0.32511

                             ****ORCA TERMINATED NORMALLY****
TOTAL RUN TIME: 0 days 0 hours 0 minutes 7 seconds 427 msec
