                         Program Version 3.0.3 - RELEASE   -
|  1> ! RI PBE def2-SVP def2-SVP/J NBO PAL2
|  2> % maxcore 2000
|  3> % output
|  4>     # printlevel mini
|  5>     print[ P_Basis ] 0
|  6>     print[ P_SCFInfo ] 1
|  7>     print[ P_SCFIterInfo ] 1
|  8>     print[ P_OrbEn ] 0
|  9>     print[ P_Cartesian ] 0
| 10> end
| 11> *xyz 0 1
| 12>  C        0.5885080000    -0.5861520000    -1.6140630000
| 13>  C        1.6988760000    -0.0360680000    -0.7444960000
| 14>  C        2.4771830000    -1.1018780000    -0.0197370000
| 15>  O        2.2250130000    -2.2775970000    -0.1117410000
| 16>  C        3.6819530000    -0.6561210000     0.8011780000
| 17>  O        3.6507800000     0.6715240000     1.2430870000
| 18>  C        2.9014460000     0.8404420000     2.4193340000
| 19>  H        0.0555160000     0.2231000000    -2.1164290000
| 20>  H       -0.1284690000    -1.1546410000    -1.0198040000
| 21>  H        0.9836690000    -1.2626210000    -2.3733990000
| 22>  H        1.3161990000     0.6683910000     0.0025320000
| 23>  H        2.4192820000     0.5556210000    -1.3226550000
| 24>  H        4.5539610000    -0.7559110000     0.1441090000
| 25>  H        3.8116610000    -1.3663320000     1.6277050000
| 26>  H        3.3220340000     0.2522280000     3.2452950000
| 27>  H        1.8507400000     0.5473200000     2.2892290000
| 28>  H        2.9401490000     1.8979040000     2.6804450000
| 29> *
| 30>
| 31>                          ****END OF INPUT****
 Total Charge           Charge          ....    0
 Multiplicity           Mult            ....    1
 Number of Electrons    NEL             ....   56
 Basis Dimension        Dim             ....  148

MULLIKEN ATOMIC CHARGES
-----------------------
   0 C :    0.012398
   1 C :   -0.034641
   2 C :   -0.109446
   3 O :   -0.163629
   4 C :    0.226019
   5 O :   -0.337419
   6 C :    0.137252
   7 H :    0.015780
   8 H :    0.028307
   9 H :    0.030186
  10 H :    0.035061
  11 H :    0.040988
  12 H :    0.043434
  13 H :    0.009900
  14 H :    0.011550
  15 H :    0.014936
  16 H :    0.039323
Sum of atomic charges:   -0.0000000

LOEWDIN ATOMIC CHARGES
----------------------
   0 C :   -0.061636
   1 C :   -0.080264
   2 C :    0.039691
   3 O :   -0.118907
   4 C :    0.028508
   5 O :   -0.144211
   6 C :    0.050929
   7 H :    0.027551
   8 H :    0.031453
   9 H :    0.031424
  10 H :    0.044792
  11 H :    0.047943
  12 H :    0.043689
  13 H :    0.019210
  14 H :    0.009894
  15 H :    0.003703
  16 H :    0.026230

  Mayer bond orders larger than 0.1
B(  0-C ,  1-C ) :   1.1185 B(  0-C ,  7-H ) :   0.9579 B(  0-C ,  8-H ) :   0.9628
B(  0-C ,  9-H ) :   0.9652 B(  1-C ,  2-C ) :   0.9658 B(  1-C , 10-H ) :   0.9003
B(  1-C , 11-H ) :   0.9110 B(  2-C ,  3-O ) :   2.1731 B(  2-C ,  4-C ) :   0.9571
B(  4-C ,  5-O ) :   1.0627 B(  4-C , 12-H ) :   0.9136 B(  4-C , 13-H ) :   0.9156
B(  5-O ,  6-C ) :   1.0078 B(  6-C , 14-H ) :   0.9554 B(  6-C , 15-H ) :   0.9502
B(  6-C , 16-H ) :   0.9778

FINAL SINGLE POINT ENERGY      -346.292102374964

DIPOLE MOMENT
-------------
                                X             Y             Z
Electronic contribution:      3.25967      -3.02964       0.21834
Nuclear contribution   :     -3.27887       3.71441       0.08527
                        -----------------------------------------
Total Dipole Moment    :     -0.01920       0.68477       0.30361
                        -----------------------------------------
Magnitude (a.u.)       :      0.74930
Magnitude (Debye)      :      1.90457

                             ****ORCA TERMINATED NORMALLY****
TOTAL RUN TIME: 0 days 0 hours 0 minutes 7 seconds 184 msec
