                         Program Version 3.0.3 - RELEASE   -
|  1> ! RI PBE def2-SVP def2-SVP/J NBO PAL2
|  2> % maxcore 2000
|  3> % output
|  4>     # printlevel mini
|  5>     print[ P_Basis ] 0
|  6>     print[ P_SCFInfo ] 1
|  7>     print[ P_SCFIterInfo ] 1
|  8>     print[ P_OrbEn ] 0
|  9>     print[ P_Cartesian ] 0
| 10> end
| 11> *xyz 0 1
| 12>  C        1.4155360000    -1.5386200000    -0.7210170000
| 13>  C        2.4501620000    -0.6565670000    -0.0454920000
| 14>  C        2.7597440000     0.6032110000    -0.8449330000
| 15>  O        1.6058720000     1.3949950000    -1.0501130000
| 16>  C        3.8522800000     1.4439520000    -0.2133860000
| 17>  O        3.3678190000     1.9413230000     1.0109550000
| 18>  C        4.2522220000     2.8381870000     1.6240260000
| 19>  H        1.1814980000    -2.4138900000    -0.1110620000
| 20>  H        1.7739520000    -1.8951840000    -1.6912050000
| 21>  H        0.4910450000    -0.9849730000    -0.8933240000
| 22>  H        3.3829010000    -1.2135150000     0.1007820000
| 23>  H        2.1068020000    -0.3602930000     0.9510340000
| 24>  H        3.1026090000     0.3132240000    -1.8452840000
| 25>  H        1.4431500000     1.8537500000    -0.2183370000
| 26>  H        4.1035300000     2.2790730000    -0.8835570000
| 27>  H        4.7611730000     0.8438430000    -0.0554230000
| 28>  H        3.7907540000     3.1756280000     2.5524370000
| 29>  H        4.4478050000     3.7096550000     0.9844090000
| 30>  H        5.2118350000     2.3577110000     1.8581910000
| 31> *
| 32>
| 33>                          ****END OF INPUT****
 Total Charge           Charge          ....    0
 Multiplicity           Mult            ....    1
 Number of Electrons    NEL             ....   58
 Basis Dimension        Dim             ....  158

MULLIKEN ATOMIC CHARGES
-----------------------
   0 C :    0.015920
   1 C :   -0.027185
   2 C :    0.093748
   3 O :   -0.283763
   4 C :    0.182287
   5 O :   -0.365297
   6 C :    0.155567
   7 H :    0.016837
   8 H :    0.005352
   9 H :    0.020275
  10 H :   -0.002103
  11 H :    0.004784
  12 H :   -0.007851
  13 H :    0.151933
  14 H :    0.001145
  15 H :   -0.008278
  16 H :    0.031438
  17 H :    0.009602
  18 H :    0.005589
Sum of atomic charges:   -0.0000000

LOEWDIN ATOMIC CHARGES
----------------------
   0 C :   -0.066206
   1 C :   -0.059744
   2 C :    0.034249
   3 O :   -0.111122
   4 C :    0.048045
   5 O :   -0.150147
   6 C :    0.053073
   7 H :    0.024916
   8 H :    0.022643
   9 H :    0.025224
  10 H :    0.023131
  11 H :    0.022447
  12 H :    0.022530
  13 H :    0.059822
  14 H :    0.006925
  15 H :    0.006431
  16 H :    0.023437
  17 H :    0.007246
  18 H :    0.007101

  Mayer bond orders larger than 0.1
B(  0-C ,  1-C ) :   1.1257 B(  0-C ,  7-H ) :   0.9622 B(  0-C ,  8-H ) :   0.9602
B(  0-C ,  9-H ) :   0.9563 B(  1-C ,  2-C ) :   1.0443 B(  1-C , 10-H ) :   0.9251
B(  1-C , 11-H ) :   0.9219 B(  2-C ,  3-O ) :   1.0381 B(  2-C ,  4-C ) :   1.0552
B(  2-C , 12-H ) :   0.8969 B(  3-O , 13-H ) :   0.9730 B(  4-C ,  5-O ) :   0.9969
B(  4-C , 14-H ) :   0.9204 B(  4-C , 15-H ) :   0.9153 B(  5-O ,  6-C ) :   1.0150
B(  6-C , 16-H ) :   0.9754 B(  6-C , 17-H ) :   0.9572 B(  6-C , 18-H ) :   0.9568

FINAL SINGLE POINT ENERGY      -347.487329417100

DIPOLE MOMENT
-------------
                                X             Y             Z
Electronic contribution:     -1.24763       3.09296      -0.50596
Nuclear contribution   :      1.94774      -2.88392       0.94930
                        -----------------------------------------
Total Dipole Moment    :      0.70010       0.20904       0.44334
                        -----------------------------------------
Magnitude (a.u.)       :      0.85463
Magnitude (Debye)      :      2.17229

                             ****ORCA TERMINATED NORMALLY****
TOTAL RUN TIME: 0 days 0 hours 0 minutes 8 seconds 130 msec
