                         Program Version 3.0.3 - RELEASE   -
|  1> ! RI PBE def2-SVP def2-SVP/J NBO PAL2
|  2> % maxcore 2000
|  3> % output
|  4>     # printlevel mini
|  5>     print[ P_Basis ] 0
|  6>     print[ P_SCFInfo ] 1
|  7>     print[ P_SCFIterInfo ] 1
|  8>     print[ P_OrbEn ] 0
|  9>     print[ P_Cartesian ] 0
| 10> end
| 11> *xyz 0 1
| 12>  C        2.3950430000    -1.2182630000    -1.8786580000
| 13>  C        3.0193120000     0.1023780000    -1.4627340000
| 14>  C        4.0533800000    -0.0666440000    -0.3667610000
| 15>  O        5.1381660000    -0.7611370000    -0.9103000000
| 16>  C        6.0554200000    -1.2231980000     0.0523520000
| 17>  O        4.4466430000     1.1361910000     0.2407140000
| 18>  C        4.9933000000     2.1062020000    -0.6240930000
| 19>  H        1.6428690000    -1.0688200000    -2.6559440000
| 20>  H        1.9034110000    -1.7067970000    -1.0324770000
| 21>  H        3.1529660000    -1.9007130000    -2.2663220000
| 22>  H        2.2535930000     0.7886760000    -1.0895230000
| 23>  H        3.4933350000     0.5781250000    -2.3259660000
| 24>  H        3.6270530000    -0.6443890000     0.4673060000
| 25>  H        6.8342340000    -1.7678060000    -0.4813850000
| 26>  H        5.5697560000    -1.9020770000     0.7655770000
| 27>  H        6.5081270000    -0.3975480000     0.6101000000
| 28>  H        5.4497120000     2.8672490000     0.0092080000
| 29>  H        4.2246720000     2.5838840000    -1.2422710000
| 30>  H        5.7609170000     1.6795870000    -1.2775340000
| 31> *
| 32>
| 33>                          ****END OF INPUT****
 Total Charge           Charge          ....    0
 Multiplicity           Mult            ....    1
 Number of Electrons    NEL             ....   58
 Basis Dimension        Dim             ....  158

MULLIKEN ATOMIC CHARGES
-----------------------
   0 C :   -0.026520
   1 C :   -0.027370
   2 C :    0.229985
   3 O :   -0.332282
   4 C :    0.151224
   5 O :   -0.337436
   6 C :    0.143499
   7 H :    0.025063
   8 H :    0.014139
   9 H :    0.032218
  10 H :    0.020467
  11 H :    0.019029
  12 H :   -0.025090
  13 H :    0.030690
  14 H :    0.006689
  15 H :    0.016625
  16 H :    0.027751
  17 H :    0.013335
  18 H :    0.017982
Sum of atomic charges:   -0.0000000

LOEWDIN ATOMIC CHARGES
----------------------
   0 C :   -0.065728
   1 C :   -0.063714
   2 C :    0.098028
   3 O :   -0.138439
   4 C :    0.050209
   5 O :   -0.146142
   6 C :    0.048115
   7 H :    0.027951
   8 H :    0.024324
   9 H :    0.028509
  10 H :    0.031167
  11 H :    0.028493
  12 H :    0.001469
  13 H :    0.022507
  14 H :    0.008497
  15 H :    0.008372
  16 H :    0.022605
  17 H :    0.006589
  18 H :    0.007189

  Mayer bond orders larger than 0.1
B(  0-C ,  1-C ) :   1.1198 B(  0-C ,  7-H ) :   0.9608 B(  0-C ,  8-H ) :   0.9614
B(  0-C ,  9-H ) :   0.9625 B(  1-C ,  2-C ) :   1.0390 B(  1-C , 10-H ) :   0.9258
B(  1-C , 11-H ) :   0.9213 B(  2-C ,  3-O ) :   1.0491 B(  2-C ,  5-O ) :   1.0661
B(  2-C , 12-H ) :   0.9037 B(  3-O ,  4-C ) :   0.9914 B(  4-C , 13-H ) :   0.9772
B(  4-C , 14-H ) :   0.9582 B(  4-C , 15-H ) :   0.9611 B(  5-O ,  6-C ) :   0.9910
B(  6-C , 16-H ) :   0.9759 B(  6-C , 17-H ) :   0.9597 B(  6-C , 18-H ) :   0.9549

FINAL SINGLE POINT ENERGY      -347.482983947269

DIPOLE MOMENT
-------------
                                X             Y             Z
Electronic contribution:      1.47657       0.99894       1.92738
Nuclear contribution   :     -1.39034      -0.99315      -1.99718
                        -----------------------------------------
Total Dipole Moment    :      0.08624       0.00579      -0.06980
                        -----------------------------------------
Magnitude (a.u.)       :      0.11110
Magnitude (Debye)      :      0.28238

                             ****ORCA TERMINATED NORMALLY****
TOTAL RUN TIME: 0 days 0 hours 0 minutes 8 seconds 274 msec
