                         Program Version 3.0.3 - RELEASE   -
|  1> ! RI PBE def2-SVP def2-SVP/J NBO PAL2
|  2> % maxcore 2000
|  3> % output
|  4>     # printlevel mini
|  5>     print[ P_Basis ] 0
|  6>     print[ P_SCFInfo ] 1
|  7>     print[ P_SCFIterInfo ] 1
|  8>     print[ P_OrbEn ] 0
|  9>     print[ P_Cartesian ] 0
| 10> end
| 11> *xyz 0 1
| 12>  C        0.7873360000    -0.2637310000     0.2234270000
| 13>  C        2.2980650000    -0.3279560000     0.1888970000
| 14>  C        2.8007670000    -1.7383320000     0.4372370000
| 15>  O        4.1963270000    -1.8407770000     0.5684370000
| 16>  O        2.6980360000     0.1068840000    -1.1158410000
| 17>  C        3.8239880000     0.8266990000    -1.2760070000
| 18>  C        4.7683060000     1.1426990000    -0.3924540000
| 19>  H        0.4139710000    -0.5610280000     1.2053710000
| 20>  H        0.3574160000    -0.9299560000    -0.5280740000
| 21>  H        0.4450730000     0.7507910000     0.0163480000
| 22>  H        2.7213930000     0.3513110000     0.9361040000
| 23>  H        2.4246680000    -2.3835530000    -0.3703210000
| 24>  H        2.3766630000    -2.1017910000     1.3771190000
| 25>  H        4.6069310000    -1.4637040000    -0.2161320000
| 26>  H        3.8938040000     1.1614220000    -2.3066450000
| 27>  H        4.7670190000     0.8224590000     0.6400470000
| 28>  H        5.5928170000     1.7556640000    -0.7294130000
| 29> *
| 30>
| 31>                          ****END OF INPUT****
 Total Charge           Charge          ....    0
 Multiplicity           Mult            ....    1
 Number of Electrons    NEL             ....   56
 Basis Dimension        Dim             ....  148

MULLIKEN ATOMIC CHARGES
-----------------------
   0 C :    0.024647
   1 C :    0.006260
   2 C :    0.198755
   3 O :   -0.278957
   4 O :   -0.265668
   5 C :    0.080352
   6 C :   -0.129259
   7 H :    0.023266
   8 H :    0.028590
   9 H :    0.028978
  10 H :    0.022925
  11 H :    0.002511
  12 H :    0.009299
  13 H :    0.161969
  14 H :    0.017251
  15 H :    0.039577
  16 H :    0.029504
Sum of atomic charges:    0.0000000

LOEWDIN ATOMIC CHARGES
----------------------
   0 C :   -0.059965
   1 C :    0.038602
   2 C :    0.046189
   3 O :   -0.113341
   4 O :   -0.070878
   5 C :    0.025623
   6 C :   -0.163483
   7 H :    0.033318
   8 H :    0.031250
   9 H :    0.033218
  10 H :    0.019796
  11 H :    0.008796
  12 H :    0.024618
  13 H :    0.066406
  14 H :    0.024822
  15 H :    0.022004
  16 H :    0.033024

  Mayer bond orders larger than 0.1
B(  0-C ,  1-C ) :   1.0763 B(  0-C ,  7-H ) :   0.9553 B(  0-C ,  8-H ) :   0.9567
B(  0-C ,  9-H ) :   0.9553 B(  1-C ,  2-C ) :   1.0365 B(  1-C ,  4-O ) :   0.9158
B(  1-C , 10-H ) :   0.9047 B(  2-C ,  3-O ) :   1.0957 B(  2-C , 11-H ) :   0.9212
B(  2-C , 12-H ) :   0.9342 B(  3-O , 13-H ) :   0.9684 B(  4-O ,  5-C ) :   1.1592
B(  4-O ,  6-C ) :   0.1097 B(  5-C ,  6-C ) :   1.8477 B(  5-C , 14-H ) :   0.9649
B(  6-C , 15-H ) :   0.9459 B(  6-C , 16-H ) :   0.9354

FINAL SINGLE POINT ENERGY      -346.272509607164

DIPOLE MOMENT
-------------
                                X             Y             Z
Electronic contribution:      2.35067      -0.55479      -1.84059
Nuclear contribution   :     -2.75698       0.73333       1.72591
                        -----------------------------------------
Total Dipole Moment    :     -0.40632       0.17854      -0.11468
                        -----------------------------------------
Magnitude (a.u.)       :      0.45839
Magnitude (Debye)      :      1.16513

                             ****ORCA TERMINATED NORMALLY****
TOTAL RUN TIME: 0 days 0 hours 0 minutes 7 seconds 532 msec
