                         Program Version 3.0.3 - RELEASE   -
|  1> ! RI PBE def2-SVP def2-SVP/J NBO PAL2
|  2> % maxcore 2000
|  3> % output
|  4>     # printlevel mini
|  5>     print[ P_Basis ] 0
|  6>     print[ P_SCFInfo ] 1
|  7>     print[ P_SCFIterInfo ] 1
|  8>     print[ P_OrbEn ] 0
|  9>     print[ P_Cartesian ] 0
| 10> end
| 11> *xyz 0 1
| 12>  C        1.1211630000     0.7638070000    -1.0310610000
| 13>  C        2.4837750000     1.1010120000    -0.4635240000
| 14>  C        3.3155930000    -0.1133760000    -0.1720250000
| 15>  O        2.9906410000    -1.2518640000    -0.3484350000
| 16>  O        4.5224120000     0.2562780000     0.3336650000
| 17>  C        5.4147910000    -0.7329610000     0.6587840000
| 18>  C        6.5994620000    -0.4255930000     1.1558190000
| 19>  H        0.5544860000     1.6756810000    -1.2265070000
| 20>  H        0.5493730000     0.1454000000    -0.3378810000
| 21>  H        1.2115530000     0.2081300000    -1.9653630000
| 22>  H        2.4056530000     1.6727760000     0.4669750000
| 23>  H        3.0612980000     1.7354780000    -1.1437690000
| 24>  H        5.0603730000    -1.7389100000     0.4731990000
| 25>  H        6.9003320000     0.6013490000     1.3205010000
| 26>  H        7.2914960000    -1.2170980000     1.4068230000
| 27> *
| 28>
| 29>                          ****END OF INPUT****
 Total Charge           Charge          ....    0
 Multiplicity           Mult            ....    1
 Number of Electrons    NEL             ....   54
 Basis Dimension        Dim             ....  138

MULLIKEN ATOMIC CHARGES
-----------------------
   0 C :   -0.015521
   1 C :   -0.045909
   2 C :    0.107402
   3 O :   -0.173481
   4 O :   -0.214537
   5 C :    0.100748
   6 C :   -0.054328
   7 H :    0.022206
   8 H :    0.039886
   9 H :    0.037005
  10 H :    0.047709
  11 H :    0.048663
  12 H :    0.027661
  13 H :    0.032483
  14 H :    0.040014
Sum of atomic charges:    0.0000000

LOEWDIN ATOMIC CHARGES
----------------------
   0 C :   -0.061795
   1 C :   -0.073607
   2 C :    0.059334
   3 O :   -0.131723
   4 O :   -0.031763
   5 C :    0.046322
   6 C :   -0.090501
   7 H :    0.030346
   8 H :    0.033788
   9 H :    0.033536
  10 H :    0.048926
  11 H :    0.048838
  12 H :    0.020465
  13 H :    0.031059
  14 H :    0.036774

  Mayer bond orders larger than 0.1
B(  0-C ,  1-C ) :   1.1227 B(  0-C ,  7-H ) :   0.9550 B(  0-C ,  8-H ) :   0.9661
B(  0-C ,  9-H ) :   0.9650 B(  1-C ,  2-C ) :   0.9984 B(  1-C , 10-H ) :   0.9116
B(  1-C , 11-H ) :   0.9137 B(  2-C ,  3-O ) :   2.1023 B(  2-C ,  4-O ) :   1.1100
B(  4-O ,  5-C ) :   1.0274 B(  5-C ,  6-C ) :   1.9465 B(  5-C , 12-H ) :   0.9514
B(  6-C , 13-H ) :   0.9457 B(  6-C , 14-H ) :   0.9401

FINAL SINGLE POINT ENERGY      -345.113454025279

DIPOLE MOMENT
-------------
                                X             Y             Z
Electronic contribution:      2.81412      -2.72704       1.03773
Nuclear contribution   :     -2.73970       3.30646      -0.98372
                        -----------------------------------------
Total Dipole Moment    :      0.07442       0.57942       0.05400
                        -----------------------------------------
Magnitude (a.u.)       :      0.58667
Magnitude (Debye)      :      1.49120

                             ****ORCA TERMINATED NORMALLY****
TOTAL RUN TIME: 0 days 0 hours 0 minutes 6 seconds 287 msec
