                         Program Version 3.0.3 - RELEASE   -
|  1> ! RI PBE def2-SVP def2-SVP/J NBO PAL2
|  2> % maxcore 2000
|  3> % output
|  4>     # printlevel mini
|  5>     print[ P_Basis ] 0
|  6>     print[ P_SCFInfo ] 1
|  7>     print[ P_SCFIterInfo ] 1
|  8>     print[ P_OrbEn ] 0
|  9>     print[ P_Cartesian ] 0
| 10> end
| 11> *xyz 0 1
| 12>  C        1.0132100000     1.3721490000    -0.1386350000
| 13>  C        2.5098260000     1.5497900000    -0.1673770000
| 14>  O        3.0694210000     0.5406690000    -0.9803190000
| 15>  C        4.4509260000     0.6125670000    -1.0511700000
| 16>  C        5.0844120000     0.0563980000    -2.2748320000
| 17>  C        5.1014430000     1.5437120000    -2.0288760000
| 18>  C        6.3839900000     2.2471510000    -1.6907510000
| 19>  H        0.5515850000     2.1397640000     0.4863450000
| 20>  H        0.7496580000     0.3927530000     0.2652250000
| 21>  H        0.5973080000     1.4500600000    -1.1450890000
| 22>  H        2.9266180000     1.4823680000     0.8489000000
| 23>  H        2.7782940000     2.5395700000    -0.5635700000
| 24>  H        4.9588180000     0.4605620000    -0.0972880000
| 25>  H        4.4113600000    -0.3194200000    -3.0351260000
| 26>  H        6.0115360000    -0.4946780000    -2.1680630000
| 27>  H        4.4004250000     2.1065010000    -2.6380180000
| 28>  H        7.0047860000     1.6305770000    -1.0349630000
| 29>  H        6.1981920000     3.1945290000    -1.1770590000
| 30>  H        6.9704930000     2.4614580000    -2.5886460000
| 31> *
| 32>
| 33>                          ****END OF INPUT****
 Total Charge           Charge          ....    0
 Multiplicity           Mult            ....    1
 Number of Electrons    NEL             ....   56
 Basis Dimension        Dim             ....  158

MULLIKEN ATOMIC CHARGES
-----------------------
   0 C :   -0.016284
   1 C :    0.149973
   2 O :   -0.306965
   3 C :    0.078348
   4 C :    0.010330
   5 C :   -0.193782
   6 C :    0.073339
   7 H :    0.020226
   8 H :    0.029550
   9 H :    0.027699
  10 H :   -0.006901
  11 H :   -0.006331
  12 H :   -0.001922
  13 H :    0.036235
  14 H :    0.025158
  15 H :    0.027096
  16 H :    0.008053
  17 H :    0.022700
  18 H :    0.023479
Sum of atomic charges:   -0.0000000

LOEWDIN ATOMIC CHARGES
----------------------
   0 C :   -0.073738
   1 C :    0.061494
   2 O :   -0.127575
   3 C :    0.035530
   4 C :   -0.049909
   5 C :   -0.064276
   6 C :   -0.057900
   7 H :    0.031973
   8 H :    0.029928
   9 H :    0.029304
  10 H :    0.004114
  11 H :    0.003390
  12 H :    0.004971
  13 H :    0.032845
  14 H :    0.026669
  15 H :    0.028771
  16 H :    0.026332
  17 H :    0.028817
  18 H :    0.029260

  Mayer bond orders larger than 0.1
B(  0-C ,  1-C ) :   1.1152 B(  0-C ,  7-H ) :   0.9545 B(  0-C ,  8-H ) :   0.9647
B(  0-C ,  9-H ) :   0.9634 B(  1-C ,  2-O ) :   0.9909 B(  1-C , 10-H ) :   0.9319
B(  1-C , 11-H ) :   0.9308 B(  2-O ,  3-C ) :   1.0880 B(  3-C ,  4-C ) :   0.9953
B(  3-C ,  5-C ) :   0.9519 B(  3-C , 12-H ) :   0.9320 B(  4-C ,  5-C ) :   0.9957
B(  4-C , 13-H ) :   0.9361 B(  4-C , 14-H ) :   0.9358 B(  5-C ,  6-C ) :   1.0971
B(  5-C , 15-H ) :   0.9328 B(  6-C , 16-H ) :   0.9502 B(  6-C , 17-H ) :   0.9591
B(  6-C , 18-H ) :   0.9536

FINAL SINGLE POINT ENERGY      -310.406339368371

DIPOLE MOMENT
-------------
                                X             Y             Z
Electronic contribution:     -0.40851      -2.74558      -0.89845
Nuclear contribution   :      0.56312       3.11238       1.09318
                        -----------------------------------------
Total Dipole Moment    :      0.15461       0.36680       0.19473
                        -----------------------------------------
Magnitude (a.u.)       :      0.44313
Magnitude (Debye)      :      1.12634

                             ****ORCA TERMINATED NORMALLY****
TOTAL RUN TIME: 0 days 0 hours 0 minutes 7 seconds 844 msec
