                         Program Version 3.0.3 - RELEASE   -
|  1> ! RI PBE def2-SVP def2-SVP/J NBO PAL2
|  2> % maxcore 2000
|  3> % output
|  4>     # printlevel mini
|  5>     print[ P_Basis ] 0
|  6>     print[ P_SCFInfo ] 1
|  7>     print[ P_SCFIterInfo ] 1
|  8>     print[ P_OrbEn ] 0
|  9>     print[ P_Cartesian ] 0
| 10> end
| 11> *xyz 0 1
| 12>  C        1.2516100000    -0.4171700000     0.4413240000
| 13>  C        2.6344920000     0.0512800000     0.0271790000
| 14>  O        2.6267370000     0.5545220000    -1.2968860000
| 15>  C        3.2106800000     1.0397980000     1.0189450000
| 16>  C        4.3261410000     1.9584320000     0.6311440000
| 17>  C        2.9609350000     2.5130050000     0.9148880000
| 18>  C        2.7076830000     3.3346740000     2.1468360000
| 19>  H        0.8657510000    -1.1486310000    -0.2713950000
| 20>  H        0.5573490000     0.4290370000     0.4834230000
| 21>  H        1.2723710000    -0.8762130000     1.4325850000
| 22>  H        3.3051950000    -0.8143310000    -0.0161660000
| 23>  H        1.8991620000     1.1782890000    -1.3732850000
| 24>  H        3.2479790000     0.6503410000     2.0332790000
| 25>  H        4.6463340000     1.9282910000    -0.4030050000
| 26>  H        5.1106160000     2.1470960000     1.3550570000
| 27>  H        2.4172810000     2.8421690000     0.0329960000
| 28>  H        3.2946510000     2.9604720000     2.9899330000
| 29>  H        1.6540820000     3.3072810000     2.4394150000
| 30>  H        2.9842390000     4.3812600000     1.9909330000
| 31> *
| 32>
| 33>                          ****END OF INPUT****
 Total Charge           Charge          ....    0
 Multiplicity           Mult            ....    1
 Number of Electrons    NEL             ....   56
 Basis Dimension        Dim             ....  158

MULLIKEN ATOMIC CHARGES
-----------------------
   0 C :   -0.003748
   1 C :    0.149559
   2 O :   -0.273507
   3 C :   -0.115805
   4 C :    0.045100
   5 C :   -0.184572
   6 C :    0.073231
   7 H :    0.031019
   8 H :    0.011462
   9 H :    0.016019
  10 H :    0.005383
  11 H :    0.149844
  12 H :    0.007259
  13 H :    0.023300
  14 H :    0.018197
  15 H :   -0.003112
  16 H :    0.004891
  17 H :    0.021663
  18 H :    0.023816
Sum of atomic charges:   -0.0000000

LOEWDIN ATOMIC CHARGES
----------------------
   0 C :   -0.079103
   1 C :    0.049964
   2 O :   -0.103720
   3 C :   -0.060436
   4 C :   -0.041997
   5 C :   -0.049160
   6 C :   -0.056369
   7 H :    0.028466
   8 H :    0.023568
   9 H :    0.031229
  10 H :    0.024647
  11 H :    0.061253
  12 H :    0.025212
  13 H :    0.026377
  14 H :    0.022911
  15 H :    0.014424
  16 H :    0.026466
  17 H :    0.027336
  18 H :    0.028932

  Mayer bond orders larger than 0.1
B(  0-C ,  1-C ) :   1.1048 B(  0-C ,  7-H ) :   0.9558 B(  0-C ,  8-H ) :   0.9510
B(  0-C ,  9-H ) :   0.9462 B(  1-C ,  2-O ) :   1.0414 B(  1-C ,  3-C ) :   1.0051
B(  1-C , 10-H ) :   0.9022 B(  2-O , 11-H ) :   0.9822 B(  3-C ,  4-C ) :   0.9961
B(  3-C ,  5-C ) :   0.9464 B(  3-C , 12-H ) :   0.9313 B(  4-C ,  5-C ) :   1.0040
B(  4-C , 13-H ) :   0.9257 B(  4-C , 14-H ) :   0.9387 B(  5-C ,  6-C ) :   1.1020
B(  5-C , 15-H ) :   0.9316 B(  6-C , 16-H ) :   0.9476 B(  6-C , 17-H ) :   0.9614
B(  6-C , 18-H ) :   0.9577

FINAL SINGLE POINT ENERGY      -310.418071992990

DIPOLE MOMENT
-------------
                                X             Y             Z
Electronic contribution:      1.59417      -1.41602      -3.74000
Nuclear contribution   :     -2.01866       1.55436       4.13270
                        -----------------------------------------
Total Dipole Moment    :     -0.42449       0.13834       0.39270
                        -----------------------------------------
Magnitude (a.u.)       :      0.59459
Magnitude (Debye)      :      1.51134

                             ****ORCA TERMINATED NORMALLY****
TOTAL RUN TIME: 0 days 0 hours 0 minutes 8 seconds 371 msec
