                         Program Version 3.0.3 - RELEASE   -
|  1> ! RI PBE def2-SVP def2-SVP/J NBO PAL2
|  2> % maxcore 2000
|  3> % output
|  4>     # printlevel mini
|  5>     print[ P_Basis ] 0
|  6>     print[ P_SCFInfo ] 1
|  7>     print[ P_SCFIterInfo ] 1
|  8>     print[ P_OrbEn ] 0
|  9>     print[ P_Cartesian ] 0
| 10> end
| 11> *xyz 0 1
| 12>  C        1.6347370000    -2.1432920000    -2.2240310000
| 13>  C        2.7104110000    -1.8090730000    -1.2229150000
| 14>  O        3.9351780000    -2.3499050000    -1.6781880000
| 15>  C        4.9849200000    -2.0893080000    -0.8174220000
| 16>  C        6.3569290000    -2.0848900000    -1.4023790000
| 17>  C        5.7275630000    -0.8030660000    -0.9260410000
| 18>  O        6.1551140000    -0.2170900000     0.2605930000
| 19>  H        0.6736480000    -1.7422660000    -1.8949660000
| 20>  H        1.5371360000    -3.2246010000    -2.3381210000
| 21>  H        1.8708150000    -1.7158920000    -3.2005750000
| 22>  H        2.4660180000    -2.2281830000    -0.2358640000
| 23>  H        2.8076210000    -0.7216130000    -1.0991010000
| 24>  H        4.8770830000    -2.4880280000     0.1912640000
| 25>  H        6.4394100000    -2.2335720000    -2.4719020000
| 26>  H        7.1511960000    -2.5123070000    -0.8028310000
| 27>  H        5.3850860000    -0.1168340000    -1.6982270000
| 28>  H        7.0378440000     0.1369200000     0.1220040000
| 29> *
| 30>
| 31>                          ****END OF INPUT****
 Total Charge           Charge          ....    0
 Multiplicity           Mult            ....    1
 Number of Electrons    NEL             ....   56
 Basis Dimension        Dim             ....  148

MULLIKEN ATOMIC CHARGES
-----------------------
   0 C :   -0.016103
   1 C :    0.142940
   2 O :   -0.306721
   3 C :    0.073577
   4 C :   -0.007731
   5 C :    0.014336
   6 O :   -0.236229
   7 H :    0.017497
   8 H :    0.033910
   9 H :    0.027633
  10 H :   -0.006091
  11 H :    0.006667
  12 H :    0.009085
  13 H :    0.038837
  14 H :    0.027044
  15 H :    0.019507
  16 H :    0.161841
Sum of atomic charges:   -0.0000000

LOEWDIN ATOMIC CHARGES
----------------------
   0 C :   -0.074196
   1 C :    0.062164
   2 O :   -0.127312
   3 C :    0.028092
   4 C :   -0.067347
   5 C :    0.011736
   6 O :   -0.100054
   7 H :    0.032122
   8 H :    0.030660
   9 H :    0.029416
  10 H :    0.006131
  11 H :    0.007435
  12 H :    0.011515
  13 H :    0.033946
  14 H :    0.030735
  15 H :    0.010630
  16 H :    0.074328

  Mayer bond orders larger than 0.1
B(  0-C ,  1-C ) :   1.1161 B(  0-C ,  7-H ) :   0.9528 B(  0-C ,  8-H ) :   0.9659
B(  0-C ,  9-H ) :   0.9623 B(  1-C ,  2-O ) :   0.9832 B(  1-C , 10-H ) :   0.9308
B(  1-C , 11-H ) :   0.9347 B(  2-O ,  3-C ) :   1.0899 B(  3-C ,  4-C ) :   0.9946
B(  3-C ,  5-C ) :   0.9363 B(  3-C , 12-H ) :   0.9228 B(  4-C ,  5-C ) :   0.9853
B(  4-C , 13-H ) :   0.9296 B(  4-C , 14-H ) :   0.9263 B(  5-C ,  6-O ) :   1.1333
B(  5-C , 15-H ) :   0.9300 B(  6-O , 16-H ) :   0.9790

FINAL SINGLE POINT ENERGY      -346.259788739976

DIPOLE MOMENT
-------------
                                X             Y             Z
Electronic contribution:      4.66068       0.88187       1.90667
Nuclear contribution   :     -4.40855      -0.61039      -1.98506
                        -----------------------------------------
Total Dipole Moment    :      0.25213       0.27147      -0.07839
                        -----------------------------------------
Magnitude (a.u.)       :      0.37870
Magnitude (Debye)      :      0.96258

                             ****ORCA TERMINATED NORMALLY****
TOTAL RUN TIME: 0 days 0 hours 0 minutes 7 seconds 302 msec
