                         Program Version 3.0.3 - RELEASE   -
|  1> ! RI PBE def2-SVP def2-SVP/J NBO PAL2
|  2> % maxcore 2000
|  3> % output
|  4>     # printlevel mini
|  5>     print[ P_Basis ] 0
|  6>     print[ P_SCFInfo ] 1
|  7>     print[ P_SCFIterInfo ] 1
|  8>     print[ P_OrbEn ] 0
|  9>     print[ P_Cartesian ] 0
| 10> end
| 11> *xyz 0 1
| 12>  C        1.3098330000     0.4999250000    -0.6940210000
| 13>  C        1.8277020000    -0.7725580000    -0.0845380000
| 14>  O        1.2419960000    -1.3459150000     0.8062460000
| 15>  C        3.0950140000    -1.3041040000    -0.6427540000
| 16>  C        3.9716890000    -2.1537160000     0.2552820000
| 17>  C        3.1956600000    -2.7940350000    -0.8278860000
| 18>  O        3.8322970000    -3.2065420000    -1.9911290000
| 19>  H        0.3695420000     0.7861030000    -0.2266870000
| 20>  H        1.1675740000     0.3669210000    -1.7705400000
| 21>  H        2.0463130000     1.2992650000    -0.5687260000
| 22>  H        3.5985170000    -0.7165110000    -1.4004920000
| 23>  H        3.6202180000    -2.2815480000     1.2718410000
| 24>  H        5.0399090000    -2.0487770000     0.1133730000
| 25>  H        2.3089130000    -3.3554130000    -0.5425700000
| 26>  H        4.3250040000    -4.0083970000    -1.7951890000
| 27> *
| 28>
| 29>                          ****END OF INPUT****
 Total Charge           Charge          ....    0
 Multiplicity           Mult            ....    1
 Number of Electrons    NEL             ....   54
 Basis Dimension        Dim             ....  138

MULLIKEN ATOMIC CHARGES
-----------------------
   0 C :    0.018954
   1 C :    0.002405
   2 O :   -0.179020
   3 C :   -0.114843
   4 C :    0.019658
   5 C :    0.063115
   6 O :   -0.232877
   7 H :    0.028661
   8 H :    0.049288
   9 H :    0.046143
  10 H :    0.017486
  11 H :    0.044636
  12 H :    0.038116
  13 H :    0.031990
  14 H :    0.166288
Sum of atomic charges:   -0.0000000

LOEWDIN ATOMIC CHARGES
----------------------
   0 C :   -0.085541
   1 C :    0.057422
   2 O :   -0.141365
   3 C :   -0.081640
   4 C :   -0.038168
   5 C :    0.056732
   6 O :   -0.093579
   7 H :    0.036961
   8 H :    0.047877
   9 H :    0.046599
  10 H :    0.032802
  11 H :    0.034299
  12 H :    0.033291
  13 H :    0.015267
  14 H :    0.079042

  Mayer bond orders larger than 0.1
B(  0-C ,  1-C ) :   1.0520 B(  0-C ,  7-H ) :   0.9416 B(  0-C ,  8-H ) :   0.9401
B(  0-C ,  9-H ) :   0.9409 B(  1-C ,  2-O ) :   2.1522 B(  1-C ,  3-C ) :   0.9601
B(  3-C ,  4-C ) :   0.9529 B(  3-C ,  5-C ) :   0.8867 B(  3-C , 10-H ) :   0.9389
B(  4-C ,  5-C ) :   1.0165 B(  4-C , 11-H ) :   0.9216 B(  4-C , 12-H ) :   0.9320
B(  5-C ,  6-O ) :   1.1519 B(  5-C , 13-H ) :   0.9407 B(  6-O , 14-H ) :   0.9779

FINAL SINGLE POINT ENERGY      -345.088263378523

DIPOLE MOMENT
-------------
                                X             Y             Z
Electronic contribution:     -0.51164      -2.73433       0.66579
Nuclear contribution   :      1.23324       2.72508      -1.03005
                        -----------------------------------------
Total Dipole Moment    :      0.72160      -0.00925      -0.36427
                        -----------------------------------------
Magnitude (a.u.)       :      0.80838
Magnitude (Debye)      :      2.05475

                             ****ORCA TERMINATED NORMALLY****
TOTAL RUN TIME: 0 days 0 hours 0 minutes 6 seconds 707 msec
