                         Program Version 3.0.3 - RELEASE   -
|  1> ! RI PBE def2-SVP def2-SVP/J NBO PAL2
|  2> % maxcore 2000
|  3> % output
|  4>     # printlevel mini
|  5>     print[ P_Basis ] 0
|  6>     print[ P_SCFInfo ] 1
|  7>     print[ P_SCFIterInfo ] 1
|  8>     print[ P_OrbEn ] 0
|  9>     print[ P_Cartesian ] 0
| 10> end
| 11> *xyz 0 1
| 12>  C        2.3111860000     1.3556380000    -0.0279390000
| 13>  C        2.5282800000    -0.1455780000    -0.0126330000
| 14>  O        3.4625700000    -0.5390170000    -1.0038850000
| 15>  C        2.9144950000    -0.6389190000     1.3642490000
| 16>  C        3.5772330000    -1.9722120000     1.5650490000
| 17>  C        4.3281290000    -0.6999490000     1.8155010000
| 18>  O        4.5819360000    -0.2822230000     3.1203520000
| 19>  H        2.0154260000     1.6891000000    -1.0246100000
| 20>  H        3.2293640000     1.8785890000     0.2601190000
| 21>  H        1.5323530000     1.6470320000     0.6803580000
| 22>  H        1.5963880000    -0.6445640000    -0.3010850000
| 23>  H        4.2016460000     0.0750290000    -0.9753480000
| 24>  H        2.2219550000    -0.3511640000     2.1493750000
| 25>  H        3.8412200000    -2.5387700000     0.6802080000
| 26>  H        3.2773930000    -2.5509290000     2.4301280000
| 27>  H        5.1048230000    -0.4449280000     1.0962050000
| 28>  H        5.2751140000    -0.8404430000     3.4831770000
| 29> *
| 30>
| 31>                          ****END OF INPUT****
 Total Charge           Charge          ....    0
 Multiplicity           Mult            ....    1
 Number of Electrons    NEL             ....   56
 Basis Dimension        Dim             ....  148

MULLIKEN ATOMIC CHARGES
-----------------------
   0 C :    0.008822
   1 C :    0.145216
   2 O :   -0.275322
   3 C :   -0.111008
   4 C :    0.011582
   5 C :    0.022778
   6 O :   -0.237108
   7 H :    0.027042
   8 H :    0.012457
   9 H :    0.018973
  10 H :    0.002725
  11 H :    0.150493
  12 H :    0.022453
  13 H :    0.028226
  14 H :    0.024206
  15 H :   -0.011711
  16 H :    0.160174
Sum of atomic charges:   -0.0000000

LOEWDIN ATOMIC CHARGES
----------------------
   0 C :   -0.075055
   1 C :    0.050179
   2 O :   -0.106769
   3 C :   -0.064847
   4 C :   -0.062863
   5 C :    0.029347
   6 O :   -0.100777
   7 H :    0.027904
   8 H :    0.024841
   9 H :    0.032919
  10 H :    0.023922
  11 H :    0.061258
  12 H :    0.033734
  13 H :    0.027607
  14 H :    0.027144
  15 H :   -0.002394
  16 H :    0.073849

  Mayer bond orders larger than 0.1
B(  0-C ,  1-C ) :   1.1045 B(  0-C ,  7-H ) :   0.9554 B(  0-C ,  8-H ) :   0.9520
B(  0-C ,  9-H ) :   0.9485 B(  1-C ,  2-O ) :   1.0425 B(  1-C ,  3-C ) :   0.9979
B(  1-C , 10-H ) :   0.9011 B(  2-O , 11-H ) :   0.9812 B(  3-C ,  4-C ) :   0.9888
B(  3-C ,  5-C ) :   0.9375 B(  3-C , 12-H ) :   0.9270 B(  4-C ,  5-C ) :   0.9971
B(  4-C , 13-H ) :   0.9210 B(  4-C , 14-H ) :   0.9299 B(  5-C ,  6-O ) :   1.1420
B(  5-C , 15-H ) :   0.9330 B(  6-O , 16-H ) :   0.9805

FINAL SINGLE POINT ENERGY      -346.271805794852

DIPOLE MOMENT
-------------
                                X             Y             Z
Electronic contribution:      2.11698      -1.68046       1.28735
Nuclear contribution   :     -1.77314       1.76488      -1.12871
                        -----------------------------------------
Total Dipole Moment    :      0.34384       0.08442       0.15863
                        -----------------------------------------
Magnitude (a.u.)       :      0.38797
Magnitude (Debye)      :      0.98614

                             ****ORCA TERMINATED NORMALLY****
TOTAL RUN TIME: 0 days 0 hours 0 minutes 7 seconds 630 msec
