                         Program Version 3.0.3 - RELEASE   -
|  1> ! RI PBE def2-SVP def2-SVP/J NBO PAL2
|  2> % maxcore 2000
|  3> % output
|  4>     # printlevel mini
|  5>     print[ P_Basis ] 0
|  6>     print[ P_SCFInfo ] 1
|  7>     print[ P_SCFIterInfo ] 1
|  8>     print[ P_OrbEn ] 0
|  9>     print[ P_Cartesian ] 0
| 10> end
| 11> *xyz 0 1
| 12>  C        1.0781340000    -0.1123680000     0.2411510000
| 13>  C        2.5805280000    -0.2338800000     0.2791960000
| 14>  O        3.0976220000     0.7719690000     1.1181600000
| 15>  C        4.4890820000     0.7571370000     1.2008650000
| 16>  C        5.0979300000     1.8200370000     2.1140740000
| 17>  C        6.1531760000     0.7768230000     2.5325380000
| 18>  C        5.1935330000    -0.3268200000     2.0447480000
| 19>  H        0.6505970000    -0.8791390000    -0.4086840000
| 20>  H        0.7820180000     0.8676290000    -0.1380520000
| 21>  H        0.6573140000    -0.2334520000     1.2412240000
| 22>  H        3.0029820000    -0.1276450000    -0.7323590000
| 23>  H        2.8764850000    -1.2261000000     0.6508070000
| 24>  H        4.9302850000     0.8015980000     0.1927630000
| 25>  H        4.4068460000     2.0329770000     2.9325600000
| 26>  H        5.4280880000     2.7583930000     1.6671420000
| 27>  H        6.4564690000     0.7565820000     3.5791930000
| 28>  H        7.0494470000     0.8361150000     1.9119040000
| 29>  H        4.5306900000    -0.6562760000     2.8488090000
| 30>  H        5.6138550000    -1.1979800000     1.5400800000
| 31> *
| 32>
| 33>                          ****END OF INPUT****
 Total Charge           Charge          ....    0
 Multiplicity           Mult            ....    1
 Number of Electrons    NEL             ....   56
 Basis Dimension        Dim             ....  158

MULLIKEN ATOMIC CHARGES
-----------------------
   0 C :   -0.015590
   1 C :    0.143936
   2 O :   -0.310371
   3 C :    0.014512
   4 C :    0.051791
   5 C :   -0.040197
   6 C :    0.018134
   7 H :    0.019250
   8 H :    0.029012
   9 H :    0.028427
  10 H :   -0.007062
  11 H :   -0.006243
  12 H :   -0.011888
  13 H :    0.015332
  14 H :    0.013690
  15 H :    0.014712
  16 H :    0.018452
  17 H :    0.008721
  18 H :    0.015383
Sum of atomic charges:   -0.0000000

LOEWDIN ATOMIC CHARGES
----------------------
   0 C :   -0.073325
   1 C :    0.058593
   2 O :   -0.137131
   3 C :    0.042440
   4 C :   -0.036689
   5 C :   -0.032573
   6 C :   -0.053968
   7 H :    0.031568
   8 H :    0.029663
   9 H :    0.029539
  10 H :    0.003427
  11 H :    0.003710
  12 H :    0.004577
  13 H :    0.029527
  14 H :    0.016765
  15 H :    0.018840
  16 H :    0.023984
  17 H :    0.026715
  18 H :    0.014339

  Mayer bond orders larger than 0.1
B(  0-C ,  1-C ) :   1.1166 B(  0-C ,  7-H ) :   0.9541 B(  0-C ,  8-H ) :   0.9646
B(  0-C ,  9-H ) :   0.9640 B(  1-C ,  2-O ) :   0.9970 B(  1-C , 10-H ) :   0.9288
B(  1-C , 11-H ) :   0.9310 B(  2-O ,  3-C ) :   1.0853 B(  3-C ,  4-C ) :   1.0734
B(  3-C ,  6-C ) :   1.0779 B(  3-C , 12-H ) :   0.9046 B(  4-C ,  5-C ) :   1.0984
B(  4-C , 13-H ) :   0.9122 B(  4-C , 14-H ) :   0.9347 B(  5-C ,  6-C ) :   1.1215
B(  5-C , 15-H ) :   0.9330 B(  5-C , 16-H ) :   0.9393 B(  6-C , 17-H ) :   0.9015
B(  6-C , 18-H ) :   0.9367

FINAL SINGLE POINT ENERGY      -310.410835930460

DIPOLE MOMENT
-------------
                                X             Y             Z
Electronic contribution:      0.68220       1.63890       0.57602
Nuclear contribution   :     -0.52114      -1.92428      -0.76281
                        -----------------------------------------
Total Dipole Moment    :      0.16106      -0.28538      -0.18679
                        -----------------------------------------
Magnitude (a.u.)       :      0.37719
Magnitude (Debye)      :      0.95874

                             ****ORCA TERMINATED NORMALLY****
TOTAL RUN TIME: 0 days 0 hours 0 minutes 7 seconds 372 msec
