                         Program Version 3.0.3 - RELEASE   -
|  1> ! RI PBE def2-SVP def2-SVP/J NBO PAL2
|  2> % maxcore 2000
|  3> % output
|  4>     # printlevel mini
|  5>     print[ P_Basis ] 0
|  6>     print[ P_SCFInfo ] 1
|  7>     print[ P_SCFIterInfo ] 1
|  8>     print[ P_OrbEn ] 0
|  9>     print[ P_Cartesian ] 0
| 10> end
| 11> *xyz 0 1
| 12>  C        1.4588700000    -2.3596160000    -0.3969650000
| 13>  C        2.6941660000    -2.0653790000    -0.7779950000
| 14>  O        3.4018500000    -1.0449450000    -0.2485490000
| 15>  C        4.7724230000    -1.0153260000    -0.5630150000
| 16>  C        5.5051790000     0.2538780000    -0.1369480000
| 17>  C        6.7159850000    -0.6356580000     0.2136170000
| 18>  C        5.7520180000    -1.8367360000     0.2919510000
| 19>  H        0.9284470000    -3.1657490000    -0.8831760000
| 20>  H        0.9601280000    -1.8023950000     0.3858810000
| 21>  H        3.2024190000    -2.6259890000    -1.5617100000
| 22>  H        4.9120450000    -1.2197830000    -1.6324120000
| 23>  H        5.0400510000     0.6577850000     0.7646210000
| 24>  H        5.6252100000     1.0517210000    -0.8702350000
| 25>  H        7.2825200000    -0.3845090000     1.1096740000
| 26>  H        7.4096990000    -0.7253200000    -0.6244280000
| 27>  H        5.3493170000    -1.9558190000     1.3000970000
| 28>  H        6.0844810000    -2.8058620000    -0.0823060000
| 29> *
| 30>
| 31>                          ****END OF INPUT****
 Total Charge           Charge          ....    0
 Multiplicity           Mult            ....    1
 Number of Electrons    NEL             ....   54
 Basis Dimension        Dim             ....  148

MULLIKEN ATOMIC CHARGES
-----------------------
   0 C :   -0.081594
   1 C :    0.104740
   2 O :   -0.234994
   3 C :   -0.003006
   4 C :    0.042739
   5 C :   -0.055489
   6 C :    0.055701
   7 H :    0.022426
   8 H :    0.025183
   9 H :   -0.007423
  10 H :    0.006203
  11 H :    0.022310
  12 H :    0.025593
  13 H :    0.019335
  14 H :    0.027934
  15 H :    0.016468
  16 H :    0.013874
Sum of atomic charges:    0.0000000

LOEWDIN ATOMIC CHARGES
----------------------
   0 C :   -0.130416
   1 C :    0.031722
   2 O :   -0.066716
   3 C :    0.050464
   4 C :   -0.036517
   5 C :   -0.033163
   6 C :   -0.043487
   7 H :    0.029813
   8 H :    0.027558
   9 H :    0.009701
  10 H :    0.012427
  11 H :    0.032821
  12 H :    0.020361
  13 H :    0.021286
  14 H :    0.026049
  15 H :    0.031093
  16 H :    0.017005

  Mayer bond orders larger than 0.1
B(  0-C ,  1-C ) :   1.9220 B(  0-C ,  7-H ) :   0.9378 B(  0-C ,  8-H ) :   0.9484
B(  1-C ,  2-O ) :   1.1055 B(  1-C ,  9-H ) :   0.9422 B(  2-O ,  3-C ) :   1.0263
B(  3-C ,  4-C ) :   1.0766 B(  3-C ,  6-C ) :   1.0817 B(  3-C , 10-H ) :   0.9106
B(  4-C ,  5-C ) :   1.0925 B(  4-C , 11-H ) :   0.9123 B(  4-C , 12-H ) :   0.9356
B(  5-C ,  6-C ) :   1.1125 B(  5-C , 13-H ) :   0.9322 B(  5-C , 14-H ) :   0.9435
B(  6-C , 15-H ) :   0.9057 B(  6-C , 16-H ) :   0.9359

FINAL SINGLE POINT ENERGY      -309.192737449700

DIPOLE MOMENT
-------------
                                X             Y             Z
Electronic contribution:     -2.67901       0.43805      -0.38980
Nuclear contribution   :      3.29265      -0.52898       0.18929
                        -----------------------------------------
Total Dipole Moment    :      0.61364      -0.09093      -0.20051
                        -----------------------------------------
Magnitude (a.u.)       :      0.65194
Magnitude (Debye)      :      1.65709

                             ****ORCA TERMINATED NORMALLY****
TOTAL RUN TIME: 0 days 0 hours 0 minutes 7 seconds 907 msec
