                         Program Version 3.0.3 - RELEASE   -
|  1> ! RI PBE def2-SVP def2-SVP/J NBO PAL2
|  2> % maxcore 2000
|  3> % output
|  4>     # printlevel mini
|  5>     print[ P_Basis ] 0
|  6>     print[ P_SCFInfo ] 1
|  7>     print[ P_SCFIterInfo ] 1
|  8>     print[ P_OrbEn ] 0
|  9>     print[ P_Cartesian ] 0
| 10> end
| 11> *xyz 0 1
| 12>  C        1.7307660000     1.3101580000     0.0932320000
| 13>  C        2.8027800000     0.2674900000     0.2464790000
| 14>  O        3.1533460000    -0.1327410000     1.3308930000
| 15>  C        3.4333400000    -0.2683290000    -1.0150720000
| 16>  C        4.9803810000    -0.2684280000    -1.0829740000
| 17>  C        4.9214730000    -1.6597100000    -1.7358240000
| 18>  C        3.4990960000    -1.8076560000    -1.1698390000
| 19>  H        1.3537300000     1.6184550000     1.0667730000
| 20>  H        0.9126460000     0.9140060000    -0.5163570000
| 21>  H        2.1296830000     2.1758440000    -0.4446350000
| 22>  H        2.9995020000     0.1993230000    -1.9023680000
| 23>  H        5.3890620000    -0.3188880000    -0.0721190000
| 24>  H        5.4582590000     0.5448130000    -1.6308850000
| 25>  H        5.6682740000    -2.3954250000    -1.4347390000
| 26>  H        4.9156370000    -1.5925600000    -2.8259960000
| 27>  H        3.5088890000    -2.2725910000    -0.1823530000
| 28>  H        2.7377250000    -2.2821600000    -1.7903950000
| 29> *
| 30>
| 31>                          ****END OF INPUT****
 Total Charge           Charge          ....    0
 Multiplicity           Mult            ....    1
 Number of Electrons    NEL             ....   54
 Basis Dimension        Dim             ....  148

MULLIKEN ATOMIC CHARGES
-----------------------
   0 C :    0.026150
   1 C :   -0.005518
   2 O :   -0.164485
   3 C :   -0.185953
   4 C :    0.068216
   5 C :   -0.043334
   6 C :    0.069165
   7 H :    0.030055
   8 H :    0.045195
   9 H :    0.044010
  10 H :   -0.009190
  11 H :    0.023360
  12 H :    0.018110
  13 H :    0.018870
  14 H :    0.023119
  15 H :    0.023111
  16 H :    0.019120
Sum of atomic charges:    0.0000000

LOEWDIN ATOMIC CHARGES
----------------------
   0 C :   -0.087478
   1 C :    0.055964
   2 O :   -0.124279
   3 C :   -0.068144
   4 C :   -0.012971
   5 C :   -0.037327
   6 C :   -0.013414
   7 H :    0.035787
   8 H :    0.046626
   9 H :    0.046484
  10 H :    0.022170
  11 H :    0.028743
  12 H :    0.017482
  13 H :    0.018629
  14 H :    0.025262
  15 H :    0.028853
  16 H :    0.017612

  Mayer bond orders larger than 0.1
B(  0-C ,  1-C ) :   1.0515 B(  0-C ,  7-H ) :   0.9433 B(  0-C ,  8-H ) :   0.9389
B(  0-C ,  9-H ) :   0.9383 B(  1-C ,  2-O ) :   2.1818 B(  1-C ,  3-C ) :   0.9065
B(  3-C ,  4-C ) :   1.0629 B(  3-C ,  6-C ) :   1.0646 B(  3-C , 10-H ) :   0.9071
B(  4-C ,  5-C ) :   1.1269 B(  4-C , 11-H ) :   0.9128 B(  4-C , 12-H ) :   0.9374
B(  5-C ,  6-C ) :   1.1273 B(  5-C , 13-H ) :   0.9342 B(  5-C , 14-H ) :   0.9326
B(  6-C , 15-H ) :   0.9118 B(  6-C , 16-H ) :   0.9375

FINAL SINGLE POINT ENERGY      -309.228735648836

DIPOLE MOMENT
-------------
                                X             Y             Z
Electronic contribution:     -0.39714       0.15476       3.94912
Nuclear contribution   :      0.16466       0.12229      -4.84759
                        -----------------------------------------
Total Dipole Moment    :     -0.23248       0.27705      -0.89847
                        -----------------------------------------
Magnitude (a.u.)       :      0.96853
Magnitude (Debye)      :      2.46181

                             ****ORCA TERMINATED NORMALLY****
TOTAL RUN TIME: 0 days 0 hours 0 minutes 6 seconds 792 msec
