                         Program Version 3.0.3 - RELEASE   -
|  1> ! RI PBE def2-SVP def2-SVP/J NBO PAL2
|  2> % maxcore 2000
|  3> % output
|  4>     # printlevel mini
|  5>     print[ P_Basis ] 0
|  6>     print[ P_SCFInfo ] 1
|  7>     print[ P_SCFIterInfo ] 1
|  8>     print[ P_OrbEn ] 0
|  9>     print[ P_Cartesian ] 0
| 10> end
| 11> *xyz 0 1
| 12>  C        2.5136280000    -1.4860480000     0.0955070000
| 13>  C        2.3146810000     0.0143170000    -0.0168850000
| 14>  O        0.9636490000     0.3269770000    -0.3144150000
| 15>  C        2.8180050000     0.7489820000     1.2136730000
| 16>  C        2.6087280000     2.2716460000     1.3183240000
| 17>  C        2.3625640000     2.0911990000     2.8276320000
| 18>  C        2.0761850000     0.6012300000     2.5612140000
| 19>  H        2.1453200000    -1.9889490000    -0.8004600000
| 20>  H        1.9702560000    -1.8825460000     0.9601530000
| 21>  H        3.5693930000    -1.7364240000     0.2252970000
| 22>  H        2.8733440000     0.3868890000    -0.8832010000
| 23>  H        0.4079700000    -0.0966050000     0.3460500000
| 24>  H        3.8771170000     0.5060190000     1.3527750000
| 25>  H        1.6949980000     2.5621340000     0.7956710000
| 26>  H        3.4251380000     2.9235930000     1.0029130000
| 27>  H        1.5742990000     2.6853800000     3.2921730000
| 28>  H        3.2818120000     2.2209860000     3.4031590000
| 29>  H        1.0044850000     0.4332130000     2.4158550000
| 30>  H        2.4474170000    -0.1331820000     3.2778850000
| 31> *
| 32>
| 33>                          ****END OF INPUT****
 Total Charge           Charge          ....    0
 Multiplicity           Mult            ....    1
 Number of Electrons    NEL             ....   56
 Basis Dimension        Dim             ....  158

MULLIKEN ATOMIC CHARGES
-----------------------
   0 C :    0.011749
   1 C :    0.137777
   2 O :   -0.272766
   3 C :   -0.193102
   4 C :    0.069226
   5 C :   -0.016897
   6 C :    0.015954
   7 H :    0.027252
   8 H :    0.006976
   9 H :    0.014904
  10 H :    0.001531
  11 H :    0.146727
  12 H :   -0.000446
  13 H :    0.006211
  14 H :    0.011778
  15 H :    0.010967
  16 H :    0.015907
  17 H :   -0.009887
  18 H :    0.016138
Sum of atomic charges:   -0.0000000

LOEWDIN ATOMIC CHARGES
----------------------
   0 C :   -0.075998
   1 C :    0.039903
   2 O :   -0.106876
   3 C :   -0.051763
   4 C :   -0.031158
   5 C :   -0.033326
   6 C :   -0.037899
   7 H :    0.028606
   8 H :    0.022519
   9 H :    0.030204
  10 H :    0.023842
  11 H :    0.059024
  12 H :    0.025912
  13 H :    0.022858
  14 H :    0.015042
  15 H :    0.016232
  16 H :    0.024052
  17 H :    0.013378
  18 H :    0.015450

  Mayer bond orders larger than 0.1
B(  0-C ,  1-C ) :   1.0934 B(  0-C ,  7-H ) :   0.9564 B(  0-C ,  8-H ) :   0.9527
B(  0-C ,  9-H ) :   0.9496 B(  1-C ,  2-O ) :   1.0352 B(  1-C ,  3-C ) :   0.9992
B(  1-C , 10-H ) :   0.9009 B(  2-O , 11-H ) :   0.9826 B(  3-C ,  4-C ) :   1.0765
B(  3-C ,  6-C ) :   1.0766 B(  3-C , 12-H ) :   0.8961 B(  4-C ,  5-C ) :   1.1238
B(  4-C , 13-H ) :   0.9073 B(  4-C , 14-H ) :   0.9358 B(  5-C ,  6-C ) :   1.1213
B(  5-C , 15-H ) :   0.9335 B(  5-C , 16-H ) :   0.9325 B(  6-C , 17-H ) :   0.9106
B(  6-C , 18-H ) :   0.9336

FINAL SINGLE POINT ENERGY      -310.418689125070

DIPOLE MOMENT
-------------
                                X             Y             Z
Electronic contribution:     -1.55708       1.11512      -2.04381
Nuclear contribution   :      1.73215      -1.46759       2.43887
                        -----------------------------------------
Total Dipole Moment    :      0.17507      -0.35247       0.39505
                        -----------------------------------------
Magnitude (a.u.)       :      0.55763
Magnitude (Debye)      :      1.41739

                             ****ORCA TERMINATED NORMALLY****
TOTAL RUN TIME: 0 days 0 hours 0 minutes 8 seconds 461 msec
