                         Program Version 3.0.3 - RELEASE   -
|  1> ! RI PBE def2-SVP def2-SVP/J NBO PAL2
|  2> % maxcore 2000
|  3> % output
|  4>     # printlevel mini
|  5>     print[ P_Basis ] 0
|  6>     print[ P_SCFInfo ] 1
|  7>     print[ P_SCFIterInfo ] 1
|  8>     print[ P_OrbEn ] 0
|  9>     print[ P_Cartesian ] 0
| 10> end
| 11> *xyz 0 1
| 12>  C        1.2370820000     0.2022310000     0.8368660000
| 13>  C        2.4315480000    -0.1040840000    -0.0479240000
| 14>  O        2.0806920000    -1.0517570000    -1.0484220000
| 15>  C        3.1151460000     1.0914450000    -0.6879320000
| 16>  C        4.4470130000     0.7524040000    -1.3094760000
| 17>  C        2.2693560000     2.1091480000    -1.4037630000
| 18>  C        2.9598020000     2.4682050000    -0.1205510000
| 19>  H        0.7982830000    -0.7392520000     1.1701780000
| 20>  H        0.4631120000     0.7590780000     0.3005840000
| 21>  H        1.5236800000     0.7758580000     1.7204660000
| 22>  H        3.1798930000    -0.6242110000     0.5612110000
| 23>  H        1.5557660000    -0.5879480000    -1.7084610000
| 24>  H        4.3443340000    -0.0648620000    -2.0266140000
| 25>  H        5.1642980000     0.4399190000    -0.5443000000
| 26>  H        4.8684970000     1.6152640000    -1.8302860000
| 27>  H        1.1897600000     2.0148260000    -1.3759150000
| 28>  H        2.6554220000     2.5194510000    -2.3291680000
| 29>  H        2.3403360000     2.6143430000     0.7547920000
| 30>  H        3.8201860000     3.1252520000    -0.1717740000
| 31> *
| 32>
| 33>                          ****END OF INPUT****
 Total Charge           Charge          ....    0
 Multiplicity           Mult            ....    1
 Number of Electrons    NEL             ....   56
 Basis Dimension        Dim             ....  158

MULLIKEN ATOMIC CHARGES
-----------------------
   0 C :    0.021279
   1 C :    0.158001
   2 O :   -0.276816
   3 C :   -0.322196
   4 C :    0.112415
   5 C :   -0.041445
   6 C :    0.009585
   7 H :    0.024396
   8 H :    0.003840
   9 H :    0.020168
  10 H :   -0.001506
  11 H :    0.147702
  12 H :    0.020274
  13 H :    0.013514
  14 H :    0.002589
  15 H :    0.034178
  16 H :    0.024471
  17 H :    0.023193
  18 H :    0.026358
Sum of atomic charges:   -0.0000000

LOEWDIN ATOMIC CHARGES
----------------------
   0 C :   -0.077482
   1 C :    0.054516
   2 O :   -0.112745
   3 C :   -0.075567
   4 C :   -0.046108
   5 C :   -0.049130
   6 C :   -0.037676
   7 H :    0.032800
   8 H :    0.021507
   9 H :    0.028688
  10 H :    0.023938
  11 H :    0.063122
  12 H :    0.027021
  13 H :    0.027739
  14 H :    0.024455
  15 H :    0.019877
  16 H :    0.024702
  17 H :    0.024065
  18 H :    0.026277

  Mayer bond orders larger than 0.1
B(  0-C ,  1-C ) :   1.1045 B(  0-C ,  7-H ) :   0.9457 B(  0-C ,  8-H ) :   0.9455
B(  0-C ,  9-H ) :   0.9380 B(  1-C ,  2-O ) :   1.0234 B(  1-C ,  3-C ) :   1.0085
B(  1-C , 10-H ) :   0.9042 B(  2-O , 11-H ) :   0.9805 B(  3-C ,  4-C ) :   1.0897
B(  3-C ,  5-C ) :   0.9525 B(  3-C ,  6-C ) :   0.9786 B(  4-C , 12-H ) :   0.9504
B(  4-C , 13-H ) :   0.9516 B(  4-C , 14-H ) :   0.9419 B(  5-C ,  6-C ) :   1.0350
B(  5-C , 15-H ) :   0.9455 B(  5-C , 16-H ) :   0.9402 B(  6-C , 17-H ) :   0.9285
B(  6-C , 18-H ) :   0.9394

FINAL SINGLE POINT ENERGY      -310.415955297106

DIPOLE MOMENT
-------------
                                X             Y             Z
Electronic contribution:     -0.47597      -2.32136      -1.05187
Nuclear contribution   :      0.34518       2.83651       1.04762
                        -----------------------------------------
Total Dipole Moment    :     -0.13080       0.51514      -0.00425
                        -----------------------------------------
Magnitude (a.u.)       :      0.53150
Magnitude (Debye)      :      1.35097

                             ****ORCA TERMINATED NORMALLY****
TOTAL RUN TIME: 0 days 0 hours 0 minutes 8 seconds 554 msec
