                         Program Version 3.0.3 - RELEASE   -
|  1> ! RI PBE def2-SVP def2-SVP/J NBO PAL2
|  2> % maxcore 2000
|  3> % output
|  4>     # printlevel mini
|  5>     print[ P_Basis ] 0
|  6>     print[ P_SCFInfo ] 1
|  7>     print[ P_SCFIterInfo ] 1
|  8>     print[ P_OrbEn ] 0
|  9>     print[ P_Cartesian ] 0
| 10> end
| 11> *xyz 0 1
| 12>  C        2.8502570000     0.2084140000     3.9425850000
| 13>  C        4.2099570000     0.1166150000     3.2966010000
| 14>  O        4.2160980000    -1.0008950000     2.4337320000
| 15>  C        5.3674410000    -1.1303200000     1.6548100000
| 16>  C        6.6059220000    -1.5412340000     2.4013810000
| 17>  C        5.1109630000    -1.6850230000     0.2984790000
| 18>  C        5.4767500000    -0.2309890000     0.4592720000
| 19>  H        2.8114900000     1.0588580000     4.6269600000
| 20>  H        2.6319160000    -0.6995230000     4.5082420000
| 21>  H        2.0721830000     0.3352970000     3.1872900000
| 22>  H        4.9874150000     0.0143380000     4.0659810000
| 23>  H        4.4324800000     1.0292190000     2.7258370000
| 24>  H        6.4267070000    -2.4716260000     2.9465200000
| 25>  H        6.9216130000    -0.7779400000     3.1172910000
| 26>  H        7.4328830000    -1.7040570000     1.7078130000
| 27>  H        4.0800410000    -1.9093550000     0.0565990000
| 28>  H        5.8428630000    -2.3611370000    -0.1263220000
| 29>  H        4.6846470000     0.4921990000     0.3092210000
| 30>  H        6.4597630000     0.0968580000     0.1428180000
| 31> *
| 32>
| 33>                          ****END OF INPUT****
 Total Charge           Charge          ....    0
 Multiplicity           Mult            ....    1
 Number of Electrons    NEL             ....   56
 Basis Dimension        Dim             ....  158

MULLIKEN ATOMIC CHARGES
-----------------------
   0 C :   -0.031984
   1 C :    0.156908
   2 O :   -0.311411
   3 C :   -0.109508
   4 C :    0.087720
   5 C :   -0.006222
   6 C :   -0.034581
   7 H :    0.021657
   8 H :    0.032102
   9 H :    0.028470
  10 H :    0.001359
  11 H :   -0.011159
  12 H :    0.026943
  13 H :    0.021858
  14 H :    0.003784
  15 H :    0.033925
  16 H :    0.026417
  17 H :    0.039524
  18 H :    0.024200
Sum of atomic charges:   -0.0000000

LOEWDIN ATOMIC CHARGES
----------------------
   0 C :   -0.075894
   1 C :    0.061017
   2 O :   -0.126529
   3 C :    0.006723
   4 C :   -0.060700
   5 C :   -0.044420
   6 C :   -0.058024
   7 H :    0.031711
   8 H :    0.030133
   9 H :    0.029038
  10 H :    0.004233
  11 H :    0.002969
  12 H :    0.032037
  13 H :    0.026054
  14 H :    0.031354
  15 H :    0.031324
  16 H :    0.025028
  17 H :    0.030290
  18 H :    0.023656

  Mayer bond orders larger than 0.1
B(  0-C ,  1-C ) :   1.1215 B(  0-C ,  7-H ) :   0.9553 B(  0-C ,  8-H ) :   0.9641
B(  0-C ,  9-H ) :   0.9621 B(  1-C ,  2-O ) :   0.9914 B(  1-C , 10-H ) :   0.9325
B(  1-C , 11-H ) :   0.9260 B(  2-O ,  3-C ) :   1.0584 B(  3-C ,  4-C ) :   1.0833
B(  3-C ,  5-C ) :   0.9774 B(  3-C ,  6-C ) :   0.9822 B(  4-C , 12-H ) :   0.9503
B(  4-C , 13-H ) :   0.9501 B(  4-C , 14-H ) :   0.9340 B(  5-C ,  6-C ) :   1.0291
B(  5-C , 15-H ) :   0.9366 B(  5-C , 16-H ) :   0.9431 B(  6-C , 17-H ) :   0.9328
B(  6-C , 18-H ) :   0.9425

FINAL SINGLE POINT ENERGY      -310.407222797386

DIPOLE MOMENT
-------------
                                X             Y             Z
Electronic contribution:     -0.60652      -1.59128      -1.76729
Nuclear contribution   :      0.90902       1.86157       1.84901
                        -----------------------------------------
Total Dipole Moment    :      0.30250       0.27029       0.08172
                        -----------------------------------------
Magnitude (a.u.)       :      0.41381
Magnitude (Debye)      :      1.05182

                             ****ORCA TERMINATED NORMALLY****
TOTAL RUN TIME: 0 days 0 hours 0 minutes 8 seconds 236 msec
