                         Program Version 3.0.3 - RELEASE   -
|  1> ! RI PBE def2-SVP def2-SVP/J NBO PAL2
|  2> % maxcore 2000
|  3> % output
|  4>     # printlevel mini
|  5>     print[ P_Basis ] 0
|  6>     print[ P_SCFInfo ] 1
|  7>     print[ P_SCFIterInfo ] 1
|  8>     print[ P_OrbEn ] 0
|  9>     print[ P_Cartesian ] 0
| 10> end
| 11> *xyz 0 1
| 12>  C        2.8246890000    -0.3464780000    -1.3305570000
| 13>  C        2.3964440000     0.0304960000     0.0634940000
| 14>  O        1.3735920000    -0.3592320000     0.5607450000
| 15>  C        3.3442380000     0.9648600000     0.7893870000
| 16>  C        3.0814430000     2.4573860000     0.4927220000
| 17>  C        2.7252850000     2.5193080000     1.9810000000
| 18>  O        3.0609010000     1.1377230000     2.1683780000
| 19>  H        1.9746160000    -0.7316340000    -1.8908920000
| 20>  H        3.5886670000    -1.1277120000    -1.2655830000
| 21>  H        3.2746780000     0.4996860000    -1.8565980000
| 22>  H        4.3784050000     0.6370890000     0.6191290000
| 23>  H        2.2650840000     2.6635350000    -0.1991080000
| 24>  H        3.9625800000     3.0254320000     0.1995800000
| 25>  H        1.6709780000     2.7097420000     2.2008440000
| 26>  H        3.3505100000     3.1750990000     2.5935480000
| 27> *
| 28>
| 29>                          ****END OF INPUT****
 Total Charge           Charge          ....    0
 Multiplicity           Mult            ....    1
 Number of Electrons    NEL             ....   54
 Basis Dimension        Dim             ....  138

MULLIKEN ATOMIC CHARGES
-----------------------
   0 C :    0.001816
   1 C :   -0.026572
   2 O :   -0.142796
   3 C :    0.083977
   4 C :   -0.063892
   5 C :    0.209782
   6 O :   -0.326454
   7 H :    0.042825
   8 H :    0.057825
   9 H :    0.035710
  10 H :    0.013648
  11 H :    0.036793
  12 H :    0.035529
  13 H :    0.021017
  14 H :    0.020793
Sum of atomic charges:    0.0000000

LOEWDIN ATOMIC CHARGES
----------------------
   0 C :   -0.092743
   1 C :    0.034375
   2 O :   -0.106023
   3 C :    0.031352
   4 C :   -0.039932
   5 C :    0.093119
   6 O :   -0.158039
   7 H :    0.042043
   8 H :    0.054007
   9 H :    0.038884
  10 H :    0.017221
  11 H :    0.028528
  12 H :    0.030410
  13 H :    0.014453
  14 H :    0.012346

  Mayer bond orders larger than 0.1
B(  0-C ,  1-C ) :   1.0141 B(  0-C ,  7-H ) :   0.9413 B(  0-C ,  8-H ) :   0.9351
B(  0-C ,  9-H ) :   0.9453 B(  1-C ,  2-O ) :   2.2423 B(  1-C ,  3-C ) :   0.8619
B(  3-C ,  4-C ) :   1.0872 B(  3-C ,  6-O ) :   1.0848 B(  3-C , 10-H ) :   0.9055
B(  4-C ,  5-C ) :   1.1100 B(  4-C , 11-H ) :   0.9374 B(  4-C , 12-H ) :   0.9351
B(  5-C ,  6-O ) :   1.0236 B(  5-C , 13-H ) :   0.9373 B(  5-C , 14-H ) :   0.9406

FINAL SINGLE POINT ENERGY      -345.073974428539

DIPOLE MOMENT
-------------
                                X             Y             Z
Electronic contribution:     -2.05127      -2.55412       3.81400
Nuclear contribution   :      2.83092       3.34593      -4.70446
                        -----------------------------------------
Total Dipole Moment    :      0.77965       0.79181      -0.89046
                        -----------------------------------------
Magnitude (a.u.)       :      1.42398
Magnitude (Debye)      :      3.61948

                             ****ORCA TERMINATED NORMALLY****
TOTAL RUN TIME: 0 days 0 hours 0 minutes 6 seconds 313 msec
