                         Program Version 3.0.3 - RELEASE   -
|  1> ! RI PBE def2-SVP def2-SVP/J NBO PAL2
|  2> % maxcore 2000
|  3> % output
|  4>     # printlevel mini
|  5>     print[ P_Basis ] 0
|  6>     print[ P_SCFInfo ] 1
|  7>     print[ P_SCFIterInfo ] 1
|  8>     print[ P_OrbEn ] 0
|  9>     print[ P_Cartesian ] 0
| 10> end
| 11> *xyz 0 1
| 12>  C        2.9841710000    -1.3958890000    -0.3422830000
| 13>  C        2.5111360000    -0.0263580000     0.1122460000
| 14>  O        1.1054170000     0.0184840000     0.2384400000
| 15>  C        3.1681390000     0.3845980000     1.4155160000
| 16>  C        2.7090230000     1.6853660000     2.0806140000
| 17>  C        2.3749690000     0.7904860000     3.2730540000
| 18>  O        2.6605390000    -0.3997290000     2.5174900000
| 19>  H        2.4609290000    -1.6884840000    -1.2536930000
| 20>  H        2.7815120000    -2.1437930000     0.4292660000
| 21>  H        4.0589880000    -1.3966440000    -0.5417260000
| 22>  H        2.7683830000     0.7244200000    -0.6440630000
| 23>  H        0.8926120000    -0.5179120000     1.0115580000
| 24>  H        4.2580860000     0.2829980000     1.3355550000
| 25>  H        1.8357190000     2.1203970000     1.5964140000
| 26>  H        3.4724770000     2.4454300000     2.2378740000
| 27>  H        1.3421060000     0.8070260000     3.6316420000
| 28>  H        3.0541930000     0.8881040000     4.1265060000
| 29> *
| 30>
| 31>                          ****END OF INPUT****
 Total Charge           Charge          ....    0
 Multiplicity           Mult            ....    1
 Number of Electrons    NEL             ....   56
 Basis Dimension        Dim             ....  148

MULLIKEN ATOMIC CHARGES
-----------------------
   0 C :    0.022134
   1 C :    0.124750
   2 O :   -0.280753
   3 C :    0.010727
   4 C :    0.019395
   5 C :    0.173697
   6 O :   -0.361965
   7 H :    0.026939
   8 H :    0.020398
   9 H :    0.011844
  10 H :    0.007651
  11 H :    0.148312
  12 H :    0.002075
  13 H :    0.014181
  14 H :    0.027736
  15 H :    0.016555
  16 H :    0.016322
Sum of atomic charges:    0.0000000

LOEWDIN ATOMIC CHARGES
----------------------
   0 C :   -0.076158
   1 C :    0.027555
   2 O :   -0.109278
   3 C :    0.052663
   4 C :   -0.052839
   5 C :    0.085630
   6 O :   -0.184837
   7 H :    0.030272
   8 H :    0.028620
   9 H :    0.028169
  10 H :    0.025379
  11 H :    0.058556
  12 H :    0.011659
  13 H :    0.028658
  14 H :    0.025350
  15 H :    0.009625
  16 H :    0.010976

  Mayer bond orders larger than 0.1
B(  0-C ,  1-C ) :   1.0954 B(  0-C ,  7-H ) :   0.9547 B(  0-C ,  8-H ) :   0.9521
B(  0-C ,  9-H ) :   0.9457 B(  1-C ,  2-O ) :   1.0265 B(  1-C ,  3-C ) :   0.9893
B(  1-C , 10-H ) :   0.9042 B(  2-O , 11-H ) :   0.9702 B(  3-C ,  4-C ) :   1.0816
B(  3-C ,  6-O ) :   1.0308 B(  3-C , 12-H ) :   0.9066 B(  4-C ,  5-C ) :   1.1195
B(  4-C , 13-H ) :   0.9052 B(  4-C , 14-H ) :   0.9395 B(  5-C ,  6-O ) :   1.0110
B(  5-C , 15-H ) :   0.9442 B(  5-C , 16-H ) :   0.9367

FINAL SINGLE POINT ENERGY      -346.275152315376

DIPOLE MOMENT
-------------
                                X             Y             Z
Electronic contribution:     -1.67501       0.08679       1.41598
Nuclear contribution   :      2.04761       0.25078      -1.17593
                        -----------------------------------------
Total Dipole Moment    :      0.37260       0.33757       0.24005
                        -----------------------------------------
Magnitude (a.u.)       :      0.55714
Magnitude (Debye)      :      1.41615

                             ****ORCA TERMINATED NORMALLY****
TOTAL RUN TIME: 0 days 0 hours 0 minutes 7 seconds 619 msec
