                         Program Version 3.0.3 - RELEASE   -
|  1> ! RI PBE def2-SVP def2-SVP/J NBO PAL2
|  2> % maxcore 2000
|  3> % output
|  4>     # printlevel mini
|  5>     print[ P_Basis ] 0
|  6>     print[ P_SCFInfo ] 1
|  7>     print[ P_SCFIterInfo ] 1
|  8>     print[ P_OrbEn ] 0
|  9>     print[ P_Cartesian ] 0
| 10> end
| 11> *xyz 0 1
| 12>  C        3.0365150000     0.3034240000    -1.2885370000
| 13>  C        2.1755110000     0.3529220000    -0.0481210000
| 14>  O        0.9469620000    -0.2691370000    -0.3921480000
| 15>  C        2.7956110000    -0.3062760000     1.1760650000
| 16>  C        1.8873800000    -0.4207120000     2.3698560000
| 17>  C        4.2424810000    -0.2798780000     1.3888020000
| 18>  O        3.5950190000    -1.4595700000     0.9421900000
| 19>  H        2.4667360000     0.6994350000    -2.1295430000
| 20>  H        3.3212390000    -0.7259660000    -1.5092450000
| 21>  H        3.9386490000     0.9057960000    -1.1759790000
| 22>  H        1.9905810000     1.4054160000     0.2210540000
| 23>  H        0.3204400000    -0.1405600000     0.3238360000
| 24>  H        1.0643500000    -1.1095500000     2.1628610000
| 25>  H        1.4694530000     0.5535550000     2.6408830000
| 26>  H        2.4326110000    -0.8108500000     3.2296070000
| 27>  H        4.6242610000    -0.3147890000     2.4072570000
| 28>  H        4.9013010000     0.1900310000     0.6641820000
| 29> *
| 30>
| 31>                          ****END OF INPUT****
 Total Charge           Charge          ....    0
 Multiplicity           Mult            ....    1
 Number of Electrons    NEL             ....   56
 Basis Dimension        Dim             ....  148

MULLIKEN ATOMIC CHARGES
-----------------------
   0 C :    0.018009
   1 C :    0.135917
   2 O :   -0.264425
   3 C :   -0.176961
   4 C :    0.079825
   5 C :    0.169375
   6 O :   -0.283492
   7 H :    0.022415
   8 H :    0.034135
   9 H :    0.013307
  10 H :   -0.001989
  11 H :    0.148184
  12 H :    0.030204
  13 H :    0.018898
  14 H :    0.014290
  15 H :    0.017819
  16 H :    0.024488
Sum of atomic charges:    0.0000000

LOEWDIN ATOMIC CHARGES
----------------------
   0 C :   -0.065249
   1 C :    0.042455
   2 O :   -0.108302
   3 C :   -0.006872
   4 C :   -0.064534
   5 C :    0.057515
   6 O :   -0.143709
   7 H :    0.033538
   8 H :    0.033063
   9 H :    0.026704
  10 H :    0.010052
  11 H :    0.062284
  12 H :    0.030837
  13 H :    0.031192
  14 H :    0.036016
  15 H :    0.012244
  16 H :    0.012766

  Mayer bond orders larger than 0.1
B(  0-C ,  1-C ) :   1.1071 B(  0-C ,  7-H ) :   0.9446 B(  0-C ,  8-H ) :   0.9481
B(  0-C ,  9-H ) :   0.9465 B(  1-C ,  2-O ) :   1.0684 B(  1-C ,  3-C ) :   0.9465
B(  1-C , 10-H ) :   0.9093 B(  2-O , 11-H ) :   0.9787 B(  3-C ,  4-C ) :   1.0736
B(  3-C ,  5-C ) :   1.0878 B(  3-C ,  6-O ) :   0.9612 B(  4-C , 12-H ) :   0.9418
B(  4-C , 13-H ) :   0.9493 B(  4-C , 14-H ) :   0.9346 B(  5-C ,  6-O ) :   0.9982
B(  5-C , 15-H ) :   0.9230 B(  5-C , 16-H ) :   0.9241

FINAL SINGLE POINT ENERGY      -346.269311901477

DIPOLE MOMENT
-------------
                                X             Y             Z
Electronic contribution:     -0.21460      -2.62023      -0.32197
Nuclear contribution   :      0.14908       3.46254       0.99242
                        -----------------------------------------
Total Dipole Moment    :     -0.06552       0.84232       0.67044
                        -----------------------------------------
Magnitude (a.u.)       :      1.07856
Magnitude (Debye)      :      2.74147

                             ****ORCA TERMINATED NORMALLY****
TOTAL RUN TIME: 0 days 0 hours 0 minutes 7 seconds 617 msec
