                         Program Version 3.0.3 - RELEASE   -
|  1> ! RI PBE def2-SVP def2-SVP/J NBO PAL2
|  2> % maxcore 2000
|  3> % output
|  4>     # printlevel mini
|  5>     print[ P_Basis ] 0
|  6>     print[ P_SCFInfo ] 1
|  7>     print[ P_SCFIterInfo ] 1
|  8>     print[ P_OrbEn ] 0
|  9>     print[ P_Cartesian ] 0
| 10> end
| 11> *xyz 0 1
| 12>  C        1.0265540000    -0.0519550000    -1.3087080000
| 13>  C        2.5302460000    -0.0191580000    -1.4021850000
| 14>  O        3.0556230000    -1.1030130000    -0.6676550000
| 15>  C        4.4455540000    -1.1426300000    -0.6709460000
| 16>  C        5.0355320000    -2.3349400000     0.0730150000
| 17>  O        5.8458500000    -2.6872290000    -1.0578120000
| 18>  C        5.1611900000    -1.7433960000    -1.8922440000
| 19>  H        0.5939480000     0.7813300000    -1.8664690000
| 20>  H        0.7050690000     0.0238530000    -0.2682590000
| 21>  H        0.6355970000    -0.9838120000    -1.7213710000
| 22>  H        2.9250460000     0.9259450000    -0.9989310000
| 23>  H        2.8516130000    -0.0835230000    -2.4524610000
| 24>  H        4.8630560000    -0.1755090000    -0.3611700000
| 25>  H        4.2815120000    -3.0978050000     0.2963190000
| 26>  H        5.6354980000    -2.1306950000     0.9633880000
| 27>  H        4.4707400000    -2.2350920000    -2.5885210000
| 28>  H        5.8569720000    -1.1055690000    -2.4444010000
| 29> *
| 30>
| 31>                          ****END OF INPUT****
 Total Charge           Charge          ....    0
 Multiplicity           Mult            ....    1
 Number of Electrons    NEL             ....   56
 Basis Dimension        Dim             ....  148

MULLIKEN ATOMIC CHARGES
-----------------------
   0 C :   -0.015910
   1 C :    0.138676
   2 O :   -0.312229
   3 C :   -0.047958
   4 C :    0.251289
   5 O :   -0.367874
   6 C :    0.232950
   7 H :    0.022009
   8 H :    0.031386
   9 H :    0.032779
  10 H :   -0.005205
  11 H :    0.000325
  12 H :   -0.005615
  13 H :    0.011735
  14 H :    0.015989
  15 H :    0.002006
  16 H :    0.015648
Sum of atomic charges:   -0.0000000

LOEWDIN ATOMIC CHARGES
----------------------
   0 C :   -0.071794
   1 C :    0.059740
   2 O :   -0.132814
   3 C :    0.024891
   4 C :    0.081159
   5 O :   -0.184790
   6 C :    0.064766
   7 H :    0.033365
   8 H :    0.030733
   9 H :    0.031398
  10 H :    0.004989
  11 H :    0.004605
  12 H :    0.006448
  13 H :    0.013899
  14 H :    0.012822
  15 H :    0.010116
  16 H :    0.010467

  Mayer bond orders larger than 0.1
B(  0-C ,  1-C ) :   1.1171 B(  0-C ,  7-H ) :   0.9535 B(  0-C ,  8-H ) :   0.9658
B(  0-C ,  9-H ) :   0.9642 B(  1-C ,  2-O ) :   0.9907 B(  1-C , 10-H ) :   0.9286
B(  1-C , 11-H ) :   0.9340 B(  2-O ,  3-C ) :   1.0690 B(  3-C ,  4-C ) :   1.0847
B(  3-C ,  6-C ) :   1.0825 B(  3-C , 12-H ) :   0.8977 B(  4-C ,  5-O ) :   1.0370
B(  4-C , 13-H ) :   0.9127 B(  4-C , 14-H ) :   0.9352 B(  5-O ,  6-C ) :   1.0411
B(  6-C , 15-H ) :   0.9062 B(  6-C , 16-H ) :   0.9351

FINAL SINGLE POINT ENERGY      -346.255619739764

DIPOLE MOMENT
-------------
                                X             Y             Z
Electronic contribution:      5.00100      -3.77199       1.28681
Nuclear contribution   :     -5.39244       4.55832      -1.39694
                        -----------------------------------------
Total Dipole Moment    :     -0.39144       0.78633      -0.11013
                        -----------------------------------------
Magnitude (a.u.)       :      0.88525
Magnitude (Debye)      :      2.25012

                             ****ORCA TERMINATED NORMALLY****
TOTAL RUN TIME: 0 days 0 hours 0 minutes 7 seconds 121 msec
