                         Program Version 3.0.3 - RELEASE   -
|  1> ! RI PBE def2-SVP def2-SVP/J NBO PAL2
|  2> % maxcore 2000
|  3> % output
|  4>     # printlevel mini
|  5>     print[ P_Basis ] 0
|  6>     print[ P_SCFInfo ] 1
|  7>     print[ P_SCFIterInfo ] 1
|  8>     print[ P_OrbEn ] 0
|  9>     print[ P_Cartesian ] 0
| 10> end
| 11> *xyz 0 1
| 12>  C        1.7198310000    -0.7623330000     1.2317990000
| 13>  C        2.7767980000    -0.2648060000     0.6076140000
| 14>  O        3.5077070000     0.7580050000     1.1099510000
| 15>  C        4.7499300000     0.9826150000     0.5035690000
| 16>  C        5.4457830000     2.2568320000     0.9653510000
| 17>  O        6.6512530000     1.5324230000     1.2491830000
| 18>  C        5.9779680000     0.2759840000     1.0909630000
| 19>  H        1.1483220000    -1.5517450000     0.7651840000
| 20>  H        1.4043260000    -0.3883200000     2.1974610000
| 21>  H        3.1055390000    -0.6375210000    -0.3614480000
| 22>  H        4.6671290000     0.8887470000    -0.5839790000
| 23>  H        4.9898590000     2.6736460000     1.8701540000
| 24>  H        5.6003090000     3.0468130000     0.2265900000
| 25>  H        5.7663350000    -0.2051520000     2.0527090000
| 26>  H        6.5307200000    -0.4089890000     0.4425980000
| 27> *
| 28>
| 29>                          ****END OF INPUT****
 Total Charge           Charge          ....    0
 Multiplicity           Mult            ....    1
 Number of Electrons    NEL             ....   54
 Basis Dimension        Dim             ....  138

MULLIKEN ATOMIC CHARGES
-----------------------
   0 C :   -0.071619
   1 C :    0.098649
   2 O :   -0.236815
   3 C :   -0.058604
   4 C :    0.240730
   5 O :   -0.363815
   6 C :    0.240778
   7 H :    0.028041
   8 H :    0.027734
   9 H :   -0.004549
  10 H :    0.021179
  11 H :    0.016962
  12 H :    0.025792
  13 H :    0.012665
  14 H :    0.022874
Sum of atomic charges:   -0.0000000

LOEWDIN ATOMIC CHARGES
----------------------
   0 C :   -0.121123
   1 C :    0.030671
   2 O :   -0.063938
   3 C :    0.032244
   4 C :    0.081531
   5 O :   -0.181464
   6 C :    0.071711
   7 H :    0.032173
   8 H :    0.029747
   9 H :    0.011018
  10 H :    0.016088
  11 H :    0.016266
  12 H :    0.015910
  13 H :    0.015204
  14 H :    0.013960

  Mayer bond orders larger than 0.1
B(  0-C ,  1-C ) :   1.9315 B(  0-C ,  7-H ) :   0.9393 B(  0-C ,  8-H ) :   0.9473
B(  1-C ,  2-O ) :   1.0932 B(  1-C ,  9-H ) :   0.9391 B(  2-O ,  3-C ) :   1.0180
B(  3-C ,  4-C ) :   1.0879 B(  3-C ,  6-C ) :   1.0825 B(  3-C , 10-H ) :   0.9017
B(  4-C ,  5-O ) :   1.0342 B(  4-C , 11-H ) :   0.9148 B(  4-C , 12-H ) :   0.9372
B(  5-O ,  6-C ) :   1.0362 B(  6-C , 13-H ) :   0.9105 B(  6-C , 14-H ) :   0.9371

FINAL SINGLE POINT ENERGY      -345.036575327770

DIPOLE MOMENT
-------------
                                X             Y             Z
Electronic contribution:      1.93563       1.80212       0.53818
Nuclear contribution   :     -2.12806      -2.02647      -1.08335
                        -----------------------------------------
Total Dipole Moment    :     -0.19243      -0.22435      -0.54517
                        -----------------------------------------
Magnitude (a.u.)       :      0.62014
Magnitude (Debye)      :      1.57627

                             ****ORCA TERMINATED NORMALLY****
TOTAL RUN TIME: 0 days 0 hours 0 minutes 6 seconds 434 msec
