                         Program Version 3.0.3 - RELEASE   -
|  1> ! RI PBE def2-SVP def2-SVP/J NBO PAL2
|  2> % maxcore 2000
|  3> % output
|  4>     # printlevel mini
|  5>     print[ P_Basis ] 0
|  6>     print[ P_SCFInfo ] 1
|  7>     print[ P_SCFIterInfo ] 1
|  8>     print[ P_OrbEn ] 0
|  9>     print[ P_Cartesian ] 0
| 10> end
| 11> *xyz 0 1
| 12>  C        1.4268170000     1.0055070000     0.3675920000
| 13>  C        2.7500320000     0.2986250000     0.2967210000
| 14>  O        3.3322060000    -0.0789590000     1.2837770000
| 15>  C        3.3364290000     0.0732640000    -1.0767230000
| 16>  C        4.8178030000     0.4513890000    -1.2593700000
| 17>  O        5.1559480000    -0.8593240000    -1.7211420000
| 18>  C        3.8558100000    -1.3450270000    -1.3755820000
| 19>  H        1.1053480000     1.1113570000     1.4019430000
| 20>  H        0.6765700000     0.4482690000    -0.2021350000
| 21>  H        1.5058810000     1.9908530000    -0.1023020000
| 22>  H        2.6924570000     0.4690070000    -1.8621240000
| 23>  H        5.3187990000     0.6903160000    -0.3159760000
| 24>  H        5.0286700000     1.2198650000    -2.0076840000
| 25>  H        3.8853750000    -1.9863640000    -0.4890970000
| 26>  H        3.3756660000    -1.8670680000    -2.2073990000
| 27> *
| 28>
| 29>                          ****END OF INPUT****
 Total Charge           Charge          ....    0
 Multiplicity           Mult            ....    1
 Number of Electrons    NEL             ....   54
 Basis Dimension        Dim             ....  138

MULLIKEN ATOMIC CHARGES
-----------------------
   0 C :    0.023440
   1 C :   -0.012364
   2 O :   -0.155577
   3 C :   -0.241020
   4 C :    0.262871
   5 O :   -0.359692
   6 C :    0.268196
   7 H :    0.037393
   8 H :    0.047119
   9 H :    0.047607
  10 H :    0.005382
  11 H :    0.018384
  12 H :    0.019963
  13 H :    0.019691
  14 H :    0.018608
Sum of atomic charges:   -0.0000000

LOEWDIN ATOMIC CHARGES
----------------------
   0 C :   -0.086783
   1 C :    0.054542
   2 O :   -0.116985
   3 C :   -0.090315
   4 C :    0.103814
   5 O :   -0.180982
   6 C :    0.104241
   7 H :    0.038539
   8 H :    0.047854
   9 H :    0.048201
  10 H :    0.026932
  11 H :    0.012702
  12 H :    0.012814
  13 H :    0.012844
  14 H :    0.012581

  Mayer bond orders larger than 0.1
B(  0-C ,  1-C ) :   1.0486 B(  0-C ,  7-H ) :   0.9447 B(  0-C ,  8-H ) :   0.9364
B(  0-C ,  9-H ) :   0.9352 B(  1-C ,  2-O ) :   2.1891 B(  1-C ,  3-C ) :   0.8961
B(  3-C ,  4-C ) :   1.0720 B(  3-C ,  6-C ) :   1.0684 B(  3-C , 10-H ) :   0.9070
B(  4-C ,  5-O ) :   1.0393 B(  4-C , 11-H ) :   0.9266 B(  4-C , 12-H ) :   0.9347
B(  5-O ,  6-C ) :   1.0373 B(  6-C , 13-H ) :   0.9273 B(  6-C , 14-H ) :   0.9348

FINAL SINGLE POINT ENERGY      -345.073943236717

DIPOLE MOMENT
-------------
                                X             Y             Z
Electronic contribution:      3.36635      -1.88345       1.16539
Nuclear contribution   :     -4.38675       2.46898      -1.71339
                        -----------------------------------------
Total Dipole Moment    :     -1.02040       0.58553      -0.54800
                        -----------------------------------------
Magnitude (a.u.)       :      1.29783
Magnitude (Debye)      :      3.29883

                             ****ORCA TERMINATED NORMALLY****
TOTAL RUN TIME: 0 days 0 hours 0 minutes 6 seconds 295 msec
