                         Program Version 3.0.3 - RELEASE   -
|  1> ! RI PBE def2-SVP def2-SVP/J NBO PAL2
|  2> % maxcore 2000
|  3> % output
|  4>     # printlevel mini
|  5>     print[ P_Basis ] 0
|  6>     print[ P_SCFInfo ] 1
|  7>     print[ P_SCFIterInfo ] 1
|  8>     print[ P_OrbEn ] 0
|  9>     print[ P_Cartesian ] 0
| 10> end
| 11> *xyz 0 1
| 12>  C        2.9618260000    -1.0969150000    -0.8910500000
| 13>  C        2.3476110000    -0.0674510000     0.0399120000
| 14>  O        0.9361310000    -0.1690540000     0.0659180000
| 15>  C        2.9558160000    -0.1309300000     1.4319340000
| 16>  C        2.2720110000     0.6881260000     2.5327070000
| 17>  O        1.9904670000    -0.4929010000     3.3008730000
| 18>  C        2.5984740000    -1.3325120000     2.3183430000
| 19>  H        2.5089960000    -1.0299570000    -1.8814640000
| 20>  H        2.8005730000    -2.1109010000    -0.5098790000
| 21>  H        4.0395630000    -0.9457120000    -0.9900660000
| 22>  H        2.5366540000     0.9341600000    -0.3623650000
| 23>  H        0.6976160000    -1.0507770000     0.3675500000
| 24>  H        4.0312970000     0.0431080000     1.3591950000
| 25>  H        1.3543590000     1.1934960000     2.2185270000
| 26>  H        2.9134760000     1.3841500000     3.0818850000
| 27>  H        1.8810690000    -2.0493480000     1.8946870000
| 28>  H        3.4442600000    -1.8970920000     2.7239950000
| 29> *
| 30>
| 31>                          ****END OF INPUT****
 Total Charge           Charge          ....    0
 Multiplicity           Mult            ....    1
 Number of Electrons    NEL             ....   56
 Basis Dimension        Dim             ....  148

MULLIKEN ATOMIC CHARGES
-----------------------
   0 C :    0.016611
   1 C :    0.126818
   2 O :   -0.273184
   3 C :   -0.264301
   4 C :    0.276153
   5 O :   -0.362094
   6 C :    0.230897
   7 H :    0.032277
   8 H :    0.005799
   9 H :    0.019916
  10 H :    0.004716
  11 H :    0.152234
  12 H :    0.014514
  13 H :    0.010051
  14 H :    0.009015
  15 H :   -0.010036
  16 H :    0.010614
Sum of atomic charges:   -0.0000000

LOEWDIN ATOMIC CHARGES
----------------------
   0 C :   -0.075662
   1 C :    0.042833
   2 O :   -0.104159
   3 C :   -0.074647
   4 C :    0.088450
   5 O :   -0.183231
   6 C :    0.080149
   7 H :    0.031719
   8 H :    0.022163
   9 H :    0.031598
  10 H :    0.024647
  11 H :    0.063295
  12 H :    0.028379
  13 H :    0.010040
  14 H :    0.008575
  15 H :   -0.005055
  16 H :    0.010904

  Mayer bond orders larger than 0.1
B(  0-C ,  1-C ) :   1.0969 B(  0-C ,  7-H ) :   0.9547 B(  0-C ,  8-H ) :   0.9511
B(  0-C ,  9-H ) :   0.9475 B(  1-C ,  2-O ) :   1.0412 B(  1-C ,  3-C ) :   0.9809
B(  1-C , 10-H ) :   0.9042 B(  2-O , 11-H ) :   0.9809 B(  3-C ,  4-C ) :   1.0773
B(  3-C ,  6-C ) :   1.0786 B(  3-C , 12-H ) :   0.9057 B(  4-C ,  5-O ) :   1.0306
B(  4-C , 13-H ) :   0.9241 B(  4-C , 14-H ) :   0.9309 B(  5-O ,  6-C ) :   1.0512
B(  6-C , 15-H ) :   0.9199 B(  6-C , 16-H ) :   0.9275

FINAL SINGLE POINT ENERGY      -346.265424031777

DIPOLE MOMENT
-------------
                                X             Y             Z
Electronic contribution:     -2.69381       1.26713       3.71114
Nuclear contribution   :      3.34347      -1.56058      -4.24614
                        -----------------------------------------
Total Dipole Moment    :      0.64966      -0.29345      -0.53500
                        -----------------------------------------
Magnitude (a.u.)       :      0.89129
Magnitude (Debye)      :      2.26547

                             ****ORCA TERMINATED NORMALLY****
TOTAL RUN TIME: 0 days 0 hours 0 minutes 7 seconds 656 msec
