                         Program Version 3.0.3 - RELEASE   -
|  1> ! RI PBE def2-SVP def2-SVP/J NBO PAL2
|  2> % maxcore 2000
|  3> % output
|  4>     # printlevel mini
|  5>     print[ P_Basis ] 0
|  6>     print[ P_SCFInfo ] 1
|  7>     print[ P_SCFIterInfo ] 1
|  8>     print[ P_OrbEn ] 0
|  9>     print[ P_Cartesian ] 0
| 10> end
| 11> *xyz 0 1
| 12>  C        1.4094840000    -0.7199370000     0.6018940000
| 13>  C        2.5436880000     0.0434820000    -0.0586380000
| 14>  O        2.1848560000     0.5039550000    -1.3430750000
| 15>  C        3.0446340000     1.1457260000     0.8482960000
| 16>  O        4.0973500000     1.9614340000     0.3686640000
| 17>  C        2.8339590000     2.5706280000     0.5985800000
| 18>  C        2.7608170000     3.5796820000     1.7012250000
| 19>  H        1.0742660000    -1.5291640000    -0.0484580000
| 20>  H        0.5588650000    -0.0578760000     0.7973300000
| 21>  H        1.7206390000    -1.1510740000     1.5562020000
| 22>  H        3.3846580000    -0.6372820000    -0.2323770000
| 23>  H        1.3259460000     0.9311860000    -1.2790790000
| 24>  H        3.1687600000     0.8363180000     1.8880540000
| 25>  H        2.3254910000     2.8411380000    -0.3259380000
| 26>  H        3.2925380000     3.2258130000     2.5861890000
| 27>  H        1.7207130000     3.7779280000     1.9739630000
| 28>  H        3.2109360000     4.5243220000     1.3859580000
| 29> *
| 30>
| 31>                          ****END OF INPUT****
 Total Charge           Charge          ....    0
 Multiplicity           Mult            ....    1
 Number of Electrons    NEL             ....   56
 Basis Dimension        Dim             ....  148

MULLIKEN ATOMIC CHARGES
-----------------------
   0 C :   -0.020608
   1 C :    0.154953
   2 O :   -0.262580
   3 C :    0.035091
   4 O :   -0.274346
   5 C :   -0.014854
   6 C :    0.081394
   7 H :    0.034082
   8 H :    0.011833
   9 H :    0.021771
  10 H :    0.015561
  11 H :    0.149800
  12 H :    0.000393
  13 H :   -0.001576
  14 H :    0.014687
  15 H :    0.022954
  16 H :    0.031444
Sum of atomic charges:   -0.0000000

LOEWDIN ATOMIC CHARGES
----------------------
   0 C :   -0.076402
   1 C :    0.031435
   2 O :   -0.097842
   3 C :    0.018117
   4 O :   -0.145843
   5 C :    0.035799
   6 C :   -0.067764
   7 H :    0.031897
   8 H :    0.022888
   9 H :    0.031920
  10 H :    0.031174
  11 H :    0.063365
  12 H :    0.011787
  13 H :    0.007304
  14 H :    0.032749
  15 H :    0.033770
  16 H :    0.035645

  Mayer bond orders larger than 0.1
B(  0-C ,  1-C ) :   1.0829 B(  0-C ,  7-H ) :   0.9542 B(  0-C ,  8-H ) :   0.9564
B(  0-C ,  9-H ) :   0.9478 B(  1-C ,  2-O ) :   1.0745 B(  1-C ,  3-C ) :   0.9600
B(  1-C , 10-H ) :   0.8902 B(  2-O , 11-H ) :   0.9807 B(  3-C ,  4-O ) :   0.9809
B(  3-C ,  5-C ) :   1.0539 B(  3-C , 12-H ) :   0.9162 B(  4-O ,  5-C ) :   1.0010
B(  5-C ,  6-C ) :   1.0822 B(  5-C , 13-H ) :   0.9116 B(  6-C , 14-H ) :   0.9452
B(  6-C , 15-H ) :   0.9518 B(  6-C , 16-H ) :   0.9497

FINAL SINGLE POINT ENERGY      -346.272249011086

DIPOLE MOMENT
-------------
                                X             Y             Z
Electronic contribution:      3.69084       0.14573      -3.71217
Nuclear contribution   :     -4.69329      -0.13765       4.35406
                        -----------------------------------------
Total Dipole Moment    :     -1.00245       0.00808       0.64189
                        -----------------------------------------
Magnitude (a.u.)       :      1.19037
Magnitude (Debye)      :      3.02569

                             ****ORCA TERMINATED NORMALLY****
TOTAL RUN TIME: 0 days 0 hours 0 minutes 7 seconds 449 msec
