                         Program Version 3.0.3 - RELEASE   -
|  1> ! RI PBE def2-SVP def2-SVP/J NBO PAL2
|  2> % maxcore 2000
|  3> % output
|  4>     # printlevel mini
|  5>     print[ P_Basis ] 0
|  6>     print[ P_SCFInfo ] 1
|  7>     print[ P_SCFIterInfo ] 1
|  8>     print[ P_OrbEn ] 0
|  9>     print[ P_Cartesian ] 0
| 10> end
| 11> *xyz 0 1
| 12>  C        1.0299950000    -0.4515990000     0.9078150000
| 13>  C        2.2773430000    -0.1468180000     0.1085370000
| 14>  O        3.2113400000     0.6099550000     0.8781880000
| 15>  C        3.0040170000    -1.3342340000    -0.4791880000
| 16>  O        4.1054380000    -0.9329460000    -1.2352210000
| 17>  C        3.1348290000    -2.6303750000     0.2731860000
| 18>  C        2.3181450000    -2.5435610000    -0.9929380000
| 19>  H        0.6028670000     0.4810610000     1.2789950000
| 20>  H        1.2514310000    -1.0879900000     1.7697200000
| 21>  H        0.2745540000    -0.9526820000     0.2998850000
| 22>  H        2.0217470000     0.5152900000    -0.7251840000
| 23>  H        3.4159420000     0.0980680000     1.6679330000
| 24>  H        4.5568170000    -0.2626930000    -0.7076020000
| 25>  H        2.6068110000    -2.7694490000     1.2091130000
| 26>  H        4.0966450000    -3.1226570000     0.2084550000
| 27>  H        1.2409270000    -2.6162460000    -0.9141280000
| 28>  H        2.7422410000    -2.9799330000    -1.8884740000
| 29> *
| 30>
| 31>                          ****END OF INPUT****
 Total Charge           Charge          ....    0
 Multiplicity           Mult            ....    1
 Number of Electrons    NEL             ....   56
 Basis Dimension        Dim             ....  148

MULLIKEN ATOMIC CHARGES
-----------------------
   0 C :   -0.009384
   1 C :    0.154508
   2 O :   -0.282628
   3 C :   -0.071491
   4 O :   -0.229682
   5 C :   -0.051826
   6 C :   -0.017523
   7 H :    0.030032
   8 H :    0.011973
   9 H :    0.030277
  10 H :    0.011262
  11 H :    0.150346
  12 H :    0.148042
  13 H :    0.022834
  14 H :    0.035375
  15 H :    0.032176
  16 H :    0.035709
Sum of atomic charges:    0.0000000

LOEWDIN ATOMIC CHARGES
----------------------
   0 C :   -0.075667
   1 C :    0.038535
   2 O :   -0.110342
   3 C :   -0.008707
   4 O :   -0.090046
   5 C :   -0.065307
   6 C :   -0.043812
   7 H :    0.034674
   8 H :    0.023161
   9 H :    0.033941
  10 H :    0.027826
  11 H :    0.066816
  12 H :    0.060121
  13 H :    0.018100
  14 H :    0.030388
  15 H :    0.025297
  16 H :    0.035023

  Mayer bond orders larger than 0.1
B(  0-C ,  1-C ) :   1.0954 B(  0-C ,  7-H ) :   0.9459 B(  0-C ,  8-H ) :   0.9445
B(  0-C ,  9-H ) :   0.9470 B(  1-C ,  2-O ) :   0.9914 B(  1-C ,  3-C ) :   0.9878
B(  1-C , 10-H ) :   0.8953 B(  2-O , 11-H ) :   0.9795 B(  3-C ,  4-O ) :   1.1256
B(  3-C ,  5-C ) :   0.9402 B(  3-C ,  6-C ) :   0.9719 B(  4-O , 12-H ) :   0.9585
B(  5-C ,  6-C ) :   1.0301 B(  5-C , 13-H ) :   0.9385 B(  5-C , 14-H ) :   0.9325
B(  6-C , 15-H ) :   0.9409 B(  6-C , 16-H ) :   0.9261

FINAL SINGLE POINT ENERGY      -346.277470496348

DIPOLE MOMENT
-------------
                                X             Y             Z
Electronic contribution:      4.07602       2.19970      -1.89957
Nuclear contribution   :     -4.41827      -2.39597       2.58172
                        -----------------------------------------
Total Dipole Moment    :     -0.34226      -0.19627       0.68216
                        -----------------------------------------
Magnitude (a.u.)       :      0.78803
Magnitude (Debye)      :      2.00303

                             ****ORCA TERMINATED NORMALLY****
TOTAL RUN TIME: 0 days 0 hours 0 minutes 7 seconds 155 msec
