                         Program Version 3.0.3 - RELEASE   -
|  1> ! RI PBE def2-SVP def2-SVP/J NBO PAL2
|  2> % maxcore 2000
|  3> % output
|  4>     # printlevel mini
|  5>     print[ P_Basis ] 0
|  6>     print[ P_SCFInfo ] 1
|  7>     print[ P_SCFIterInfo ] 1
|  8>     print[ P_OrbEn ] 0
|  9>     print[ P_Cartesian ] 0
| 10> end
| 11> *xyz 0 1
| 12>  C        1.2051500000    -0.3207060000     1.0028360000
| 13>  C        2.5818190000    -0.2361240000     0.3938710000
| 14>  O        3.2340530000    -1.4683550000     0.5669560000
| 15>  C        4.5291040000    -1.4792290000     0.0218060000
| 16>  C        5.1377390000    -2.8322870000     0.1938260000
| 17>  C        6.6291430000    -2.9551950000     0.2622250000
| 18>  C        5.7995870000    -3.1871560000     1.4876350000
| 19>  H        0.6759590000     0.6268350000     0.8797650000
| 20>  H        1.2698970000    -0.5448630000     2.0692840000
| 21>  H        0.6208330000    -1.1080380000     0.5227290000
| 22>  H        3.1651940000     0.5684980000     0.8694620000
| 23>  H        2.5154440000     0.0070940000    -0.6786410000
| 24>  H        5.1590120000    -0.7230730000     0.5197050000
| 25>  H        4.4870030000    -1.2113640000    -1.0465590000
| 26>  H        4.6067010000    -3.6305760000    -0.3139220000
| 27>  H        7.2138820000    -2.0439400000     0.2112680000
| 28>  H        7.0931860000    -3.8084670000    -0.2158680000
| 29>  H        5.8157400000    -2.4300220000     2.2625800000
| 30>  H        5.6963530000    -4.2007120000     1.8536510000
| 31> *
| 32>
| 33>                          ****END OF INPUT****
 Total Charge           Charge          ....    0
 Multiplicity           Mult            ....    1
 Number of Electrons    NEL             ....   56
 Basis Dimension        Dim             ....  158

MULLIKEN ATOMIC CHARGES
-----------------------
   0 C :   -0.031162
   1 C :    0.136808
   2 O :   -0.345185
   3 C :    0.265444
   4 C :   -0.151333
   5 C :   -0.038875
   6 C :   -0.027355
   7 H :    0.020148
   8 H :    0.034971
   9 H :    0.033393
  10 H :   -0.009292
  11 H :   -0.008134
  12 H :   -0.029766
  13 H :   -0.009081
  14 H :    0.027878
  15 H :    0.031012
  16 H :    0.033828
  17 H :    0.034169
  18 H :    0.032531
Sum of atomic charges:   -0.0000000

LOEWDIN ATOMIC CHARGES
----------------------
   0 C :   -0.076730
   1 C :    0.055940
   2 O :   -0.149550
   3 C :    0.065967
   4 C :   -0.051373
   5 C :   -0.043870
   6 C :   -0.041154
   7 H :    0.031522
   8 H :    0.031040
   9 H :    0.030525
  10 H :    0.001759
  11 H :    0.002156
  12 H :    0.002064
  13 H :    0.005293
  14 H :    0.029191
  15 H :    0.024576
  16 H :    0.027608
  17 H :    0.027059
  18 H :    0.027977

  Mayer bond orders larger than 0.1
B(  0-C ,  1-C ) :   1.1177 B(  0-C ,  7-H ) :   0.9529 B(  0-C ,  8-H ) :   0.9632
B(  0-C ,  9-H ) :   0.9634 B(  1-C ,  2-O ) :   1.0148 B(  1-C , 10-H ) :   0.9295
B(  1-C , 11-H ) :   0.9282 B(  2-O ,  3-C ) :   1.0193 B(  3-C ,  4-C ) :   1.0775
B(  3-C , 12-H ) :   0.9052 B(  3-C , 13-H ) :   0.9184 B(  4-C ,  5-C ) :   0.9826
B(  4-C ,  6-C ) :   0.9955 B(  4-C , 14-H ) :   0.9436 B(  5-C ,  6-C ) :   1.0438
B(  5-C , 15-H ) :   0.9492 B(  5-C , 16-H ) :   0.9451 B(  6-C , 17-H ) :   0.9490
B(  6-C , 18-H ) :   0.9497

FINAL SINGLE POINT ENERGY      -310.402773088654

DIPOLE MOMENT
-------------
                                X             Y             Z
Electronic contribution:      1.04219      -1.99477      -0.32426
Nuclear contribution   :     -0.91371       2.25034       0.16065
                        -----------------------------------------
Total Dipole Moment    :      0.12848       0.25557      -0.16362
                        -----------------------------------------
Magnitude (a.u.)       :      0.32954
Magnitude (Debye)      :      0.83761

                             ****ORCA TERMINATED NORMALLY****
TOTAL RUN TIME: 0 days 0 hours 0 minutes 7 seconds 742 msec
