                         Program Version 3.0.3 - RELEASE   -
|  1> ! RI PBE def2-SVP def2-SVP/J NBO PAL2
|  2> % maxcore 2000
|  3> % output
|  4>     # printlevel mini
|  5>     print[ P_Basis ] 0
|  6>     print[ P_SCFInfo ] 1
|  7>     print[ P_SCFIterInfo ] 1
|  8>     print[ P_OrbEn ] 0
|  9>     print[ P_Cartesian ] 0
| 10> end
| 11> *xyz 0 1
| 12>  C        1.9996470000     0.0271300000    -0.3132280000
| 13>  C        2.0294840000     1.3373210000    -0.0822890000
| 14>  O        3.0584380000     2.0838960000     0.3511060000
| 15>  C        4.2735520000     1.4049100000     0.6131960000
| 16>  C        5.2858060000     2.3895350000     1.0943090000
| 17>  C        6.7371870000     2.1036050000     0.8557260000
| 18>  C        6.0554160000     3.2029100000     0.1019180000
| 19>  H        1.0779330000    -0.4152320000    -0.6644630000
| 20>  H        2.8482830000    -0.6272370000    -0.1695090000
| 21>  H        1.1552480000     1.9609080000    -0.2390610000
| 22>  H        4.6247480000     0.9135960000    -0.3045840000
| 23>  H        4.0946070000     0.6235300000     1.3635070000
| 24>  H        5.0330940000     2.8755930000     2.0306070000
| 25>  H        6.9922740000     1.2002760000     0.3138700000
| 26>  H        7.4419840000     2.3701740000     1.6327810000
| 27>  H        5.8413970000     3.0418060000    -0.9479230000
| 28>  H        6.2946110000     4.2268900000     0.3586270000
| 29> *
| 30>
| 31>                          ****END OF INPUT****
 Total Charge           Charge          ....    0
 Multiplicity           Mult            ....    1
 Number of Electrons    NEL             ....   54
 Basis Dimension        Dim             ....  148

MULLIKEN ATOMIC CHARGES
-----------------------
   0 C :   -0.121853
   1 C :    0.106485
   2 O :   -0.258444
   3 C :    0.235779
   4 C :   -0.153951
   5 C :   -0.045144
   6 C :   -0.025177
   7 H :    0.021462
   8 H :    0.027697
   9 H :    0.010377
  10 H :   -0.001215
  11 H :    0.021493
  12 H :    0.029993
  13 H :    0.035394
  14 H :    0.039695
  15 H :    0.039865
  16 H :    0.037545
Sum of atomic charges:    0.0000000

LOEWDIN ATOMIC CHARGES
----------------------
   0 C :   -0.162777
   1 C :    0.031139
   2 O :   -0.065029
   3 C :    0.076695
   4 C :   -0.051702
   5 C :   -0.041387
   6 C :   -0.040009
   7 H :    0.031134
   8 H :    0.021441
   9 H :    0.022975
  10 H :    0.014302
  11 H :    0.018124
  12 H :    0.030333
  13 H :    0.025965
  14 H :    0.029923
  15 H :    0.028885
  16 H :    0.029987

  Mayer bond orders larger than 0.1
B(  0-C ,  1-C ) :   1.8570 B(  0-C ,  2-O ) :   0.1053 B(  0-C ,  7-H ) :   0.9341
B(  0-C ,  8-H ) :   0.9525 B(  1-C ,  2-O ) :   1.1689 B(  1-C ,  9-H ) :   0.9646
B(  2-O ,  3-C ) :   0.9692 B(  3-C ,  4-C ) :   1.0794 B(  3-C , 10-H ) :   0.9147
B(  3-C , 11-H ) :   0.9259 B(  4-C ,  5-C ) :   0.9860 B(  4-C ,  6-C ) :   0.9956
B(  4-C , 12-H ) :   0.9410 B(  5-C ,  6-C ) :   1.0413 B(  5-C , 13-H ) :   0.9497
B(  5-C , 14-H ) :   0.9456 B(  6-C , 15-H ) :   0.9492 B(  6-C , 16-H ) :   0.9484

FINAL SINGLE POINT ENERGY      -309.188201260020

DIPOLE MOMENT
-------------
                                X             Y             Z
Electronic contribution:     -2.85824       1.52584       0.40790
Nuclear contribution   :      3.23872      -1.58590      -0.30292
                        -----------------------------------------
Total Dipole Moment    :      0.38048      -0.06006       0.10498
                        -----------------------------------------
Magnitude (a.u.)       :      0.39924
Magnitude (Debye)      :      1.01479

                             ****ORCA TERMINATED NORMALLY****
TOTAL RUN TIME: 0 days 0 hours 0 minutes 7 seconds 103 msec
