                         Program Version 3.0.3 - RELEASE   -
|  1> ! RI PBE def2-SVP def2-SVP/J NBO PAL2
|  2> % maxcore 2000
|  3> % output
|  4>     # printlevel mini
|  5>     print[ P_Basis ] 0
|  6>     print[ P_SCFInfo ] 1
|  7>     print[ P_SCFIterInfo ] 1
|  8>     print[ P_OrbEn ] 0
|  9>     print[ P_Cartesian ] 0
| 10> end
| 11> *xyz 0 1
| 12>  C        1.0567420000    -0.1771050000     0.5502610000
| 13>  C        2.5241720000    -0.4048520000     0.2954940000
| 14>  O        3.0585870000    -1.4542220000     0.5523790000
| 15>  C        3.2805400000     0.7572420000    -0.3141880000
| 16>  C        4.7710260000     0.6063390000    -0.2819910000
| 17>  C        5.6448500000     1.8062920000    -0.4757360000
| 18>  C        5.5524570000     1.1526230000     0.8710080000
| 19>  H        0.5622200000    -1.1223650000     0.7670620000
| 20>  H        0.5789700000     0.3154740000    -0.3003100000
| 21>  H        0.9433350000     0.4906040000     1.4102970000
| 22>  H        2.9678780000     1.6838990000     0.1821100000
| 23>  H        2.9180320000     0.8514290000    -1.3481940000
| 24>  H        5.1308270000    -0.3292380000    -0.6936860000
| 25>  H        5.1627200000     2.7687740000    -0.6042290000
| 26>  H        6.5606970000     1.6893060000    -1.0414910000
| 27>  H        5.0068410000     1.6746280000     1.6489240000
| 28>  H        6.4020950000     0.5848810000     1.2280010000
| 29> *
| 30>
| 31>                          ****END OF INPUT****
 Total Charge           Charge          ....    0
 Multiplicity           Mult            ....    1
 Number of Electrons    NEL             ....   54
 Basis Dimension        Dim             ....  148

MULLIKEN ATOMIC CHARGES
-----------------------
   0 C :    0.020797
   1 C :   -0.073886
   2 O :   -0.159345
   3 C :    0.089837
   4 C :   -0.131345
   5 C :   -0.026926
   6 C :   -0.030663
   7 H :    0.038355
   8 H :    0.036275
   9 H :    0.049524
  10 H :    0.003965
  11 H :    0.037513
  12 H :    0.025585
  13 H :    0.023176
  14 H :    0.034182
  15 H :    0.026367
  16 H :    0.036588
Sum of atomic charges:   -0.0000000

LOEWDIN ATOMIC CHARGES
----------------------
   0 C :   -0.090605
   1 C :    0.057174
   2 O :   -0.119115
   3 C :   -0.065532
   4 C :   -0.038595
   5 C :   -0.047173
   6 C :   -0.041452
   7 H :    0.039002
   8 H :    0.040135
   9 H :    0.049836
  10 H :    0.035762
  11 H :    0.047861
  12 H :    0.030012
  13 H :    0.023024
  14 H :    0.027625
  15 H :    0.022883
  16 H :    0.029158

  Mayer bond orders larger than 0.1
B(  0-C ,  1-C ) :   1.0382 B(  0-C ,  7-H ) :   0.9457 B(  0-C ,  8-H ) :   0.9466
B(  0-C ,  9-H ) :   0.9383 B(  1-C ,  2-O ) :   2.1947 B(  1-C ,  3-C ) :   0.9379
B(  3-C ,  4-C ) :   1.0758 B(  3-C , 10-H ) :   0.9087 B(  3-C , 11-H ) :   0.8910
B(  4-C ,  5-C ) :   0.9878 B(  4-C ,  6-C ) :   1.0024 B(  4-C , 12-H ) :   0.9386
B(  5-C ,  6-C ) :   1.0493 B(  5-C , 13-H ) :   0.9447 B(  5-C , 14-H ) :   0.9444
B(  6-C , 15-H ) :   0.9489 B(  6-C , 16-H ) :   0.9489

FINAL SINGLE POINT ENERGY      -309.224738341916

DIPOLE MOMENT
-------------
                                X             Y             Z
Electronic contribution:     -0.02715      -4.32311       0.31887
Nuclear contribution   :     -0.39626       5.14916      -0.52868
                        -----------------------------------------
Total Dipole Moment    :     -0.42340       0.82605      -0.20981
                        -----------------------------------------
Magnitude (a.u.)       :      0.95166
Magnitude (Debye)      :      2.41892

                             ****ORCA TERMINATED NORMALLY****
TOTAL RUN TIME: 0 days 0 hours 0 minutes 6 seconds 690 msec
