                         Program Version 3.0.3 - RELEASE   -
|  1> ! RI PBE def2-SVP def2-SVP/J NBO PAL2
|  2> % maxcore 2000
|  3> % output
|  4>     # printlevel mini
|  5>     print[ P_Basis ] 0
|  6>     print[ P_SCFInfo ] 1
|  7>     print[ P_SCFIterInfo ] 1
|  8>     print[ P_OrbEn ] 0
|  9>     print[ P_Cartesian ] 0
| 10> end
| 11> *xyz 0 1
| 12>  C        0.9982470000     0.0685280000    -0.1654360000
| 13>  C        2.5077740000    -0.0196530000    -0.0470210000
| 14>  O        3.0953270000    -0.4011820000    -1.2818270000
| 15>  C        3.1204320000     1.2716070000     0.4805510000
| 16>  C        4.6006220000     1.1751810000     0.7212880000
| 17>  C        5.2740020000     2.1201240000     1.6659840000
| 18>  C        5.1121880000     0.6755530000     2.0376760000
| 19>  H        0.5923170000    -0.8636270000    -0.5622480000
| 20>  H        0.7102540000     0.8826170000    -0.8399070000
| 21>  H        0.5356100000     0.2632240000     0.8053300000
| 22>  H        2.7690830000    -0.8332860000     0.6379080000
| 23>  H        2.8517230000     0.2570610000    -1.9399170000
| 24>  H        2.6163090000     1.5513020000     1.4132140000
| 25>  H        2.9057890000     2.0772200000    -0.2363780000
| 26>  H        5.1745260000     0.8776330000    -0.1496340000
| 27>  H        4.6524980000     2.8443790000     2.1802900000
| 28>  H        6.2660490000     2.4787640000     1.4209860000
| 29>  H        4.3832640000     0.4319520000     2.8026820000
| 30>  H        5.9925780000     0.0452230000     2.0448670000
| 31> *
| 32>
| 33>                          ****END OF INPUT****
 Total Charge           Charge          ....    0
 Multiplicity           Mult            ....    1
 Number of Electrons    NEL             ....   56
 Basis Dimension        Dim             ....  158

MULLIKEN ATOMIC CHARGES
-----------------------
   0 C :    0.035639
   1 C :    0.053244
   2 O :   -0.282115
   3 C :    0.085671
   4 C :   -0.126994
   5 C :   -0.021521
   6 C :   -0.040972
   7 H :    0.025606
   8 H :    0.002923
   9 H :    0.013596
  10 H :    0.001808
  11 H :    0.148233
  12 H :   -0.017898
  13 H :   -0.007313
  14 H :    0.014371
  15 H :    0.027284
  16 H :    0.027170
  17 H :    0.025519
  18 H :    0.035750
Sum of atomic charges:   -0.0000000

LOEWDIN ATOMIC CHARGES
----------------------
   0 C :   -0.076811
   1 C :    0.041839
   2 O :   -0.113121
   3 C :   -0.048503
   4 C :   -0.042135
   5 C :   -0.047439
   6 C :   -0.049100
   7 H :    0.029095
   8 H :    0.020735
   9 H :    0.029146
  10 H :    0.022955
  11 H :    0.063443
  12 H :    0.025850
  13 H :    0.020573
  14 H :    0.024360
  15 H :    0.023958
  16 H :    0.025388
  17 H :    0.022251
  18 H :    0.027516

  Mayer bond orders larger than 0.1
B(  0-C ,  1-C ) :   1.0924 B(  0-C ,  7-H ) :   0.9548 B(  0-C ,  8-H ) :   0.9512
B(  0-C ,  9-H ) :   0.9480 B(  1-C ,  2-O ) :   1.0092 B(  1-C ,  3-C ) :   1.0479
B(  1-C , 10-H ) :   0.9089 B(  2-O , 11-H ) :   0.9845 B(  3-C ,  4-C ) :   1.0833
B(  3-C , 12-H ) :   0.9001 B(  3-C , 13-H ) :   0.9115 B(  4-C ,  5-C ) :   0.9906
B(  4-C ,  6-C ) :   1.0023 B(  4-C , 14-H ) :   0.9365 B(  5-C ,  6-C ) :   1.0484
B(  5-C , 15-H ) :   0.9443 B(  5-C , 16-H ) :   0.9456 B(  6-C , 17-H ) :   0.9444
B(  6-C , 18-H ) :   0.9475

FINAL SINGLE POINT ENERGY      -310.414520892138

DIPOLE MOMENT
-------------
                                X             Y             Z
Electronic contribution:      1.87309      -1.39396      -2.19045
Nuclear contribution   :     -2.20939       1.82112       2.19418
                        -----------------------------------------
Total Dipole Moment    :     -0.33630       0.42716       0.00373
                        -----------------------------------------
Magnitude (a.u.)       :      0.54367
Magnitude (Debye)      :      1.38190

                             ****ORCA TERMINATED NORMALLY****
TOTAL RUN TIME: 0 days 0 hours 0 minutes 8 seconds 321 msec
