                         Program Version 3.0.3 - RELEASE   -
|  1> ! RI PBE def2-SVP def2-SVP/J NBO PAL2
|  2> % maxcore 2000
|  3> % output
|  4>     # printlevel mini
|  5>     print[ P_Basis ] 0
|  6>     print[ P_SCFInfo ] 1
|  7>     print[ P_SCFIterInfo ] 1
|  8>     print[ P_OrbEn ] 0
|  9>     print[ P_Cartesian ] 0
| 10> end
| 11> *xyz 0 1
| 12>  C        2.2805830000     1.3819290000    -2.9232150000
| 13>  C        2.8700610000     1.7846630000    -1.5958980000
| 14>  O        3.9537650000     2.6537060000    -1.8229270000
| 15>  C        4.5687290000     3.0766260000    -0.6371560000
| 16>  C        5.7533820000     3.9226430000    -0.9916380000
| 17>  C        5.6675290000     5.3767110000    -1.0211410000
| 18>  O        6.2809450000     4.7020580000     0.0670570000
| 19>  H        1.4374340000     0.7042740000    -2.7728950000
| 20>  H        3.0267860000     0.8740890000    -3.5371910000
| 21>  H        1.9262110000     2.2584570000    -3.4689070000
| 22>  H        3.2130220000     0.8990880000    -1.0387660000
| 23>  H        2.1137500000     2.2859360000    -0.9723290000
| 24>  H        4.8993580000     2.2103030000    -0.0422070000
| 25>  H        3.8776620000     3.6614200000    -0.0112780000
| 26>  H        6.5003560000     3.4370020000    -1.6175690000
| 27>  H        4.7177390000     5.8555060000    -0.7946470000
| 28>  H        6.3436790000     5.9435800000    -1.6556850000
| 29> *
| 30>
| 31>                          ****END OF INPUT****
 Total Charge           Charge          ....    0
 Multiplicity           Mult            ....    1
 Number of Electrons    NEL             ....   56
 Basis Dimension        Dim             ....  148

MULLIKEN ATOMIC CHARGES
-----------------------
   0 C :   -0.029378
   1 C :    0.129406
   2 O :   -0.351249
   3 C :    0.267790
   4 C :   -0.031151
   5 C :    0.140409
   6 O :   -0.292345
   7 H :    0.025443
   8 H :    0.035396
   9 H :    0.032854
  10 H :   -0.001917
  11 H :   -0.001708
  12 H :    0.000219
  13 H :   -0.012845
  14 H :    0.026291
  15 H :    0.027960
  16 H :    0.034825
Sum of atomic charges:   -0.0000000

LOEWDIN ATOMIC CHARGES
----------------------
   0 C :   -0.076616
   1 C :    0.057796
   2 O :   -0.148650
   3 C :    0.053445
   4 C :    0.032817
   5 C :    0.057743
   6 O :   -0.152256
   7 H :    0.033726
   8 H :    0.031456
   9 H :    0.031085
  10 H :    0.004756
  11 H :    0.004542
  12 H :    0.010210
  13 H :    0.008489
  14 H :    0.017991
  15 H :    0.015369
  16 H :    0.018096

  Mayer bond orders larger than 0.1
B(  0-C ,  1-C ) :   1.1207 B(  0-C ,  7-H ) :   0.9525 B(  0-C ,  8-H ) :   0.9628
B(  0-C ,  9-H ) :   0.9616 B(  1-C ,  2-O ) :   1.0058 B(  1-C , 10-H ) :   0.9316
B(  1-C , 11-H ) :   0.9325 B(  2-O ,  3-C ) :   1.0157 B(  3-C ,  4-C ) :   1.0324
B(  3-C , 12-H ) :   0.9128 B(  3-C , 13-H ) :   0.9078 B(  4-C ,  5-C ) :   1.1010
B(  4-C ,  6-O ) :   0.9775 B(  4-C , 14-H ) :   0.9341 B(  5-C ,  6-O ) :   0.9960
B(  5-C , 15-H ) :   0.9280 B(  5-C , 16-H ) :   0.9398

FINAL SINGLE POINT ENERGY      -346.252877354576

DIPOLE MOMENT
-------------
                                X             Y             Z
Electronic contribution:      5.65644       3.94985       2.69429
Nuclear contribution   :     -6.16683      -4.16022      -2.95254
                        -----------------------------------------
Total Dipole Moment    :     -0.51039      -0.21036      -0.25826
                        -----------------------------------------
Magnitude (a.u.)       :      0.60946
Magnitude (Debye)      :      1.54913

                             ****ORCA TERMINATED NORMALLY****
TOTAL RUN TIME: 0 days 0 hours 0 minutes 7 seconds 239 msec
