                         Program Version 3.0.3 - RELEASE   -
|  1> ! RI PBE def2-SVP def2-SVP/J NBO PAL2
|  2> % maxcore 2000
|  3> % output
|  4>     # printlevel mini
|  5>     print[ P_Basis ] 0
|  6>     print[ P_SCFInfo ] 1
|  7>     print[ P_SCFIterInfo ] 1
|  8>     print[ P_OrbEn ] 0
|  9>     print[ P_Cartesian ] 0
| 10> end
| 11> *xyz 0 1
| 12>  C        2.2986700000     0.4357980000     0.3690620000
| 13>  C        2.0374240000     1.0249890000    -0.7934650000
| 14>  O        2.9017700000     1.6306580000    -1.6290900000
| 15>  C        4.2588070000     1.6327010000    -1.2440190000
| 16>  C        5.0396710000     2.3184980000    -2.3222360000
| 17>  C        5.3840020000     3.7309810000    -2.2247790000
| 18>  O        6.3439050000     2.7216850000    -1.9492560000
| 19>  H        1.4809590000    -0.0067020000     0.9203990000
| 20>  H        3.2883790000     0.3720990000     0.8002420000
| 21>  H        1.0321360000     1.0736600000    -1.1980160000
| 22>  H        4.6126120000     0.6015050000    -1.1149200000
| 23>  H        4.3934700000     2.1609020000    -0.2921820000
| 24>  H        4.9637590000     1.8703640000    -3.3115600000
| 25>  H        5.0478220000     4.3002520000    -1.3614960000
| 26>  H        5.5613240000     4.3040990000    -3.1307630000
| 27> *
| 28>
| 29>                          ****END OF INPUT****
 Total Charge           Charge          ....    0
 Multiplicity           Mult            ....    1
 Number of Electrons    NEL             ....   54
 Basis Dimension        Dim             ....  138

MULLIKEN ATOMIC CHARGES
-----------------------
   0 C :   -0.116080
   1 C :    0.110225
   2 O :   -0.268692
   3 C :    0.244525
   4 C :   -0.036387
   5 C :    0.145144
   6 O :   -0.286761
   7 H :    0.027987
   8 H :    0.030086
   9 H :    0.013336
  10 H :    0.028588
  11 H :    0.009203
  12 H :    0.029736
  13 H :    0.031390
  14 H :    0.037701
Sum of atomic charges:   -0.0000000

LOEWDIN ATOMIC CHARGES
----------------------
   0 C :   -0.154247
   1 C :    0.032747
   2 O :   -0.066980
   3 C :    0.064373
   4 C :    0.032363
   5 C :    0.060659
   6 O :   -0.148382
   7 H :    0.033862
   8 H :    0.023515
   9 H :    0.024134
  10 H :    0.022178
  11 H :    0.019720
  12 H :    0.019599
  13 H :    0.016869
  14 H :    0.019590

  Mayer bond orders larger than 0.1
B(  0-C ,  1-C ) :   1.8650 B(  0-C ,  2-O ) :   0.1020 B(  0-C ,  7-H ) :   0.9349
B(  0-C ,  8-H ) :   0.9525 B(  1-C ,  2-O ) :   1.1495 B(  1-C ,  9-H ) :   0.9653
B(  2-O ,  3-C ) :   0.9704 B(  3-C ,  4-C ) :   1.0312 B(  3-C , 10-H ) :   0.9194
B(  3-C , 11-H ) :   0.9120 B(  4-C ,  5-C ) :   1.1025 B(  4-C ,  6-O ) :   0.9883
B(  4-C , 12-H ) :   0.9330 B(  5-C ,  6-O ) :   0.9957 B(  5-C , 13-H ) :   0.9274
B(  5-C , 14-H ) :   0.9403

FINAL SINGLE POINT ENERGY      -345.037518647719

DIPOLE MOMENT
-------------
                                X             Y             Z
Electronic contribution:      1.67487       0.94839      -2.45185
Nuclear contribution   :     -1.99088      -0.78587       2.38236
                        -----------------------------------------
Total Dipole Moment    :     -0.31601       0.16253      -0.06950
                        -----------------------------------------
Magnitude (a.u.)       :      0.36209
Magnitude (Debye)      :      0.92036

                             ****ORCA TERMINATED NORMALLY****
TOTAL RUN TIME: 0 days 0 hours 0 minutes 6 seconds 373 msec
