                         Program Version 3.0.3 - RELEASE   -
|  1> ! RI PBE def2-SVP def2-SVP/J NBO PAL2
|  2> % maxcore 2000
|  3> % output
|  4>     # printlevel mini
|  5>     print[ P_Basis ] 0
|  6>     print[ P_SCFInfo ] 1
|  7>     print[ P_SCFIterInfo ] 1
|  8>     print[ P_OrbEn ] 0
|  9>     print[ P_Cartesian ] 0
| 10> end
| 11> *xyz 0 1
| 12>  C        1.1553240000    -0.2407800000    -0.5117980000
| 13>  C        2.6260230000    -0.5048290000    -0.3320620000
| 14>  O        3.2052830000    -1.3550320000    -0.9614680000
| 15>  C        3.3387380000     0.3579470000     0.6855390000
| 16>  C        4.8226700000     0.1566360000     0.7067250000
| 17>  C        5.7303020000     1.0601140000     0.0127500000
| 18>  O        5.5676230000     1.1314890000     1.4211680000
| 19>  H        0.7132060000    -1.0087580000    -1.1438230000
| 20>  H        1.0165510000     0.7376940000    -0.9819440000
| 21>  H        0.6436420000    -0.2043710000     0.4532970000
| 22>  H        2.9156480000     0.1263100000     1.6719470000
| 23>  H        3.0985920000     1.4115120000     0.5061840000
| 24>  H        5.1531460000    -0.8671280000     0.8631940000
| 25>  H        5.3231890000     1.9013210000    -0.5442800000
| 26>  H        6.6956740000     0.6957840000    -0.3280190000
| 27> *
| 28>
| 29>                          ****END OF INPUT****
 Total Charge           Charge          ....    0
 Multiplicity           Mult            ....    1
 Number of Electrons    NEL             ....   54
 Basis Dimension        Dim             ....  138

MULLIKEN ATOMIC CHARGES
-----------------------
   0 C :    0.025197
   1 C :   -0.080487
   2 O :   -0.158684
   3 C :    0.090862
   4 C :   -0.012176
   5 C :    0.147538
   6 O :   -0.293092
   7 H :    0.042858
   8 H :    0.047859
   9 H :    0.039095
  10 H :    0.044681
  11 H :    0.022387
  12 H :    0.028345
  13 H :    0.022887
  14 H :    0.032730
Sum of atomic charges:    0.0000000

LOEWDIN ATOMIC CHARGES
----------------------
   0 C :   -0.088145
   1 C :    0.058482
   2 O :   -0.119734
   3 C :   -0.079347
   4 C :    0.044769
   5 C :    0.059725
   6 O :   -0.157235
   7 H :    0.040413
   8 H :    0.049774
   9 H :    0.043092
  10 H :    0.052107
  11 H :    0.044857
  12 H :    0.020118
  13 H :    0.012693
  14 H :    0.018429

  Mayer bond orders larger than 0.1
B(  0-C ,  1-C ) :   1.0371 B(  0-C ,  7-H ) :   0.9482 B(  0-C ,  8-H ) :   0.9385
B(  0-C ,  9-H ) :   0.9459 B(  1-C ,  2-O ) :   2.1953 B(  1-C ,  3-C ) :   0.9239
B(  3-C ,  4-C ) :   1.0392 B(  3-C , 10-H ) :   0.8906 B(  3-C , 11-H ) :   0.9053
B(  4-C ,  5-C ) :   1.1013 B(  4-C ,  6-O ) :   0.9784 B(  4-C , 12-H ) :   0.9357
B(  5-C ,  6-O ) :   1.0015 B(  5-C , 13-H ) :   0.9302 B(  5-C , 14-H ) :   0.9398

FINAL SINGLE POINT ENERGY      -345.076663262162

DIPOLE MOMENT
-------------
                                X             Y             Z
Electronic contribution:      3.63780      -1.51409       0.55969
Nuclear contribution   :     -4.36935       1.92428      -0.62581
                        -----------------------------------------
Total Dipole Moment    :     -0.73154       0.41019      -0.06613
                        -----------------------------------------
Magnitude (a.u.)       :      0.84130
Magnitude (Debye)      :      2.13841

                             ****ORCA TERMINATED NORMALLY****
TOTAL RUN TIME: 0 days 0 hours 0 minutes 6 seconds 842 msec
