                         Program Version 3.0.3 - RELEASE   -
|  1> ! RI PBE def2-SVP def2-SVP/J NBO PAL2
|  2> % maxcore 2000
|  3> % output
|  4>     # printlevel mini
|  5>     print[ P_Basis ] 0
|  6>     print[ P_SCFInfo ] 1
|  7>     print[ P_SCFIterInfo ] 1
|  8>     print[ P_OrbEn ] 0
|  9>     print[ P_Cartesian ] 0
| 10> end
| 11> *xyz 0 1
| 12>  C        1.0575270000    -0.2692350000     0.0799420000
| 13>  C        2.5727650000    -0.2046200000     0.1011710000
| 14>  O        3.1345990000    -1.4379340000     0.5173150000
| 15>  C        3.1411640000     0.2482770000    -1.2379820000
| 16>  C        4.6281840000     0.4372110000    -1.2150120000
| 17>  C        5.5571750000    -0.5771810000    -1.6920870000
| 18>  O        5.2716150000     0.5720470000    -2.4743400000
| 19>  H        0.6797470000    -0.6067150000     1.0464870000
| 20>  H        0.7120760000    -0.9697740000    -0.6880550000
| 21>  H        0.6213060000     0.7075550000    -0.1418670000
| 22>  H        2.8860330000     0.5065710000     0.8738240000
| 23>  H        2.8297900000    -2.1222940000    -0.0860850000
| 24>  H        2.6692600000     1.1954620000    -1.5233950000
| 25>  H        2.8810740000    -0.4783070000    -2.0174700000
| 26>  H        4.9954760000     1.1330000000    -0.4597040000
| 27>  H        5.1637820000    -1.5133930000    -2.0816290000
| 28>  H        6.5634160000    -0.6267900000    -1.2839130000
| 29> *
| 30>
| 31>                          ****END OF INPUT****
 Total Charge           Charge          ....    0
 Multiplicity           Mult            ....    1
 Number of Electrons    NEL             ....   56
 Basis Dimension        Dim             ....  148

MULLIKEN ATOMIC CHARGES
-----------------------
   0 C :    0.034437
   1 C :    0.019652
   2 O :   -0.276972
   3 C :    0.106020
   4 C :   -0.012057
   5 C :    0.163085
   6 O :   -0.291465
   7 H :    0.027087
   8 H :    0.005947
   9 H :    0.016127
  10 H :    0.010026
  11 H :    0.148831
  12 H :    0.011476
  13 H :   -0.013588
  14 H :    0.013767
  15 H :    0.010153
  16 H :    0.027473
Sum of atomic charges:   -0.0000000

LOEWDIN ATOMIC CHARGES
----------------------
   0 C :   -0.075009
   1 C :    0.040208
   2 O :   -0.113331
   3 C :   -0.062113
   4 C :    0.039817
   5 C :    0.058338
   6 O :   -0.159302
   7 H :    0.029972
   8 H :    0.022138
   9 H :    0.030686
  10 H :    0.023182
  11 H :    0.064109
  12 H :    0.034981
  13 H :    0.025633
  14 H :    0.015549
  15 H :    0.009064
  16 H :    0.016075

  Mayer bond orders larger than 0.1
B(  0-C ,  1-C ) :   1.0912 B(  0-C ,  7-H ) :   0.9552 B(  0-C ,  8-H ) :   0.9530
B(  0-C ,  9-H ) :   0.9484 B(  1-C ,  2-O ) :   1.0355 B(  1-C ,  3-C ) :   1.0314
B(  1-C , 10-H ) :   0.9104 B(  2-O , 11-H ) :   0.9845 B(  3-C ,  4-C ) :   1.0455
B(  3-C , 12-H ) :   0.9029 B(  3-C , 13-H ) :   0.9006 B(  4-C ,  5-C ) :   1.1012
B(  4-C ,  6-O ) :   0.9818 B(  4-C , 14-H ) :   0.9324 B(  5-C ,  6-O ) :   1.0045
B(  5-C , 15-H ) :   0.9248 B(  5-C , 16-H ) :   0.9375

FINAL SINGLE POINT ENERGY      -346.266168088416

DIPOLE MOMENT
-------------
                                X             Y             Z
Electronic contribution:      5.10869       0.36901      -1.70540
Nuclear contribution   :     -5.67596      -0.67708       1.86594
                        -----------------------------------------
Total Dipole Moment    :     -0.56727      -0.30808       0.16054
                        -----------------------------------------
Magnitude (a.u.)       :      0.66519
Magnitude (Debye)      :      1.69077

                             ****ORCA TERMINATED NORMALLY****
TOTAL RUN TIME: 0 days 0 hours 0 minutes 7 seconds 468 msec
