                         Program Version 3.0.3 - RELEASE   -
|  1> ! RI PBE def2-SVP def2-SVP/J NBO PAL2
|  2> % maxcore 2000
|  3> % output
|  4>     # printlevel mini
|  5>     print[ P_Basis ] 0
|  6>     print[ P_SCFInfo ] 1
|  7>     print[ P_SCFIterInfo ] 1
|  8>     print[ P_OrbEn ] 0
|  9>     print[ P_Cartesian ] 0
| 10> end
| 11> *xyz 0 1
| 12>  C        1.1064020000    -1.9805260000    -1.0777350000
| 13>  C        2.2839220000    -1.5158560000    -0.6935720000
| 14>  O        3.4432540000    -1.9492300000    -1.2497430000
| 15>  C        4.6045760000    -1.4230740000    -0.8001680000
| 16>  C        5.7837710000    -1.7985100000    -1.2969790000
| 17>  C        7.0304170000    -1.2456460000    -0.8268920000
| 18>  C        8.2352160000    -1.5849280000    -1.2880890000
| 19>  H        0.2092440000    -1.6061720000    -0.6064620000
| 20>  H        1.0177250000    -2.7286880000    -1.8546800000
| 21>  H        2.3978210000    -0.7646480000     0.0843460000
| 22>  H        4.5123520000    -0.6786570000    -0.0119770000
| 23>  H        5.8076940000    -2.5469810000    -2.0834320000
| 24>  H        6.9609300000    -0.4987440000    -0.0380730000
| 25>  H        8.3525730000    -2.3244350000    -2.0733680000
| 26>  H        9.1375920000    -1.1342070000    -0.8948760000
| 27> *
| 28>
| 29>                          ****END OF INPUT****
 Total Charge           Charge          ....    0
 Multiplicity           Mult            ....    1
 Number of Electrons    NEL             ....   52
 Basis Dimension        Dim             ....  138

MULLIKEN ATOMIC CHARGES
-----------------------
   0 C :   -0.067164
   1 C :    0.098491
   2 O :   -0.184388
   3 C :    0.114857
   4 C :   -0.004733
   5 C :   -0.023741
   6 C :   -0.041686
   7 H :    0.031712
   8 H :    0.038312
   9 H :    0.008429
  10 H :   -0.001928
  11 H :    0.000821
  12 H :   -0.007781
  13 H :    0.017434
  14 H :    0.021364
Sum of atomic charges:   -0.0000000

LOEWDIN ATOMIC CHARGES
----------------------
   0 C :   -0.106626
   1 C :    0.037351
   2 O :   -0.001984
   3 C :    0.038649
   4 C :   -0.074417
   5 C :   -0.033593
   6 C :   -0.068253
   7 H :    0.035513
   8 H :    0.033640
   9 H :    0.016003
  10 H :    0.013900
  11 H :    0.036311
  12 H :    0.027250
  13 H :    0.022147
  14 H :    0.024109

  Mayer bond orders larger than 0.1
B(  0-C ,  1-C ) :   1.9237 B(  0-C ,  7-H ) :   0.9357 B(  0-C ,  8-H ) :   0.9512
B(  1-C ,  2-O ) :   1.0724 B(  1-C ,  9-H ) :   0.9471 B(  2-O ,  3-C ) :   1.0917
B(  3-C ,  4-C ) :   1.6882 B(  3-C ,  6-C ) :   0.1267 B(  3-C , 10-H ) :   0.9521
B(  4-C ,  5-C ) :   1.1405 B(  4-C , 11-H ) :   0.9677 B(  5-C ,  6-C ) :   1.8763
B(  5-C , 12-H ) :   0.9631 B(  6-C , 13-H ) :   0.9510 B(  6-C , 14-H ) :   0.9442

FINAL SINGLE POINT ENERGY      -307.983349442886

DIPOLE MOMENT
-------------
                                X             Y             Z
Electronic contribution:     -1.70766      -0.52927      -0.40509
Nuclear contribution   :      1.44500       0.82825       0.74144
                        -----------------------------------------
Total Dipole Moment    :     -0.26266       0.29898       0.33635
                        -----------------------------------------
Magnitude (a.u.)       :      0.52107
Magnitude (Debye)      :      1.32445

                             ****ORCA TERMINATED NORMALLY****
TOTAL RUN TIME: 0 days 0 hours 0 minutes 6 seconds 958 msec
