                         Program Version 3.0.3 - RELEASE   -
|  1> ! RI PBE def2-SVP def2-SVP/J NBO PAL2
|  2> % maxcore 2000
|  3> % output
|  4>     # printlevel mini
|  5>     print[ P_Basis ] 0
|  6>     print[ P_SCFInfo ] 1
|  7>     print[ P_SCFIterInfo ] 1
|  8>     print[ P_OrbEn ] 0
|  9>     print[ P_Cartesian ] 0
| 10> end
| 11> *xyz 0 1
| 12>  C        0.9138070000     0.0123130000     0.2003090000
| 13>  C        2.2355690000     0.0028140000     0.2139260000
| 14>  O        2.9355380000    -0.6644410000     1.1704270000
| 15>  C        4.2800100000    -0.6275900000     1.1176060000
| 16>  C        5.0244590000    -1.2617140000     2.0266180000
| 17>  C        6.4356080000    -1.2390040000     1.9940670000
| 18>  C        7.6397240000    -1.2390550000     1.9941450000
| 19>  H        0.3958850000     0.5547460000    -0.5772620000
| 20>  H        0.3347140000    -0.5107790000     0.9501520000
| 21>  H        2.8428040000     0.5186190000    -0.5254720000
| 22>  H        4.7165080000    -0.0581590000     0.3013340000
| 23>  H        4.5335720000    -1.8157050000     2.8207580000
| 24>  H        8.7036410000    -1.2360950000     1.9899130000
| 25> *
| 26>
| 27>                          ****END OF INPUT****
 Total Charge           Charge          ....    0
 Multiplicity           Mult            ....    1
 Number of Electrons    NEL             ....   50
 Basis Dimension        Dim             ....  128

MULLIKEN ATOMIC CHARGES
-----------------------
   0 C :   -0.061127
   1 C :    0.091797
   2 O :   -0.180428
   3 C :    0.135180
   4 C :   -0.082116
   5 C :    0.358322
   6 C :   -0.405389
   7 H :    0.036434
   8 H :    0.040552
   9 H :    0.012963
  10 H :    0.014685
  11 H :    0.037408
  12 H :    0.001719
Sum of atomic charges:   -0.0000000

LOEWDIN ATOMIC CHARGES
----------------------
   0 C :   -0.101194
   1 C :    0.038992
   2 O :    0.002392
   3 C :    0.061172
   4 C :   -0.095832
   5 C :   -0.023353
   6 C :   -0.078532
   7 H :    0.037535
   8 H :    0.035307
   9 H :    0.018358
  10 H :    0.021590
  11 H :    0.049608
  12 H :    0.033957

  Mayer bond orders larger than 0.1
B(  0-C ,  1-C ) :   1.9412 B(  0-C ,  7-H ) :   0.9338 B(  0-C ,  8-H ) :   0.9465
B(  1-C ,  2-O ) :   1.0639 B(  1-C ,  9-H ) :   0.9455 B(  2-O ,  3-C ) :   1.1084
B(  3-C ,  4-C ) :   1.7183 B(  3-C ,  6-C ) :   0.1187 B(  3-C , 10-H ) :   0.9526
B(  4-C ,  5-C ) :   1.0642 B(  4-C , 11-H ) :   0.9440 B(  5-C ,  6-C ) :   2.2827
B(  6-C , 12-H ) :   1.0899

FINAL SINGLE POINT ENERGY      -306.736918445058

DIPOLE MOMENT
-------------
                                X             Y             Z
Electronic contribution:      2.75290      -1.21518       1.73984
Nuclear contribution   :     -2.98670       1.52662      -2.18838
                        -----------------------------------------
Total Dipole Moment    :     -0.23379       0.31144      -0.44854
                        -----------------------------------------
Magnitude (a.u.)       :      0.59401
Magnitude (Debye)      :      1.50985

                             ****ORCA TERMINATED NORMALLY****
TOTAL RUN TIME: 0 days 0 hours 0 minutes 6 seconds 273 msec
