                         Program Version 3.0.3 - RELEASE   -
|  1> ! RI PBE def2-SVP def2-SVP/J NBO PAL2
|  2> % maxcore 2000
|  3> % output
|  4>     # printlevel mini
|  5>     print[ P_Basis ] 0
|  6>     print[ P_SCFInfo ] 1
|  7>     print[ P_SCFIterInfo ] 1
|  8>     print[ P_OrbEn ] 0
|  9>     print[ P_Cartesian ] 0
| 10> end
| 11> *xyz 0 1
| 12>  C        2.9211530000     0.4464690000     1.8375920000
| 13>  C        4.0255360000     0.0364970000     1.2365700000
| 14>  O        5.1729400000     0.7648340000     1.2716950000
| 15>  C        6.0417070000     0.6652140000     0.2263780000
| 16>  C        5.6932750000     0.2565540000    -0.9976880000
| 17>  C        7.3959600000     1.0776520000     0.5676240000
| 18>  C        7.7894250000     1.4675270000     1.7763430000
| 19>  H        2.0530090000    -0.1972140000     1.8558210000
| 20>  H        2.8681430000     1.4099640000     2.3283310000
| 21>  H        4.1100500000    -0.9197380000     0.7268060000
| 22>  H        4.6762410000     0.0013430000    -1.2607620000
| 23>  H        6.4480120000     0.1978380000    -1.7690830000
| 24>  H        8.0993570000     1.0562360000    -0.2583650000
| 25>  H        7.0992390000     1.4998250000     2.6103440000
| 26>  H        8.8141430000     1.7669790000     1.9577730000
| 27> *
| 28>
| 29>                          ****END OF INPUT****
 Total Charge           Charge          ....    0
 Multiplicity           Mult            ....    1
 Number of Electrons    NEL             ....   52
 Basis Dimension        Dim             ....  138

MULLIKEN ATOMIC CHARGES
-----------------------
   0 C :   -0.062615
   1 C :    0.091430
   2 O :   -0.210718
   3 C :    0.121201
   4 C :   -0.092887
   5 C :   -0.035161
   6 C :   -0.008176
   7 H :    0.033068
   8 H :    0.033119
   9 H :    0.018846
  10 H :    0.030441
  11 H :    0.023132
  12 H :   -0.003276
  13 H :    0.034628
  14 H :    0.026968
Sum of atomic charges:   -0.0000000

LOEWDIN ATOMIC CHARGES
----------------------
   0 C :   -0.103733
   1 C :    0.042565
   2 O :   -0.017376
   3 C :    0.031140
   4 C :   -0.110282
   5 C :   -0.042598
   6 C :   -0.036295
   7 H :    0.034557
   8 H :    0.031977
   9 H :    0.018420
  10 H :    0.028138
  11 H :    0.032358
  12 H :    0.034888
  13 H :    0.027938
  14 H :    0.028303

  Mayer bond orders larger than 0.1
B(  0-C ,  1-C ) :   1.9463 B(  0-C ,  7-H ) :   0.9389 B(  0-C ,  8-H ) :   0.9495
B(  1-C ,  2-O ) :   1.0639 B(  1-C ,  9-H ) :   0.9363 B(  2-O ,  3-C ) :   1.1044
B(  3-C ,  4-C ) :   1.7885 B(  3-C ,  5-C ) :   1.1115 B(  4-C ,  6-C ) :   0.1331
B(  4-C , 10-H ) :   0.9312 B(  4-C , 11-H ) :   0.9294 B(  5-C ,  6-C ) :   1.9136
B(  5-C , 12-H ) :   0.9506 B(  6-C , 13-H ) :   0.9413 B(  6-C , 14-H ) :   0.9367

FINAL SINGLE POINT ENERGY      -307.981685803616

DIPOLE MOMENT
-------------
                                X             Y             Z
Electronic contribution:      0.30606       0.32487       0.43948
Nuclear contribution   :     -0.26566      -0.51957      -0.61918
                        -----------------------------------------
Total Dipole Moment    :      0.04040      -0.19470      -0.17970
                        -----------------------------------------
Magnitude (a.u.)       :      0.26801
Magnitude (Debye)      :      0.68124

                             ****ORCA TERMINATED NORMALLY****
TOTAL RUN TIME: 0 days 0 hours 0 minutes 7 seconds 232 msec
