                         Program Version 3.0.3 - RELEASE   -
|  1> ! RI PBE def2-SVP def2-SVP/J NBO PAL2
|  2> % maxcore 2000
|  3> % output
|  4>     # printlevel mini
|  5>     print[ P_Basis ] 0
|  6>     print[ P_SCFInfo ] 1
|  7>     print[ P_SCFIterInfo ] 1
|  8>     print[ P_OrbEn ] 0
|  9>     print[ P_Cartesian ] 0
| 10> end
| 11> *xyz 0 1
| 12>  C        1.6348300000     1.4491120000    -1.4597650000
| 13>  C        2.9196930000     1.2440220000    -1.7005960000
| 14>  O        3.7302270000     0.7038900000    -0.7526520000
| 15>  C        5.0556570000     0.4879920000    -0.9912180000
| 16>  C        5.8028290000    -0.0454440000    -0.0241380000
| 17>  C        5.6003090000     0.8376100000    -2.2617090000
| 18>  C        6.0764670000     1.1263090000    -3.3270030000
| 19>  H        1.0145250000     1.8801060000    -2.2323880000
| 20>  H        1.1856980000     1.1967000000    -0.5078120000
| 21>  H        3.3977610000     1.4863430000    -2.6433840000
| 22>  H        5.3627820000    -0.3011030000     0.9305690000
| 23>  H        6.8537680000    -0.2241680000    -0.1927580000
| 24>  H        6.5054540000     1.3794320000    -4.2681360000
| 25> *
| 26>
| 27>                          ****END OF INPUT****
 Total Charge           Charge          ....    0
 Multiplicity           Mult            ....    1
 Number of Electrons    NEL             ....   50
 Basis Dimension        Dim             ....  128

MULLIKEN ATOMIC CHARGES
-----------------------
   0 C :   -0.069706
   1 C :    0.093411
   2 O :   -0.195920
   3 C :    0.085516
   4 C :   -0.030727
   5 C :    0.361681
   6 C :   -0.413645
   7 H :    0.033701
   8 H :    0.031587
   9 H :    0.022516
  10 H :    0.033918
  11 H :    0.032349
  12 H :    0.015320
Sum of atomic charges:   -0.0000000

LOEWDIN ATOMIC CHARGES
----------------------
   0 C :   -0.110906
   1 C :    0.040473
   2 O :   -0.009833
   3 C :    0.014620
   4 C :   -0.067228
   5 C :   -0.030691
   6 C :   -0.039249
   7 H :    0.034740
   8 H :    0.030632
   9 H :    0.021834
  10 H :    0.035040
  11 H :    0.038899
  12 H :    0.041668

  Mayer bond orders larger than 0.1
B(  0-C ,  1-C ) :   1.9347 B(  0-C ,  7-H ) :   0.9375 B(  0-C ,  8-H ) :   0.9469
B(  1-C ,  2-O ) :   1.0652 B(  1-C ,  9-H ) :   0.9376 B(  2-O ,  3-C ) :   1.1016
B(  3-C ,  4-C ) :   1.8707 B(  3-C ,  5-C ) :   0.9314 B(  4-C ,  6-C ) :   0.1212
B(  4-C , 10-H ) :   0.9227 B(  4-C , 11-H ) :   0.9313 B(  5-C ,  6-C ) :   2.2839
B(  5-C , 12-H ) :  -0.1007 B(  6-C , 12-H ) :   1.0905

FINAL SINGLE POINT ENERGY      -306.730434304061

DIPOLE MOMENT
-------------
                                X             Y             Z
Electronic contribution:      1.96700      -0.32529      -0.35562
Nuclear contribution   :     -1.68982       0.41682      -0.07981
                        -----------------------------------------
Total Dipole Moment    :      0.27717       0.09153      -0.43544
                        -----------------------------------------
Magnitude (a.u.)       :      0.52422
Magnitude (Debye)      :      1.33247

                             ****ORCA TERMINATED NORMALLY****
TOTAL RUN TIME: 0 days 0 hours 0 minutes 6 seconds 105 msec
