                         Program Version 3.0.3 - RELEASE   -
|  1> ! RI PBE def2-SVP def2-SVP/J NBO PAL2
|  2> % maxcore 2000
|  3> % output
|  4>     # printlevel mini
|  5>     print[ P_Basis ] 0
|  6>     print[ P_SCFInfo ] 1
|  7>     print[ P_SCFIterInfo ] 1
|  8>     print[ P_OrbEn ] 0
|  9>     print[ P_Cartesian ] 0
| 10> end
| 11> *xyz 0 1
| 12>  C        2.7009270000    -0.7020740000     0.7982360000
| 13>  C        2.2233330000     0.0374910000    -0.1977050000
| 14>  O        2.9041960000     0.8501060000    -1.0275980000
| 15>  C        4.2973380000     0.9386600000    -0.8271490000
| 16>  C        4.8427500000     1.9027730000    -1.8666240000
| 17>  C        6.2804230000     2.0656160000    -1.7459520000
| 18>  C        7.4686770000     2.1842960000    -1.6271220000
| 19>  H        2.0111780000    -1.3043240000     1.3726780000
| 20>  H        3.7469700000    -0.7373840000     1.0701510000
| 21>  H        1.1674800000     0.0512160000    -0.4459120000
| 22>  H        4.7590150000    -0.0493070000    -0.9385420000
| 23>  H        4.5114900000     1.3017510000     0.1847400000
| 24>  H        4.3469340000     2.8716560000    -1.7526890000
| 25>  H        4.5920180000     1.5330990000    -2.8656350000
| 26>  H        8.5225720000     2.2955240000    -1.5288970000
| 27> *
| 28>
| 29>                          ****END OF INPUT****
 Total Charge           Charge          ....    0
 Multiplicity           Mult            ....    1
 Number of Electrons    NEL             ....   52
 Basis Dimension        Dim             ....  138

MULLIKEN ATOMIC CHARGES
-----------------------
   0 C :   -0.120351
   1 C :    0.106186
   2 O :   -0.257661
   3 C :    0.113092
   4 C :    0.095482
   5 C :    0.302735
   6 C :   -0.478195
   7 H :    0.027964
   8 H :    0.030937
   9 H :    0.016438
  10 H :    0.035251
  11 H :    0.033961
  12 H :    0.047451
  13 H :    0.046061
  14 H :    0.000650
Sum of atomic charges:   -0.0000000

LOEWDIN ATOMIC CHARGES
----------------------
   0 C :   -0.154780
   1 C :    0.032490
   2 O :   -0.066551
   3 C :    0.079197
   4 C :   -0.050192
   5 C :   -0.023484
   6 C :   -0.081751
   7 H :    0.033496
   8 H :    0.023996
   9 H :    0.024513
  10 H :    0.020682
  11 H :    0.020271
  12 H :    0.053621
  13 H :    0.053102
  14 H :    0.035390

  Mayer bond orders larger than 0.1
B(  0-C ,  1-C ) :   1.8664 B(  0-C ,  2-O ) :   0.1014 B(  0-C ,  7-H ) :   0.9364
B(  0-C ,  8-H ) :   0.9536 B(  1-C ,  2-O ) :   1.1495 B(  1-C ,  9-H ) :   0.9647
B(  2-O ,  3-C ) :   0.9875 B(  3-C ,  4-C ) :   1.0590 B(  3-C , 10-H ) :   0.9360
B(  3-C , 11-H ) :   0.9372 B(  4-C ,  5-C ) :   1.0358 B(  4-C , 12-H ) :   0.8950
B(  4-C , 13-H ) :   0.8976 B(  5-C ,  6-C ) :   2.3680 B(  5-C , 14-H ) :  -0.1111
B(  6-C , 14-H ) :   1.1024

FINAL SINGLE POINT ENERGY      -307.947663037578

DIPOLE MOMENT
-------------
                                X             Y             Z
Electronic contribution:      0.88634       1.96368      -2.16226
Nuclear contribution   :     -0.80344      -1.96670       2.19304
                        -----------------------------------------
Total Dipole Moment    :      0.08290      -0.00302       0.03077
                        -----------------------------------------
Magnitude (a.u.)       :      0.08848
Magnitude (Debye)      :      0.22489

                             ****ORCA TERMINATED NORMALLY****
TOTAL RUN TIME: 0 days 0 hours 0 minutes 6 seconds 502 msec
