                         Program Version 3.0.3 - RELEASE   -
|  1> ! RI PBE def2-SVP def2-SVP/J NBO PAL2
|  2> % maxcore 2000
|  3> % output
|  4>     # printlevel mini
|  5>     print[ P_Basis ] 0
|  6>     print[ P_SCFInfo ] 1
|  7>     print[ P_SCFIterInfo ] 1
|  8>     print[ P_OrbEn ] 0
|  9>     print[ P_Cartesian ] 0
| 10> end
| 11> *xyz 0 1
| 12>  C        1.2973570000    -0.6522790000    -0.1857160000
| 13>  C        2.7500540000    -0.2602170000    -0.1482710000
| 14>  O        3.4986520000    -0.4962890000    -1.0716310000
| 15>  C        3.2061410000     0.4280570000     1.0796580000
| 16>  C        4.4769450000     0.8240410000     1.2268800000
| 17>  C        4.9963240000     1.4987860000     2.3906580000
| 18>  C        6.2694310000     1.8805900000     2.5061220000
| 19>  H        1.0671430000    -1.1486670000    -1.1262460000
| 20>  H        0.6660690000     0.2338990000    -0.0692650000
| 21>  H        1.0662570000    -1.3177000000     0.6516650000
| 22>  H        2.4774690000     0.6057510000     1.8661440000
| 23>  H        5.1639190000     0.6204010000     0.4077170000
| 24>  H        4.2991020000     1.6959800000     3.2016240000
| 25>  H        6.9845880000     1.6955230000     1.7113140000
| 26>  H        6.6337590000     2.3862250000     3.3920260000
| 27> *
| 28>
| 29>                          ****END OF INPUT****
 Total Charge           Charge          ....    0
 Multiplicity           Mult            ....    1
 Number of Electrons    NEL             ....   52
 Basis Dimension        Dim             ....  138

MULLIKEN ATOMIC CHARGES
-----------------------
   0 C :    0.017541
   1 C :   -0.014578
   2 O :   -0.169127
   3 C :   -0.055505
   4 C :    0.048517
   5 C :   -0.003611
   6 C :   -0.014223
   7 H :    0.033609
   8 H :    0.043116
   9 H :    0.042643
  10 H :   -0.011765
  11 H :    0.011815
  12 H :    0.002188
  13 H :    0.034920
  14 H :    0.034461
Sum of atomic charges:   -0.0000000

LOEWDIN ATOMIC CHARGES
----------------------
   0 C :   -0.088189
   1 C :    0.041659
   2 O :   -0.132367
   3 C :   -0.074865
   4 C :    0.025648
   5 C :   -0.030900
   6 C :   -0.020369
   7 H :    0.037485
   8 H :    0.045432
   9 H :    0.045044
  10 H :    0.023788
  11 H :    0.036183
  12 H :    0.031753
  13 H :    0.029840
  14 H :    0.029859

  Mayer bond orders larger than 0.1
B(  0-C ,  1-C ) :   1.0354 B(  0-C ,  7-H ) :   0.9469 B(  0-C ,  8-H ) :   0.9422
B(  0-C ,  9-H ) :   0.9437 B(  1-C ,  2-O ) :   2.1385 B(  1-C ,  3-C ) :   0.9705
B(  3-C ,  4-C ) :   1.7044 B(  3-C ,  6-C ) :   0.1343 B(  3-C , 10-H ) :   0.9556
B(  4-C ,  5-C ) :   1.1416 B(  4-C , 11-H ) :   0.9535 B(  5-C ,  6-C ) :   1.8609
B(  5-C , 12-H ) :   0.9610 B(  6-C , 13-H ) :   0.9475 B(  6-C , 14-H ) :   0.9415

FINAL SINGLE POINT ENERGY      -308.021970281399

DIPOLE MOMENT
-------------
                                X             Y             Z
Electronic contribution:      1.28860      -0.84376      -2.53188
Nuclear contribution   :     -1.56616       1.21955       3.49408
                        -----------------------------------------
Total Dipole Moment    :     -0.27756       0.37579       0.96220
                        -----------------------------------------
Magnitude (a.u.)       :      1.06962
Magnitude (Debye)      :      2.71876

                             ****ORCA TERMINATED NORMALLY****
TOTAL RUN TIME: 0 days 0 hours 0 minutes 6 seconds 700 msec
