                         Program Version 3.0.3 - RELEASE   -
|  1> ! RI PBE def2-SVP def2-SVP/J NBO PAL2
|  2> % maxcore 2000
|  3> % output
|  4>     # printlevel mini
|  5>     print[ P_Basis ] 0
|  6>     print[ P_SCFInfo ] 1
|  7>     print[ P_SCFIterInfo ] 1
|  8>     print[ P_OrbEn ] 0
|  9>     print[ P_Cartesian ] 0
| 10> end
| 11> *xyz 0 1
| 12>  C        3.1913870000     0.7848480000    -1.1185180000
| 13>  C        2.4215080000     0.0360170000    -0.0618290000
| 14>  O        1.2214630000     0.1611500000     0.0518140000
| 15>  C        3.1415080000    -0.8687840000     0.8562470000
| 16>  C        4.4633650000    -1.0839070000     0.8243640000
| 17>  C        5.1469530000    -1.9508010000     1.7056680000
| 18>  C        5.7572430000    -2.6818490000     2.4412980000
| 19>  H        2.4954500000     1.3923340000    -1.6933320000
| 20>  H        3.7082360000     0.0932660000    -1.7889020000
| 21>  H        3.9475040000     1.4311980000    -0.6652300000
| 22>  H        2.5143410000    -1.3686890000     1.5866650000
| 23>  H        5.0780420000    -0.5751870000     0.0861250000
| 24>  H        6.2874020000    -3.3321960000     3.0966290000
| 25> *
| 26>
| 27>                          ****END OF INPUT****
 Total Charge           Charge          ....    0
 Multiplicity           Mult            ....    1
 Number of Electrons    NEL             ....   50
 Basis Dimension        Dim             ....  128

MULLIKEN ATOMIC CHARGES
-----------------------
   0 C :    0.027961
   1 C :   -0.049343
   2 O :   -0.158621
   3 C :    0.018160
   4 C :   -0.046264
   5 C :    0.399561
   6 C :   -0.386161
   7 H :    0.039548
   8 H :    0.044074
   9 H :    0.043922
  10 H :    0.011586
  11 H :    0.038055
  12 H :    0.017522
Sum of atomic charges:   -0.0000000

LOEWDIN ATOMIC CHARGES
----------------------
   0 C :   -0.090790
   1 C :    0.040491
   2 O :   -0.116449
   3 C :   -0.026058
   4 C :   -0.018602
   5 C :   -0.015830
   6 C :   -0.033962
   7 H :    0.042245
   8 H :    0.044929
   9 H :    0.044733
  10 H :    0.041733
  11 H :    0.046339
  12 H :    0.041218

  Mayer bond orders larger than 0.1
B(  0-C ,  1-C ) :   1.0561 B(  0-C ,  7-H ) :   0.9415 B(  0-C ,  8-H ) :   0.9308
B(  0-C ,  9-H ) :   0.9329 B(  1-C ,  2-O ) :   2.1103 B(  1-C ,  3-C ) :   1.0081
B(  3-C ,  4-C ) :   1.6933 B(  3-C ,  6-C ) :   0.1240 B(  3-C , 10-H ) :   0.9707
B(  4-C ,  5-C ) :   1.0443 B(  4-C , 11-H ) :   0.9243 B(  5-C ,  6-C ) :   2.2579
B(  6-C , 12-H ) :   1.0846

FINAL SINGLE POINT ENERGY      -306.771960044512

DIPOLE MOMENT
-------------
                                X             Y             Z
Electronic contribution:     -1.43006      -2.10151       2.80430
Nuclear contribution   :      2.56409       1.92904      -2.85037
                        -----------------------------------------
Total Dipole Moment    :      1.13403      -0.17247      -0.04607
                        -----------------------------------------
Magnitude (a.u.)       :      1.14799
Magnitude (Debye)      :      2.91796

                             ****ORCA TERMINATED NORMALLY****
TOTAL RUN TIME: 0 days 0 hours 0 minutes 6 seconds 443 msec
