                         Program Version 3.0.3 - RELEASE   -
|  1> ! RI PBE def2-SVP def2-SVP/J NBO PAL2
|  2> % maxcore 2000
|  3> % output
|  4>     # printlevel mini
|  5>     print[ P_Basis ] 0
|  6>     print[ P_SCFInfo ] 1
|  7>     print[ P_SCFIterInfo ] 1
|  8>     print[ P_OrbEn ] 0
|  9>     print[ P_Cartesian ] 0
| 10> end
| 11> *xyz 0 1
| 12>  C        3.1113200000     0.8650530000     0.8094950000
| 13>  C        2.3763540000    -0.1402590000    -0.0346790000
| 14>  O        1.1691330000    -0.1558250000    -0.0765780000
| 15>  C        3.1958600000    -1.1303090000    -0.8223640000
| 16>  C        2.5459280000    -1.9572650000    -1.6442980000
| 17>  C        4.6569770000    -1.1440480000    -0.6779270000
| 18>  C        5.3990390000    -2.2456340000    -0.6226670000
| 19>  H        2.3912620000     1.4594650000     1.3679460000
| 20>  H        3.7134040000     1.5247950000     0.1773020000
| 21>  H        3.8005670000     0.3653610000     1.4953180000
| 22>  H        1.4643030000    -1.9201780000    -1.6979970000
| 23>  H        3.0773240000    -2.6588260000    -2.2760030000
| 24>  H        5.1538520000    -0.1798340000    -0.6034220000
| 25>  H        4.9493070000    -3.2327710000    -0.6433950000
| 26>  H        6.4782680000    -2.1935940000    -0.5428130000
| 27> *
| 28>
| 29>                          ****END OF INPUT****
 Total Charge           Charge          ....    0
 Multiplicity           Mult            ....    1
 Number of Electrons    NEL             ....   52
 Basis Dimension        Dim             ....  138

MULLIKEN ATOMIC CHARGES
-----------------------
   0 C :    0.028115
   1 C :   -0.034627
   2 O :   -0.150139
   3 C :   -0.057027
   4 C :   -0.000305
   5 C :   -0.024865
   6 C :   -0.032216
   7 H :    0.036929
   8 H :    0.046807
   9 H :    0.046304
  10 H :    0.043246
  11 H :    0.027467
  12 H :    0.007770
  13 H :    0.027478
  14 H :    0.035061
Sum of atomic charges:   -0.0000000

LOEWDIN ATOMIC CHARGES
----------------------
   0 C :   -0.086985
   1 C :    0.057792
   2 O :   -0.117043
   3 C :   -0.078421
   4 C :    0.021289
   5 C :   -0.033825
   6 C :   -0.038952
   7 H :    0.039812
   8 H :    0.046754
   9 H :    0.045821
  10 H :    0.031637
  11 H :    0.027752
  12 H :    0.030249
  13 H :    0.025658
  14 H :    0.028463

  Mayer bond orders larger than 0.1
B(  0-C ,  1-C ) :   1.0746 B(  0-C ,  7-H ) :   0.9428 B(  0-C ,  8-H ) :   0.9282
B(  0-C ,  9-H ) :   0.9286 B(  1-C ,  2-O ) :   2.1700 B(  1-C ,  3-C ) :   0.9008
B(  3-C ,  4-C ) :   1.9168 B(  3-C ,  5-C ) :   1.0459 B(  4-C , 10-H ) :   0.9201
B(  4-C , 11-H ) :   0.9338 B(  5-C ,  6-C ) :   1.9557 B(  5-C , 12-H ) :   0.9329
B(  6-C , 13-H ) :   0.9519 B(  6-C , 14-H ) :   0.9422

FINAL SINGLE POINT ENERGY      -308.009781841922

DIPOLE MOMENT
-------------
                                X             Y             Z
Electronic contribution:     -4.24003       0.22764      -0.60274
Nuclear contribution   :      5.21688      -0.27607       0.56650
                        -----------------------------------------
Total Dipole Moment    :      0.97686      -0.04843      -0.03624
                        -----------------------------------------
Magnitude (a.u.)       :      0.97873
Magnitude (Debye)      :      2.48773

                             ****ORCA TERMINATED NORMALLY****
TOTAL RUN TIME: 0 days 0 hours 0 minutes 6 seconds 864 msec
