                         Program Version 3.0.3 - RELEASE   -
|  1> ! RI PBE def2-SVP def2-SVP/J NBO PAL2
|  2> % maxcore 2000
|  3> % output
|  4>     # printlevel mini
|  5>     print[ P_Basis ] 0
|  6>     print[ P_SCFInfo ] 1
|  7>     print[ P_SCFIterInfo ] 1
|  8>     print[ P_OrbEn ] 0
|  9>     print[ P_Cartesian ] 0
| 10> end
| 11> *xyz 0 1
| 12>  C        1.0220750000    -0.1218480000    -0.1748210000
| 13>  C        2.5283440000    -0.0999060000    -0.1641230000
| 14>  O        3.1739140000    -1.0404870000    -0.5533090000
| 15>  C        3.2221620000     1.1332510000     0.3479450000
| 16>  C        2.5425130000     2.1985400000     0.7890950000
| 17>  C        4.6454570000     1.1108340000     0.3399850000
| 18>  C        5.8464130000     1.0895880000     0.3323260000
| 19>  H        0.6965780000    -1.0806720000    -0.5727670000
| 20>  H        0.6225430000     0.6834230000    -0.7960910000
| 21>  H        0.6208070000     0.0077450000     0.8332750000
| 22>  H        1.4605480000     2.2147410000     0.7947530000
| 23>  H        3.0576000000     3.0780950000     1.1543630000
| 24>  H        6.9103970000     1.0633760000     0.3227880000
| 25> *
| 26>
| 27>                          ****END OF INPUT****
 Total Charge           Charge          ....    0
 Multiplicity           Mult            ....    1
 Number of Electrons    NEL             ....   50
 Basis Dimension        Dim             ....  128

MULLIKEN ATOMIC CHARGES
-----------------------
   0 C :    0.015386
   1 C :   -0.017289
   2 O :   -0.121826
   3 C :   -0.093834
   4 C :    0.011120
   5 C :    0.424430
   6 C :   -0.430426
   7 H :    0.038369
   8 H :    0.048857
   9 H :    0.047076
  10 H :    0.031224
  11 H :    0.038307
  12 H :    0.008608
Sum of atomic charges:   -0.0000000

LOEWDIN ATOMIC CHARGES
----------------------
   0 C :   -0.087103
   1 C :    0.059950
   2 O :   -0.097461
   3 C :   -0.079422
   4 C :    0.011712
   5 C :   -0.005115
   6 C :   -0.040226
   7 H :    0.042655
   8 H :    0.045924
   9 H :    0.045591
  10 H :    0.028438
  11 H :    0.036860
  12 H :    0.038196

  Mayer bond orders larger than 0.1
B(  0-C ,  1-C ) :   1.0628 B(  0-C ,  7-H ) :   0.9407 B(  0-C ,  8-H ) :   0.9349
B(  0-C ,  9-H ) :   0.9352 B(  1-C ,  2-O ) :   2.2142 B(  1-C ,  3-C ) :   0.8988
B(  3-C ,  4-C ) :   1.8673 B(  3-C ,  5-C ) :   0.9870 B(  4-C ,  6-C ) :   0.1201
B(  4-C , 10-H ) :   0.9237 B(  4-C , 11-H ) :   0.9357 B(  5-C ,  6-C ) :   2.2839
B(  5-C , 12-H ) :  -0.1050 B(  6-C , 12-H ) :   1.0951

FINAL SINGLE POINT ENERGY      -306.765850705177

DIPOLE MOMENT
-------------
                                X             Y             Z
Electronic contribution:      4.92036      -1.57126      -0.64674
Nuclear contribution   :     -5.53104       2.39500       0.98759
                        -----------------------------------------
Total Dipole Moment    :     -0.61068       0.82373       0.34085
                        -----------------------------------------
Magnitude (a.u.)       :      1.08057
Magnitude (Debye)      :      2.74660

                             ****ORCA TERMINATED NORMALLY****
TOTAL RUN TIME: 0 days 0 hours 0 minutes 6 seconds 170 msec
