                         Program Version 3.0.3 - RELEASE   -
|  1> ! RI PBE def2-SVP def2-SVP/J NBO PAL2
|  2> % maxcore 2000
|  3> % output
|  4>     # printlevel mini
|  5>     print[ P_Basis ] 0
|  6>     print[ P_SCFInfo ] 1
|  7>     print[ P_SCFIterInfo ] 1
|  8>     print[ P_OrbEn ] 0
|  9>     print[ P_Cartesian ] 0
| 10> end
| 11> *xyz 0 1
| 12>  C        3.0635440000    -1.1168690000     0.9753310000
| 13>  C        2.5691210000     0.0522770000     0.1583430000
| 14>  O        1.6060560000     0.6827170000     0.5198300000
| 15>  C        3.3170520000     0.4046230000    -1.1313300000
| 16>  C        2.9420340000    -0.6489090000    -2.1820540000
| 17>  C        2.8811180000     1.7811620000    -1.6145260000
| 18>  C        4.8288230000     0.3834890000    -0.9000320000
| 19>  H        2.2713760000    -1.4429360000     1.6471590000
| 20>  H        3.9176270000    -0.7930770000     1.5779960000
| 21>  H        3.4033400000    -1.9502400000     0.3584690000
| 22>  H        1.8641320000    -0.6593460000    -2.3599470000
| 23>  H        3.2513030000    -1.6541680000    -1.8871330000
| 24>  H        3.4380160000    -0.4141030000    -3.1276060000
| 25>  H        1.8036820000     1.8180430000    -1.7767500000
| 26>  H        3.3860890000     2.0230160000    -2.5532930000
| 27>  H        3.1279080000     2.5525100000    -0.8820370000
| 28>  H        5.1872880000    -0.6034870000    -0.6000800000
| 29>  H        5.1247810000     1.1028080000    -0.1316970000
| 30>  H        5.3450990000     0.6551010000    -1.8244340000
| 31> *
| 32>
| 33>                          ****END OF INPUT****
 Total Charge           Charge          ....    0
 Multiplicity           Mult            ....    1
 Number of Electrons    NEL             ....   56
 Basis Dimension        Dim             ....  158

MULLIKEN ATOMIC CHARGES
-----------------------
   0 C :    0.034067
   1 C :   -0.002681
   2 O :   -0.159150
   3 C :   -0.358274
   4 C :    0.060235
   5 C :    0.090991
   6 C :    0.057322
   7 H :    0.037429
   8 H :    0.049828
   9 H :    0.029398
  10 H :    0.028066
  11 H :    0.016061
  12 H :    0.019471
  13 H :    0.023911
  14 H :    0.003730
  15 H :    0.014721
  16 H :    0.012850
  17 H :    0.023918
  18 H :    0.018107
Sum of atomic charges:   -0.0000000

LOEWDIN ATOMIC CHARGES
----------------------
   0 C :   -0.088019
   1 C :    0.070108
   2 O :   -0.119453
   3 C :   -0.097362
   4 C :   -0.038720
   5 C :   -0.045963
   6 C :   -0.044860
   7 H :    0.040349
   8 H :    0.051720
   9 H :    0.033678
  10 H :    0.030152
  11 H :    0.022312
  12 H :    0.029146
  13 H :    0.028890
  14 H :    0.022311
  15 H :    0.027465
  16 H :    0.022510
  17 H :    0.027167
  18 H :    0.028569

  Mayer bond orders larger than 0.1
B(  0-C ,  1-C ) :   1.0502 B(  0-C ,  7-H ) :   0.9411 B(  0-C ,  8-H ) :   0.9260
B(  0-C ,  9-H ) :   0.9430 B(  1-C ,  2-O ) :   2.2080 B(  1-C ,  3-C ) :   0.8700
B(  3-C ,  4-C ) :   1.0293 B(  3-C ,  5-C ) :   1.0684 B(  3-C ,  6-C ) :   1.0387
B(  4-C , 10-H ) :   0.9589 B(  4-C , 11-H ) :   0.9570 B(  4-C , 12-H ) :   0.9548
B(  5-C , 13-H ) :   0.9480 B(  5-C , 14-H ) :   0.9533 B(  5-C , 15-H ) :   0.9551
B(  6-C , 16-H ) :   0.9483 B(  6-C , 17-H ) :   0.9639 B(  6-C , 18-H ) :   0.9555

FINAL SINGLE POINT ENERGY      -310.450617322961

DIPOLE MOMENT
-------------
                                X             Y             Z
Electronic contribution:     -4.58102       1.34626       3.80395
Nuclear contribution   :      5.37207      -1.85311      -4.11590
                        -----------------------------------------
Total Dipole Moment    :      0.79105      -0.50685      -0.31195
                        -----------------------------------------
Magnitude (a.u.)       :      0.98994
Magnitude (Debye)      :      2.51622

                             ****ORCA TERMINATED NORMALLY****
TOTAL RUN TIME: 0 days 0 hours 0 minutes 8 seconds 522 msec
