                         Program Version 3.0.3 - RELEASE   -
|  1> ! RI PBE def2-SVP def2-SVP/J NBO PAL2
|  2> % maxcore 2000
|  3> % output
|  4>     # printlevel mini
|  5>     print[ P_Basis ] 0
|  6>     print[ P_SCFInfo ] 1
|  7>     print[ P_SCFIterInfo ] 1
|  8>     print[ P_OrbEn ] 0
|  9>     print[ P_Cartesian ] 0
| 10> end
| 11> *xyz 0 1
| 12>  C        0.9118790000     0.0246300000    -0.0260320000
| 13>  C        2.4112560000     0.0887040000    -0.0950820000
| 14>  O        3.0194670000     0.2295380000    -1.1303740000
| 15>  C        3.1012940000    -0.0297120000     1.1722460000
| 16>  C        3.6573500000    -0.1302130000     2.2406650000
| 17>  C        4.3643940000    -0.2420730000     3.4608620000
| 18>  C        3.7741170000    -0.3977710000     4.6465120000
| 19>  H        0.4945850000     0.1227230000    -1.0268630000
| 20>  H        0.5349910000     0.8222030000     0.6196900000
| 21>  H        0.6003940000    -0.9229330000     0.4214240000
| 22>  H        5.4482090000    -0.1945850000     3.3952830000
| 23>  H        2.6958000000    -0.4478860000     4.7387060000
| 24>  H        4.3622540000    -0.4783160000     5.5523530000
| 25> *
| 26>
| 27>                          ****END OF INPUT****
 Total Charge           Charge          ....    0
 Multiplicity           Mult            ....    1
 Number of Electrons    NEL             ....   50
 Basis Dimension        Dim             ....  128

MULLIKEN ATOMIC CHARGES
-----------------------
   0 C :    0.016991
   1 C :   -0.047139
   2 O :   -0.148204
   3 C :    0.031137
   4 C :   -0.043644
   5 C :   -0.087227
   6 C :    0.003503
   7 H :    0.038330
   8 H :    0.051906
   9 H :    0.049038
  10 H :    0.048573
  11 H :    0.043068
  12 H :    0.043668
Sum of atomic charges:   -0.0000000

LOEWDIN ATOMIC CHARGES
----------------------
   0 C :   -0.077320
   1 C :    0.031506
   2 O :   -0.103139
   3 C :   -0.056333
   4 C :   -0.008233
   5 C :   -0.044754
   6 C :    0.003329
   7 H :    0.039289
   8 H :    0.049532
   9 H :    0.049085
  10 H :    0.049986
  11 H :    0.033751
  12 H :    0.033302

  Mayer bond orders larger than 0.1
B(  0-C ,  1-C ) :   1.0451 B(  0-C ,  7-H ) :   0.9451 B(  0-C ,  8-H ) :   0.9435
B(  0-C ,  9-H ) :   0.9432 B(  1-C ,  2-O ) :   2.1520 B(  1-C ,  3-C ) :   0.8678
B(  2-O ,  4-C ) :   0.1017 B(  3-C ,  4-C ) :   2.4716 B(  3-C ,  6-C ) :   0.1201
B(  4-C ,  5-C ) :   1.0743 B(  5-C ,  6-C ) :   1.8869 B(  5-C , 10-H ) :   0.9493
B(  6-C , 11-H ) :   0.9561 B(  6-C , 12-H ) :   0.9447

FINAL SINGLE POINT ENERGY      -306.773014774955

DIPOLE MOMENT
-------------
                                X             Y             Z
Electronic contribution:      3.16430       0.52407      -3.58612
Nuclear contribution   :     -3.56840      -0.68685       4.88254
                        -----------------------------------------
Total Dipole Moment    :     -0.40409      -0.16277       1.29642
                        -----------------------------------------
Magnitude (a.u.)       :      1.36766
Magnitude (Debye)      :      3.47632

                             ****ORCA TERMINATED NORMALLY****
TOTAL RUN TIME: 0 days 0 hours 0 minutes 6 seconds 112 msec
