                         Program Version 3.0.3 - RELEASE   -
|  1> ! RI PBE def2-SVP def2-SVP/J NBO PAL2
|  2> % maxcore 2000
|  3> % output
|  4>     # printlevel mini
|  5>     print[ P_Basis ] 0
|  6>     print[ P_SCFInfo ] 1
|  7>     print[ P_SCFIterInfo ] 1
|  8>     print[ P_OrbEn ] 0
|  9>     print[ P_Cartesian ] 0
| 10> end
| 11> *xyz 0 1
| 12>  C        1.0287850000    -0.0689210000    -0.0674150000
| 13>  C        2.5260190000    -0.0041430000    -0.1363470000
| 14>  O        3.1307210000     0.7090090000    -0.9004570000
| 15>  C        3.2329300000    -0.8692170000     0.7890450000
| 16>  C        3.8144590000    -1.5940570000     1.5645900000
| 17>  C        4.4766720000    -2.4049470000     2.4327790000
| 18>  C        5.0616150000    -3.1239170000     3.2033790000
| 19>  H        0.6001390000     0.6141760000    -0.7987930000
| 20>  H        0.6908340000     0.1935530000     0.9386910000
| 21>  H        0.6911530000    -1.0906420000    -0.2609330000
| 22>  H        5.5810730000    -3.7579940000     3.8829600000
| 23> *
| 24>
| 25>                          ****END OF INPUT****
 Total Charge           Charge          ....    0
 Multiplicity           Mult            ....    1
 Number of Electrons    NEL             ....   48
 Basis Dimension        Dim             ....  118

MULLIKEN ATOMIC CHARGES
-----------------------
   0 C :    0.018433
   1 C :   -0.049333
   2 O :   -0.135802
   3 C :    0.008455
   4 C :    0.007788
   5 C :    0.358583
   6 C :   -0.389162
   7 H :    0.044929
   8 H :    0.054880
   9 H :    0.054977
  10 H :    0.026252
Sum of atomic charges:   -0.0000000

LOEWDIN ATOMIC CHARGES
----------------------
   0 C :   -0.075228
   1 C :    0.033107
   2 O :   -0.091411
   3 C :   -0.018229
   4 C :   -0.017390
   5 C :   -0.026473
   6 C :    0.003388
   7 H :    0.042460
   8 H :    0.052064
   9 H :    0.052043
  10 H :    0.045669

  Mayer bond orders larger than 0.1
B(  0-C ,  1-C ) :   1.0497 B(  0-C ,  7-H ) :   0.9432 B(  0-C ,  8-H ) :   0.9416
B(  0-C ,  9-H ) :   0.9419 B(  1-C ,  2-O ) :   2.1570 B(  1-C ,  3-C ) :   0.8575
B(  2-O ,  4-C ) :   0.1018 B(  3-C ,  4-C ) :   2.3890 B(  3-C ,  6-C ) :   0.2502
B(  4-C ,  5-C ) :   0.9528 B(  5-C ,  6-C ) :   2.1415 B(  5-C , 10-H ) :  -0.1001
B(  6-C , 10-H ) :   1.0889

FINAL SINGLE POINT ENERGY      -305.532709310133

DIPOLE MOMENT
-------------
                                X             Y             Z
Electronic contribution:      4.64034      -0.59825       0.64005
Nuclear contribution   :     -5.11489      -0.11521       0.12462
                        -----------------------------------------
Total Dipole Moment    :     -0.47455      -0.71346       0.76467
                        -----------------------------------------
Magnitude (a.u.)       :      1.14845
Magnitude (Debye)      :      2.91913

                             ****ORCA TERMINATED NORMALLY****
TOTAL RUN TIME: 0 days 0 hours 0 minutes 5 seconds 513 msec
