                         Program Version 3.0.3 - RELEASE   -
|  1> ! RI PBE def2-SVP def2-SVP/J NBO PAL2
|  2> % maxcore 2000
|  3> % output
|  4>     # printlevel mini
|  5>     print[ P_Basis ] 0
|  6>     print[ P_SCFInfo ] 1
|  7>     print[ P_SCFIterInfo ] 1
|  8>     print[ P_OrbEn ] 0
|  9>     print[ P_Cartesian ] 0
| 10> end
| 11> *xyz 0 1
| 12>  C        1.0956880000     0.0665870000    -0.9213490000
| 13>  C        2.5782590000     0.1925430000    -0.6853590000
| 14>  O        3.2478260000     1.0071450000    -1.2703410000
| 15>  C        3.1761740000    -0.7636930000     0.3215780000
| 16>  C        4.6952430000    -0.7269530000     0.3811550000
| 17>  C        5.2394700000    -1.6007570000     1.4611350000
| 18>  C        6.0585790000    -2.6263040000     1.2747790000
| 19>  H        0.7370670000     0.9118910000    -1.5059950000
| 20>  H        0.5499070000    -0.0001240000     0.0230220000
| 21>  H        0.8961470000    -0.8588830000    -1.4704500000
| 22>  H        2.8138540000    -1.7752520000     0.1034510000
| 23>  H        2.7421380000    -0.5136440000     1.2991970000
| 24>  H        5.0080410000     0.3098900000     0.5435820000
| 25>  H        5.1093740000    -1.0211470000    -0.5866800000
| 26>  H        4.9220830000    -1.3608200000     2.4756820000
| 27>  H        6.4027790000    -2.9020470000     0.2824350000
| 28>  H        6.4208810000    -3.2226210000     2.1041380000
| 29> *
| 30>
| 31>                          ****END OF INPUT****
 Total Charge           Charge          ....    0
 Multiplicity           Mult            ....    1
 Number of Electrons    NEL             ....   54
 Basis Dimension        Dim             ....  148

MULLIKEN ATOMIC CHARGES
-----------------------
   0 C :    0.030420
   1 C :   -0.069565
   2 O :   -0.162148
   3 C :   -0.031233
   4 C :    0.093972
   5 C :   -0.094117
   6 C :   -0.033874
   7 H :    0.039787
   8 H :    0.034369
   9 H :    0.048561
  10 H :    0.031120
  11 H :    0.033392
  12 H :    0.029597
  13 H :    0.009649
  14 H :    0.000696
  15 H :    0.015197
  16 H :    0.024177
Sum of atomic charges:    0.0000000

LOEWDIN ATOMIC CHARGES
----------------------
   0 C :   -0.087756
   1 C :    0.056876
   2 O :   -0.119360
   3 C :   -0.069562
   4 C :   -0.036285
   5 C :   -0.030488
   6 C :   -0.068234
   7 H :    0.039244
   8 H :    0.040624
   9 H :    0.049929
  10 H :    0.039894
  11 H :    0.043846
  12 H :    0.039709
  13 H :    0.032569
  14 H :    0.023373
  15 H :    0.021356
  16 H :    0.024265

  Mayer bond orders larger than 0.1
B(  0-C ,  1-C ) :   1.0371 B(  0-C ,  7-H ) :   0.9466 B(  0-C ,  8-H ) :   0.9459
B(  0-C ,  9-H ) :   0.9396 B(  1-C ,  2-O ) :   2.1839 B(  1-C ,  3-C ) :   0.9375
B(  3-C ,  4-C ) :   1.0736 B(  3-C , 10-H ) :   0.9227 B(  3-C , 11-H ) :   0.9053
B(  4-C ,  5-C ) :   1.0514 B(  4-C , 12-H ) :   0.9081 B(  4-C , 13-H ) :   0.9344
B(  5-C ,  6-C ) :   2.0193 B(  5-C , 14-H ) :   0.9522 B(  6-C , 15-H ) :   0.9481
B(  6-C , 16-H ) :   0.9430

FINAL SINGLE POINT ENERGY      -309.228415767910

DIPOLE MOMENT
-------------
                                X             Y             Z
Electronic contribution:      0.57464       3.47279      -2.14828
Nuclear contribution   :     -1.23038      -4.03165       2.57134
                        -----------------------------------------
Total Dipole Moment    :     -0.65574      -0.55886       0.42306
                        -----------------------------------------
Magnitude (a.u.)       :      0.95984
Magnitude (Debye)      :      2.43973

                             ****ORCA TERMINATED NORMALLY****
TOTAL RUN TIME: 0 days 0 hours 0 minutes 7 seconds 265 msec
