                         Program Version 3.0.3 - RELEASE   -
|  1> ! RI PBE def2-SVP def2-SVP/J NBO PAL2
|  2> % maxcore 2000
|  3> % output
|  4>     # printlevel mini
|  5>     print[ P_Basis ] 0
|  6>     print[ P_SCFInfo ] 1
|  7>     print[ P_SCFIterInfo ] 1
|  8>     print[ P_OrbEn ] 0
|  9>     print[ P_Cartesian ] 0
| 10> end
| 11> *xyz 0 1
| 12>  C        1.0696500000     0.0174590000    -0.3151770000
| 13>  C        2.5745850000     0.0320150000    -0.2901000000
| 14>  O        3.2307580000     0.0371410000    -1.3021080000
| 15>  C        3.2200810000     0.0412160000     1.0763920000
| 16>  C        4.7415220000     0.0693090000     1.0153040000
| 17>  C        5.3468100000     0.0764540000     2.3357600000
| 18>  C        5.8298480000     0.0824270000     3.4349580000
| 19>  H        0.7150380000    -0.0077630000    -1.3438040000
| 20>  H        0.6761310000     0.9049940000     0.1885520000
| 21>  H        0.6883500000    -0.8505660000     0.2298160000
| 22>  H        2.8710060000    -0.8371900000     1.6307500000
| 23>  H        2.8384560000     0.9027670000     1.6356680000
| 24>  H        5.0688120000     0.9483340000     0.4528730000
| 25>  H        5.1006700000    -0.7936060000     0.4474690000
| 26>  H        6.2672850000     0.0879390000     4.4050270000
| 27> *
| 28>
| 29>                          ****END OF INPUT****
 Total Charge           Charge          ....    0
 Multiplicity           Mult            ....    1
 Number of Electrons    NEL             ....   52
 Basis Dimension        Dim             ....  138

MULLIKEN ATOMIC CHARGES
-----------------------
   0 C :    0.041860
   1 C :   -0.061710
   2 O :   -0.165596
   3 C :   -0.045468
   4 C :    0.100833
   5 C :    0.343115
   6 C :   -0.513094
   7 H :    0.037399
   8 H :    0.042707
   9 H :    0.041683
  10 H :    0.045981
  11 H :    0.045314
  12 H :    0.044782
  13 H :    0.045011
  14 H :   -0.002818
Sum of atomic charges:   -0.0000000

LOEWDIN ATOMIC CHARGES
----------------------
   0 C :   -0.084788
   1 C :    0.057487
   2 O :   -0.118810
   3 C :   -0.062562
   4 C :   -0.042466
   5 C :   -0.022404
   6 C :   -0.094400
   7 H :    0.039104
   8 H :    0.046895
   9 H :    0.045982
  10 H :    0.047507
  11 H :    0.047124
  12 H :    0.053806
  13 H :    0.053875
  14 H :    0.033650

  Mayer bond orders larger than 0.1
B(  0-C ,  1-C ) :   1.0444 B(  0-C ,  7-H ) :   0.9464 B(  0-C ,  8-H ) :   0.9425
B(  0-C ,  9-H ) :   0.9434 B(  1-C ,  2-O ) :   2.1704 B(  1-C ,  3-C ) :   0.9375
B(  3-C ,  4-C ) :   1.0796 B(  3-C , 10-H ) :   0.9153 B(  3-C , 11-H ) :   0.9165
B(  4-C ,  5-C ) :   1.0437 B(  4-C , 12-H ) :   0.8964 B(  4-C , 13-H ) :   0.8955
B(  5-C ,  6-C ) :   2.3307 B(  5-C , 14-H ) :  -0.1112 B(  6-C , 14-H ) :   1.1017

FINAL SINGLE POINT ENERGY      -307.986018294353

DIPOLE MOMENT
-------------
                                X             Y             Z
Electronic contribution:      3.83321       0.03548      -0.80626
Nuclear contribution   :     -4.58516      -0.04058       1.36215
                        -----------------------------------------
Total Dipole Moment    :     -0.75196      -0.00511       0.55589
                        -----------------------------------------
Magnitude (a.u.)       :      0.93514
Magnitude (Debye)      :      2.37693

                             ****ORCA TERMINATED NORMALLY****
TOTAL RUN TIME: 0 days 0 hours 0 minutes 6 seconds 655 msec
