                         Program Version 3.0.3 - RELEASE   -
|  1> ! RI PBE def2-SVP def2-SVP/J NBO PAL2
|  2> % maxcore 2000
|  3> % output
|  4>     # printlevel mini
|  5>     print[ P_Basis ] 0
|  6>     print[ P_SCFInfo ] 1
|  7>     print[ P_SCFIterInfo ] 1
|  8>     print[ P_OrbEn ] 0
|  9>     print[ P_Cartesian ] 0
| 10> end
| 11> *xyz 0 1
| 12>  C        0.8785820000    -0.3682610000    -0.1284630000
| 13>  C        2.3647300000    -0.0314150000    -0.1032320000
| 14>  O        3.1344470000    -1.2243400000    -0.1931120000
| 15>  C        2.7927540000     0.8922050000    -1.2194950000
| 16>  C        2.0071160000     1.4945830000    -2.1009480000
| 17>  C        2.7082520000     0.6356460000     1.2020990000
| 18>  C        3.6297520000     0.2135630000     2.0534040000
| 19>  H        0.5992140000    -0.8184540000    -1.0849170000
| 20>  H        0.2612790000     0.5192170000     0.0251730000
| 21>  H        0.6646540000    -1.0802710000     0.6692960000
| 22>  H        3.0060630000    -1.5837750000    -1.0753000000
| 23>  H        3.8696910000     1.0400550000    -1.2595730000
| 24>  H        0.9288870000     1.3797420000    -2.0903310000
| 25>  H        2.4210700000     2.1366620000    -2.8699140000
| 26>  H        2.1318410000     1.5330570000     1.4107370000
| 27>  H        4.2103090000    -0.6780430000     1.8514180000
| 28>  H        3.8212690000     0.7478100000     2.9766570000
| 29> *
| 30>
| 31>                          ****END OF INPUT****
 Total Charge           Charge          ....    0
 Multiplicity           Mult            ....    1
 Number of Electrons    NEL             ....   54
 Basis Dimension        Dim             ....  148

MULLIKEN ATOMIC CHARGES
-----------------------
   0 C :    0.054510
   1 C :    0.000411
   2 O :   -0.249657
   3 C :   -0.036929
   4 C :   -0.029620
   5 C :   -0.054289
   6 C :   -0.009523
   7 H :    0.011109
   8 H :    0.021352
   9 H :    0.031985
  10 H :    0.155088
  11 H :    0.006283
  12 H :    0.022621
  13 H :    0.024795
  14 H :   -0.002077
  15 H :    0.033791
  16 H :    0.020151
Sum of atomic charges:    0.0000000

LOEWDIN ATOMIC CHARGES
----------------------
   0 C :   -0.061282
   1 C :    0.015396
   2 O :   -0.089825
   3 C :   -0.033881
   4 C :   -0.063608
   5 C :   -0.029896
   6 C :   -0.053490
   7 H :    0.022984
   8 H :    0.029503
   9 H :    0.034662
  10 H :    0.069715
  11 H :    0.029949
  12 H :    0.022951
  13 H :    0.027655
  14 H :    0.027657
  15 H :    0.026550
  16 H :    0.024961

  Mayer bond orders larger than 0.1
B(  0-C ,  1-C ) :   1.0752 B(  0-C ,  7-H ) :   0.9385 B(  0-C ,  8-H ) :   0.9376
B(  0-C ,  9-H ) :   0.9506 B(  1-C ,  2-O ) :   1.0279 B(  1-C ,  3-C ) :   0.9845
B(  1-C ,  5-C ) :   0.9577 B(  2-O , 10-H ) :   0.9775 B(  3-C ,  4-C ) :   1.9751
B(  3-C , 11-H ) :   0.9552 B(  4-C , 12-H ) :   0.9307 B(  4-C , 13-H ) :   0.9371
B(  5-C ,  6-C ) :   2.0097 B(  5-C , 14-H ) :   0.9527 B(  6-C , 15-H ) :   0.9349
B(  6-C , 16-H ) :   0.9366

FINAL SINGLE POINT ENERGY      -309.193302557438

DIPOLE MOMENT
-------------
                                X             Y             Z
Electronic contribution:      2.52556      -1.20509       0.14275
Nuclear contribution   :     -2.84799       1.28564      -0.58363
                        -----------------------------------------
Total Dipole Moment    :     -0.32243       0.08055      -0.44088
                        -----------------------------------------
Magnitude (a.u.)       :      0.55211
Magnitude (Debye)      :      1.40335

                             ****ORCA TERMINATED NORMALLY****
TOTAL RUN TIME: 0 days 0 hours 0 minutes 7 seconds 552 msec
