                         Program Version 3.0.3 - RELEASE   -
|  1> ! RI PBE def2-SVP def2-SVP/J NBO PAL2
|  2> % maxcore 2000
|  3> % output
|  4>     # printlevel mini
|  5>     print[ P_Basis ] 0
|  6>     print[ P_SCFInfo ] 1
|  7>     print[ P_SCFIterInfo ] 1
|  8>     print[ P_OrbEn ] 0
|  9>     print[ P_Cartesian ] 0
| 10> end
| 11> *xyz 0 1
| 12>  C        1.0100350000     0.2667440000     0.0817430000
| 13>  C        2.5269520000     0.0732790000     0.0007070000
| 14>  O        3.1607280000     0.7555480000     1.0832600000
| 15>  C        2.8567350000    -1.4003200000     0.0734250000
| 16>  C        3.4877700000    -2.1193080000    -0.8389840000
| 17>  C        3.0316760000     0.6872580000    -1.2275670000
| 18>  C        3.4106220000     1.1867670000    -2.2495470000
| 19>  H        0.6288810000    -0.1947020000     0.9976650000
| 20>  H        0.5126420000    -0.1978590000    -0.7706490000
| 21>  H        0.7771710000     1.3319730000     0.0986960000
| 22>  H        2.8564280000     0.3465340000     1.8995570000
| 23>  H        2.5140300000    -1.8719400000     0.9942520000
| 24>  H        3.8344670000    -1.6745410000    -1.7652610000
| 25>  H        3.6773500000    -3.1751070000    -0.6851990000
| 26>  H        3.7546130000     1.6399760000    -3.1491770000
| 27> *
| 28>
| 29>                          ****END OF INPUT****
 Total Charge           Charge          ....    0
 Multiplicity           Mult            ....    1
 Number of Electrons    NEL             ....   52
 Basis Dimension        Dim             ....  138

MULLIKEN ATOMIC CHARGES
-----------------------
   0 C :    0.063603
   1 C :    0.033293
   2 O :   -0.240848
   3 C :   -0.048008
   4 C :    0.003523
   5 C :    0.434912
   6 C :   -0.518891
   7 H :    0.004611
   8 H :    0.032698
   9 H :    0.034627
  10 H :    0.152248
  11 H :   -0.007486
  12 H :    0.030584
  13 H :    0.023844
  14 H :    0.001291
Sum of atomic charges:   -0.0000000

LOEWDIN ATOMIC CHARGES
----------------------
   0 C :   -0.049077
   1 C :    0.009308
   2 O :   -0.090673
   3 C :   -0.034906
   4 C :   -0.043555
   5 C :   -0.000270
   6 C :   -0.068848
   7 H :    0.022575
   8 H :    0.036498
   9 H :    0.034313
  10 H :    0.065736
  11 H :    0.023000
  12 H :    0.030808
  13 H :    0.028325
  14 H :    0.036766

  Mayer bond orders larger than 0.1
B(  0-C ,  1-C ) :   1.0491 B(  0-C ,  7-H ) :   0.9444 B(  0-C ,  8-H ) :   0.9506
B(  0-C ,  9-H ) :   0.9513 B(  1-C ,  2-O ) :   1.0647 B(  1-C ,  3-C ) :   0.9615
B(  1-C ,  5-C ) :   0.8974 B(  2-O , 10-H ) :   0.9752 B(  3-C ,  4-C ) :   2.0416
B(  3-C , 11-H ) :   0.9420 B(  4-C , 12-H ) :   0.9132 B(  4-C , 13-H ) :   0.9360
B(  5-C ,  6-C ) :   2.3456 B(  5-C , 14-H ) :  -0.1145 B(  6-C , 14-H ) :   1.1032

FINAL SINGLE POINT ENERGY      -307.941635660676

DIPOLE MOMENT
-------------
                                X             Y             Z
Electronic contribution:      2.84464       2.51647      -0.36337
Nuclear contribution   :     -3.30228      -2.96941       0.52397
                        -----------------------------------------
Total Dipole Moment    :     -0.45764      -0.45294       0.16060
                        -----------------------------------------
Magnitude (a.u.)       :      0.66362
Magnitude (Debye)      :      1.68678

                             ****ORCA TERMINATED NORMALLY****
TOTAL RUN TIME: 0 days 0 hours 0 minutes 7 seconds 199 msec
