                         Program Version 3.0.3 - RELEASE   -
|  1> ! RI PBE def2-SVP def2-SVP/J NBO PAL2
|  2> % maxcore 2000
|  3> % output
|  4>     # printlevel mini
|  5>     print[ P_Basis ] 0
|  6>     print[ P_SCFInfo ] 1
|  7>     print[ P_SCFIterInfo ] 1
|  8>     print[ P_OrbEn ] 0
|  9>     print[ P_Cartesian ] 0
| 10> end
| 11> *xyz 0 1
| 12>  C        1.0447410000    -0.0363400000     0.0431640000
| 13>  C        2.5781590000    -0.0273470000     0.0520040000
| 14>  O        3.0840170000    -0.3945850000    -1.2251570000
| 15>  C        3.0649690000     1.3094570000     0.4275810000
| 16>  C        3.4315630000     2.4217270000     0.6870900000
| 17>  C        3.0731980000    -1.0196810000     1.0130920000
| 18>  C        3.4373200000    -1.8324870000     1.8145320000
| 19>  H        0.6815820000     0.7056560000    -0.6707590000
| 20>  H        0.6507820000     0.2030640000     1.0311780000
| 21>  H        0.7021450000    -1.0271470000    -0.2554540000
| 22>  H        2.9723880000     0.3649060000    -1.8059410000
| 23>  H        3.7699880000     3.4018310000     0.9285850000
| 24>  H        3.7734480000    -2.5551540000     2.5200840000
| 25> *
| 26>
| 27>                          ****END OF INPUT****
 Total Charge           Charge          ....    0
 Multiplicity           Mult            ....    1
 Number of Electrons    NEL             ....   50
 Basis Dimension        Dim             ....  128

MULLIKEN ATOMIC CHARGES
-----------------------
   0 C :    0.086480
   1 C :   -0.003047
   2 O :   -0.224709
   3 C :    0.430561
   4 C :   -0.509720
   5 C :    0.457770
   6 C :   -0.495370
   7 H :    0.018963
   8 H :    0.033431
   9 H :    0.036642
  10 H :    0.159049
  11 H :    0.005231
  12 H :    0.004719
Sum of atomic charges:   -0.0000000

LOEWDIN ATOMIC CHARGES
----------------------
   0 C :   -0.039253
   1 C :    0.006183
   2 O :   -0.081075
   3 C :   -0.021105
   4 C :   -0.061368
   5 C :   -0.002582
   6 C :   -0.053936
   7 H :    0.029038
   8 H :    0.037653
   9 H :    0.036335
  10 H :    0.072857
  11 H :    0.039000
  12 H :    0.038254

  Mayer bond orders larger than 0.1
B(  0-C ,  1-C ) :   1.0740 B(  0-C ,  7-H ) :   0.9492 B(  0-C ,  8-H ) :   0.9461
B(  0-C ,  9-H ) :   0.9496 B(  1-C ,  2-O ) :   1.1128 B(  1-C ,  3-C ) :   0.9267
B(  1-C ,  5-C ) :   0.8759 B(  2-O , 10-H ) :   0.9730 B(  3-C ,  4-C ) :   2.3341
B(  3-C , 11-H ) :  -0.1192 B(  4-C , 11-H ) :   1.1082 B(  5-C ,  6-C ) :   2.3698
B(  5-C , 12-H ) :  -0.1162 B(  6-C , 12-H ) :   1.1053

FINAL SINGLE POINT ENERGY      -306.693960058200

DIPOLE MOMENT
-------------
                                X             Y             Z
Electronic contribution:      3.51719      -0.24769       0.23238
Nuclear contribution   :     -3.87586       0.74497      -0.21678
                        -----------------------------------------
Total Dipole Moment    :     -0.35868       0.49728       0.01560
                        -----------------------------------------
Magnitude (a.u.)       :      0.61333
Magnitude (Debye)      :      1.55897

                             ****ORCA TERMINATED NORMALLY****
TOTAL RUN TIME: 0 days 0 hours 0 minutes 5 seconds 966 msec
