                         Program Version 3.0.3 - RELEASE   -
|  1> ! RI PBE def2-SVP def2-SVP/J NBO PAL2
|  2> % maxcore 2000
|  3> % output
|  4>     # printlevel mini
|  5>     print[ P_Basis ] 0
|  6>     print[ P_SCFInfo ] 1
|  7>     print[ P_SCFIterInfo ] 1
|  8>     print[ P_OrbEn ] 0
|  9>     print[ P_Cartesian ] 0
| 10> end
| 11> *xyz 0 1
| 12>  C        1.8624940000    -0.7038070000    -1.4152040000
| 13>  C        2.6851000000    -0.0004980000    -0.3485470000
| 14>  O        1.9432770000     1.0695980000     0.2345740000
| 15>  C        3.1651350000    -0.9628700000     0.6929600000
| 16>  C        4.3849700000    -1.0605170000     1.2237360000
| 17>  C        5.5479880000    -0.1956930000     0.8524480000
| 18>  C        4.6837840000    -2.0834170000     2.2760070000
| 19>  H        1.4930210000     0.0197270000    -2.1441340000
| 20>  H        1.0009740000    -1.2084180000    -0.9659700000
| 21>  H        2.4582780000    -1.4575940000    -1.9360640000
| 22>  H        3.5330420000     0.4919310000    -0.8287850000
| 23>  H        1.2889730000     0.6870630000     0.8265530000
| 24>  H        2.4016540000    -1.6531550000     1.0563600000
| 25>  H        5.3028290000     0.5644940000     0.1132270000
| 26>  H        6.3698010000    -0.8054930000     0.4621640000
| 27>  H        5.9350400000     0.3132930000     1.7413290000
| 28>  H        3.8093580000    -2.6908960000     2.5131720000
| 29>  H        5.0303730000    -1.6024020000     3.1970470000
| 30>  H        5.4894170000    -2.7513460000     1.9524180000
| 31> *
| 32>
| 33>                          ****END OF INPUT****
 Total Charge           Charge          ....    0
 Multiplicity           Mult            ....    1
 Number of Electrons    NEL             ....   56
 Basis Dimension        Dim             ....  158

MULLIKEN ATOMIC CHARGES
-----------------------
   0 C :    0.015869
   1 C :    0.130294
   2 O :   -0.278298
   3 C :   -0.080050
   4 C :   -0.186980
   5 C :    0.065632
   6 C :    0.051895
   7 H :    0.020490
   8 H :    0.002332
   9 H :    0.018108
  10 H :   -0.005892
  11 H :    0.145161
  12 H :   -0.034756
  13 H :    0.021279
  14 H :    0.025742
  15 H :    0.023168
  16 H :    0.013669
  17 H :    0.025727
  18 H :    0.026611
Sum of atomic charges:   -0.0000000

LOEWDIN ATOMIC CHARGES
----------------------
   0 C :   -0.074138
   1 C :    0.041010
   2 O :   -0.115795
   3 C :   -0.082056
   4 C :   -0.031826
   5 C :   -0.056954
   6 C :   -0.054792
   7 H :    0.027825
   8 H :    0.019543
   9 H :    0.029083
  10 H :    0.020669
  11 H :    0.061454
  12 H :    0.015675
  13 H :    0.029690
  14 H :    0.036093
  15 H :    0.037710
  16 H :    0.028496
  17 H :    0.034179
  18 H :    0.034134

  Mayer bond orders larger than 0.1
B(  0-C ,  1-C ) :   1.0620 B(  0-C ,  7-H ) :   0.9517 B(  0-C ,  8-H ) :   0.9531
B(  0-C ,  9-H ) :   0.9533 B(  1-C ,  2-O ) :   1.0147 B(  1-C ,  3-C ) :   1.0199
B(  1-C , 10-H ) :   0.9046 B(  2-O , 11-H ) :   0.9824 B(  3-C ,  4-C ) :   1.8848
B(  3-C , 12-H ) :   0.9254 B(  4-C ,  5-C ) :   1.1039 B(  4-C ,  6-C ) :   1.0819
B(  5-C , 13-H ) :   0.9462 B(  5-C , 14-H ) :   0.9419 B(  5-C , 15-H ) :   0.9369
B(  6-C , 16-H ) :   0.9522 B(  6-C , 17-H ) :   0.9438 B(  6-C , 18-H ) :   0.9467

FINAL SINGLE POINT ENERGY      -310.422722176782

DIPOLE MOMENT
-------------
                                X             Y             Z
Electronic contribution:     -2.57697       2.92889       0.14014
Nuclear contribution   :      2.72535      -3.46571       0.08315
                        -----------------------------------------
Total Dipole Moment    :      0.14838      -0.53682       0.22330
                        -----------------------------------------
Magnitude (a.u.)       :      0.60005
Magnitude (Debye)      :      1.52520

                             ****ORCA TERMINATED NORMALLY****
TOTAL RUN TIME: 0 days 0 hours 0 minutes 8 seconds 156 msec
