                         Program Version 3.0.3 - RELEASE   -
|  1> ! RI PBE def2-SVP def2-SVP/J NBO PAL2
|  2> % maxcore 2000
|  3> % output
|  4>     # printlevel mini
|  5>     print[ P_Basis ] 0
|  6>     print[ P_SCFInfo ] 1
|  7>     print[ P_SCFIterInfo ] 1
|  8>     print[ P_OrbEn ] 0
|  9>     print[ P_Cartesian ] 0
| 10> end
| 11> *xyz 0 1
| 12>  C        3.8502670000     0.4373900000    -0.9689330000
| 13>  C        2.7240210000    -0.0518300000    -0.0806210000
| 14>  O        2.0348310000    -1.1469470000    -0.6748330000
| 15>  C        3.1233680000    -0.4096130000     1.3174280000
| 16>  C        4.3383720000    -0.2924560000     1.8584010000
| 17>  C        4.6544490000    -0.6754070000     3.2190300000
| 18>  C        5.8623880000    -0.5554930000     3.7691460000
| 19>  H        3.4594460000     0.6420940000    -1.9663840000
| 20>  H        4.6378740000    -0.3165610000    -1.0578050000
| 21>  H        4.2975630000     1.3545200000    -0.5788390000
| 22>  H        1.9608690000     0.7342450000    -0.0221090000
| 23>  H        2.6241030000    -1.9072340000    -0.6505510000
| 24>  H        2.3143160000    -0.8209410000     1.9190040000
| 25>  H        5.1569930000     0.1168330000     1.2705880000
| 26>  H        3.8369640000    -1.0840720000     3.8093580000
| 27>  H        6.6996130000    -0.1508930000     3.2092370000
| 28>  H        6.0528830000    -0.8558240000     4.7920830000
| 29> *
| 30>
| 31>                          ****END OF INPUT****
 Total Charge           Charge          ....    0
 Multiplicity           Mult            ....    1
 Number of Electrons    NEL             ....   54
 Basis Dimension        Dim             ....  148

MULLIKEN ATOMIC CHARGES
-----------------------
   0 C :    0.022777
   1 C :    0.132014
   2 O :   -0.283278
   3 C :   -0.110097
   4 C :    0.019527
   5 C :   -0.002974
   6 C :   -0.031376
   7 H :    0.026530
   8 H :    0.013823
   9 H :    0.023402
  10 H :    0.017932
  11 H :    0.148663
  12 H :   -0.000361
  13 H :   -0.014930
  14 H :   -0.006911
  15 H :    0.018329
  16 H :    0.026930
Sum of atomic charges:   -0.0000000

LOEWDIN ATOMIC CHARGES
----------------------
   0 C :   -0.076724
   1 C :    0.038784
   2 O :   -0.111263
   3 C :   -0.046136
   4 C :   -0.040681
   5 C :   -0.031028
   6 C :   -0.051101
   7 H :    0.032709
   8 H :    0.023202
   9 H :    0.031130
  10 H :    0.033864
  11 H :    0.065471
  12 H :    0.026484
  13 H :    0.026384
  14 H :    0.029715
  15 H :    0.022906
  16 H :    0.026284

  Mayer bond orders larger than 0.1
B(  0-C ,  1-C ) :   1.1225 B(  0-C ,  7-H ) :   0.9480 B(  0-C ,  8-H ) :   0.9438
B(  0-C ,  9-H ) :   0.9375 B(  1-C ,  2-O ) :   0.9998 B(  1-C ,  3-C ) :   1.0073
B(  1-C , 10-H ) :   0.8824 B(  2-O , 11-H ) :   0.9857 B(  3-C ,  4-C ) :   1.7702
B(  3-C ,  6-C ) :   0.1353 B(  3-C , 12-H ) :   0.9643 B(  4-C ,  5-C ) :   1.1282
B(  4-C , 13-H ) :   0.9419 B(  5-C ,  6-C ) :   1.8839 B(  5-C , 14-H ) :   0.9637
B(  6-C , 15-H ) :   0.9463 B(  6-C , 16-H ) :   0.9418

FINAL SINGLE POINT ENERGY      -309.204778404377

DIPOLE MOMENT
-------------
                                X             Y             Z
Electronic contribution:     -2.76320      -1.61692       0.53123
Nuclear contribution   :      3.22121       1.59374      -0.43092
                        -----------------------------------------
Total Dipole Moment    :      0.45801      -0.02318       0.10030
                        -----------------------------------------
Magnitude (a.u.)       :      0.46944
Magnitude (Debye)      :      1.19322

                             ****ORCA TERMINATED NORMALLY****
TOTAL RUN TIME: 0 days 0 hours 0 minutes 7 seconds 546 msec
