                         Program Version 3.0.3 - RELEASE   -
|  1> ! RI PBE def2-SVP def2-SVP/J NBO PAL2
|  2> % maxcore 2000
|  3> % output
|  4>     # printlevel mini
|  5>     print[ P_Basis ] 0
|  6>     print[ P_SCFInfo ] 1
|  7>     print[ P_SCFIterInfo ] 1
|  8>     print[ P_OrbEn ] 0
|  9>     print[ P_Cartesian ] 0
| 10> end
| 11> *xyz 0 1
| 12>  C        0.9179000000     0.1247650000    -0.0502610000
| 13>  C        2.4210010000     0.0228710000     0.1453460000
| 14>  O        3.1202660000     0.7406500000    -0.8615740000
| 15>  C        2.8328690000     0.4795410000     1.5087750000
| 16>  C        3.4472540000    -0.2955420000     2.4036340000
| 17>  C        3.8323130000     0.1295160000     3.6992600000
| 18>  C        4.1711760000     0.4603760000     4.8055990000
| 19>  H        0.6503700000    -0.1968510000    -1.0586540000
| 20>  H        0.5803900000     1.1578970000     0.0839700000
| 21>  H        0.3840280000    -0.4960590000     0.6722710000
| 22>  H        2.7345180000    -1.0167960000     0.0126280000
| 23>  H        2.8115820000     1.6517730000    -0.8536020000
| 24>  H        2.6057610000     1.5132640000     1.7652770000
| 25>  H        3.6787610000    -1.3272590000     2.1462980000
| 26>  H        4.4692190000     0.7613660000     5.7818440000
| 27> *
| 28>
| 29>                          ****END OF INPUT****
 Total Charge           Charge          ....    0
 Multiplicity           Mult            ....    1
 Number of Electrons    NEL             ....   52
 Basis Dimension        Dim             ....  138

MULLIKEN ATOMIC CHARGES
-----------------------
   0 C :    0.007420
   1 C :    0.116693
   2 O :   -0.273799
   3 C :   -0.009803
   4 C :   -0.062371
   5 C :    0.381831
   6 C :   -0.411168
   7 H :    0.030396
   8 H :    0.008621
   9 H :    0.029364
  10 H :    0.001336
  11 H :    0.151097
  12 H :   -0.001954
  13 H :    0.025675
  14 H :    0.006662
Sum of atomic charges:   -0.0000000

LOEWDIN ATOMIC CHARGES
----------------------
   0 C :   -0.072573
   1 C :    0.040378
   2 O :   -0.104612
   3 C :   -0.012538
   4 C :   -0.051609
   5 C :   -0.019763
   6 C :   -0.066240
   7 H :    0.031382
   8 H :    0.022520
   9 H :    0.034883
  10 H :    0.026612
  11 H :    0.065330
  12 H :    0.027001
  13 H :    0.042991
  14 H :    0.036239

  Mayer bond orders larger than 0.1
B(  0-C ,  1-C ) :   1.0708 B(  0-C ,  7-H ) :   0.9516 B(  0-C ,  8-H ) :   0.9547
B(  0-C ,  9-H ) :   0.9513 B(  1-C ,  2-O ) :   0.9981 B(  1-C ,  3-C ) :   1.0059
B(  1-C , 10-H ) :   0.9097 B(  2-O , 11-H ) :   0.9837 B(  3-C ,  4-C ) :   1.8192
B(  3-C ,  6-C ) :   0.1297 B(  3-C , 12-H ) :   0.9455 B(  4-C ,  5-C ) :   1.0394
B(  4-C , 13-H ) :   0.9385 B(  5-C ,  6-C ) :   2.2810 B(  6-C , 14-H ) :   1.0846

FINAL SINGLE POINT ENERGY      -307.956806128733

DIPOLE MOMENT
-------------
                                X             Y             Z
Electronic contribution:      4.48434       0.27125       3.38362
Nuclear contribution   :     -5.02333      -0.02262      -3.34408
                        -----------------------------------------
Total Dipole Moment    :     -0.53899       0.24862       0.03953
                        -----------------------------------------
Magnitude (a.u.)       :      0.59488
Magnitude (Debye)      :      1.51207

                             ****ORCA TERMINATED NORMALLY****
TOTAL RUN TIME: 0 days 0 hours 0 minutes 7 seconds 5 msec
