                         Program Version 3.0.3 - RELEASE   -
|  1> ! RI PBE def2-SVP def2-SVP/J NBO PAL2
|  2> % maxcore 2000
|  3> % output
|  4>     # printlevel mini
|  5>     print[ P_Basis ] 0
|  6>     print[ P_SCFInfo ] 1
|  7>     print[ P_SCFIterInfo ] 1
|  8>     print[ P_OrbEn ] 0
|  9>     print[ P_Cartesian ] 0
| 10> end
| 11> *xyz 0 1
| 12>  C        0.9563080000     0.0092680000     0.0442630000
| 13>  C        2.4573550000    -0.0803010000    -0.1303870000
| 14>  O        2.9267630000    -1.3966570000     0.1393270000
| 15>  C        2.9873830000     0.3785310000    -1.4746570000
| 16>  C        2.1983800000     0.6702680000    -2.5086150000
| 17>  C        4.4536240000     0.4277130000    -1.5609230000
| 18>  C        5.1520870000     1.2936960000    -2.2886750000
| 19>  H        0.6912700000    -0.3419640000     1.0424360000
| 20>  H        0.4330130000    -0.6165120000    -0.6845890000
| 21>  H        0.6010180000     1.0357840000    -0.0685730000
| 22>  H        2.9347560000     0.5331330000     0.6423130000
| 23>  H        2.5923110000    -1.9701790000    -0.5575670000
| 24>  H        1.1184030000     0.6639670000    -2.4294050000
| 25>  H        2.6177720000     0.9224430000    -3.4759730000
| 26>  H        4.9790220000    -0.2920060000    -0.9381260000
| 27>  H        4.6674750000     2.0611990000    -2.8833150000
| 28>  H        6.2353400000     1.2706070000    -2.3010140000
| 29> *
| 30>
| 31>                          ****END OF INPUT****
 Total Charge           Charge          ....    0
 Multiplicity           Mult            ....    1
 Number of Electrons    NEL             ....   54
 Basis Dimension        Dim             ....  148

MULLIKEN ATOMIC CHARGES
-----------------------
   0 C :    0.027930
   1 C :    0.126910
   2 O :   -0.277530
   3 C :   -0.111649
   4 C :   -0.042394
   5 C :    0.004683
   6 C :   -0.040212
   7 H :    0.023940
   8 H :    0.013471
   9 H :    0.022215
  10 H :    0.012237
  11 H :    0.151673
  12 H :    0.017544
  13 H :    0.013372
  14 H :    0.003956
  15 H :    0.022423
  16 H :    0.031431
Sum of atomic charges:   -0.0000000

LOEWDIN ATOMIC CHARGES
----------------------
   0 C :   -0.074264
   1 C :    0.050656
   2 O :   -0.106153
   3 C :   -0.052782
   4 C :   -0.053444
   5 C :   -0.025854
   6 C :   -0.047012
   7 H :    0.032400
   8 H :    0.023101
   9 H :    0.031772
  10 H :    0.030188
  11 H :    0.067828
  12 H :    0.021350
  13 H :    0.023847
  14 H :    0.029216
  15 H :    0.022434
  16 H :    0.026718

  Mayer bond orders larger than 0.1
B(  0-C ,  1-C ) :   1.1113 B(  0-C ,  7-H ) :   0.9487 B(  0-C ,  8-H ) :   0.9408
B(  0-C ,  9-H ) :   0.9452 B(  1-C ,  2-O ) :   0.9940 B(  1-C ,  3-C ) :   0.9791
B(  1-C , 10-H ) :   0.8931 B(  2-O , 11-H ) :   0.9808 B(  3-C ,  4-C ) :   1.9414
B(  3-C ,  5-C ) :   1.0589 B(  4-C , 12-H ) :   0.9243 B(  4-C , 13-H ) :   0.9268
B(  5-C ,  6-C ) :   1.9481 B(  5-C , 14-H ) :   0.9451 B(  6-C , 15-H ) :   0.9454
B(  6-C , 16-H ) :   0.9437

FINAL SINGLE POINT ENERGY      -309.197912634104

DIPOLE MOMENT
-------------
                                X             Y             Z
Electronic contribution:      2.39813      -1.71981       0.62517
Nuclear contribution   :     -2.75890       1.76407      -0.91355
                        -----------------------------------------
Total Dipole Moment    :     -0.36078       0.04425      -0.28837
                        -----------------------------------------
Magnitude (a.u.)       :      0.46398
Magnitude (Debye)      :      1.17934

                             ****ORCA TERMINATED NORMALLY****
TOTAL RUN TIME: 0 days 0 hours 0 minutes 7 seconds 192 msec
