                         Program Version 3.0.3 - RELEASE   -
|  1> ! RI PBE def2-SVP def2-SVP/J NBO PAL2
|  2> % maxcore 2000
|  3> % output
|  4>     # printlevel mini
|  5>     print[ P_Basis ] 0
|  6>     print[ P_SCFInfo ] 1
|  7>     print[ P_SCFIterInfo ] 1
|  8>     print[ P_OrbEn ] 0
|  9>     print[ P_Cartesian ] 0
| 10> end
| 11> *xyz 0 1
| 12>  C        0.9034050000    -0.1380450000    -0.0387010000
| 13>  C        2.4042390000     0.0650670000    -0.1604330000
| 14>  O        3.1147460000    -0.7648090000     0.7348800000
| 15>  C        2.8849500000    -0.1336130000    -1.5854410000
| 16>  C        3.3382370000     0.8677970000    -2.3395720000
| 17>  C        2.8248480000    -1.4730460000    -2.0680540000
| 18>  C        2.7617680000    -2.6284910000    -2.4005200000
| 19>  H        0.5999600000     0.0003280000     1.0004970000
| 20>  H        0.6248490000    -1.1485200000    -0.3505720000
| 21>  H        0.3589740000     0.5723910000    -0.6647940000
| 22>  H        2.6591190000     1.0871170000     0.1318050000
| 23>  H        3.0020620000    -1.6768030000     0.4443600000
| 24>  H        3.3898590000     1.8757590000    -1.9438100000
| 25>  H        3.6660740000     0.7084930000    -3.3591970000
| 26>  H        2.7134100000    -3.6414250000    -2.7245500000
| 27> *
| 28>
| 29>                          ****END OF INPUT****
 Total Charge           Charge          ....    0
 Multiplicity           Mult            ....    1
 Number of Electrons    NEL             ....   52
 Basis Dimension        Dim             ....  138

MULLIKEN ATOMIC CHARGES
-----------------------
   0 C :    0.035053
   1 C :    0.143220
   2 O :   -0.273119
   3 C :   -0.134082
   4 C :    0.014726
   5 C :    0.407429
   6 C :   -0.459574
   7 H :    0.028602
   8 H :    0.016390
   9 H :    0.017869
  10 H :   -0.010925
  11 H :    0.154744
  12 H :    0.024534
  13 H :    0.025717
  14 H :    0.009415
Sum of atomic charges:    0.0000000

LOEWDIN ATOMIC CHARGES
----------------------
   0 C :   -0.071313
   1 C :    0.056882
   2 O :   -0.102541
   3 C :   -0.060501
   4 C :   -0.019885
   5 C :   -0.013843
   6 C :   -0.066714
   7 H :    0.030949
   8 H :    0.026779
   9 H :    0.031658
  10 H :    0.025901
  11 H :    0.065482
  12 H :    0.027480
  13 H :    0.031023
  14 H :    0.038643

  Mayer bond orders larger than 0.1
B(  0-C ,  1-C ) :   1.0801 B(  0-C ,  7-H ) :   0.9545 B(  0-C ,  8-H ) :   0.9503
B(  0-C ,  9-H ) :   0.9457 B(  1-C ,  2-O ) :   1.0337 B(  1-C ,  3-C ) :   0.9827
B(  1-C , 10-H ) :   0.8918 B(  2-O , 11-H ) :   0.9773 B(  3-C ,  4-C ) :   1.9261
B(  3-C ,  5-C ) :   0.9814 B(  4-C ,  6-C ) :   0.1255 B(  4-C , 12-H ) :   0.9287
B(  4-C , 13-H ) :   0.9341 B(  5-C ,  6-C ) :   2.2315 B(  5-C , 14-H ) :  -0.1064
B(  6-C , 14-H ) :   1.0966

FINAL SINGLE POINT ENERGY      -307.957038806634

DIPOLE MOMENT
-------------
                                X             Y             Z
Electronic contribution:      3.11474      -2.39810      -1.12749
Nuclear contribution   :     -3.43635       2.26857       0.74911
                        -----------------------------------------
Total Dipole Moment    :     -0.32161      -0.12953      -0.37838
                        -----------------------------------------
Magnitude (a.u.)       :      0.51321
Magnitude (Debye)      :      1.30447

                             ****ORCA TERMINATED NORMALLY****
TOTAL RUN TIME: 0 days 0 hours 0 minutes 7 seconds 93 msec
