                         Program Version 3.0.3 - RELEASE   -
|  1> ! RI PBE def2-SVP def2-SVP/J NBO PAL2
|  2> % maxcore 2000
|  3> % output
|  4>     # printlevel mini
|  5>     print[ P_Basis ] 0
|  6>     print[ P_SCFInfo ] 1
|  7>     print[ P_SCFIterInfo ] 1
|  8>     print[ P_OrbEn ] 0
|  9>     print[ P_Cartesian ] 0
| 10> end
| 11> *xyz 0 1
| 12>  C        2.9763830000    -1.4376420000    -0.0850830000
| 13>  C        2.5279550000     0.0105890000    -0.0037470000
| 14>  O        1.1107340000     0.0832510000    -0.0380560000
| 15>  C        3.1135990000     0.8216070000     1.1760720000
| 16>  C        2.6531240000     2.2711270000     1.0308740000
| 17>  C        2.6340270000     0.2755110000     2.5188780000
| 18>  C        4.6395590000     0.7817640000     1.1232310000
| 19>  H        2.5121030000    -1.9089000000    -0.9533010000
| 20>  H        2.6756010000    -2.0010210000     0.8038910000
| 21>  H        4.0585620000    -1.5280160000    -0.1888060000
| 22>  H        2.8463090000     0.5203460000    -0.9209340000
| 23>  H        0.7658140000    -0.5142600000     0.6311890000
| 24>  H        1.5643220000     2.3359750000     1.0131570000
| 25>  H        3.0307190000     2.7089670000     0.1018630000
| 26>  H        3.0242900000     2.8777990000     1.8615120000
| 27>  H        1.5450740000     0.3261020000     2.6067140000
| 28>  H        3.0481890000     0.8712870000     3.3365330000
| 29>  H        2.9481220000    -0.7591030000     2.6794240000
| 30>  H        5.0081250000     1.0807140000     0.1369210000
| 31>  H        5.0345930000    -0.2120170000     1.3456800000
| 32>  H        5.0612960000     1.4749210000     1.8558780000
| 33> *
| 34>
| 35>                          ****END OF INPUT****
 Total Charge           Charge          ....    0
 Multiplicity           Mult            ....    1
 Number of Electrons    NEL             ....   58
 Basis Dimension        Dim             ....  168

MULLIKEN ATOMIC CHARGES
-----------------------
   0 C :    0.010390
   1 C :    0.112767
   2 O :   -0.269366
   3 C :   -0.324946
   4 C :    0.076613
   5 C :    0.039004
   6 C :    0.064015
   7 H :    0.024084
   8 H :    0.010595
   9 H :    0.022819
  10 H :   -0.007168
  11 H :    0.148598
  12 H :    0.020860
  13 H :    0.002047
  14 H :    0.007266
  15 H :    0.006236
  16 H :    0.013396
  17 H :    0.008802
  18 H :    0.010018
  19 H :    0.014287
  20 H :    0.009682
Sum of atomic charges:   -0.0000000

LOEWDIN ATOMIC CHARGES
----------------------
   0 C :   -0.079121
   1 C :    0.051186
   2 O :   -0.104871
   3 C :   -0.081046
   4 C :   -0.049998
   5 C :   -0.056150
   6 C :   -0.047916
   7 H :    0.030486
   8 H :    0.021373
   9 H :    0.030743
  10 H :    0.019520
  11 H :    0.061054
  12 H :    0.024087
  13 H :    0.022623
  14 H :    0.020932
  15 H :    0.019114
  16 H :    0.028262
  17 H :    0.019946
  18 H :    0.023461
  19 H :    0.020870
  20 H :    0.025446

  Mayer bond orders larger than 0.1
B(  0-C ,  1-C ) :   1.0956 B(  0-C ,  7-H ) :   0.9500 B(  0-C ,  8-H ) :   0.9474
B(  0-C ,  9-H ) :   0.9445 B(  1-C ,  2-O ) :   1.0457 B(  1-C ,  3-C ) :   0.9580
B(  1-C , 10-H ) :   0.9069 B(  2-O , 11-H ) :   0.9831 B(  3-C ,  4-C ) :   1.0494
B(  3-C ,  5-C ) :   1.0375 B(  3-C ,  6-C ) :   1.0393 B(  4-C , 12-H ) :   0.9510
B(  4-C , 13-H ) :   0.9544 B(  4-C , 14-H ) :   0.9571 B(  5-C , 15-H ) :   0.9534
B(  5-C , 16-H ) :   0.9543 B(  5-C , 17-H ) :   0.9533 B(  6-C , 18-H ) :   0.9573
B(  6-C , 19-H ) :   0.9555 B(  6-C , 20-H ) :   0.9527

FINAL SINGLE POINT ENERGY      -311.640077864006

DIPOLE MOMENT
-------------
                                X             Y             Z
Electronic contribution:     -3.65546      -0.24070      -2.39705
Nuclear contribution   :      3.92805      -0.11625       2.74295
                        -----------------------------------------
Total Dipole Moment    :      0.27258      -0.35695       0.34590
                        -----------------------------------------
Magnitude (a.u.)       :      0.56689
Magnitude (Debye)      :      1.44092

                             ****ORCA TERMINATED NORMALLY****
TOTAL RUN TIME: 0 days 0 hours 0 minutes 9 seconds 501 msec
