                         Program Version 3.0.3 - RELEASE   -
|  1> ! RI PBE def2-SVP def2-SVP/J NBO PAL2
|  2> % maxcore 2000
|  3> % output
|  4>     # printlevel mini
|  5>     print[ P_Basis ] 0
|  6>     print[ P_SCFInfo ] 1
|  7>     print[ P_SCFIterInfo ] 1
|  8>     print[ P_OrbEn ] 0
|  9>     print[ P_Cartesian ] 0
| 10> end
| 11> *xyz 0 1
| 12>  C        2.9703810000     1.3280710000     0.4050890000
| 13>  C        2.5183630000     0.0020550000    -0.1719660000
| 14>  O        2.7960480000    -0.0750620000    -1.5606390000
| 15>  C        3.0839940000    -1.2120610000     0.5918690000
| 16>  C        2.3853180000    -2.4935240000     0.1468820000
| 17>  C        4.5654700000    -1.3382170000     0.4203310000
| 18>  C        5.4713760000    -1.1651730000     1.3733640000
| 19>  H        2.5335800000     2.1529280000    -0.1610810000
| 20>  H        4.0606010000     1.4173650000     0.3701120000
| 21>  H        2.6645850000     1.4269510000     1.4495930000
| 22>  H        1.4263850000    -0.0590580000    -0.1076500000
| 23>  H        3.7109270000     0.1890890000    -1.6942860000
| 24>  H        2.8751110000    -1.0421250000     1.6551180000
| 25>  H        2.5318540000    -2.6555860000    -0.9233980000
| 26>  H        1.3095160000    -2.4334300000     0.3320520000
| 27>  H        2.7756770000    -3.3610680000     0.6828400000
| 28>  H        4.9017010000    -1.6205310000    -0.5771370000
| 29>  H        5.1849880000    -0.9027440000     2.3875480000
| 30>  H        6.5311350000    -1.2872810000     1.1795690000
| 31> *
| 32>
| 33>                          ****END OF INPUT****
 Total Charge           Charge          ....    0
 Multiplicity           Mult            ....    1
 Number of Electrons    NEL             ....   56
 Basis Dimension        Dim             ....  158

MULLIKEN ATOMIC CHARGES
-----------------------
   0 C :    0.032929
   1 C :    0.056352
   2 O :   -0.273795
   3 C :   -0.045264
   4 C :    0.033411
   5 C :   -0.071063
   6 C :   -0.028823
   7 H :    0.024831
   8 H :    0.014974
   9 H :    0.011299
  10 H :    0.003647
  11 H :    0.151093
  12 H :   -0.007467
  13 H :    0.024659
  14 H :    0.014396
  15 H :    0.019956
  16 H :   -0.004392
  17 H :    0.017157
  18 H :    0.026098
Sum of atomic charges:   -0.0000000

LOEWDIN ATOMIC CHARGES
----------------------
   0 C :   -0.078236
   1 C :    0.049245
   2 O :   -0.108744
   3 C :   -0.059264
   4 C :   -0.054701
   5 C :   -0.026385
   6 C :   -0.064426
   7 H :    0.028952
   8 H :    0.023907
   9 H :    0.030465
  10 H :    0.021419
  11 H :    0.063154
  12 H :    0.027822
  13 H :    0.026838
  14 H :    0.026089
  15 H :    0.026490
  16 H :    0.021282
  17 H :    0.021431
  18 H :    0.024664

  Mayer bond orders larger than 0.1
B(  0-C ,  1-C ) :   1.0989 B(  0-C ,  7-H ) :   0.9524 B(  0-C ,  8-H ) :   0.9460
B(  0-C ,  9-H ) :   0.9426 B(  1-C ,  2-O ) :   1.0525 B(  1-C ,  3-C ) :   0.9769
B(  1-C , 10-H ) :   0.9130 B(  2-O , 11-H ) :   0.9823 B(  3-C ,  4-C ) :   1.0650
B(  3-C ,  5-C ) :   1.0088 B(  3-C , 12-H ) :   0.8989 B(  4-C , 13-H ) :   0.9563
B(  4-C , 14-H ) :   0.9546 B(  4-C , 15-H ) :   0.9607 B(  5-C ,  6-C ) :   1.9985
B(  5-C , 16-H ) :   0.9516 B(  6-C , 17-H ) :   0.9451 B(  6-C , 18-H ) :   0.9429

FINAL SINGLE POINT ENERGY      -310.416942578667

DIPOLE MOMENT
-------------
                                X             Y             Z
Electronic contribution:      0.26121       0.18754      -2.51278
Nuclear contribution   :      0.03196      -0.01322       2.83677
                        -----------------------------------------
Total Dipole Moment    :      0.29317       0.17432       0.32398
                        -----------------------------------------
Magnitude (a.u.)       :      0.47043
Magnitude (Debye)      :      1.19573

                             ****ORCA TERMINATED NORMALLY****
TOTAL RUN TIME: 0 days 0 hours 0 minutes 8 seconds 418 msec
