                         Program Version 3.0.3 - RELEASE   -
|  1> ! RI PBE def2-SVP def2-SVP/J NBO PAL2
|  2> % maxcore 2000
|  3> % output
|  4>     # printlevel mini
|  5>     print[ P_Basis ] 0
|  6>     print[ P_SCFInfo ] 1
|  7>     print[ P_SCFIterInfo ] 1
|  8>     print[ P_OrbEn ] 0
|  9>     print[ P_Cartesian ] 0
| 10> end
| 11> *xyz 0 1
| 12>  C        2.7467810000    -0.2372460000     1.3697330000
| 13>  C        2.4259590000    -0.0089600000    -0.0943150000
| 14>  O        2.8656360000     1.2573490000    -0.5326050000
| 15>  C        2.9704150000    -1.1320480000    -1.0039370000
| 16>  C        2.4231780000    -1.0164420000    -2.4257010000
| 17>  C        4.4283710000    -1.1111200000    -0.9988900000
| 18>  C        5.6280630000    -1.0372870000    -1.0002450000
| 19>  H        2.3426380000     0.5803580000     1.9685500000
| 20>  H        3.8283250000    -0.2799780000     1.5264910000
| 21>  H        2.3154560000    -1.1758810000     1.7274780000
| 22>  H        1.3393510000     0.0074670000    -0.2282750000
| 23>  H        3.8297240000     1.2536610000    -0.5033140000
| 24>  H        2.6450130000    -2.0873350000    -0.5739070000
| 25>  H        2.6783470000    -0.0444350000    -2.8490400000
| 26>  H        1.3350140000    -1.1130380000    -2.4157930000
| 27>  H        2.8341660000    -1.7956390000    -3.0688410000
| 28>  H        6.6918530000    -0.9984460000    -1.0070000000
| 29> *
| 30>
| 31>                          ****END OF INPUT****
 Total Charge           Charge          ....    0
 Multiplicity           Mult            ....    1
 Number of Electrons    NEL             ....   54
 Basis Dimension        Dim             ....  148

MULLIKEN ATOMIC CHARGES
-----------------------
   0 C :    0.039415
   1 C :    0.060032
   2 O :   -0.267739
   3 C :   -0.062531
   4 C :    0.048289
   5 C :    0.371643
   6 C :   -0.509313
   7 H :    0.031215
   8 H :    0.018777
   9 H :    0.009149
  10 H :    0.007954
  11 H :    0.152553
  12 H :    0.023989
  13 H :    0.027023
  14 H :    0.021368
  15 H :    0.030025
  16 H :   -0.001851
Sum of atomic charges:    0.0000000

LOEWDIN ATOMIC CHARGES
----------------------
   0 C :   -0.077321
   1 C :    0.052189
   2 O :   -0.103964
   3 C :   -0.066042
   4 C :   -0.044820
   5 C :   -0.014685
   6 C :   -0.094080
   7 H :    0.031564
   8 H :    0.027778
   9 H :    0.028659
  10 H :    0.023868
  11 H :    0.065517
  12 H :    0.046564
  13 H :    0.029829
  14 H :    0.028601
  15 H :    0.030907
  16 H :    0.035435

  Mayer bond orders larger than 0.1
B(  0-C ,  1-C ) :   1.0833 B(  0-C ,  7-H ) :   0.9538 B(  0-C ,  8-H ) :   0.9485
B(  0-C ,  9-H ) :   0.9442 B(  1-C ,  2-O ) :   1.0427 B(  1-C ,  3-C ) :   0.9794
B(  1-C , 10-H ) :   0.9117 B(  2-O , 11-H ) :   0.9755 B(  3-C ,  4-C ) :   1.0656
B(  3-C ,  5-C ) :   1.0036 B(  3-C , 12-H ) :   0.8722 B(  4-C , 13-H ) :   0.9527
B(  4-C , 14-H ) :   0.9555 B(  4-C , 15-H ) :   0.9605 B(  5-C ,  6-C ) :   2.2877
B(  5-C , 16-H ) :  -0.1247 B(  6-C , 16-H ) :   1.1155

FINAL SINGLE POINT ENERGY      -309.176819654564

DIPOLE MOMENT
-------------
                                X             Y             Z
Electronic contribution:      3.08331       1.04149      -0.87161
Nuclear contribution   :     -2.94699      -1.44120       1.01919
                        -----------------------------------------
Total Dipole Moment    :      0.13632      -0.39971       0.14758
                        -----------------------------------------
Magnitude (a.u.)       :      0.44736
Magnitude (Debye)      :      1.13710

                             ****ORCA TERMINATED NORMALLY****
TOTAL RUN TIME: 0 days 0 hours 0 minutes 7 seconds 461 msec
