                         Program Version 3.0.3 - RELEASE   -
|  1> ! RI PBE def2-SVP def2-SVP/J NBO PAL2
|  2> % maxcore 2000
|  3> % output
|  4>     # printlevel mini
|  5>     print[ P_Basis ] 0
|  6>     print[ P_SCFInfo ] 1
|  7>     print[ P_SCFIterInfo ] 1
|  8>     print[ P_OrbEn ] 0
|  9>     print[ P_Cartesian ] 0
| 10> end
| 11> *xyz 0 1
| 12>  C        1.0798860000    -0.1904770000    -0.1134410000
| 13>  C        2.5703940000     0.0707540000     0.0583140000
| 14>  O        2.9078710000     1.4112950000    -0.2542290000
| 15>  C        3.0287100000    -0.3045720000     1.3948550000
| 16>  C        3.3938060000    -0.5846880000     2.5101920000
| 17>  C        3.8002240000    -0.9410680000     3.8207550000
| 18>  C        4.8705270000    -0.4433970000     4.4397630000
| 19>  H        0.7771080000     0.0935230000    -1.1224460000
| 20>  H        0.5045090000     0.3962040000     0.6067020000
| 21>  H        0.8498690000    -1.2458200000     0.0457300000
| 22>  H        3.1204270000    -0.5297430000    -0.6745080000
| 23>  H        2.6009340000     1.9682960000     0.4674730000
| 24>  H        3.1751960000    -1.6686550000     4.3330830000
| 25>  H        5.5153380000     0.2826680000     3.9592870000
| 26>  H        5.1222110000    -0.7544390000     5.4460710000
| 27> *
| 28>
| 29>                          ****END OF INPUT****
 Total Charge           Charge          ....    0
 Multiplicity           Mult            ....    1
 Number of Electrons    NEL             ....   52
 Basis Dimension        Dim             ....  138

MULLIKEN ATOMIC CHARGES
-----------------------
   0 C :    0.024130
   1 C :    0.135636
   2 O :   -0.267046
   3 C :   -0.046211
   4 C :   -0.089425
   5 C :   -0.102408
   6 C :   -0.009747
   7 H :    0.026789
   8 H :    0.015160
   9 H :    0.026515
  10 H :    0.027780
  11 H :    0.155092
  12 H :    0.034093
  13 H :    0.035733
  14 H :    0.033909
Sum of atomic charges:   -0.0000000

LOEWDIN ATOMIC CHARGES
----------------------
   0 C :   -0.064155
   1 C :    0.035270
   2 O :   -0.101313
   3 C :   -0.055917
   4 C :   -0.048894
   5 C :   -0.048508
   6 C :   -0.023688
   7 H :    0.030763
   8 H :    0.026391
   9 H :    0.033648
  10 H :    0.043967
  11 H :    0.068965
  12 H :    0.044085
  13 H :    0.030576
  14 H :    0.028809

  Mayer bond orders larger than 0.1
B(  0-C ,  1-C ) :   1.0813 B(  0-C ,  7-H ) :   0.9536 B(  0-C ,  8-H ) :   0.9550
B(  0-C ,  9-H ) :   0.9513 B(  1-C ,  2-O ) :   1.0383 B(  1-C ,  3-C ) :   0.9703
B(  1-C , 10-H ) :   0.8701 B(  2-O , 11-H ) :   0.9823 B(  3-C ,  4-C ) :   2.5138
B(  3-C ,  6-C ) :   0.1269 B(  4-C ,  5-C ) :   1.0552 B(  5-C ,  6-C ) :   1.9124
B(  5-C , 12-H ) :   0.9502 B(  6-C , 13-H ) :   0.9552 B(  6-C , 14-H ) :   0.9421

FINAL SINGLE POINT ENERGY      -307.961318773004

DIPOLE MOMENT
-------------
                                X             Y             Z
Electronic contribution:      2.26776       0.63336       0.27309
Nuclear contribution   :     -2.59071      -0.74943       0.15909
                        -----------------------------------------
Total Dipole Moment    :     -0.32295      -0.11607       0.43218
                        -----------------------------------------
Magnitude (a.u.)       :      0.55186
Magnitude (Debye)      :      1.40271

                             ****ORCA TERMINATED NORMALLY****
TOTAL RUN TIME: 0 days 0 hours 0 minutes 6 seconds 826 msec
