                         Program Version 3.0.3 - RELEASE   -
|  1> ! RI PBE def2-SVP def2-SVP/J NBO PAL2
|  2> % maxcore 2000
|  3> % output
|  4>     # printlevel mini
|  5>     print[ P_Basis ] 0
|  6>     print[ P_SCFInfo ] 1
|  7>     print[ P_SCFIterInfo ] 1
|  8>     print[ P_OrbEn ] 0
|  9>     print[ P_Cartesian ] 0
| 10> end
| 11> *xyz 0 1
| 12>  C        1.0671060000    -0.0887140000     0.0187280000
| 13>  C        2.5888870000    -0.0243830000     0.0032370000
| 14>  O        3.0966280000     0.2306670000    -1.2929760000
| 15>  C        3.0878730000     0.9452440000     0.9757560000
| 16>  C        3.4797900000     1.7752880000     1.7617900000
| 17>  C        3.9290940000     2.7055770000     2.6511650000
| 18>  C        4.3245750000     3.5301600000     3.4365550000
| 19>  H        0.7326130000    -0.8296340000    -0.7088480000
| 20>  H        0.6411440000     0.8827410000    -0.2428780000
| 21>  H        0.6994630000    -0.3667470000     1.0082360000
| 22>  H        2.9885220000    -1.0089100000     0.2690710000
| 23>  H        2.8887030000     1.1419030000    -1.5216190000
| 24>  H        4.6757920000     4.2564060000     4.1306830000
| 25> *
| 26>
| 27>                          ****END OF INPUT****
 Total Charge           Charge          ....    0
 Multiplicity           Mult            ....    1
 Number of Electrons    NEL             ....   50
 Basis Dimension        Dim             ....  128

MULLIKEN ATOMIC CHARGES
-----------------------
   0 C :    0.017729
   1 C :    0.139231
   2 O :   -0.267055
   3 C :   -0.074642
   4 C :   -0.033303
   5 C :    0.359619
   6 C :   -0.431527
   7 H :    0.036016
   8 H :    0.019963
   9 H :    0.032237
  10 H :    0.027337
  11 H :    0.159335
  12 H :    0.015060
Sum of atomic charges:   -0.0000000

LOEWDIN ATOMIC CHARGES
----------------------
   0 C :   -0.062188
   1 C :    0.036235
   2 O :   -0.096387
   3 C :   -0.016644
   4 C :   -0.060497
   5 C :   -0.030351
   6 C :   -0.027220
   7 H :    0.033785
   8 H :    0.028102
   9 H :    0.036378
  10 H :    0.046333
  11 H :    0.071757
  12 H :    0.040696

  Mayer bond orders larger than 0.1
B(  0-C ,  1-C ) :   1.0863 B(  0-C ,  7-H ) :   0.9542 B(  0-C ,  8-H ) :   0.9544
B(  0-C ,  9-H ) :   0.9497 B(  1-C ,  2-O ) :   1.0355 B(  1-C ,  3-C ) :   0.9625
B(  1-C , 10-H ) :   0.8686 B(  2-O , 11-H ) :   0.9806 B(  3-C ,  4-C ) :   2.4177
B(  3-C ,  6-C ) :   0.2597 B(  4-C ,  5-C ) :   0.9322 B(  5-C ,  6-C ) :   2.1428
B(  5-C , 12-H ) :  -0.1071 B(  6-C , 12-H ) :   1.0957

FINAL SINGLE POINT ENERGY      -306.722959322459

DIPOLE MOMENT
-------------
                                X             Y             Z
Electronic contribution:      4.70913       3.22276       2.65836
Nuclear contribution   :     -5.15179      -3.01010      -2.57530
                        -----------------------------------------
Total Dipole Moment    :     -0.44267       0.21265       0.08306
                        -----------------------------------------
Magnitude (a.u.)       :      0.49807
Magnitude (Debye)      :      1.26599

                             ****ORCA TERMINATED NORMALLY****
TOTAL RUN TIME: 0 days 0 hours 0 minutes 6 seconds 220 msec
