                         Program Version 3.0.3 - RELEASE   -
|  1> ! RI PBE def2-SVP def2-SVP/J NBO PAL2
|  2> % maxcore 2000
|  3> % output
|  4>     # printlevel mini
|  5>     print[ P_Basis ] 0
|  6>     print[ P_SCFInfo ] 1
|  7>     print[ P_SCFIterInfo ] 1
|  8>     print[ P_OrbEn ] 0
|  9>     print[ P_Cartesian ] 0
| 10> end
| 11> *xyz 0 1
| 12>  C        3.7264410000    -0.0253810000    -1.8752330000
| 13>  C        3.1106310000    -0.2731130000    -0.5126830000
| 14>  O        3.0408830000    -1.6616040000    -0.2202480000
| 15>  C        3.8624300000     0.4130240000     0.6285840000
| 16>  C        5.3362920000     0.1277750000     0.7254930000
| 17>  C        5.7447220000    -1.2242100000     1.2203010000
| 18>  C        6.2336830000     1.0569500000     0.4059020000
| 19>  H        3.1302440000    -0.5018630000    -2.6595660000
| 20>  H        4.7426370000    -0.4217510000    -1.9194640000
| 21>  H        3.7683210000     1.0441150000    -2.0958030000
| 22>  H        2.0918390000     0.1438720000    -0.5067500000
| 23>  H        2.6136680000    -2.1022940000    -0.9591330000
| 24>  H        3.3692180000     0.1159340000     1.5609840000
| 25>  H        3.7134710000     1.4901960000     0.5136770000
| 26>  H        5.3312310000    -1.4062340000     2.2179530000
| 27>  H        6.8305940000    -1.3165260000     1.2734630000
| 28>  H        5.3445970000    -2.0117170000     0.5781470000
| 29>  H        5.9347020000     2.0423760000     0.0639920000
| 30>  H        7.2986950000     0.8646510000     0.4812930000
| 31> *
| 32>
| 33>                          ****END OF INPUT****
 Total Charge           Charge          ....    0
 Multiplicity           Mult            ....    1
 Number of Electrons    NEL             ....   56
 Basis Dimension        Dim             ....  158

MULLIKEN ATOMIC CHARGES
-----------------------
   0 C :    0.000659
   1 C :    0.044389
   2 O :   -0.261072
   3 C :    0.098859
   4 C :   -0.213273
   5 C :    0.089960
   6 C :   -0.037675
   7 H :    0.009065
   8 H :    0.033648
   9 H :    0.016436
  10 H :   -0.005655
  11 H :    0.151060
  12 H :    0.012654
  13 H :    0.001569
  14 H :    0.016888
  15 H :    0.006879
  16 H :    0.027318
  17 H :   -0.000261
  18 H :    0.008553
Sum of atomic charges:   -0.0000000

LOEWDIN ATOMIC CHARGES
----------------------
   0 C :   -0.078864
   1 C :    0.048133
   2 O :   -0.113778
   3 C :   -0.037189
   4 C :   -0.025259
   5 C :   -0.058779
   6 C :   -0.085320
   7 H :    0.021462
   8 H :    0.030187
   9 H :    0.031442
  10 H :    0.007213
  11 H :    0.067217
  12 H :    0.033374
  13 H :    0.032374
  14 H :    0.035629
  15 H :    0.026173
  16 H :    0.032020
  17 H :    0.015570
  18 H :    0.018397

  Mayer bond orders larger than 0.1
B(  0-C ,  1-C ) :   1.0871 B(  0-C ,  7-H ) :   0.9521 B(  0-C ,  8-H ) :   0.9488
B(  0-C ,  9-H ) :   0.9472 B(  1-C ,  2-O ) :   1.0578 B(  1-C ,  3-C ) :   1.0495
B(  1-C , 10-H ) :   0.9144 B(  2-O , 11-H ) :   0.9786 B(  3-C ,  4-C ) :   1.0707
B(  3-C , 12-H ) :   0.9063 B(  3-C , 13-H ) :   0.9102 B(  4-C ,  5-C ) :   1.0983
B(  4-C ,  6-C ) :   1.9722 B(  5-C , 14-H ) :   0.9334 B(  5-C , 15-H ) :   0.9482
B(  5-C , 16-H ) :   0.9271 B(  6-C , 17-H ) :   0.9324 B(  6-C , 18-H ) :   0.9337

FINAL SINGLE POINT ENERGY      -310.421480030259

DIPOLE MOMENT
-------------
                                X             Y             Z
Electronic contribution:     -1.77746      -1.18180       1.11604
Nuclear contribution   :      1.37434       1.16764      -1.60428
                        -----------------------------------------
Total Dipole Moment    :     -0.40312      -0.01416      -0.48824
                        -----------------------------------------
Magnitude (a.u.)       :      0.63331
Magnitude (Debye)      :      1.60976

                             ****ORCA TERMINATED NORMALLY****
TOTAL RUN TIME: 0 days 0 hours 0 minutes 8 seconds 442 msec
