                         Program Version 3.0.3 - RELEASE   -
|  1> ! RI PBE def2-SVP def2-SVP/J NBO PAL2
|  2> % maxcore 2000
|  3> % output
|  4>     # printlevel mini
|  5>     print[ P_Basis ] 0
|  6>     print[ P_SCFInfo ] 1
|  7>     print[ P_SCFIterInfo ] 1
|  8>     print[ P_OrbEn ] 0
|  9>     print[ P_Cartesian ] 0
| 10> end
| 11> *xyz 0 1
| 12>  C        0.9725800000     0.3688770000     0.3381770000
| 13>  C        2.4813170000     0.2291920000     0.4068470000
| 14>  O        2.8736880000    -0.5128190000     1.5512750000
| 15>  C        3.0601230000    -0.3646720000    -0.8700270000
| 16>  C        4.5846690000    -0.4130980000    -0.8777450000
| 17>  C        5.1335530000    -1.1028110000    -2.0809460000
| 18>  C        5.9379540000    -0.5537540000    -2.9806540000
| 19>  H        0.5859080000     0.7881410000     1.2686870000
| 20>  H        0.5017570000    -0.6076330000     0.1796500000
| 21>  H        0.6725450000     1.0189400000    -0.4871950000
| 22>  H        2.9242170000     1.2190470000     0.5648300000
| 23>  H        2.4443690000    -1.3727090000     1.5070740000
| 24>  H        2.7063110000     0.2156240000    -1.7289420000
| 25>  H        2.6549900000    -1.3781240000    -0.9989140000
| 26>  H        4.9146600000    -0.9326130000     0.0289190000
| 27>  H        4.9863500000     0.6041430000    -0.8215260000
| 28>  H        4.8281810000    -2.1402560000    -2.2153070000
| 29>  H        6.2678470000     0.4769420000    -2.8896100000
| 30>  H        6.3004620000    -1.1120140000    -3.8360930000
| 31> *
| 32>
| 33>                          ****END OF INPUT****
 Total Charge           Charge          ....    0
 Multiplicity           Mult            ....    1
 Number of Electrons    NEL             ....   56
 Basis Dimension        Dim             ....  158

MULLIKEN ATOMIC CHARGES
-----------------------
   0 C :    0.029562
   1 C :    0.062240
   2 O :   -0.279887
   3 C :   -0.033161
   4 C :    0.098137
   5 C :   -0.081713
   6 C :   -0.035392
   7 H :    0.028148
   8 H :    0.003046
   9 H :    0.017634
  10 H :    0.000017
  11 H :    0.148624
  12 H :    0.009445
  13 H :   -0.011811
  14 H :    0.014482
  15 H :   -0.003633
  16 H :    0.001114
  17 H :    0.013111
  18 H :    0.020038
Sum of atomic charges:    0.0000000

LOEWDIN ATOMIC CHARGES
----------------------
   0 C :   -0.075687
   1 C :    0.040742
   2 O :   -0.111122
   3 C :   -0.052015
   4 C :   -0.040796
   5 C :   -0.028590
   6 C :   -0.071414
   7 H :    0.029531
   8 H :    0.021094
   9 H :    0.030531
  10 H :    0.022314
  11 H :    0.064233
  12 H :    0.027906
  13 H :    0.017144
  14 H :    0.032249
  15 H :    0.027209
  16 H :    0.023452
  17 H :    0.020295
  18 H :    0.022926

  Mayer bond orders larger than 0.1
B(  0-C ,  1-C ) :   1.0940 B(  0-C ,  7-H ) :   0.9556 B(  0-C ,  8-H ) :   0.9494
B(  0-C ,  9-H ) :   0.9496 B(  1-C ,  2-O ) :   1.0189 B(  1-C ,  3-C ) :   1.0408
B(  1-C , 10-H ) :   0.9038 B(  2-O , 11-H ) :   0.9843 B(  3-C ,  4-C ) :   1.0693
B(  3-C , 12-H ) :   0.9260 B(  3-C , 13-H ) :   0.9200 B(  4-C ,  5-C ) :   1.0606
B(  4-C , 14-H ) :   0.8999 B(  4-C , 15-H ) :   0.9286 B(  5-C ,  6-C ) :   2.0207
B(  5-C , 16-H ) :   0.9505 B(  6-C , 17-H ) :   0.9456 B(  6-C , 18-H ) :   0.9428

FINAL SINGLE POINT ENERGY      -310.417457017592

DIPOLE MOMENT
-------------
                                X             Y             Z
Electronic contribution:      1.78551      -0.93364       2.13029
Nuclear contribution   :     -2.28801       0.74207      -2.34839
                        -----------------------------------------
Total Dipole Moment    :     -0.50250      -0.19158      -0.21810
                        -----------------------------------------
Magnitude (a.u.)       :      0.58032
Magnitude (Debye)      :      1.47506

                             ****ORCA TERMINATED NORMALLY****
TOTAL RUN TIME: 0 days 0 hours 0 minutes 8 seconds 90 msec
