                         Program Version 3.0.3 - RELEASE   -
|  1> ! RI PBE def2-SVP def2-SVP/J NBO PAL2
|  2> % maxcore 2000
|  3> % output
|  4>     # printlevel mini
|  5>     print[ P_Basis ] 0
|  6>     print[ P_SCFInfo ] 1
|  7>     print[ P_SCFIterInfo ] 1
|  8>     print[ P_OrbEn ] 0
|  9>     print[ P_Cartesian ] 0
| 10> end
| 11> *xyz 0 1
| 12>  C        1.0828050000    -0.1086750000     0.3379610000
| 13>  C        2.5852750000    -0.0821590000     0.1356480000
| 14>  O        3.0971120000    -1.3865650000    -0.0874330000
| 15>  C        2.9933480000     0.8723950000    -0.9770530000
| 16>  C        4.5097020000     0.9746270000    -1.1336870000
| 17>  C        4.9087640000     1.8280830000    -2.2391160000
| 18>  C        5.2169790000     2.5370740000    -3.1581230000
| 19>  H        0.8188990000    -0.8086790000     1.1324640000
| 20>  H        0.5752550000    -0.4232070000    -0.5804780000
| 21>  H        0.7017790000     0.8798140000     0.6050010000
| 22>  H        3.0651480000     0.2382700000     1.0675070000
| 23>  H        2.6377760000    -1.7602370000    -0.8458880000
| 24>  H        2.5772040000     1.8647110000    -0.7786810000
| 25>  H        2.5510740000     0.5341580000    -1.9219040000
| 26>  H        4.9247850000    -0.0276720000    -1.2747490000
| 27>  H        4.9490790000     1.3601330000    -0.2065500000
| 28>  H        5.4980160000     3.1636200000    -3.9709370000
| 29> *
| 30>
| 31>                          ****END OF INPUT****
 Total Charge           Charge          ....    0
 Multiplicity           Mult            ....    1
 Number of Electrons    NEL             ....   54
 Basis Dimension        Dim             ....  148

MULLIKEN ATOMIC CHARGES
-----------------------
   0 C :    0.029276
   1 C :    0.076010
   2 O :   -0.285439
   3 C :   -0.043599
   4 C :    0.111134
   5 C :    0.350680
   6 C :   -0.516468
   7 H :    0.031365
   8 H :    0.006617
   9 H :    0.017833
  10 H :   -0.004481
  11 H :    0.151407
  12 H :    0.017370
  13 H :    0.006011
  14 H :    0.030198
  15 H :    0.027196
  16 H :   -0.005110
Sum of atomic charges:   -0.0000000

LOEWDIN ATOMIC CHARGES
----------------------
   0 C :   -0.074745
   1 C :    0.041061
   2 O :   -0.111451
   3 C :   -0.044525
   4 C :   -0.045851
   5 C :   -0.020836
   6 C :   -0.098297
   7 H :    0.030546
   8 H :    0.022535
   9 H :    0.031428
  10 H :    0.022019
  11 H :    0.066093
  12 H :    0.031303
  13 H :    0.024444
  14 H :    0.046035
  15 H :    0.047752
  16 H :    0.032491

  Mayer bond orders larger than 0.1
B(  0-C ,  1-C ) :   1.0989 B(  0-C ,  7-H ) :   0.9563 B(  0-C ,  8-H ) :   0.9497
B(  0-C ,  9-H ) :   0.9476 B(  1-C ,  2-O ) :   1.0101 B(  1-C ,  3-C ) :   1.0425
B(  1-C , 10-H ) :   0.8998 B(  2-O , 11-H ) :   0.9834 B(  3-C ,  4-C ) :   1.0755
B(  3-C , 12-H ) :   0.9262 B(  3-C , 13-H ) :   0.9235 B(  4-C ,  5-C ) :   1.0574
B(  4-C , 14-H ) :   0.8816 B(  4-C , 15-H ) :   0.8930 B(  5-C ,  6-C ) :   2.3247
B(  5-C , 16-H ) :  -0.1119 B(  6-C , 16-H ) :   1.1025

FINAL SINGLE POINT ENERGY      -309.175286371945

DIPOLE MOMENT
-------------
                                X             Y             Z
Electronic contribution:      4.77027       0.59128      -2.56161
Nuclear contribution   :     -5.37023      -0.59492       2.52017
                        -----------------------------------------
Total Dipole Moment    :     -0.59995      -0.00364      -0.04144
                        -----------------------------------------
Magnitude (a.u.)       :      0.60139
Magnitude (Debye)      :      1.52862

                             ****ORCA TERMINATED NORMALLY****
TOTAL RUN TIME: 0 days 0 hours 0 minutes 7 seconds 336 msec
