                         Program Version 3.0.3 - RELEASE   -
|  1> ! RI PBE def2-SVP def2-SVP/J NBO PAL2
|  2> % maxcore 2000
|  3> % output
|  4>     # printlevel mini
|  5>     print[ P_Basis ] 0
|  6>     print[ P_SCFInfo ] 1
|  7>     print[ P_SCFIterInfo ] 1
|  8>     print[ P_OrbEn ] 0
|  9>     print[ P_Cartesian ] 0
| 10> end
| 11> *xyz 0 1
| 12>  C        1.0325630000    -0.0809250000     0.0087360000
| 13>  C        2.5305580000     0.1342470000     0.0511260000
| 14>  O        3.0083370000     0.6199770000    -1.2060360000
| 15>  C        3.2200350000    -0.2638190000    -2.1969110000
| 16>  C        3.0509210000    -1.5833340000    -2.2035370000
| 17>  C        3.0028530000     1.1193780000     1.0754570000
| 18>  C        2.2813400000     1.6285600000     2.0619120000
| 19>  H        0.7667880000    -0.7443650000    -0.8143810000
| 20>  H        0.5167480000     0.8706250000    -0.1323580000
| 21>  H        0.6823460000    -0.5355590000     0.9375400000
| 22>  H        3.0368190000    -0.8204160000     0.2544560000
| 23>  H        3.5850330000     0.2564140000    -3.0769140000
| 24>  H        2.6778140000    -2.1529660000    -1.3635300000
| 25>  H        3.3004190000    -2.1272910000    -3.1038270000
| 26>  H        4.0478270000     1.3999290000     0.9695390000
| 27>  H        1.2350180000     1.3818840000     2.2028340000
| 28>  H        2.7198920000     2.3173510000     2.7741240000
| 29> *
| 30>
| 31>                          ****END OF INPUT****
 Total Charge           Charge          ....    0
 Multiplicity           Mult            ....    1
 Number of Electrons    NEL             ....   54
 Basis Dimension        Dim             ....  148

MULLIKEN ATOMIC CHARGES
-----------------------
   0 C :    0.016355
   1 C :    0.095515
   2 O :   -0.261659
   3 C :    0.106394
   4 C :   -0.121963
   5 C :   -0.054513
   6 C :   -0.031683
   7 H :    0.027757
   8 H :    0.033086
   9 H :    0.031791
  10 H :    0.025217
  11 H :    0.012695
  12 H :    0.031625
  13 H :    0.025962
  14 H :    0.011955
  15 H :    0.022420
  16 H :    0.029047
Sum of atomic charges:    0.0000000

LOEWDIN ATOMIC CHARGES
----------------------
   0 C :   -0.068266
   1 C :    0.056452
   2 O :   -0.063246
   3 C :    0.035369
   4 C :   -0.164696
   5 C :   -0.029556
   6 C :   -0.055659
   7 H :    0.034365
   8 H :    0.033104
   9 H :    0.034370
  10 H :    0.026093
  11 H :    0.024491
  12 H :    0.020835
  13 H :    0.032333
  14 H :    0.031432
  15 H :    0.023519
  16 H :    0.029060

  Mayer bond orders larger than 0.1
B(  0-C ,  1-C ) :   1.1235 B(  0-C ,  7-H ) :   0.9441 B(  0-C ,  8-H ) :   0.9459
B(  0-C ,  9-H ) :   0.9453 B(  1-C ,  2-O ) :   0.9166 B(  1-C ,  5-C ) :   1.0057
B(  1-C , 10-H ) :   0.8892 B(  2-O ,  3-C ) :   1.1649 B(  2-O ,  4-C ) :   0.1062
B(  3-C ,  4-C ) :   1.8556 B(  3-C , 11-H ) :   0.9631 B(  4-C , 12-H ) :   0.9494
B(  4-C , 13-H ) :   0.9346 B(  5-C ,  6-C ) :   2.0164 B(  5-C , 14-H ) :   0.9564
B(  6-C , 15-H ) :   0.9307 B(  6-C , 16-H ) :   0.9427

FINAL SINGLE POINT ENERGY      -309.190058355527

DIPOLE MOMENT
-------------
                                X             Y             Z
Electronic contribution:      2.80209       2.02412      -1.78630
Nuclear contribution   :     -2.95349      -2.16762       2.07480
                        -----------------------------------------
Total Dipole Moment    :     -0.15140      -0.14350       0.28850
                        -----------------------------------------
Magnitude (a.u.)       :      0.35602
Magnitude (Debye)      :      0.90492

                             ****ORCA TERMINATED NORMALLY****
TOTAL RUN TIME: 0 days 0 hours 0 minutes 7 seconds 147 msec
