                         Program Version 3.0.3 - RELEASE   -
|  1> ! RI PBE def2-SVP def2-SVP/J NBO PAL2
|  2> % maxcore 2000
|  3> % output
|  4>     # printlevel mini
|  5>     print[ P_Basis ] 0
|  6>     print[ P_SCFInfo ] 1
|  7>     print[ P_SCFIterInfo ] 1
|  8>     print[ P_OrbEn ] 0
|  9>     print[ P_Cartesian ] 0
| 10> end
| 11> *xyz 0 1
| 12>  C        0.9015940000    -0.0462250000     0.3270470000
| 13>  C        2.3926700000    -0.0333400000     0.0568500000
| 14>  O        2.5710410000    -0.3832210000    -1.3097310000
| 15>  C        3.8476250000    -0.6074590000    -1.7019870000
| 16>  C        4.1536500000    -0.9902670000    -2.9325740000
| 17>  C        2.9940520000     1.2643710000     0.3670090000
| 18>  C        3.4846150000     2.3278090000     0.6282640000
| 19>  H        0.4985030000    -1.0345140000     0.1023990000
| 20>  H        0.4023790000     0.6927130000    -0.3005210000
| 21>  H        0.7075490000     0.1919140000     1.3732630000
| 22>  H        2.8814460000    -0.7937900000     0.6824550000
| 23>  H        4.6074710000    -0.4457720000    -0.9406800000
| 24>  H        3.3913590000    -1.1361950000    -3.6874070000
| 25>  H        5.1881290000    -1.1576490000    -3.1959200000
| 26>  H        3.9190050000     3.2734360000     0.8531320000
| 27> *
| 28>
| 29>                          ****END OF INPUT****
 Total Charge           Charge          ....    0
 Multiplicity           Mult            ....    1
 Number of Electrons    NEL             ....   52
 Basis Dimension        Dim             ....  138

MULLIKEN ATOMIC CHARGES
-----------------------
   0 C :    0.026665
   1 C :    0.132138
   2 O :   -0.256596
   3 C :    0.100846
   4 C :   -0.079370
   5 C :    0.359469
   6 C :   -0.490178
   7 H :    0.034272
   8 H :    0.043451
   9 H :    0.032272
  10 H :    0.032184
  11 H :    0.007942
  12 H :    0.027317
  13 H :    0.023402
  14 H :    0.006187
Sum of atomic charges:    0.0000000

LOEWDIN ATOMIC CHARGES
----------------------
   0 C :   -0.049074
   1 C :    0.046886
   2 O :   -0.068463
   3 C :    0.033506
   4 C :   -0.123846
   5 C :   -0.035985
   6 C :   -0.060736
   7 H :    0.034646
   8 H :    0.037960
   9 H :    0.038163
  10 H :    0.033136
  11 H :    0.015914
  12 H :    0.028533
  13 H :    0.030918
  14 H :    0.038443

  Mayer bond orders larger than 0.1
B(  0-C ,  1-C ) :   1.0755 B(  0-C ,  7-H ) :   0.9539 B(  0-C ,  8-H ) :   0.9583
B(  0-C ,  9-H ) :   0.9537 B(  1-C ,  2-O ) :   0.9813 B(  1-C ,  5-C ) :   0.9723
B(  1-C , 10-H ) :   0.9021 B(  2-O ,  3-C ) :   1.1023 B(  3-C ,  4-C ) :   1.9349
B(  3-C , 11-H ) :   0.9428 B(  4-C , 12-H ) :   0.9475 B(  4-C , 13-H ) :   0.9385
B(  5-C ,  6-C ) :   2.3503 B(  5-C , 14-H ) :  -0.1111 B(  6-C , 14-H ) :   1.1010

FINAL SINGLE POINT ENERGY      -307.943173233481

DIPOLE MOMENT
-------------
                                X             Y             Z
Electronic contribution:      1.33065       1.75367       0.32110
Nuclear contribution   :     -1.32324      -1.67750       0.28480
                        -----------------------------------------
Total Dipole Moment    :      0.00741       0.07617       0.60590
                        -----------------------------------------
Magnitude (a.u.)       :      0.61071
Magnitude (Debye)      :      1.55231

                             ****ORCA TERMINATED NORMALLY****
TOTAL RUN TIME: 0 days 0 hours 0 minutes 6 seconds 555 msec
