                         Program Version 3.0.3 - RELEASE   -
|  1> ! RI PBE def2-SVP def2-SVP/J NBO PAL2
|  2> % maxcore 2000
|  3> % output
|  4>     # printlevel mini
|  5>     print[ P_Basis ] 0
|  6>     print[ P_SCFInfo ] 1
|  7>     print[ P_SCFIterInfo ] 1
|  8>     print[ P_OrbEn ] 0
|  9>     print[ P_Cartesian ] 0
| 10> end
| 11> *xyz 0 1
| 12>  C        3.6598230000     2.9190260000     3.1797670000
| 13>  C        4.6204970000     2.7728120000     2.0284200000
| 14>  O        4.0632240000     1.8666260000     1.0984590000
| 15>  C        4.7821840000     1.6075620000    -0.0119350000
| 16>  C        5.9727940000     2.0910310000    -0.3611560000
| 17>  C        6.6496880000     1.7163540000    -1.6405270000
| 18>  C        6.8944890000     2.9094160000    -2.5580490000
| 19>  H        4.0636490000     3.6149680000     3.9181210000
| 20>  H        3.4921110000     1.9573930000     3.6682090000
| 21>  H        2.6977600000     3.3022370000     2.8347910000
| 22>  H        5.5921810000     2.3929100000     2.3706780000
| 23>  H        4.7973500000     3.7381410000     1.5360790000
| 24>  H        4.2519000000     0.9036200000    -0.6469410000
| 25>  H        6.4916640000     2.7962200000     0.2809450000
| 26>  H        6.0483310000     0.9655900000    -2.1636280000
| 27>  H        7.6115240000     1.2364820000    -1.4210370000
| 28>  H        5.9510900000     3.3798680000    -2.8450600000
| 29>  H        7.4174660000     2.6082850000    -3.4693160000
| 30>  H        7.5038950000     3.6688690000    -2.0604320000
| 31> *
| 32>
| 33>                          ****END OF INPUT****
 Total Charge           Charge          ....    0
 Multiplicity           Mult            ....    1
 Number of Electrons    NEL             ....   56
 Basis Dimension        Dim             ....  158

MULLIKEN ATOMIC CHARGES
-----------------------
   0 C :   -0.011827
   1 C :    0.099266
   2 O :   -0.266277
   3 C :    0.121483
   4 C :   -0.151697
   5 C :    0.031639
   6 C :   -0.031375
   7 H :    0.025220
   8 H :    0.034328
   9 H :    0.032596
  10 H :    0.016504
  11 H :    0.018988
  12 H :   -0.000027
  13 H :    0.000162
  14 H :    0.005844
  15 H :    0.016769
  16 H :    0.019102
  17 H :    0.018073
  18 H :    0.021228
Sum of atomic charges:   -0.0000000

LOEWDIN ATOMIC CHARGES
----------------------
   0 C :   -0.072473
   1 C :    0.064458
   2 O :   -0.072044
   3 C :    0.018499
   4 C :   -0.122963
   5 C :   -0.039981
   6 C :   -0.066360
   7 H :    0.034424
   8 H :    0.032080
   9 H :    0.031786
  10 H :    0.012579
  11 H :    0.012760
  12 H :    0.019156
  13 H :    0.020395
  14 H :    0.026319
  15 H :    0.028661
  16 H :    0.024505
  17 H :    0.024523
  18 H :    0.023674

  Mayer bond orders larger than 0.1
B(  0-C ,  1-C ) :   1.1150 B(  0-C ,  7-H ) :   0.9544 B(  0-C ,  8-H ) :   0.9620
B(  0-C ,  9-H ) :   0.9614 B(  1-C ,  2-O ) :   0.9747 B(  1-C , 10-H ) :   0.9344
B(  1-C , 11-H ) :   0.9356 B(  2-O ,  3-C ) :   1.1521 B(  3-C ,  4-C ) :   1.7738
B(  3-C , 12-H ) :   0.9674 B(  4-C ,  5-C ) :   1.0619 B(  4-C , 13-H ) :   0.9533
B(  5-C ,  6-C ) :   1.1002 B(  5-C , 14-H ) :   0.9351 B(  5-C , 15-H ) :   0.9194
B(  6-C , 16-H ) :   0.9664 B(  6-C , 17-H ) :   0.9589 B(  6-C , 18-H ) :   0.9709

FINAL SINGLE POINT ENERGY      -310.418764396952

DIPOLE MOMENT
-------------
                                X             Y             Z
Electronic contribution:     -2.89671      -2.69072       1.41263
Nuclear contribution   :      3.06749       2.92666      -1.17071
                        -----------------------------------------
Total Dipole Moment    :      0.17078       0.23594       0.24192
                        -----------------------------------------
Magnitude (a.u.)       :      0.37863
Magnitude (Debye)      :      0.96239

                             ****ORCA TERMINATED NORMALLY****
TOTAL RUN TIME: 0 days 0 hours 0 minutes 8 seconds 69 msec
