                         Program Version 3.0.3 - RELEASE   -
|  1> ! RI PBE def2-SVP def2-SVP/J NBO PAL2
|  2> % maxcore 2000
|  3> % output
|  4>     # printlevel mini
|  5>     print[ P_Basis ] 0
|  6>     print[ P_SCFInfo ] 1
|  7>     print[ P_SCFIterInfo ] 1
|  8>     print[ P_OrbEn ] 0
|  9>     print[ P_Cartesian ] 0
| 10> end
| 11> *xyz 0 1
| 12>  C        0.2628120000    -1.9014770000     0.1583720000
| 13>  C        1.6426660000    -2.4621270000     0.3935540000
| 14>  O        2.5436670000    -1.3769890000     0.4374080000
| 15>  C        3.8699200000    -1.5594640000     0.6350940000
| 16>  C        4.6517320000    -2.6267730000     0.8245500000
| 17>  C        4.3001140000    -4.0829790000     0.8867170000
| 18>  C        6.1302800000    -2.3447590000     1.0078780000
| 19>  H       -0.4698940000    -2.7104480000     0.1172090000
| 20>  H        0.2256090000    -1.3527130000    -0.7845020000
| 21>  H       -0.0186210000    -1.2204820000     0.9637170000
| 22>  H        1.9220670000    -3.1483120000    -0.4150040000
| 23>  H        1.6768240000    -3.0156590000     1.3396610000
| 24>  H        4.3439230000    -0.5815250000     0.6265270000
| 25>  H        3.2459300000    -4.3058430000     0.7578320000
| 26>  H        4.6144240000    -4.5026500000     1.8492890000
| 27>  H        4.8539810000    -4.6344860000     0.1182560000
| 28>  H        6.5679220000    -1.8487140000     0.1374090000
| 29>  H        6.6811120000    -3.2757070000     1.1552550000
| 30>  H        6.3264210000    -1.7156920000     1.8802980000
| 31> *
| 32>
| 33>                          ****END OF INPUT****
 Total Charge           Charge          ....    0
 Multiplicity           Mult            ....    1
 Number of Electrons    NEL             ....   56
 Basis Dimension        Dim             ....  158

MULLIKEN ATOMIC CHARGES
-----------------------
   0 C :   -0.023699
   1 C :    0.100416
   2 O :   -0.268969
   3 C :    0.098573
   4 C :   -0.253554
   5 C :    0.069404
   6 C :    0.019511
   7 H :    0.025795
   8 H :    0.031489
   9 H :    0.034099
  10 H :    0.026917
  11 H :    0.027824
  12 H :   -0.008689
  13 H :   -0.000645
  14 H :    0.023135
  15 H :    0.025376
  16 H :    0.034107
  17 H :    0.005082
  18 H :    0.033826
Sum of atomic charges:   -0.0000000

LOEWDIN ATOMIC CHARGES
----------------------
   0 C :   -0.074231
   1 C :    0.064525
   2 O :   -0.078473
   3 C :    0.005157
   4 C :   -0.121837
   5 C :   -0.063791
   6 C :   -0.054601
   7 H :    0.033992
   8 H :    0.031273
   9 H :    0.031448
  10 H :    0.013209
  11 H :    0.013441
  12 H :    0.019695
  13 H :    0.022862
  14 H :    0.032067
  15 H :    0.032651
  16 H :    0.033054
  17 H :    0.026647
  18 H :    0.032912

  Mayer bond orders larger than 0.1
B(  0-C ,  1-C ) :   1.1136 B(  0-C ,  7-H ) :   0.9543 B(  0-C ,  8-H ) :   0.9613
B(  0-C ,  9-H ) :   0.9626 B(  1-C ,  2-O ) :   0.9731 B(  1-C , 10-H ) :   0.9346
B(  1-C , 11-H ) :   0.9350 B(  2-O ,  3-C ) :   1.1541 B(  3-C ,  4-C ) :   1.7803
B(  3-C , 12-H ) :   0.9601 B(  4-C ,  5-C ) :   1.1029 B(  4-C ,  6-C ) :   1.0386
B(  5-C , 13-H ) :   0.9449 B(  5-C , 14-H ) :   0.9403 B(  5-C , 15-H ) :   0.9397
B(  6-C , 16-H ) :   0.9618 B(  6-C , 17-H ) :   0.9575 B(  6-C , 18-H ) :   0.9612

FINAL SINGLE POINT ENERGY      -310.409882104318

DIPOLE MOMENT
-------------
                                X             Y             Z
Electronic contribution:     -0.39480       3.55726      -0.32202
Nuclear contribution   :      0.22603      -3.94282       0.32675
                        -----------------------------------------
Total Dipole Moment    :     -0.16876      -0.38556       0.00472
                        -----------------------------------------
Magnitude (a.u.)       :      0.42090
Magnitude (Debye)      :      1.06984

                             ****ORCA TERMINATED NORMALLY****
TOTAL RUN TIME: 0 days 0 hours 0 minutes 8 seconds 69 msec
