                         Program Version 3.0.3 - RELEASE   -
|  1> ! RI PBE def2-SVP def2-SVP/J NBO PAL2
|  2> % maxcore 2000
|  3> % output
|  4>     # printlevel mini
|  5>     print[ P_Basis ] 0
|  6>     print[ P_SCFInfo ] 1
|  7>     print[ P_SCFIterInfo ] 1
|  8>     print[ P_OrbEn ] 0
|  9>     print[ P_Cartesian ] 0
| 10> end
| 11> *xyz 0 1
| 12>  C        0.7348760000     1.2659070000    -1.5094720000
| 13>  C        2.1214580000     1.8179470000    -1.7102270000
| 14>  O        3.0358070000     0.9775820000    -1.0269700000
| 15>  C        4.3339150000     1.3023570000    -1.0848470000
| 16>  C        4.9046520000     2.3383850000    -1.7152150000
| 17>  C        6.3333750000     2.5476850000    -1.6785820000
| 18>  C        6.9794570000     3.5499260000    -2.2766660000
| 19>  H        0.0054370000     1.8935580000    -2.0255980000
| 20>  H        0.4778980000     1.2400680000    -0.4490580000
| 21>  H        0.6599660000     0.2524060000    -1.9074510000
| 22>  H        2.2036220000     2.8380110000    -1.3147240000
| 23>  H        2.3858630000     1.8493770000    -2.7745610000
| 24>  H        4.9317790000     0.5881560000    -0.5265280000
| 25>  H        4.3066890000     3.0512120000    -2.2726150000
| 26>  H        6.9100390000     1.8179880000    -1.1124120000
| 27>  H        6.4502390000     4.3024600000    -2.8523780000
| 28>  H        8.0555290000     3.6477750000    -2.2085850000
| 29> *
| 30>
| 31>                          ****END OF INPUT****
 Total Charge           Charge          ....    0
 Multiplicity           Mult            ....    1
 Number of Electrons    NEL             ....   54
 Basis Dimension        Dim             ....  148

MULLIKEN ATOMIC CHARGES
-----------------------
   0 C :   -0.007653
   1 C :    0.085377
   2 O :   -0.249588
   3 C :    0.112901
   4 C :   -0.053578
   5 C :   -0.007430
   6 C :   -0.059093
   7 H :    0.028049
   8 H :    0.035978
   9 H :    0.034020
  10 H :    0.025564
  11 H :    0.030924
  12 H :    0.011378
  13 H :   -0.006261
  14 H :   -0.011093
  15 H :    0.009311
  16 H :    0.021196
Sum of atomic charges:   -0.0000000

LOEWDIN ATOMIC CHARGES
----------------------
   0 C :   -0.071087
   1 C :    0.065872
   2 O :   -0.055614
   3 C :    0.034660
   4 C :   -0.116031
   5 C :   -0.029474
   6 C :   -0.083742
   7 H :    0.036448
   8 H :    0.032910
   9 H :    0.033124
  10 H :    0.016393
  11 H :    0.016976
  12 H :    0.023355
  13 H :    0.027296
  14 H :    0.027205
  15 H :    0.018821
  16 H :    0.022889

  Mayer bond orders larger than 0.1
B(  0-C ,  1-C ) :   1.1158 B(  0-C ,  7-H ) :   0.9525 B(  0-C ,  8-H ) :   0.9636
B(  0-C ,  9-H ) :   0.9609 B(  1-C ,  2-O ) :   0.9592 B(  1-C , 10-H ) :   0.9361
B(  1-C , 11-H ) :   0.9391 B(  2-O ,  3-C ) :   1.1787 B(  3-C ,  4-C ) :   1.6424
B(  3-C ,  6-C ) :   0.1179 B(  3-C , 12-H ) :   0.9689 B(  4-C ,  5-C ) :   1.1389
B(  4-C , 13-H ) :   0.9581 B(  5-C ,  6-C ) :   1.8878 B(  5-C , 14-H ) :   0.9585
B(  6-C , 15-H ) :   0.9482 B(  6-C , 16-H ) :   0.9431

FINAL SINGLE POINT ENERGY      -309.205293765376

DIPOLE MOMENT
-------------
                                X             Y             Z
Electronic contribution:      2.58243      -1.82344       1.55999
Nuclear contribution   :     -3.19706       1.85201      -1.65333
                        -----------------------------------------
Total Dipole Moment    :     -0.61463       0.02857      -0.09333
                        -----------------------------------------
Magnitude (a.u.)       :      0.62233
Magnitude (Debye)      :      1.58184

                             ****ORCA TERMINATED NORMALLY****
TOTAL RUN TIME: 0 days 0 hours 0 minutes 7 seconds 598 msec
