                         Program Version 3.0.3 - RELEASE   -
|  1> ! RI PBE def2-SVP def2-SVP/J NBO PAL2
|  2> % maxcore 2000
|  3> % output
|  4>     # printlevel mini
|  5>     print[ P_Basis ] 0
|  6>     print[ P_SCFInfo ] 1
|  7>     print[ P_SCFIterInfo ] 1
|  8>     print[ P_OrbEn ] 0
|  9>     print[ P_Cartesian ] 0
| 10> end
| 11> *xyz 0 1
| 12>  C        1.2010020000     0.3190760000    -0.0254990000
| 13>  C        2.6935100000     0.4883120000     0.0770250000
| 14>  O        3.3040130000    -0.7419880000    -0.2813710000
| 15>  C        4.6362110000    -0.8041360000    -0.2554190000
| 16>  C        5.4957690000     0.1728300000     0.0746140000
| 17>  C        6.8938020000    -0.0364110000     0.0574630000
| 18>  C        8.0890180000    -0.1848360000     0.0521680000
| 19>  H        0.7024880000     1.2524100000     0.2436720000
| 20>  H        0.8524050000    -0.4647900000     0.6490320000
| 21>  H        0.9100330000     0.0541280000    -1.0433960000
| 22>  H        2.9944990000     0.7543820000     1.0977020000
| 23>  H        3.0516570000     1.2763900000    -0.5966420000
| 24>  H        4.9898270000    -1.7871130000    -0.5462700000
| 25>  H        5.1454350000     1.1563890000     0.3657110000
| 26>  H        9.1438220000    -0.3223420000     0.0453110000
| 27> *
| 28>
| 29>                          ****END OF INPUT****
 Total Charge           Charge          ....    0
 Multiplicity           Mult            ....    1
 Number of Electrons    NEL             ....   52
 Basis Dimension        Dim             ....  138

MULLIKEN ATOMIC CHARGES
-----------------------
   0 C :    0.004001
   1 C :    0.084294
   2 O :   -0.250263
   3 C :    0.148343
   4 C :   -0.139896
   5 C :    0.395849
   6 C :   -0.446257
   7 H :    0.026943
   8 H :    0.038643
   9 H :    0.035362
  10 H :    0.025803
  11 H :    0.029321
  12 H :    0.023273
  13 H :    0.027445
  14 H :   -0.002859
Sum of atomic charges:   -0.0000000

LOEWDIN ATOMIC CHARGES
----------------------
   0 C :   -0.068978
   1 C :    0.066943
   2 O :   -0.048833
   3 C :    0.057973
   4 C :   -0.136726
   5 C :   -0.021226
   6 C :   -0.091956
   7 H :    0.036900
   8 H :    0.034222
   9 H :    0.033634
  10 H :    0.017863
  11 H :    0.018388
  12 H :    0.030348
  13 H :    0.039519
  14 H :    0.031930

  Mayer bond orders larger than 0.1
B(  0-C ,  1-C ) :   1.1109 B(  0-C ,  7-H ) :   0.9519 B(  0-C ,  8-H ) :   0.9631
B(  0-C ,  9-H ) :   0.9625 B(  1-C ,  2-O ) :   0.9561 B(  1-C , 10-H ) :   0.9367
B(  1-C , 11-H ) :   0.9376 B(  2-O ,  3-C ) :   1.1886 B(  3-C ,  4-C ) :   1.6691
B(  3-C ,  6-C ) :   0.1115 B(  3-C , 12-H ) :   0.9688 B(  4-C ,  5-C ) :   1.0237
B(  4-C , 13-H ) :   0.9418 B(  5-C ,  6-C ) :   2.2582 B(  5-C , 14-H ) :  -0.1009
B(  6-C , 14-H ) :   1.0922

FINAL SINGLE POINT ENERGY      -307.959609392661

DIPOLE MOMENT
-------------
                                X             Y             Z
Electronic contribution:      6.71311      -2.30584      -0.47997
Nuclear contribution   :     -7.46366       2.60957       0.55132
                        -----------------------------------------
Total Dipole Moment    :     -0.75055       0.30373       0.07135
                        -----------------------------------------
Magnitude (a.u.)       :      0.81281
Magnitude (Debye)      :      2.06600

                             ****ORCA TERMINATED NORMALLY****
TOTAL RUN TIME: 0 days 0 hours 0 minutes 7 seconds 64 msec
