                         Program Version 3.0.3 - RELEASE   -
|  1> ! RI PBE def2-SVP def2-SVP/J NBO PAL2
|  2> % maxcore 2000
|  3> % output
|  4>     # printlevel mini
|  5>     print[ P_Basis ] 0
|  6>     print[ P_SCFInfo ] 1
|  7>     print[ P_SCFIterInfo ] 1
|  8>     print[ P_OrbEn ] 0
|  9>     print[ P_Cartesian ] 0
| 10> end
| 11> *xyz 0 1
| 12>  C        2.0503470000    -0.9331580000    -0.1638320000
| 13>  C        3.4572180000    -0.4008890000    -0.0751670000
| 14>  O        4.2845500000    -1.4223770000     0.4439270000
| 15>  C        5.6001310000    -1.1521720000     0.6002770000
| 16>  C        6.1896540000     0.0096750000     0.3103430000
| 17>  C        6.3217880000    -2.3443420000     1.1441550000
| 18>  C        6.2960400000    -3.5419220000     0.2010560000
| 19>  H        1.3839310000    -0.1634290000    -0.5587890000
| 20>  H        1.6860820000    -1.2315960000     0.8208940000
| 21>  H        2.0042130000    -1.8002580000    -0.8253570000
| 22>  H        3.5062370000     0.4767750000     0.5818370000
| 23>  H        3.8275870000    -0.0975940000    -1.0625840000
| 24>  H        5.6597080000     0.8636770000    -0.0865440000
| 25>  H        7.2521950000     0.1152330000     0.4779060000
| 26>  H        5.8554130000    -2.6218520000     2.0961040000
| 27>  H        7.3513130000    -2.0545100000     1.3622970000
| 28>  H        5.2709020000    -3.8482060000    -0.0122980000
| 29>  H        6.8190840000    -4.3925970000     0.6433410000
| 30>  H        6.7820170000    -3.3009580000    -0.7473660000
| 31> *
| 32>
| 33>                          ****END OF INPUT****
 Total Charge           Charge          ....    0
 Multiplicity           Mult            ....    1
 Number of Electrons    NEL             ....   56
 Basis Dimension        Dim             ....  158

MULLIKEN ATOMIC CHARGES
-----------------------
   0 C :   -0.018324
   1 C :    0.107278
   2 O :   -0.272717
   3 C :    0.014257
   4 C :   -0.108993
   5 C :    0.067399
   6 C :   -0.029936
   7 H :    0.026183
   8 H :    0.032329
   9 H :    0.034065
  10 H :    0.021782
  11 H :    0.018448
  12 H :    0.008683
  13 H :    0.008132
  14 H :    0.020020
  15 H :    0.002094
  16 H :    0.028601
  17 H :    0.020698
  18 H :    0.020002
Sum of atomic charges:   -0.0000000

LOEWDIN ATOMIC CHARGES
----------------------
   0 C :   -0.073363
   1 C :    0.065941
   2 O :   -0.069693
   3 C :    0.029012
   4 C :   -0.162843
   5 C :   -0.043198
   6 C :   -0.061891
   7 H :    0.034939
   8 H :    0.031513
   9 H :    0.031715
  10 H :    0.014349
  11 H :    0.013975
  12 H :    0.018273
  13 H :    0.026000
  14 H :    0.034618
  15 H :    0.031822
  16 H :    0.025922
  17 H :    0.026475
  18 H :    0.026433

  Mayer bond orders larger than 0.1
B(  0-C ,  1-C ) :   1.1187 B(  0-C ,  7-H ) :   0.9528 B(  0-C ,  8-H ) :   0.9614
B(  0-C ,  9-H ) :   0.9626 B(  1-C ,  2-O ) :   0.9693 B(  1-C , 10-H ) :   0.9363
B(  1-C , 11-H ) :   0.9347 B(  2-O ,  3-C ) :   1.1399 B(  3-C ,  4-C ) :   1.8433
B(  3-C ,  5-C ) :   1.0604 B(  4-C , 12-H ) :   0.9378 B(  4-C , 13-H ) :   0.9217
B(  5-C ,  6-C ) :   1.1080 B(  5-C , 14-H ) :   0.9098 B(  5-C , 15-H ) :   0.9237
B(  6-C , 16-H ) :   0.9658 B(  6-C , 17-H ) :   0.9619 B(  6-C , 18-H ) :   0.9665

FINAL SINGLE POINT ENERGY      -310.423169942074

DIPOLE MOMENT
-------------
                                X             Y             Z
Electronic contribution:      0.49359       1.14364       1.21541
Nuclear contribution   :     -0.75302      -1.04561      -1.30111
                        -----------------------------------------
Total Dipole Moment    :     -0.25943       0.09804      -0.08570
                        -----------------------------------------
Magnitude (a.u.)       :      0.29028
Magnitude (Debye)      :      0.73783

                             ****ORCA TERMINATED NORMALLY****
TOTAL RUN TIME: 0 days 0 hours 0 minutes 8 seconds 610 msec
