                         Program Version 3.0.3 - RELEASE   -
|  1> ! RI PBE def2-SVP def2-SVP/J NBO PAL2
|  2> % maxcore 2000
|  3> % output
|  4>     # printlevel mini
|  5>     print[ P_Basis ] 0
|  6>     print[ P_SCFInfo ] 1
|  7>     print[ P_SCFIterInfo ] 1
|  8>     print[ P_OrbEn ] 0
|  9>     print[ P_Cartesian ] 0
| 10> end
| 11> *xyz 0 1
| 12>  C        0.9613550000     0.1094730000    -0.7468120000
| 13>  C        2.4262080000     0.0180320000    -0.4069660000
| 14>  O        3.1684580000     0.2925720000    -1.5779580000
| 15>  C        4.5140790000     0.2623240000    -1.4905200000
| 16>  C        5.2143350000    -0.0078730000    -0.3798760000
| 17>  C        5.1763330000     0.5603000000    -2.7571410000
| 18>  C        4.5505680000     0.8369310000    -3.8969350000
| 19>  H        0.3591490000    -0.0982080000     0.1401960000
| 20>  H        0.6967500000    -0.6145070000    -1.5196370000
| 21>  H        0.7088160000     1.1080160000    -1.1081400000
| 22>  H        2.6829830000    -0.9830260000    -0.0377960000
| 23>  H        2.6950490000     0.7406670000     0.3739680000
| 24>  H        4.7592860000    -0.2324400000     0.5733840000
| 25>  H        6.2939610000    -0.0032450000    -0.4306780000
| 26>  H        6.2606850000     0.5433670000    -2.7178330000
| 27>  H        3.4692590000     0.8581110000    -3.9541070000
| 28>  H        5.1080340000     1.0490050000    -4.8009400000
| 29> *
| 30>
| 31>                          ****END OF INPUT****
 Total Charge           Charge          ....    0
 Multiplicity           Mult            ....    1
 Number of Electrons    NEL             ....   54
 Basis Dimension        Dim             ....  148

MULLIKEN ATOMIC CHARGES
-----------------------
   0 C :   -0.013303
   1 C :    0.103289
   2 O :   -0.267563
   3 C :    0.125913
   4 C :   -0.112796
   5 C :   -0.042998
   6 C :   -0.010437
   7 H :    0.024593
   8 H :    0.035732
   9 H :    0.033535
  10 H :    0.020542
  11 H :    0.025309
  12 H :    0.015710
  13 H :    0.016373
  14 H :   -0.004010
  15 H :    0.028525
  16 H :    0.021586
Sum of atomic charges:   -0.0000000

LOEWDIN ATOMIC CHARGES
----------------------
   0 C :   -0.071210
   1 C :    0.067185
   2 O :   -0.063853
   3 C :    0.025593
   4 C :   -0.135506
   5 C :   -0.041914
   6 C :   -0.044003
   7 H :    0.035078
   8 H :    0.032335
   9 H :    0.032133
  10 H :    0.014498
  11 H :    0.015282
  12 H :    0.021004
  13 H :    0.028973
  14 H :    0.033178
  15 H :    0.025307
  16 H :    0.025921

  Mayer bond orders larger than 0.1
B(  0-C ,  1-C ) :   1.1173 B(  0-C ,  7-H ) :   0.9523 B(  0-C ,  8-H ) :   0.9637
B(  0-C ,  9-H ) :   0.9627 B(  1-C ,  2-O ) :   0.9606 B(  1-C , 10-H ) :   0.9348
B(  1-C , 11-H ) :   0.9368 B(  2-O ,  3-C ) :   1.1739 B(  3-C ,  4-C ) :   1.7522
B(  3-C ,  5-C ) :   1.1031 B(  4-C ,  6-C ) :   0.1295 B(  4-C , 12-H ) :   0.9350
B(  4-C , 13-H ) :   0.9283 B(  5-C ,  6-C ) :   1.9193 B(  5-C , 14-H ) :   0.9528
B(  6-C , 15-H ) :   0.9402 B(  6-C , 16-H ) :   0.9367

FINAL SINGLE POINT ENERGY      -309.204073752809

DIPOLE MOMENT
-------------
                                X             Y             Z
Electronic contribution:      2.99078       0.42020      -1.85079
Nuclear contribution   :     -3.27102      -0.49695       2.17622
                        -----------------------------------------
Total Dipole Moment    :     -0.28024      -0.07675       0.32543
                        -----------------------------------------
Magnitude (a.u.)       :      0.43627
Magnitude (Debye)      :      1.10891

                             ****ORCA TERMINATED NORMALLY****
TOTAL RUN TIME: 0 days 0 hours 0 minutes 7 seconds 283 msec
