                         Program Version 3.0.3 - RELEASE   -
|  1> ! RI PBE def2-SVP def2-SVP/J NBO PAL2
|  2> % maxcore 2000
|  3> % output
|  4>     # printlevel mini
|  5>     print[ P_Basis ] 0
|  6>     print[ P_SCFInfo ] 1
|  7>     print[ P_SCFIterInfo ] 1
|  8>     print[ P_OrbEn ] 0
|  9>     print[ P_Cartesian ] 0
| 10> end
| 11> *xyz 0 1
| 12>  C        1.7001560000    -0.6928630000     0.7929270000
| 13>  C        2.6897570000     0.1572590000     0.0406270000
| 14>  O        3.9812990000    -0.3831040000     0.2511470000
| 15>  C        5.0140350000     0.2485650000    -0.3483320000
| 16>  C        4.9406970000     1.3367120000    -1.1241110000
| 17>  C        6.2616670000    -0.3863360000    -0.0627460000
| 18>  C        7.3112310000    -0.9188630000     0.1760730000
| 19>  H        0.6905570000    -0.3018120000     0.6508430000
| 20>  H        1.9230510000    -0.6930220000     1.8612250000
| 21>  H        1.7245000000    -1.7236530000     0.4354000000
| 22>  H        2.6686040000     1.1962050000     0.3934130000
| 23>  H        2.4695810000     0.1642710000    -1.0344510000
| 24>  H        4.0077460000     1.8312210000    -1.3519490000
| 25>  H        5.8498960000     1.7417710000    -1.5427270000
| 26>  H        8.2419240000    -1.3905730000     0.3860610000
| 27> *
| 28>
| 29>                          ****END OF INPUT****
 Total Charge           Charge          ....    0
 Multiplicity           Mult            ....    1
 Number of Electrons    NEL             ....   52
 Basis Dimension        Dim             ....  138

MULLIKEN ATOMIC CHARGES
-----------------------
   0 C :   -0.015361
   1 C :    0.101152
   2 O :   -0.262785
   3 C :    0.050504
   4 C :   -0.076037
   5 C :    0.432899
   6 C :   -0.443640
   7 H :    0.024565
   8 H :    0.042443
   9 H :    0.037526
  10 H :    0.022883
  11 H :    0.023149
  12 H :    0.026047
  13 H :    0.027978
  14 H :    0.008679
Sum of atomic charges:   -0.0000000

LOEWDIN ATOMIC CHARGES
----------------------
   0 C :   -0.071465
   1 C :    0.066892
   2 O :   -0.059296
   3 C :    0.009127
   4 C :   -0.116594
   5 C :   -0.013423
   6 C :   -0.050116
   7 H :    0.035255
   8 H :    0.034671
   9 H :    0.033900
  10 H :    0.015854
  11 H :    0.015608
  12 H :    0.024728
  13 H :    0.037024
  14 H :    0.037834

  Mayer bond orders larger than 0.1
B(  0-C ,  1-C ) :   1.1170 B(  0-C ,  7-H ) :   0.9525 B(  0-C ,  8-H ) :   0.9632
B(  0-C ,  9-H ) :   0.9612 B(  1-C ,  2-O ) :   0.9600 B(  1-C , 10-H ) :   0.9351
B(  1-C , 11-H ) :   0.9362 B(  2-O ,  3-C ) :   1.1722 B(  3-C ,  4-C ) :   1.7861
B(  3-C ,  5-C ) :   0.9456 B(  4-C ,  6-C ) :   0.1057 B(  4-C , 12-H ) :   0.9360
B(  4-C , 13-H ) :   0.9255 B(  5-C ,  6-C ) :   2.3008 B(  6-C , 14-H ) :   1.0893

FINAL SINGLE POINT ENERGY      -307.952577061027

DIPOLE MOMENT
-------------
                                X             Y             Z
Electronic contribution:      7.01412      -1.26309      -0.05763
Nuclear contribution   :     -7.45964       1.42236       0.00947
                        -----------------------------------------
Total Dipole Moment    :     -0.44553       0.15927      -0.04816
                        -----------------------------------------
Magnitude (a.u.)       :      0.47558
Magnitude (Debye)      :      1.20884

                             ****ORCA TERMINATED NORMALLY****
TOTAL RUN TIME: 0 days 0 hours 0 minutes 7 seconds 166 msec
