                         Program Version 3.0.3 - RELEASE   -
|  1> ! RI PBE def2-SVP def2-SVP/J NBO PAL2
|  2> % maxcore 2000
|  3> % output
|  4>     # printlevel mini
|  5>     print[ P_Basis ] 0
|  6>     print[ P_SCFInfo ] 1
|  7>     print[ P_SCFIterInfo ] 1
|  8>     print[ P_OrbEn ] 0
|  9>     print[ P_Cartesian ] 0
| 10> end
| 11> *xyz 0 1
| 12>  C        2.3656260000    -2.4278010000     1.7954270000
| 13>  C        3.2846790000    -1.4343420000     1.1290790000
| 14>  O        4.4062930000    -2.1216890000     0.6341270000
| 15>  C        5.3149690000    -1.3289250000    -0.1071500000
| 16>  C        6.1830120000    -0.4727850000     0.7999440000
| 17>  C        6.1476610000    -2.2747990000    -0.9546030000
| 18>  C        5.3334610000    -3.0637940000    -1.9642610000
| 19>  H        1.4817980000    -1.9220950000     2.1907920000
| 20>  H        2.8754330000    -2.9273400000     2.6215760000
| 21>  H        2.0399360000    -3.1893400000     1.0841560000
| 22>  H        3.5842250000    -0.6596420000     1.8494070000
| 23>  H        2.7660790000    -0.9238920000     0.3023940000
| 24>  H        4.7371390000    -0.6711000000    -0.7787720000
| 25>  H        6.7745260000    -1.1092200000     1.4629110000
| 26>  H        5.5853380000     0.2018790000     1.4158830000
| 27>  H        6.8673500000     0.1397450000     0.2080290000
| 28>  H        6.6739940000    -2.9577300000    -0.2784320000
| 29>  H        6.9164030000    -1.6866060000    -1.4662540000
| 30>  H        4.5702440000    -3.6612130000    -1.4633560000
| 31>  H        5.9685160000    -3.7391810000    -2.5419350000
| 32>  H        4.8291080000    -2.3979300000    -2.6707710000
| 33> *
| 34>
| 35>                          ****END OF INPUT****
 Total Charge           Charge          ....    0
 Multiplicity           Mult            ....    1
 Number of Electrons    NEL             ....   58
 Basis Dimension        Dim             ....  168

MULLIKEN ATOMIC CHARGES
-----------------------
   0 C :   -0.024306
   1 C :    0.141533
   2 O :   -0.343532
   3 C :    0.040493
   4 C :    0.029412
   5 C :   -0.007532
   6 C :   -0.003129
   7 H :    0.017733
   8 H :    0.028387
   9 H :    0.031323
  10 H :   -0.002206
  11 H :   -0.008518
  12 H :   -0.016869
  13 H :    0.020393
  14 H :    0.017067
  15 H :    0.013334
  16 H :    0.011814
  17 H :    0.003363
  18 H :    0.025439
  19 H :    0.017799
  20 H :    0.008003
Sum of atomic charges:   -0.0000000

LOEWDIN ATOMIC CHARGES
----------------------
   0 C :   -0.073864
   1 C :    0.056670
   2 O :   -0.143057
   3 C :    0.046372
   4 C :   -0.074839
   5 C :   -0.049638
   6 C :   -0.067735
   7 H :    0.030969
   8 H :    0.029679
   9 H :    0.029194
  10 H :    0.001488
  11 H :    0.002913
  12 H :    0.003464
  13 H :    0.028588
  14 H :    0.024484
  15 H :    0.029154
  16 H :    0.026826
  17 H :    0.025423
  18 H :    0.025577
  19 H :    0.025874
  20 H :    0.022459

  Mayer bond orders larger than 0.1
B(  0-C ,  1-C ) :   1.1200 B(  0-C ,  7-H ) :   0.9533 B(  0-C ,  8-H ) :   0.9636
B(  0-C ,  9-H ) :   0.9655 B(  1-C ,  2-O ) :   1.0061 B(  1-C , 10-H ) :   0.9286
B(  1-C , 11-H ) :   0.9287 B(  2-O ,  3-C ) :   0.9961 B(  3-C ,  4-C ) :   1.0910
B(  3-C ,  5-C ) :   1.0533 B(  3-C , 12-H ) :   0.9040 B(  4-C , 13-H ) :   0.9531
B(  4-C , 14-H ) :   0.9499 B(  4-C , 15-H ) :   0.9503 B(  5-C ,  6-C ) :   1.1162
B(  5-C , 16-H ) :   0.9263 B(  5-C , 17-H ) :   0.9321 B(  6-C , 18-H ) :   0.9624
B(  6-C , 19-H ) :   0.9621 B(  6-C , 20-H ) :   0.9625

FINAL SINGLE POINT ENERGY      -311.634082231396

DIPOLE MOMENT
-------------
                                X             Y             Z
Electronic contribution:      0.10552      -0.34770       0.79316
Nuclear contribution   :     -0.16839       0.72500      -0.81095
                        -----------------------------------------
Total Dipole Moment    :     -0.06287       0.37730      -0.01779
                        -----------------------------------------
Magnitude (a.u.)       :      0.38292
Magnitude (Debye)      :      0.97329

                             ****ORCA TERMINATED NORMALLY****
TOTAL RUN TIME: 0 days 0 hours 0 minutes 8 seconds 123 msec
