                         Program Version 3.0.3 - RELEASE   -
|  1> ! RI PBE def2-SVP def2-SVP/J NBO PAL2
|  2> % maxcore 2000
|  3> % output
|  4>     # printlevel mini
|  5>     print[ P_Basis ] 0
|  6>     print[ P_SCFInfo ] 1
|  7>     print[ P_SCFIterInfo ] 1
|  8>     print[ P_OrbEn ] 0
|  9>     print[ P_Cartesian ] 0
| 10> end
| 11> *xyz 0 1
| 12>  C        1.5418020000     1.6086910000     1.7078370000
| 13>  C        2.9889960000     1.8008680000     2.0835570000
| 14>  O        3.7781630000     1.0872410000     1.1589620000
| 15>  C        5.1322090000     1.1130200000     1.2977940000
| 16>  C        5.7426480000     0.2930470000     0.2126710000
| 17>  C        5.7786940000     1.7757700000     2.2617830000
| 18>  C        7.2567570000     1.8389800000     2.4617210000
| 19>  H        0.8987820000     2.1497020000     2.4053150000
| 20>  H        1.2710830000     0.5515680000     1.7381960000
| 21>  H        1.3503320000     1.9834820000     0.7005680000
| 22>  H        3.1819570000     1.4316830000     3.0995620000
| 23>  H        3.2612230000     2.8644440000     2.0613850000
| 24>  H        5.3710350000    -0.7337150000     0.2678910000
| 25>  H        6.8281390000     0.2737760000     0.2689110000
| 26>  H        5.4497250000     0.6894530000    -0.7632630000
| 27>  H        5.1922920000     2.3319960000     2.9847650000
| 28>  H        7.8123210000     1.2689760000     1.7173090000
| 29>  H        7.5385070000     1.4522490000     3.4468850000
| 30>  H        7.6169460000     2.8723470000     2.4180390000
| 31> *
| 32>
| 33>                          ****END OF INPUT****
 Total Charge           Charge          ....    0
 Multiplicity           Mult            ....    1
 Number of Electrons    NEL             ....   56
 Basis Dimension        Dim             ....  158

MULLIKEN ATOMIC CHARGES
-----------------------
   0 C :   -0.001882
   1 C :    0.098098
   2 O :   -0.284040
   3 C :    0.016963
   4 C :    0.070072
   5 C :   -0.193784
   6 C :    0.059119
   7 H :    0.022439
   8 H :    0.029519
   9 H :    0.028420
  10 H :    0.014872
  11 H :    0.019864
  12 H :    0.032471
  13 H :    0.013444
  14 H :    0.029836
  15 H :   -0.009653
  16 H :    0.010661
  17 H :    0.021276
  18 H :    0.022305
Sum of atomic charges:   -0.0000000

LOEWDIN ATOMIC CHARGES
----------------------
   0 C :   -0.071483
   1 C :    0.061538
   2 O :   -0.079780
   3 C :    0.016154
   4 C :   -0.064495
   5 C :   -0.135476
   6 C :   -0.061449
   7 H :    0.033353
   8 H :    0.030370
   9 H :    0.030598
  10 H :    0.010983
  11 H :    0.011645
  12 H :    0.038973
  13 H :    0.031306
  14 H :    0.038297
  15 H :    0.021536
  16 H :    0.025615
  17 H :    0.031132
  18 H :    0.031184

  Mayer bond orders larger than 0.1
B(  0-C ,  1-C ) :   1.1108 B(  0-C ,  7-H ) :   0.9534 B(  0-C ,  8-H ) :   0.9633
B(  0-C ,  9-H ) :   0.9610 B(  1-C ,  2-O ) :   0.9783 B(  1-C , 10-H ) :   0.9338
B(  1-C , 11-H ) :   0.9365 B(  2-O ,  3-C ) :   1.1101 B(  3-C ,  4-C ) :   1.1145
B(  3-C ,  5-C ) :   1.7680 B(  4-C , 12-H ) :   0.9364 B(  4-C , 13-H ) :   0.9479
B(  4-C , 14-H ) :   0.9374 B(  5-C ,  6-C ) :   1.0894 B(  5-C , 15-H ) :   0.9362
B(  6-C , 16-H ) :   0.9546 B(  6-C , 17-H ) :   0.9441 B(  6-C , 18-H ) :   0.9455

FINAL SINGLE POINT ENERGY      -310.424193501140

DIPOLE MOMENT
-------------
                                X             Y             Z
Electronic contribution:     -0.91782      -0.67178      -0.99608
Nuclear contribution   :      0.80270       0.79456       1.15740
                        -----------------------------------------
Total Dipole Moment    :     -0.11513       0.12278       0.16132
                        -----------------------------------------
Magnitude (a.u.)       :      0.23313
Magnitude (Debye)      :      0.59258

                             ****ORCA TERMINATED NORMALLY****
TOTAL RUN TIME: 0 days 0 hours 0 minutes 8 seconds 30 msec
