                         Program Version 3.0.3 - RELEASE   -
|  1> ! RI PBE def2-SVP def2-SVP/J NBO PAL2
|  2> % maxcore 2000
|  3> % output
|  4>     # printlevel mini
|  5>     print[ P_Basis ] 0
|  6>     print[ P_SCFInfo ] 1
|  7>     print[ P_SCFIterInfo ] 1
|  8>     print[ P_OrbEn ] 0
|  9>     print[ P_Cartesian ] 0
| 10> end
| 11> *xyz 0 1
| 12>  C        3.2048700000     0.8520560000    -0.5347690000
| 13>  C        4.6082450000     0.3690870000    -0.2577640000
| 14>  O        4.5735780000    -0.4054790000     0.9154370000
| 15>  C        5.7974890000    -0.9757160000     1.3811600000
| 16>  C        6.3766060000    -1.9467710000     0.3570580000
| 17>  C        6.8124520000     0.1090670000     1.7280310000
| 18>  C        5.3902470000    -1.7274410000     2.6377650000
| 19>  H        3.1839760000     1.4605810000    -1.4418250000
| 20>  H        2.8357380000     1.4560430000     0.2964240000
| 21>  H        2.5275120000     0.0064110000    -0.6689970000
| 22>  H        5.2819960000     1.2291690000    -0.1426730000
| 23>  H        4.9736860000    -0.2210670000    -1.1092770000
| 24>  H        6.7263240000    -1.4337740000    -0.5412840000
| 25>  H        5.6241360000    -2.6834270000     0.0663670000
| 26>  H        7.2301770000    -2.4780710000     0.7839760000
| 27>  H        7.1659290000     0.6379070000     0.8403810000
| 28>  H        7.6845550000    -0.3339530000     2.2141520000
| 29>  H        6.3700700000     0.8361290000     2.4128940000
| 30>  H        4.6450360000    -2.4877300000     2.3956880000
| 31>  H        4.9521700000    -1.0382870000     3.3624350000
| 32>  H        6.2530110000    -2.2156160000     3.0956200000
| 33> *
| 34>
| 35>                          ****END OF INPUT****
 Total Charge           Charge          ....    0
 Multiplicity           Mult            ....    1
 Number of Electrons    NEL             ....   58
 Basis Dimension        Dim             ....  168

MULLIKEN ATOMIC CHARGES
-----------------------
   0 C :   -0.034332
   1 C :    0.150420
   2 O :   -0.338149
   3 C :   -0.140421
   4 C :    0.045940
   5 C :    0.051026
   6 C :    0.056022
   7 H :    0.018345
   8 H :    0.028680
   9 H :    0.028714
  10 H :   -0.004633
  11 H :   -0.008081
  12 H :    0.016399
  13 H :    0.021415
  14 H :    0.012351
  15 H :    0.014978
  16 H :    0.011247
  17 H :    0.022622
  18 H :    0.019584
  19 H :    0.018927
  20 H :    0.008947
Sum of atomic charges:   -0.0000000

LOEWDIN ATOMIC CHARGES
----------------------
   0 C :   -0.075236
   1 C :    0.056478
   2 O :   -0.144541
   3 C :    0.018173
   4 C :   -0.064965
   5 C :   -0.064632
   6 C :   -0.056762
   7 H :    0.030046
   8 H :    0.028413
   9 H :    0.028974
  10 H :    0.002372
  11 H :    0.001610
  12 H :    0.022289
  13 H :    0.028382
  14 H :    0.029351
  15 H :    0.022026
  16 H :    0.029284
  17 H :    0.028455
  18 H :    0.027363
  19 H :    0.027600
  20 H :    0.025320

  Mayer bond orders larger than 0.1
B(  0-C ,  1-C ) :   1.1229 B(  0-C ,  7-H ) :   0.9547 B(  0-C ,  8-H ) :   0.9635
B(  0-C ,  9-H ) :   0.9616 B(  1-C ,  2-O ) :   1.0138 B(  1-C , 10-H ) :   0.9262
B(  1-C , 11-H ) :   0.9272 B(  2-O ,  3-C ) :   0.9960 B(  3-C ,  4-C ) :   1.0535
B(  3-C ,  5-C ) :   1.0617 B(  3-C ,  6-C ) :   1.0518 B(  4-C , 12-H ) :   0.9488
B(  4-C , 13-H ) :   0.9522 B(  4-C , 14-H ) :   0.9520 B(  5-C , 15-H ) :   0.9482
B(  5-C , 16-H ) :   0.9492 B(  5-C , 17-H ) :   0.9519 B(  6-C , 18-H ) :   0.9549
B(  6-C , 19-H ) :   0.9538 B(  6-C , 20-H ) :   0.9542

FINAL SINGLE POINT ENERGY      -311.633685843694

DIPOLE MOMENT
-------------
                                X             Y             Z
Electronic contribution:     -1.51636      -0.04738       0.55217
Nuclear contribution   :      1.89628       0.08618      -0.73239
                        -----------------------------------------
Total Dipole Moment    :      0.37992       0.03880      -0.18022
                        -----------------------------------------
Magnitude (a.u.)       :      0.42229
Magnitude (Debye)      :      1.07337

                             ****ORCA TERMINATED NORMALLY****
TOTAL RUN TIME: 0 days 0 hours 0 minutes 9 seconds 147 msec
