                         Program Version 3.0.3 - RELEASE   -
|  1> ! RI PBE def2-SVP def2-SVP/J NBO PAL2
|  2> % maxcore 2000
|  3> % output
|  4>     # printlevel mini
|  5>     print[ P_Basis ] 0
|  6>     print[ P_SCFInfo ] 1
|  7>     print[ P_SCFIterInfo ] 1
|  8>     print[ P_OrbEn ] 0
|  9>     print[ P_Cartesian ] 0
| 10> end
| 11> *xyz 0 1
| 12>  C        0.9340000000    -1.2478550000    -1.9068190000
| 13>  C        2.3819100000    -0.9270700000    -2.1789410000
| 14>  O        3.1404380000    -1.2877030000    -1.0472520000
| 15>  C        4.5227910000    -1.0085240000    -1.1625820000
| 16>  C        5.1155980000    -1.1649780000     0.2234410000
| 17>  C        5.1861520000    -1.9238770000    -2.1484930000
| 18>  C        5.8806960000    -1.5233730000    -3.2030840000
| 19>  H        0.3166360000    -0.9691120000    -2.7637340000
| 20>  H        0.5755810000    -0.7040540000    -1.0305160000
| 21>  H        0.8049930000    -2.3161760000    -1.7222840000
| 22>  H        2.5078530000     0.1481870000    -2.3810850000
| 23>  H        2.7367430000    -1.4657130000    -3.0681110000
| 24>  H        4.6561790000     0.0308200000    -1.5040620000
| 25>  H        4.9887230000    -2.1919050000     0.5738070000
| 26>  H        4.6100500000    -0.4983880000     0.9244770000
| 27>  H        6.1812020000    -0.9300190000     0.2128500000
| 28>  H        5.0710980000    -2.9866000000    -1.9402280000
| 29>  H        6.0010490000    -0.4682250000    -3.4313880000
| 30>  H        6.3604300000    -2.2279560000    -3.8728880000
| 31> *
| 32>
| 33>                          ****END OF INPUT****
 Total Charge           Charge          ....    0
 Multiplicity           Mult            ....    1
 Number of Electrons    NEL             ....   56
 Basis Dimension        Dim             ....  158

MULLIKEN ATOMIC CHARGES
-----------------------
   0 C :   -0.026409
   1 C :    0.148235
   2 O :   -0.342343
   3 C :    0.112750
   4 C :    0.033036
   5 C :   -0.075216
   6 C :   -0.023308
   7 H :    0.020617
   8 H :    0.028920
   9 H :    0.029805
  10 H :   -0.010358
  11 H :   -0.001203
  12 H :   -0.019739
  13 H :    0.022423
  14 H :    0.026147
  15 H :    0.021911
  16 H :    0.008172
  17 H :    0.019039
  18 H :    0.027522
Sum of atomic charges:   -0.0000000

LOEWDIN ATOMIC CHARGES
----------------------
   0 C :   -0.074924
   1 C :    0.057291
   2 O :   -0.142886
   3 C :    0.045509
   4 C :   -0.060979
   5 C :   -0.038606
   6 C :   -0.057287
   7 H :    0.031687
   8 H :    0.028912
   9 H :    0.029791
  10 H :    0.003013
  11 H :    0.003981
  12 H :    0.006995
  13 H :    0.028945
  14 H :    0.030709
  15 H :    0.032075
  16 H :    0.027786
  17 H :    0.021910
  18 H :    0.026078

  Mayer bond orders larger than 0.1
B(  0-C ,  1-C ) :   1.1202 B(  0-C ,  7-H ) :   0.9542 B(  0-C ,  8-H ) :   0.9629
B(  0-C ,  9-H ) :   0.9642 B(  1-C ,  2-O ) :   1.0046 B(  1-C , 10-H ) :   0.9276
B(  1-C , 11-H ) :   0.9289 B(  2-O ,  3-C ) :   1.0039 B(  3-C ,  4-C ) :   1.0683
B(  3-C ,  5-C ) :   1.0294 B(  3-C , 12-H ) :   0.9135 B(  4-C , 13-H ) :   0.9568
B(  4-C , 14-H ) :   0.9506 B(  4-C , 15-H ) :   0.9555 B(  5-C ,  6-C ) :   1.9758
B(  5-C , 16-H ) :   0.9497 B(  6-C , 17-H ) :   0.9483 B(  6-C , 18-H ) :   0.9406

FINAL SINGLE POINT ENERGY      -310.408996617717

DIPOLE MOMENT
-------------
                                X             Y             Z
Electronic contribution:      1.24872      -0.67414       0.33205
Nuclear contribution   :     -1.12397       0.81413      -0.59987
                        -----------------------------------------
Total Dipole Moment    :      0.12475       0.13999      -0.26782
                        -----------------------------------------
Magnitude (a.u.)       :      0.32693
Magnitude (Debye)      :      0.83100

                             ****ORCA TERMINATED NORMALLY****
TOTAL RUN TIME: 0 days 0 hours 0 minutes 8 seconds 161 msec
