                         Program Version 3.0.3 - RELEASE   -
|  1> ! RI PBE def2-SVP def2-SVP/J NBO PAL2
|  2> % maxcore 2000
|  3> % output
|  4>     # printlevel mini
|  5>     print[ P_Basis ] 0
|  6>     print[ P_SCFInfo ] 1
|  7>     print[ P_SCFIterInfo ] 1
|  8>     print[ P_OrbEn ] 0
|  9>     print[ P_Cartesian ] 0
| 10> end
| 11> *xyz 0 1
| 12>  C        0.7473190000     1.7587000000    -0.5029420000
| 13>  C        2.2200550000     2.0195600000    -0.3170520000
| 14>  O        2.9399110000     0.9762440000    -0.9382150000
| 15>  C        4.3379000000     1.0857830000    -0.8084910000
| 16>  C        4.9475500000    -0.2045540000    -1.3239620000
| 17>  C        4.8720030000     2.2524300000    -1.5223000000
| 18>  C        5.3177880000     3.2000500000    -2.1095040000
| 19>  H        0.1613750000     2.5481580000    -0.0272110000
| 20>  H        0.4639500000     0.8023440000    -0.0591100000
| 21>  H        0.4937560000     1.7331080000    -1.5643670000
| 22>  H        2.4761330000     2.0581000000     0.7530790000
| 23>  H        2.5024630000     2.9849860000    -0.7574210000
| 24>  H        4.5941340000     1.2058750000     0.2571900000
| 25>  H        4.6929340000    -0.3414830000    -2.3756160000
| 26>  H        4.5540760000    -1.0459240000    -0.7518830000
| 27>  H        6.0333830000    -0.1788650000    -1.2254600000
| 28>  H        5.7111700000     4.0391790000    -2.6332340000
| 29> *
| 30>
| 31>                          ****END OF INPUT****
 Total Charge           Charge          ....    0
 Multiplicity           Mult            ....    1
 Number of Electrons    NEL             ....   54
 Basis Dimension        Dim             ....  148

MULLIKEN ATOMIC CHARGES
-----------------------
   0 C :   -0.019814
   1 C :    0.141026
   2 O :   -0.330978
   3 C :    0.145334
   4 C :    0.023404
   5 C :    0.358557
   6 C :   -0.513999
   7 H :    0.021818
   8 H :    0.027165
   9 H :    0.031935
  10 H :   -0.007252
  11 H :    0.007749
  12 H :    0.017186
  13 H :    0.036389
  14 H :    0.028346
  15 H :    0.032812
  16 H :    0.000323
Sum of atomic charges:    0.0000000

LOEWDIN ATOMIC CHARGES
----------------------
   0 C :   -0.072499
   1 C :    0.059114
   2 O :   -0.134937
   3 C :    0.039042
   4 C :   -0.052951
   5 C :   -0.030986
   6 C :   -0.077557
   7 H :    0.032893
   8 H :    0.028887
   9 H :    0.031099
  10 H :    0.004294
  11 H :    0.009088
  12 H :    0.025478
  13 H :    0.035222
  14 H :    0.032063
  15 H :    0.036103
  16 H :    0.035647

  Mayer bond orders larger than 0.1
B(  0-C ,  1-C ) :   1.1192 B(  0-C ,  7-H ) :   0.9534 B(  0-C ,  8-H ) :   0.9634
B(  0-C ,  9-H ) :   0.9654 B(  1-C ,  2-O ) :   0.9948 B(  1-C , 10-H ) :   0.9271
B(  1-C , 11-H ) :   0.9308 B(  2-O ,  3-C ) :   1.0461 B(  3-C ,  4-C ) :   1.0744
B(  3-C ,  5-C ) :   0.9567 B(  3-C , 12-H ) :   0.8987 B(  4-C , 13-H ) :   0.9564
B(  4-C , 14-H ) :   0.9512 B(  4-C , 15-H ) :   0.9555 B(  5-C ,  6-C ) :   2.3446
B(  5-C , 16-H ) :  -0.1147 B(  6-C , 16-H ) :   1.1045

FINAL SINGLE POINT ENERGY      -309.162939278087

DIPOLE MOMENT
-------------
                                X             Y             Z
Electronic contribution:      3.68128       1.67009      -1.68266
Nuclear contribution   :     -3.60079      -1.48958       1.93824
                        -----------------------------------------
Total Dipole Moment    :      0.08048       0.18051       0.25558
                        -----------------------------------------
Magnitude (a.u.)       :      0.32308
Magnitude (Debye)      :      0.82122

                             ****ORCA TERMINATED NORMALLY****
TOTAL RUN TIME: 0 days 0 hours 0 minutes 7 seconds 315 msec
