                         Program Version 3.0.3 - RELEASE   -
|  1> ! RI PBE def2-SVP def2-SVP/J NBO PAL2
|  2> % maxcore 2000
|  3> % output
|  4>     # printlevel mini
|  5>     print[ P_Basis ] 0
|  6>     print[ P_SCFInfo ] 1
|  7>     print[ P_SCFIterInfo ] 1
|  8>     print[ P_OrbEn ] 0
|  9>     print[ P_Cartesian ] 0
| 10> end
| 11> *xyz 0 1
| 12>  C        0.8136330000    -1.3815820000    -1.5191810000
| 13>  C        2.1693920000    -0.9566390000    -1.0150700000
| 14>  O        3.1606650000    -1.6140240000    -1.7638030000
| 15>  C        4.4637870000    -1.2669420000    -1.3589850000
| 16>  C        5.4540020000    -1.9257910000    -2.2526630000
| 17>  C        6.4464770000    -2.6961010000    -1.8264380000
| 18>  C        7.4712820000    -3.3363690000    -2.6971090000
| 19>  H        0.0239650000    -0.8846070000    -0.9512790000
| 20>  H        0.6869750000    -2.4609400000    -1.4161620000
| 21>  H        0.6969390000    -1.1224360000    -2.5732970000
| 22>  H        2.2786760000    -1.2040950000     0.0528230000
| 23>  H        2.2920810000     0.1344480000    -1.1060590000
| 24>  H        4.6370530000    -1.5633850000    -0.3130590000
| 25>  H        4.5805090000    -0.1706140000    -1.4091700000
| 26>  H        5.3346170000    -1.7328000000    -3.3171750000
| 27>  H        6.5342750000    -2.8833550000    -0.7566050000
| 28>  H        7.3021270000    -3.1048790000    -3.7503440000
| 29>  H        7.4613300000    -4.4245580000    -2.5789750000
| 30>  H        8.4795030000    -3.0025520000    -2.4313490000
| 31> *
| 32>
| 33>                          ****END OF INPUT****
 Total Charge           Charge          ....    0
 Multiplicity           Mult            ....    1
 Number of Electrons    NEL             ....   56
 Basis Dimension        Dim             ....  158

MULLIKEN ATOMIC CHARGES
-----------------------
   0 C :   -0.017183
   1 C :    0.119184
   2 O :   -0.348996
   3 C :    0.231103
   4 C :   -0.056557
   5 C :   -0.108305
   6 C :    0.028582
   7 H :    0.017692
   8 H :    0.033465
   9 H :    0.029753
  10 H :   -0.004921
  11 H :   -0.002390
  12 H :   -0.014548
  13 H :    0.001409
  14 H :   -0.002302
  15 H :   -0.002258
  16 H :    0.024347
  17 H :    0.040638
  18 H :    0.031287
Sum of atomic charges:   -0.0000000

LOEWDIN ATOMIC CHARGES
----------------------
   0 C :   -0.074635
   1 C :    0.053535
   2 O :   -0.151382
   3 C :    0.059428
   4 C :   -0.053666
   5 C :   -0.035618
   6 C :   -0.066868
   7 H :    0.031641
   8 H :    0.030783
   9 H :    0.030009
  10 H :    0.002578
  11 H :    0.002694
  12 H :    0.005820
  13 H :    0.010615
  14 H :    0.024867
  15 H :    0.022036
  16 H :    0.032242
  17 H :    0.038953
  18 H :    0.036968

  Mayer bond orders larger than 0.1
B(  0-C ,  1-C ) :   1.1208 B(  0-C ,  7-H ) :   0.9510 B(  0-C ,  8-H ) :   0.9649
B(  0-C ,  9-H ) :   0.9625 B(  1-C ,  2-O ) :   1.0125 B(  1-C , 10-H ) :   0.9294
B(  1-C , 11-H ) :   0.9303 B(  2-O ,  3-C ) :   0.9934 B(  3-C ,  4-C ) :   1.0446
B(  3-C , 12-H ) :   0.9243 B(  3-C , 13-H ) :   0.9065 B(  4-C ,  5-C ) :   1.9325
B(  4-C , 14-H ) :   0.9525 B(  5-C ,  6-C ) :   1.0863 B(  5-C , 15-H ) :   0.9495
B(  6-C , 16-H ) :   0.9617 B(  6-C , 17-H ) :   0.9482 B(  6-C , 18-H ) :   0.9465

FINAL SINGLE POINT ENERGY      -310.409225106760

DIPOLE MOMENT
-------------
                                X             Y             Z
Electronic contribution:      0.57946       0.14863      -0.36767
Nuclear contribution   :     -0.40773       0.02379       0.62430
                        -----------------------------------------
Total Dipole Moment    :      0.17173       0.17242       0.25663
                        -----------------------------------------
Magnitude (a.u.)       :      0.35366
Magnitude (Debye)      :      0.89894

                             ****ORCA TERMINATED NORMALLY****
TOTAL RUN TIME: 0 days 0 hours 0 minutes 7 seconds 713 msec
