                         Program Version 3.0.3 - RELEASE   -
|  1> ! RI PBE def2-SVP def2-SVP/J NBO PAL2
|  2> % maxcore 2000
|  3> % output
|  4>     # printlevel mini
|  5>     print[ P_Basis ] 0
|  6>     print[ P_SCFInfo ] 1
|  7>     print[ P_SCFIterInfo ] 1
|  8>     print[ P_OrbEn ] 0
|  9>     print[ P_Cartesian ] 0
| 10> end
| 11> *xyz 0 1
| 12>  C        1.2189590000     1.1464830000    -0.3299400000
| 13>  C        2.7013310000     0.9036820000    -0.4601360000
| 14>  O        3.2788370000     1.9691300000    -1.1704510000
| 15>  C        4.6645720000     1.8262840000    -1.3407820000
| 16>  C        5.2204030000     3.0196300000    -2.0940720000
| 17>  C        4.9919030000     4.3145340000    -1.3292160000
| 18>  C        6.6966980000     2.8012460000    -2.3913330000
| 19>  H        0.7465760000     0.3282960000     0.2181360000
| 20>  H        0.7531890000     1.2168380000    -1.3148350000
| 21>  H        1.0272210000     2.0776550000     0.2068390000
| 22>  H        2.8921070000    -0.0453060000    -0.9860610000
| 23>  H        3.1678920000     0.8191060000     0.5340500000
| 24>  H        4.8824240000     0.8979940000    -1.8934100000
| 25>  H        5.1610690000     1.7428020000    -0.3583840000
| 26>  H        4.6766790000     3.0777170000    -3.0450210000
| 27>  H        5.5308260000     4.2991780000    -0.3758990000
| 28>  H        3.9326540000     4.4627950000    -1.1155440000
| 29>  H        5.3516510000     5.1742280000    -1.9001930000
| 30>  H        7.2740310000     2.7184970000    -1.4647840000
| 31>  H        7.1074010000     3.6389280000    -2.9595860000
| 32>  H        6.8626970000     1.8897810000    -2.9718590000
| 33> *
| 34>
| 35>                          ****END OF INPUT****
 Total Charge           Charge          ....    0
 Multiplicity           Mult            ....    1
 Number of Electrons    NEL             ....   58
 Basis Dimension        Dim             ....  168

MULLIKEN ATOMIC CHARGES
-----------------------
   0 C :   -0.022729
   1 C :    0.139634
   2 O :   -0.342379
   3 C :    0.199129
   4 C :   -0.136418
   5 C :    0.021251
   6 C :    0.000013
   7 H :    0.020162
   8 H :    0.030990
   9 H :    0.030533
  10 H :   -0.009721
  11 H :   -0.006413
  12 H :   -0.012646
  13 H :   -0.019502
  14 H :    0.013495
  15 H :    0.001931
  16 H :    0.027441
  17 H :    0.012558
  18 H :    0.013684
  19 H :    0.020563
  20 H :    0.018424
Sum of atomic charges:   -0.0000000

LOEWDIN ATOMIC CHARGES
----------------------
   0 C :   -0.074780
   1 C :    0.057351
   2 O :   -0.145354
   3 C :    0.062649
   4 C :   -0.056502
   5 C :   -0.058731
   6 C :   -0.058208
   7 H :    0.031921
   8 H :    0.030015
   9 H :    0.029903
  10 H :    0.002069
  11 H :    0.002985
  12 H :    0.001795
  13 H :    0.000339
  14 H :    0.027748
  15 H :    0.021624
  16 H :    0.026700
  17 H :    0.023526
  18 H :    0.023423
  19 H :    0.027272
  20 H :    0.024256

  Mayer bond orders larger than 0.1
B(  0-C ,  1-C ) :   1.1170 B(  0-C ,  7-H ) :   0.9535 B(  0-C ,  8-H ) :   0.9640
B(  0-C ,  9-H ) :   0.9642 B(  1-C ,  2-O ) :   1.0063 B(  1-C , 10-H ) :   0.9292
B(  1-C , 11-H ) :   0.9301 B(  2-O ,  3-C ) :   1.0271 B(  3-C ,  4-C ) :   1.0460
B(  3-C , 12-H ) :   0.9294 B(  3-C , 13-H ) :   0.9169 B(  4-C ,  5-C ) :   1.0858
B(  4-C ,  6-C ) :   1.0722 B(  4-C , 14-H ) :   0.9079 B(  5-C , 15-H ) :   0.9571
B(  5-C , 16-H ) :   0.9573 B(  5-C , 17-H ) :   0.9636 B(  6-C , 18-H ) :   0.9600
B(  6-C , 19-H ) :   0.9623 B(  6-C , 20-H ) :   0.9614

FINAL SINGLE POINT ENERGY      -311.632156381451

DIPOLE MOMENT
-------------
                                X             Y             Z
Electronic contribution:     -1.75997      -0.72536      -0.47826
Nuclear contribution   :      1.88668       0.42851       0.58535
                        -----------------------------------------
Total Dipole Moment    :      0.12670      -0.29684       0.10709
                        -----------------------------------------
Magnitude (a.u.)       :      0.34006
Magnitude (Debye)      :      0.86436

                             ****ORCA TERMINATED NORMALLY****
TOTAL RUN TIME: 0 days 0 hours 0 minutes 7 seconds 957 msec
