                         Program Version 3.0.3 - RELEASE   -
|  1> ! RI PBE def2-SVP def2-SVP/J NBO PAL2
|  2> % maxcore 2000
|  3> % output
|  4>     # printlevel mini
|  5>     print[ P_Basis ] 0
|  6>     print[ P_SCFInfo ] 1
|  7>     print[ P_SCFIterInfo ] 1
|  8>     print[ P_OrbEn ] 0
|  9>     print[ P_Cartesian ] 0
| 10> end
| 11> *xyz 0 1
| 12>  C        1.5164540000     0.8469280000    -1.0482810000
| 13>  C        2.9390040000     1.0329750000    -0.5853550000
| 14>  O        3.1839980000     2.4052420000    -0.4036100000
| 15>  C        4.4962360000     2.6690690000     0.0287920000
| 16>  C        4.7092230000     4.1477140000     0.1376920000
| 17>  C        4.3894610000     4.9492680000    -1.0818060000
| 18>  C        5.1853290000     4.6830590000     1.2562480000
| 19>  H        1.3007380000    -0.2137710000    -1.1941850000
| 20>  H        1.3479510000     1.3667160000    -1.9934280000
| 21>  H        0.8172890000     1.2433330000    -0.3095600000
| 22>  H        3.6443780000     0.6214960000    -1.3246690000
| 23>  H        3.1112650000     0.4931550000     0.3589860000
| 24>  H        5.2133970000     2.2495460000    -0.6990350000
| 25>  H        4.6897430000     2.1843380000     0.9963290000
| 26>  H        3.3377630000     4.8275480000    -1.3521120000
| 27>  H        4.9759550000     4.6021200000    -1.9394170000
| 28>  H        4.5944930000     6.0091050000    -0.9271670000
| 29>  H        5.3941590000     4.0753730000     2.1301010000
| 30>  H        5.3860530000     5.7460750000     1.3343600000
| 31> *
| 32>
| 33>                          ****END OF INPUT****
 Total Charge           Charge          ....    0
 Multiplicity           Mult            ....    1
 Number of Electrons    NEL             ....   56
 Basis Dimension        Dim             ....  158

MULLIKEN ATOMIC CHARGES
-----------------------
   0 C :   -0.028122
   1 C :    0.134839
   2 O :   -0.349396
   3 C :    0.252422
   4 C :   -0.207041
   5 C :    0.077683
   6 C :   -0.027866
   7 H :    0.021749
   8 H :    0.030444
   9 H :    0.035294
  10 H :   -0.005267
  11 H :   -0.004776
  12 H :   -0.002312
  13 H :   -0.019349
  14 H :    0.041019
  15 H :    0.018757
  16 H :    0.014384
  17 H :    0.008446
  18 H :    0.009092
Sum of atomic charges:    0.0000000

LOEWDIN ATOMIC CHARGES
----------------------
   0 C :   -0.075126
   1 C :    0.056597
   2 O :   -0.148026
   3 C :    0.068919
   4 C :   -0.040680
   5 C :   -0.055716
   6 C :   -0.068037
   7 H :    0.032431
   8 H :    0.030023
   9 H :    0.031469
  10 H :    0.003187
  11 H :    0.003492
  12 H :    0.009745
  13 H :    0.006594
  14 H :    0.039894
  15 H :    0.035336
  16 H :    0.029630
  17 H :    0.019850
  18 H :    0.020416

  Mayer bond orders larger than 0.1
B(  0-C ,  1-C ) :   1.1190 B(  0-C ,  7-H ) :   0.9539 B(  0-C ,  8-H ) :   0.9636
B(  0-C ,  9-H ) :   0.9641 B(  1-C ,  2-O ) :   1.0070 B(  1-C , 10-H ) :   0.9289
B(  1-C , 11-H ) :   0.9307 B(  2-O ,  3-C ) :   1.0121 B(  3-C ,  4-C ) :   1.0418
B(  3-C , 12-H ) :   0.9048 B(  3-C , 13-H ) :   0.9155 B(  4-C ,  5-C ) :   1.0823
B(  4-C ,  6-C ) :   1.9933 B(  5-C , 14-H ) :   0.9383 B(  5-C , 15-H ) :   0.9390
B(  5-C , 16-H ) :   0.9517 B(  6-C , 17-H ) :   0.9312 B(  6-C , 18-H ) :   0.9361

FINAL SINGLE POINT ENERGY      -310.410031561240

DIPOLE MOMENT
-------------
                                X             Y             Z
Electronic contribution:      1.11001       1.33607       1.47024
Nuclear contribution   :     -0.96254      -1.68769      -1.58920
                        -----------------------------------------
Total Dipole Moment    :      0.14748      -0.35162      -0.11896
                        -----------------------------------------
Magnitude (a.u.)       :      0.39942
Magnitude (Debye)      :      1.01526

                             ****ORCA TERMINATED NORMALLY****
TOTAL RUN TIME: 0 days 0 hours 0 minutes 7 seconds 971 msec
