                         Program Version 3.0.3 - RELEASE   -
|  1> ! RI PBE def2-SVP def2-SVP/J NBO PAL2
|  2> % maxcore 2000
|  3> % output
|  4>     # printlevel mini
|  5>     print[ P_Basis ] 0
|  6>     print[ P_SCFInfo ] 1
|  7>     print[ P_SCFIterInfo ] 1
|  8>     print[ P_OrbEn ] 0
|  9>     print[ P_Cartesian ] 0
| 10> end
| 11> *xyz 0 1
| 12>  C        0.9374690000    -0.0215520000    -0.1229790000
| 13>  C        2.4331620000    -0.0004080000     0.0615510000
| 14>  O        2.9476350000    -1.2656540000    -0.2776510000
| 15>  C        4.3449250000    -1.3219060000    -0.1293990000
| 16>  C        4.8444690000    -2.6380660000    -0.4870350000
| 17>  C        5.2810560000    -3.7190240000    -0.7776270000
| 18>  C        5.7941110000    -5.0282260000    -1.1315000000
| 19>  H        0.5099960000     0.9502600000     0.1334290000
| 20>  H        0.4828410000    -0.7798070000     0.5171290000
| 21>  H        0.6822450000    -0.2497540000    -1.1593990000
| 22>  H        2.6915300000     0.2430340000     1.1042920000
| 23>  H        2.8910670000     0.7740740000    -0.5739180000
| 24>  H        4.6270910000    -1.0915600000     0.9106360000
| 25>  H        4.8261790000    -0.5607970000    -0.7645800000
| 26>  H        4.9800630000    -5.6885370000    -1.4409180000
| 27>  H        6.3012310000    -5.4959140000    -0.2839450000
| 28>  H        6.5055310000    -4.9631640000    -1.9584850000
| 29> *
| 30>
| 31>                          ****END OF INPUT****
 Total Charge           Charge          ....    0
 Multiplicity           Mult            ....    1
 Number of Electrons    NEL             ....   54
 Basis Dimension        Dim             ....  148

MULLIKEN ATOMIC CHARGES
-----------------------
   0 C :   -0.009517
   1 C :    0.134152
   2 O :   -0.340503
   3 C :    0.237093
   4 C :   -0.076093
   5 C :   -0.226854
   6 C :    0.042422
   7 H :    0.016465
   8 H :    0.034448
   9 H :    0.030328
  10 H :   -0.010837
  11 H :   -0.005863
  12 H :    0.008159
  13 H :    0.013375
  14 H :    0.053416
  15 H :    0.049163
  16 H :    0.050646
Sum of atomic charges:   -0.0000000

LOEWDIN ATOMIC CHARGES
----------------------
   0 C :   -0.071880
   1 C :    0.056842
   2 O :   -0.144868
   3 C :    0.054912
   4 C :   -0.074382
   5 C :   -0.050345
   6 C :   -0.070155
   7 H :    0.031433
   8 H :    0.031560
   9 H :    0.030724
  10 H :    0.002076
  11 H :    0.003096
  12 H :    0.021944
  13 H :    0.022943
  14 H :    0.054808
  15 H :    0.050553
  16 H :    0.050741

  Mayer bond orders larger than 0.1
B(  0-C ,  1-C ) :   1.1163 B(  0-C ,  7-H ) :   0.9525 B(  0-C ,  8-H ) :   0.9646
B(  0-C ,  9-H ) :   0.9644 B(  1-C ,  2-O ) :   1.0034 B(  1-C , 10-H ) :   0.9283
B(  1-C , 11-H ) :   0.9297 B(  2-O ,  3-C ) :   1.0481 B(  3-C ,  4-C ) :   1.0020
B(  3-C , 12-H ) :   0.9020 B(  3-C , 13-H ) :   0.9044 B(  4-C ,  5-C ) :   2.6373
B(  5-C ,  6-C ) :   1.1416 B(  6-C , 14-H ) :   0.9257 B(  6-C , 15-H ) :   0.9323
B(  6-C , 16-H ) :   0.9331

FINAL SINGLE POINT ENERGY      -309.168852552877

DIPOLE MOMENT
-------------
                                X             Y             Z
Electronic contribution:      2.87455      -2.22459      -0.36177
Nuclear contribution   :     -2.61512       2.36555       0.43700
                        -----------------------------------------
Total Dipole Moment    :      0.25942       0.14096       0.07523
                        -----------------------------------------
Magnitude (a.u.)       :      0.30468
Magnitude (Debye)      :      0.77443

                             ****ORCA TERMINATED NORMALLY****
TOTAL RUN TIME: 0 days 0 hours 0 minutes 6 seconds 908 msec
