                         Program Version 3.0.3 - RELEASE   -
|  1> ! RI PBE def2-SVP def2-SVP/J NBO PAL2
|  2> % maxcore 2000
|  3> % output
|  4>     # printlevel mini
|  5>     print[ P_Basis ] 0
|  6>     print[ P_SCFInfo ] 1
|  7>     print[ P_SCFIterInfo ] 1
|  8>     print[ P_OrbEn ] 0
|  9>     print[ P_Cartesian ] 0
| 10> end
| 11> *xyz 0 1
| 12>  C        2.8911640000    -0.2304300000    -0.6706290000
| 13>  C        4.2095300000    -0.5288660000    -0.0029910000
| 14>  O        4.0027510000    -0.6562710000     1.3815890000
| 15>  C        5.1833940000    -0.9386300000     2.0867430000
| 16>  C        4.8682090000    -1.0275780000     3.5685260000
| 17>  C        4.3869100000     0.2624990000     4.1456530000
| 18>  C        4.9516310000     0.8907930000     5.1674580000
| 19>  H        3.0266330000    -0.1289810000    -1.7496180000
| 20>  H        2.4676760000     0.6998920000    -0.2871190000
| 21>  H        2.1758180000    -1.0342640000    -0.4863270000
| 22>  H        4.9341790000     0.2762290000    -0.2009460000
| 23>  H        4.6436040000    -1.4586900000    -0.4032650000
| 24>  H        5.9320040000    -0.1516930000     1.9052070000
| 25>  H        5.6136990000    -1.8905960000     1.7381990000
| 26>  H        5.7638250000    -1.3646490000     4.0990040000
| 27>  H        4.1009330000    -1.7999870000     3.6996720000
| 28>  H        3.5119100000     0.6958730000     3.6677050000
| 29>  H        5.8271200000     0.4876080000     5.6683840000
| 30>  H        4.5593090000     1.8281320000     5.5449560000
| 31> *
| 32>
| 33>                          ****END OF INPUT****
 Total Charge           Charge          ....    0
 Multiplicity           Mult            ....    1
 Number of Electrons    NEL             ....   56
 Basis Dimension        Dim             ....  158

MULLIKEN ATOMIC CHARGES
-----------------------
   0 C :   -0.031645
   1 C :    0.133046
   2 O :   -0.350062
   3 C :    0.157248
   4 C :    0.064871
   5 C :   -0.088055
   6 C :   -0.033220
   7 H :    0.025244
   8 H :    0.029174
   9 H :    0.036259
  10 H :   -0.001713
  11 H :   -0.007573
  12 H :   -0.001445
  13 H :   -0.007580
  14 H :   -0.000342
  15 H :    0.031041
  16 H :    0.010213
  17 H :    0.011912
  18 H :    0.022627
Sum of atomic charges:   -0.0000000

LOEWDIN ATOMIC CHARGES
----------------------
   0 C :   -0.076614
   1 C :    0.057740
   2 O :   -0.150042
   3 C :    0.065017
   4 C :   -0.051344
   5 C :   -0.026201
   6 C :   -0.067972
   7 H :    0.033280
   8 H :    0.029982
   9 H :    0.031047
  10 H :    0.004349
  11 H :    0.002681
  12 H :    0.004637
  13 H :    0.003413
  14 H :    0.032448
  15 H :    0.038878
  16 H :    0.026637
  17 H :    0.018645
  18 H :    0.023418

  Mayer bond orders larger than 0.1
B(  0-C ,  1-C ) :   1.1175 B(  0-C ,  7-H ) :   0.9531 B(  0-C ,  8-H ) :   0.9628
B(  0-C ,  9-H ) :   0.9647 B(  1-C ,  2-O ) :   1.0092 B(  1-C , 10-H ) :   0.9331
B(  1-C , 11-H ) :   0.9306 B(  2-O ,  3-C ) :   1.0162 B(  3-C ,  4-C ) :   1.0714
B(  3-C , 12-H ) :   0.9262 B(  3-C , 13-H ) :   0.9259 B(  4-C ,  5-C ) :   1.0648
B(  4-C , 14-H ) :   0.9144 B(  4-C , 15-H ) :   0.9111 B(  5-C ,  6-C ) :   2.0075
B(  5-C , 16-H ) :   0.9604 B(  6-C , 17-H ) :   0.9465 B(  6-C , 18-H ) :   0.9467

FINAL SINGLE POINT ENERGY      -310.406402482681

DIPOLE MOMENT
-------------
                                X             Y             Z
Electronic contribution:     -0.10554      -0.25688       2.32266
Nuclear contribution   :      0.38599       0.12946      -2.66089
                        -----------------------------------------
Total Dipole Moment    :      0.28045      -0.12741      -0.33823
                        -----------------------------------------
Magnitude (a.u.)       :      0.45748
Magnitude (Debye)      :      1.16282

                             ****ORCA TERMINATED NORMALLY****
TOTAL RUN TIME: 0 days 0 hours 0 minutes 7 seconds 910 msec
