                         Program Version 3.0.3 - RELEASE   -
|  1> ! RI PBE def2-SVP def2-SVP/J NBO PAL2
|  2> % maxcore 2000
|  3> % output
|  4>     # printlevel mini
|  5>     print[ P_Basis ] 0
|  6>     print[ P_SCFInfo ] 1
|  7>     print[ P_SCFIterInfo ] 1
|  8>     print[ P_OrbEn ] 0
|  9>     print[ P_Cartesian ] 0
| 10> end
| 11> *xyz 0 1
| 12>  C        1.2950180000     1.3433790000    -0.0529350000
| 13>  C        2.7062160000     0.8137630000    -0.0560260000
| 14>  O        3.5562210000     1.7840910000    -0.6191110000
| 15>  C        4.8949060000     1.3746700000    -0.6631040000
| 16>  C        5.7071730000     2.4992750000    -1.2852600000
| 17>  C        7.1182970000     2.1708120000    -1.3770710000
| 18>  C        8.2806760000     1.8785140000    -1.4433470000
| 19>  H        0.6152910000     0.6068960000     0.3810120000
| 20>  H        0.9638550000     1.5620960000    -1.0698860000
| 21>  H        1.2300620000     2.2614590000     0.5341130000
| 22>  H        2.7686840000    -0.1194110000    -0.6368540000
| 23>  H        3.0343780000     0.5793790000     0.9684020000
| 24>  H        5.0039740000     0.4577360000    -1.2607900000
| 25>  H        5.2700770000     1.1551530000     0.3473180000
| 26>  H        5.5736870000     3.4064360000    -0.6877900000
| 27>  H        5.3091780000     2.7156180000    -2.2815360000
| 28>  H        9.3129170000     1.6275450000    -1.5059450000
| 29> *
| 30>
| 31>                          ****END OF INPUT****
 Total Charge           Charge          ....    0
 Multiplicity           Mult            ....    1
 Number of Electrons    NEL             ....   54
 Basis Dimension        Dim             ....  148

MULLIKEN ATOMIC CHARGES
-----------------------
   0 C :   -0.024150
   1 C :    0.132745
   2 O :   -0.343955
   3 C :    0.147751
   4 C :    0.088087
   5 C :    0.306041
   6 C :   -0.486389
   7 H :    0.024201
   8 H :    0.031735
   9 H :    0.031365
  10 H :   -0.003359
  11 H :   -0.003903
  12 H :    0.006614
  13 H :    0.007295
  14 H :    0.044072
  15 H :    0.044017
  16 H :   -0.002166
Sum of atomic charges:   -0.0000000

LOEWDIN ATOMIC CHARGES
----------------------
   0 C :   -0.074401
   1 C :    0.059034
   2 O :   -0.149125
   3 C :    0.070153
   4 C :   -0.053258
   5 C :   -0.021577
   6 C :   -0.089603
   7 H :    0.033513
   8 H :    0.030449
   9 H :    0.030674
  10 H :    0.004636
  11 H :    0.004209
  12 H :    0.008657
  13 H :    0.008977
  14 H :    0.051729
  15 H :    0.051869
  16 H :    0.034064

  Mayer bond orders larger than 0.1
B(  0-C ,  1-C ) :   1.1223 B(  0-C ,  7-H ) :   0.9528 B(  0-C ,  8-H ) :   0.9637
B(  0-C ,  9-H ) :   0.9631 B(  1-C ,  2-O ) :   1.0014 B(  1-C , 10-H ) :   0.9309
B(  1-C , 11-H ) :   0.9321 B(  2-O ,  3-C ) :   1.0338 B(  3-C ,  4-C ) :   1.0606
B(  3-C , 12-H ) :   0.9323 B(  3-C , 13-H ) :   0.9319 B(  4-C ,  5-C ) :   1.0355
B(  4-C , 14-H ) :   0.8959 B(  4-C , 15-H ) :   0.8947 B(  5-C ,  6-C ) :   2.3638
B(  5-C , 16-H ) :  -0.1106 B(  6-C , 16-H ) :   1.1017

FINAL SINGLE POINT ENERGY      -309.163249451879

DIPOLE MOMENT
-------------
                                X             Y             Z
Electronic contribution:      6.76755       1.98084      -1.98610
Nuclear contribution   :     -7.00170      -2.30219       2.16161
                        -----------------------------------------
Total Dipole Moment    :     -0.23415      -0.32134       0.17551
                        -----------------------------------------
Magnitude (a.u.)       :      0.43462
Magnitude (Debye)      :      1.10470

                             ****ORCA TERMINATED NORMALLY****
TOTAL RUN TIME: 0 days 0 hours 0 minutes 7 seconds 114 msec
