                         Program Version 3.0.3 - RELEASE   -
|  1> ! RI PBE def2-SVP def2-SVP/J NBO PAL2
|  2> % maxcore 2000
|  3> % output
|  4>     # printlevel mini
|  5>     print[ P_Basis ] 0
|  6>     print[ P_SCFInfo ] 1
|  7>     print[ P_SCFIterInfo ] 1
|  8>     print[ P_OrbEn ] 0
|  9>     print[ P_Cartesian ] 0
| 10> end
| 11> *xyz 0 1
| 12>  C        1.0584660000     1.3164430000    -1.2231800000
| 13>  C        2.4948760000     0.9287380000    -0.9829190000
| 14>  O        3.2880300000     1.4195170000    -2.0392310000
| 15>  C        4.6569610000     1.1021850000    -1.8988770000
| 16>  C        5.4263690000     1.6336850000    -3.0879140000
| 17>  C        4.9620240000     1.0595090000    -4.4168770000
| 18>  O        3.7021320000     1.5415110000    -4.8183760000
| 19>  H        0.4285910000     0.9541860000    -0.4080400000
| 20>  H        0.6911300000     0.8852700000    -2.1567050000
| 21>  H        0.9567680000     2.4017150000    -1.2814760000
| 22>  H        2.5977050000    -0.1649240000    -0.9188380000
| 23>  H        2.8554680000     1.3457420000    -0.0307930000
| 24>  H        4.7751390000     0.0088670000    -1.8312010000
| 25>  H        5.0425950000     1.5327180000    -0.9629010000
| 26>  H        6.4832440000     1.3875620000    -2.9379690000
| 27>  H        5.3476440000     2.7249850000    -3.1215260000
| 28>  H        4.9628870000    -0.0413870000    -4.3560990000
| 29>  H        5.6666180000     1.3366730000    -5.2056100000
| 30>  H        3.1355650000     1.5110960000    -4.0378480000
| 31> *
| 32>
| 33>                          ****END OF INPUT****
 Total Charge           Charge          ....    0
 Multiplicity           Mult            ....    1
 Number of Electrons    NEL             ....   58
 Basis Dimension        Dim             ....  158

MULLIKEN ATOMIC CHARGES
-----------------------
   0 C :   -0.032606
   1 C :    0.135560
   2 O :   -0.367965
   3 C :    0.174621
   4 C :   -0.075623
   5 C :    0.171206
   6 O :   -0.291917
   7 H :    0.026763
   8 H :    0.034955
   9 H :    0.039937
  10 H :    0.006171
  11 H :   -0.002285
  12 H :   -0.004863
  13 H :   -0.000612
  14 H :    0.012933
  15 H :    0.035214
  16 H :   -0.013986
  17 H :    0.009180
  18 H :    0.143318
Sum of atomic charges:    0.0000000

LOEWDIN ATOMIC CHARGES
----------------------
   0 C :   -0.074672
   1 C :    0.059309
   2 O :   -0.145321
   3 C :    0.062465
   4 C :   -0.076805
   5 C :    0.053228
   6 O :   -0.131519
   7 H :    0.035439
   8 H :    0.031353
   9 H :    0.032921
  10 H :    0.007447
  11 H :    0.007021
  12 H :    0.004619
  13 H :    0.007542
  14 H :    0.036280
  15 H :    0.031700
  16 H :   -0.000472
  17 H :    0.018484
  18 H :    0.040981

  Mayer bond orders larger than 0.1
B(  0-C ,  1-C ) :   1.1200 B(  0-C ,  7-H ) :   0.9524 B(  0-C ,  8-H ) :   0.9646
B(  0-C ,  9-H ) :   0.9650 B(  1-C ,  2-O ) :   0.9846 B(  1-C , 10-H ) :   0.9342
B(  1-C , 11-H ) :   0.9308 B(  2-O ,  3-C ) :   0.9829 B(  3-C ,  4-C ) :   1.0895
B(  3-C , 12-H ) :   0.9249 B(  3-C , 13-H ) :   0.9301 B(  4-C ,  5-C ) :   1.0847
B(  4-C , 14-H ) :   0.9067 B(  4-C , 15-H ) :   0.9273 B(  5-C ,  6-O ) :   1.0913
B(  5-C , 16-H ) :   0.9254 B(  5-C , 17-H ) :   0.9390 B(  6-O , 18-H ) :   0.9625

FINAL SINGLE POINT ENERGY      -347.489829452607

DIPOLE MOMENT
-------------
                                X             Y             Z
Electronic contribution:      0.77272       1.10835      -3.20872
Nuclear contribution   :     -0.63135      -1.44628       4.31509
                        -----------------------------------------
Total Dipole Moment    :      0.14137      -0.33793       1.10637
                        -----------------------------------------
Magnitude (a.u.)       :      1.16543
Magnitude (Debye)      :      2.96230

                             ****ORCA TERMINATED NORMALLY****
TOTAL RUN TIME: 0 days 0 hours 0 minutes 7 seconds 977 msec
