                         Program Version 3.0.3 - RELEASE   -
|  1> ! RI PBE def2-SVP def2-SVP/J NBO PAL2
|  2> % maxcore 2000
|  3> % output
|  4>     # printlevel mini
|  5>     print[ P_Basis ] 0
|  6>     print[ P_SCFInfo ] 1
|  7>     print[ P_SCFIterInfo ] 1
|  8>     print[ P_OrbEn ] 0
|  9>     print[ P_Cartesian ] 0
| 10> end
| 11> *xyz 0 1
| 12>  C        1.2117120000     1.1583610000     0.5076080000
| 13>  C        2.4927190000     0.8398440000     0.4837440000
| 14>  O        3.4418050000     1.6771180000     0.9976840000
| 15>  C        4.7213820000     1.2985900000     0.9446300000
| 16>  C        5.7161770000     2.0522580000     1.4220430000
| 17>  C        7.0783230000     1.5616780000     1.3222190000
| 18>  O        8.0557350000     2.1508080000     1.7164570000
| 19>  H        0.4869740000     0.4731220000     0.0923000000
| 20>  H        0.8674340000     2.0915810000     0.9339510000
| 21>  H        2.8758610000    -0.0866120000     0.0647710000
| 22>  H        4.9144610000     0.3295260000     0.4853090000
| 23>  H        5.5343630000     3.0170080000     1.8804380000
| 24>  H        7.1774660000     0.5634170000     0.8386450000
| 25> *
| 26>
| 27>                          ****END OF INPUT****
 Total Charge           Charge          ....    0
 Multiplicity           Mult            ....    1
 Number of Electrons    NEL             ....   52
 Basis Dimension        Dim             ....  128

MULLIKEN ATOMIC CHARGES
-----------------------
   0 C :   -0.053122
   1 C :    0.096258
   2 O :   -0.166199
   3 C :    0.139783
   4 C :   -0.038504
   5 C :    0.105524
   6 O :   -0.181429
   7 H :    0.044428
   8 H :    0.045540
   9 H :    0.014274
  10 H :    0.011100
  11 H :    0.017691
  12 H :   -0.035344
Sum of atomic charges:   -0.0000000

LOEWDIN ATOMIC CHARGES
----------------------
   0 C :   -0.086404
   1 C :    0.041539
   2 O :    0.015096
   3 C :    0.070960
   4 C :   -0.108947
   5 C :    0.057668
   6 O :   -0.130084
   7 H :    0.041008
   8 H :    0.038340
   9 H :    0.019621
  10 H :    0.017420
  11 H :    0.042232
  12 H :   -0.018449

  Mayer bond orders larger than 0.1
B(  0-C ,  1-C ) :   1.9484 B(  0-C ,  7-H ) :   0.9337 B(  0-C ,  8-H ) :   0.9472
B(  1-C ,  2-O ) :   1.0453 B(  1-C ,  9-H ) :   0.9447 B(  2-O ,  3-C ) :   1.1425
B(  3-C ,  4-C ) :   1.6301 B(  3-C , 10-H ) :   0.9451 B(  4-C ,  5-C ) :   1.0616
B(  4-C , 11-H ) :   0.9694 B(  5-C ,  6-O ) :   2.0840 B(  5-C , 12-H ) :   0.9293

FINAL SINGLE POINT ENERGY      -343.865375585485

DIPOLE MOMENT
-------------
                                X             Y             Z
Electronic contribution:      4.41733       1.84739       1.37834
Nuclear contribution   :     -5.90773      -2.64216      -1.92704
                        -----------------------------------------
Total Dipole Moment    :     -1.49040      -0.79477      -0.54871
                        -----------------------------------------
Magnitude (a.u.)       :      1.77596
Magnitude (Debye)      :      4.51414

                             ****ORCA TERMINATED NORMALLY****
TOTAL RUN TIME: 0 days 0 hours 0 minutes 6 seconds 186 msec
