                         Program Version 3.0.3 - RELEASE   -
|  1> ! RI PBE def2-SVP def2-SVP/J NBO PAL2
|  2> % maxcore 2000
|  3> % output
|  4>     # printlevel mini
|  5>     print[ P_Basis ] 0
|  6>     print[ P_SCFInfo ] 1
|  7>     print[ P_SCFIterInfo ] 1
|  8>     print[ P_OrbEn ] 0
|  9>     print[ P_Cartesian ] 0
| 10> end
| 11> *xyz 0 1
| 12>  C        2.6554320000    -0.9539080000     2.5436280000
| 13>  C        3.6528480000    -0.2312580000     2.0650940000
| 14>  O        4.9299390000    -0.3890510000     2.5133260000
| 15>  C        5.9523790000    -0.1236100000     1.6581650000
| 16>  C        5.8900340000    -0.0422000000     0.3315480000
| 17>  C        7.2245380000     0.0563090000     2.4063330000
| 18>  O        8.2841740000     0.2837390000     1.8903500000
| 19>  H        1.6449120000    -0.7498950000     2.2189160000
| 20>  H        2.8234330000    -1.7410540000     3.2674950000
| 21>  H        3.5253580000     0.5613370000     1.3323560000
| 22>  H        4.9836670000    -0.2135560000    -0.2323750000
| 23>  H        6.8042470000     0.1891580000    -0.1982080000
| 24>  H        7.1133400000    -0.0390020000     3.5052740000
| 25> *
| 26>
| 27>                          ****END OF INPUT****
 Total Charge           Charge          ....    0
 Multiplicity           Mult            ....    1
 Number of Electrons    NEL             ....   52
 Basis Dimension        Dim             ....  128

MULLIKEN ATOMIC CHARGES
-----------------------
   0 C :   -0.053686
   1 C :    0.089582
   2 O :   -0.206460
   3 C :    0.036979
   4 C :   -0.051665
   5 C :    0.142606
   6 O :   -0.139938
   7 H :    0.037123
   8 H :    0.041811
   9 H :    0.020717
  10 H :    0.041912
  11 H :    0.047136
  12 H :   -0.006117
Sum of atomic charges:    0.0000000

LOEWDIN ATOMIC CHARGES
----------------------
   0 C :   -0.091061
   1 C :    0.042276
   2 O :   -0.016963
   3 C :   -0.026344
   4 C :   -0.059728
   5 C :    0.083119
   6 O :   -0.094030
   7 H :    0.037122
   8 H :    0.035170
   9 H :    0.019530
  10 H :    0.032768
  11 H :    0.042691
  12 H :   -0.004549

  Mayer bond orders larger than 0.1
B(  0-C ,  1-C ) :   1.9480 B(  0-C ,  7-H ) :   0.9388 B(  0-C ,  8-H ) :   0.9515
B(  1-C ,  2-O ) :   1.0543 B(  1-C ,  9-H ) :   0.9379 B(  2-O ,  3-C ) :   1.0890
B(  3-C ,  4-C ) :   1.8348 B(  3-C ,  5-C ) :   0.9456 B(  4-C , 10-H ) :   0.9348
B(  4-C , 11-H ) :   0.9096 B(  5-C ,  6-O ) :   2.1812 B(  5-C , 12-H ) :   0.9222

FINAL SINGLE POINT ENERGY      -343.857849210519

DIPOLE MOMENT
-------------
                                X             Y             Z
Electronic contribution:      4.91140       0.71819       1.37991
Nuclear contribution   :     -5.91112      -0.76132      -1.53088
                        -----------------------------------------
Total Dipole Moment    :     -0.99972      -0.04314      -0.15096
                        -----------------------------------------
Magnitude (a.u.)       :      1.01198
Magnitude (Debye)      :      2.57224

                             ****ORCA TERMINATED NORMALLY****
TOTAL RUN TIME: 0 days 0 hours 0 minutes 6 seconds 159 msec
