                         Program Version 3.0.3 - RELEASE   -
|  1> ! RI PBE def2-SVP def2-SVP/J NBO PAL2
|  2> % maxcore 2000
|  3> % output
|  4>     # printlevel mini
|  5>     print[ P_Basis ] 0
|  6>     print[ P_SCFInfo ] 1
|  7>     print[ P_SCFIterInfo ] 1
|  8>     print[ P_OrbEn ] 0
|  9>     print[ P_Cartesian ] 0
| 10> end
| 11> *xyz 0 1
| 12>  C        2.4183610000    -0.4085450000     2.6123070000
| 13>  C        3.2132910000    -1.1655140000     3.3613440000
| 14>  O        4.4420460000    -1.6295500000     3.0603130000
| 15>  C        4.9611490000    -1.2866150000     1.7920860000
| 16>  C        6.3267660000    -1.9249400000     1.6543990000
| 17>  C        6.2803210000    -3.4259730000     1.5682790000
| 18>  O        7.0020520000    -4.0779910000     0.8648020000
| 19>  H        1.4547590000    -0.1206510000     3.0084880000
| 20>  H        2.6783910000    -0.0596420000     1.6224610000
| 21>  H        2.9219840000    -1.4980590000     4.3517500000
| 22>  H        5.0388260000    -0.1964320000     1.7043680000
| 23>  H        4.2777400000    -1.6360460000     1.0069650000
| 24>  H        6.9229300000    -1.6640810000     2.5375450000
| 25>  H        6.8508020000    -1.5416300000     0.7765950000
| 26>  H        5.5242720000    -3.9167320000     2.2163080000
| 27> *
| 28>
| 29>                          ****END OF INPUT****
 Total Charge           Charge          ....    0
 Multiplicity           Mult            ....    1
 Number of Electrons    NEL             ....   54
 Basis Dimension        Dim             ....  138

MULLIKEN ATOMIC CHARGES
-----------------------
   0 C :   -0.113670
   1 C :    0.109353
   2 O :   -0.269088
   3 C :    0.111124
   4 C :    0.016917
   5 C :    0.070023
   6 O :   -0.159206
   7 H :    0.028684
   8 H :    0.029707
   9 H :    0.015194
  10 H :    0.035402
  11 H :    0.030425
  12 H :    0.059960
  13 H :    0.032855
  14 H :    0.002318
Sum of atomic charges:    0.0000000

LOEWDIN ATOMIC CHARGES
----------------------
   0 C :   -0.150943
   1 C :    0.033349
   2 O :   -0.070875
   3 C :    0.073424
   4 C :   -0.088917
   5 C :    0.093171
   6 O :   -0.103428
   7 H :    0.034492
   8 H :    0.023297
   9 H :    0.025273
  10 H :    0.021738
  11 H :    0.017927
  12 H :    0.056121
  13 H :    0.044205
  14 H :   -0.008834

  Mayer bond orders larger than 0.1
B(  0-C ,  1-C ) :   1.8702 B(  0-C ,  7-H ) :   0.9354 B(  0-C ,  8-H ) :   0.9518
B(  1-C ,  2-O ) :   1.1479 B(  1-C ,  9-H ) :   0.9647 B(  2-O ,  3-C ) :   0.9650
B(  3-C ,  4-C ) :   1.0492 B(  3-C , 10-H ) :   0.9301 B(  3-C , 11-H ) :   0.9331
B(  4-C ,  5-C ) :   0.9654 B(  4-C , 12-H ) :   0.9057 B(  4-C , 13-H ) :   0.9153
B(  5-C ,  6-O ) :   2.1821 B(  5-C , 14-H ) :   0.9302

FINAL SINGLE POINT ENERGY      -345.071107136945

DIPOLE MOMENT
-------------
                                X             Y             Z
Electronic contribution:      3.44185      -4.27207      -0.02477
Nuclear contribution   :     -3.82432       5.04195       0.25145
                        -----------------------------------------
Total Dipole Moment    :     -0.38247       0.76987       0.22668
                        -----------------------------------------
Magnitude (a.u.)       :      0.88903
Magnitude (Debye)      :      2.25974

                             ****ORCA TERMINATED NORMALLY****
TOTAL RUN TIME: 0 days 0 hours 0 minutes 6 seconds 784 msec
