                         Program Version 3.0.3 - RELEASE   -
|  1> ! RI PBE def2-SVP def2-SVP/J NBO PAL2
|  2> % maxcore 2000
|  3> % output
|  4>     # printlevel mini
|  5>     print[ P_Basis ] 0
|  6>     print[ P_SCFInfo ] 1
|  7>     print[ P_SCFIterInfo ] 1
|  8>     print[ P_OrbEn ] 0
|  9>     print[ P_Cartesian ] 0
| 10> end
| 11> *xyz 0 1
| 12>  C        0.5915090000    -0.3934380000    -0.0206950000
| 13>  C        1.9087890000     0.1720530000    -0.4801790000
| 14>  O        1.9917300000     0.8707490000    -1.4607890000
| 15>  C        3.1151230000    -0.1840900000     0.3602150000
| 16>  C        4.4436300000     0.1845790000    -0.2726520000
| 17>  C        4.8365490000    -0.7474820000    -1.4057970000
| 18>  O        4.9615250000    -2.0967350000    -0.9924320000
| 19>  H       -0.2292100000     0.0861970000    -0.5511680000
| 20>  H        0.4661660000    -0.2781320000     1.0587720000
| 21>  H        0.5750050000    -1.4676970000    -0.2298810000
| 22>  H        3.0788820000    -1.2544330000     0.5906890000
| 23>  H        2.9820900000     0.3267300000     1.3224750000
| 24>  H        5.2286040000     0.1710540000     0.4925160000
| 25>  H        4.3929380000     1.2050960000    -0.6624740000
| 26>  H        5.7658510000    -0.3947950000    -1.8714040000
| 27>  H        4.0650070000    -0.7422290000    -2.1779250000
| 28>  H        5.7106220000    -2.1601240000    -0.3944700000
| 29> *
| 30>
| 31>                          ****END OF INPUT****
 Total Charge           Charge          ....    0
 Multiplicity           Mult            ....    1
 Number of Electrons    NEL             ....   56
 Basis Dimension        Dim             ....  148

MULLIKEN ATOMIC CHARGES
-----------------------
   0 C :    0.027255
   1 C :   -0.070915
   2 O :   -0.171124
   3 C :    0.003714
   4 C :   -0.027803
   5 C :    0.163765
   6 O :   -0.293533
   7 H :    0.032741
   8 H :    0.033546
   9 H :    0.053605
  10 H :    0.021996
  11 H :    0.032276
  12 H :    0.001254
  13 H :    0.016597
  14 H :   -0.000233
  15 H :    0.025921
  16 H :    0.150938
Sum of atomic charges:   -0.0000000

LOEWDIN ATOMIC CHARGES
----------------------
   0 C :   -0.088161
   1 C :    0.061365
   2 O :   -0.126783
   3 C :   -0.075016
   4 C :   -0.063599
   5 C :    0.056996
   6 O :   -0.126101
   7 H :    0.037750
   8 H :    0.039847
   9 H :    0.052298
  10 H :    0.034963
  11 H :    0.045809
  12 H :    0.021383
  13 H :    0.032807
  14 H :    0.006974
  15 H :    0.023299
  16 H :    0.066168

  Mayer bond orders larger than 0.1
B(  0-C ,  1-C ) :   1.0387 B(  0-C ,  7-H ) :   0.9452 B(  0-C ,  8-H ) :   0.9449
B(  0-C ,  9-H ) :   0.9376 B(  1-C ,  2-O ) :   2.1631 B(  1-C ,  3-C ) :   0.9552
B(  3-C ,  4-C ) :   1.0895 B(  3-C , 10-H ) :   0.9095 B(  3-C , 11-H ) :   0.8990
B(  4-C ,  5-C ) :   1.0836 B(  4-C , 12-H ) :   0.9271 B(  4-C , 13-H ) :   0.9076
B(  5-C ,  6-O ) :   1.0327 B(  5-C , 14-H ) :   0.9389 B(  5-C , 15-H ) :   0.9412
B(  6-O , 16-H ) :   0.9862

FINAL SINGLE POINT ENERGY      -346.307730230675

DIPOLE MOMENT
-------------
                                X             Y             Z
Electronic contribution:     -0.14286       0.75267      -2.54567
Nuclear contribution   :      0.44526      -0.94976       3.54578
                        -----------------------------------------
Total Dipole Moment    :      0.30240      -0.19708       1.00010
                        -----------------------------------------
Magnitude (a.u.)       :      1.06325
Magnitude (Debye)      :      2.70256

                             ****ORCA TERMINATED NORMALLY****
TOTAL RUN TIME: 0 days 0 hours 0 minutes 7 seconds 154 msec
