                         Program Version 3.0.3 - RELEASE   -
|  1> ! RI PBE def2-SVP def2-SVP/J NBO PAL2
|  2> % maxcore 2000
|  3> % output
|  4>     # printlevel mini
|  5>     print[ P_Basis ] 0
|  6>     print[ P_SCFInfo ] 1
|  7>     print[ P_SCFIterInfo ] 1
|  8>     print[ P_OrbEn ] 0
|  9>     print[ P_Cartesian ] 0
| 10> end
| 11> *xyz 0 1
| 12>  C        2.0969660000     0.0929900000     1.2284300000
| 13>  C        3.4143160000    -0.0202390000     0.5105390000
| 14>  O        4.4591980000    -0.1426960000     1.1095350000
| 15>  C        3.3518130000     0.0305040000    -0.9716370000
| 16>  C        4.4604600000    -0.0009160000    -1.7065340000
| 17>  C        4.5191700000     0.0411520000    -3.1917200000
| 18>  O        3.2763930000     0.0354150000    -3.8430310000
| 19>  H        2.2504270000     0.0524020000     2.3048690000
| 20>  H        1.4300480000    -0.7168450000     0.9172890000
| 21>  H        1.6022770000     1.0305580000     0.9574340000
| 22>  H        2.3773740000     0.1213380000    -1.4419410000
| 23>  H        5.4136360000    -0.0678650000    -1.1843740000
| 24>  H        5.1628120000    -0.7815350000    -3.5411190000
| 25>  H        5.0250630000     0.9636160000    -3.4999940000
| 26>  H        2.8324560000    -0.7926800000    -3.6402460000
| 27> *
| 28>
| 29>                          ****END OF INPUT****
 Total Charge           Charge          ....    0
 Multiplicity           Mult            ....    1
 Number of Electrons    NEL             ....   54
 Basis Dimension        Dim             ....  138

MULLIKEN ATOMIC CHARGES
-----------------------
   0 C :    0.004796
   1 C :   -0.014108
   2 O :   -0.170852
   3 C :   -0.053285
   4 C :   -0.083714
   5 C :    0.230000
   6 O :   -0.272848
   7 H :    0.039761
   8 H :    0.044663
   9 H :    0.046101
  10 H :   -0.017213
  11 H :    0.022271
  12 H :    0.022471
  13 H :    0.040674
  14 H :    0.161282
Sum of atomic charges:   -0.0000000

LOEWDIN ATOMIC CHARGES
----------------------
   0 C :   -0.090553
   1 C :    0.046113
   2 O :   -0.132831
   3 C :   -0.095517
   4 C :    0.007304
   5 C :    0.051853
   6 O :   -0.109526
   7 H :    0.038439
   8 H :    0.045605
   9 H :    0.046597
  10 H :    0.018511
  11 H :    0.035206
  12 H :    0.023870
  13 H :    0.043428
  14 H :    0.071500

  Mayer bond orders larger than 0.1
B(  0-C ,  1-C ) :   1.0391 B(  0-C ,  7-H ) :   0.9477 B(  0-C ,  8-H ) :   0.9414
B(  0-C ,  9-H ) :   0.9428 B(  1-C ,  2-O ) :   2.1461 B(  1-C ,  3-C ) :   0.9692
B(  3-C ,  4-C ) :   1.8258 B(  3-C , 10-H ) :   0.9427 B(  4-C ,  5-C ) :   1.0243
B(  4-C , 11-H ) :   0.9283 B(  5-C ,  6-O ) :   1.0972 B(  5-C , 12-H ) :   0.9202
B(  5-C , 13-H ) :   0.9105 B(  6-O , 14-H ) :   0.9766

FINAL SINGLE POINT ENERGY      -345.090932666156

DIPOLE MOMENT
-------------
                                X             Y             Z
Electronic contribution:      2.33103      -0.17338       0.32982
Nuclear contribution   :     -2.82816      -0.16683      -0.88601
                        -----------------------------------------
Total Dipole Moment    :     -0.49713      -0.34021      -0.55619
                        -----------------------------------------
Magnitude (a.u.)       :      0.81990
Magnitude (Debye)      :      2.08401

                             ****ORCA TERMINATED NORMALLY****
TOTAL RUN TIME: 0 days 0 hours 0 minutes 6 seconds 723 msec
