                         Program Version 3.0.3 - RELEASE   -
|  1> ! RI PBE def2-SVP def2-SVP/J NBO PAL2
|  2> % maxcore 2000
|  3> % output
|  4>     # printlevel mini
|  5>     print[ P_Basis ] 0
|  6>     print[ P_SCFInfo ] 1
|  7>     print[ P_SCFIterInfo ] 1
|  8>     print[ P_OrbEn ] 0
|  9>     print[ P_Cartesian ] 0
| 10> end
| 11> *xyz 0 1
| 12>  C        1.7687930000    -0.6251550000    -0.5139270000
| 13>  C        3.1693910000    -0.2053300000    -0.1764350000
| 14>  O        4.1075320000    -0.9651600000    -0.2276700000
| 15>  C        3.3455720000     1.2193230000     0.2313990000
| 16>  C        4.5402100000     1.7114340000     0.5552850000
| 17>  C        4.7205730000     3.1226230000     0.9602430000
| 18>  O        3.8256070000     3.9257240000     1.0296750000
| 19>  H        1.7466890000    -1.6753050000    -0.7970280000
| 20>  H        1.3818710000    -0.0089920000    -1.3313930000
| 21>  H        1.1117180000    -0.4550810000     0.3445250000
| 22>  H        2.4751290000     1.8688470000     0.2639060000
| 23>  H        5.4133180000     1.0658380000     0.5242630000
| 24>  H        5.7603160000     3.4163240000     1.2062680000
| 25> *
| 26>
| 27>                          ****END OF INPUT****
 Total Charge           Charge          ....    0
 Multiplicity           Mult            ....    1
 Number of Electrons    NEL             ....   52
 Basis Dimension        Dim             ....  128

MULLIKEN ATOMIC CHARGES
-----------------------
   0 C :    0.016631
   1 C :   -0.015980
   2 O :   -0.150154
   3 C :   -0.001840
   4 C :   -0.015999
   5 C :    0.139664
   6 O :   -0.151028
   7 H :    0.040291
   8 H :    0.050927
   9 H :    0.054216
  10 H :    0.016373
  11 H :    0.025570
  12 H :   -0.008671
Sum of atomic charges:   -0.0000000

LOEWDIN ATOMIC CHARGES
----------------------
   0 C :   -0.085717
   1 C :    0.046819
   2 O :   -0.109820
   3 C :   -0.007861
   4 C :   -0.030628
   5 C :    0.082681
   6 O :   -0.099932
   7 H :    0.040971
   8 H :    0.050422
   9 H :    0.050932
  10 H :    0.032531
  11 H :    0.036352
  12 H :   -0.006751

  Mayer bond orders larger than 0.1
B(  0-C ,  1-C ) :   1.0476 B(  0-C ,  7-H ) :   0.9449 B(  0-C ,  8-H ) :   0.9389
B(  0-C ,  9-H ) :   0.9393 B(  1-C ,  2-O ) :   2.1575 B(  1-C ,  3-C ) :   0.9417
B(  3-C ,  4-C ) :   1.7771 B(  3-C ,  6-O ) :   0.1008 B(  3-C , 10-H ) :   0.9492
B(  4-C ,  5-C ) :   0.9880 B(  4-C , 11-H ) :   0.9379 B(  5-C ,  6-O ) :   2.1411
B(  5-C , 12-H ) :   0.9336

FINAL SINGLE POINT ENERGY      -343.893530768477

DIPOLE MOMENT
-------------
                                X             Y             Z
Electronic contribution:      3.28818       2.43325       1.17871
Nuclear contribution   :     -3.61595      -2.60050      -1.27499
                        -----------------------------------------
Total Dipole Moment    :     -0.32777      -0.16725      -0.09629
                        -----------------------------------------
Magnitude (a.u.)       :      0.38036
Magnitude (Debye)      :      0.96681

                             ****ORCA TERMINATED NORMALLY****
TOTAL RUN TIME: 0 days 0 hours 0 minutes 5 seconds 894 msec
