                         Program Version 3.0.3 - RELEASE   -
|  1> ! RI PBE def2-SVP def2-SVP/J NBO PAL2
|  2> % maxcore 2000
|  3> % output
|  4>     # printlevel mini
|  5>     print[ P_Basis ] 0
|  6>     print[ P_SCFInfo ] 1
|  7>     print[ P_SCFIterInfo ] 1
|  8>     print[ P_OrbEn ] 0
|  9>     print[ P_Cartesian ] 0
| 10> end
| 11> *xyz 0 1
| 12>  C        0.9050240000    -0.1756850000     0.1681980000
| 13>  C        2.4084700000    -0.1559640000     0.1306810000
| 14>  O        3.0310980000     0.6775930000     0.7597760000
| 15>  C        3.1473690000    -1.1617320000    -0.6812790000
| 16>  C        2.5164890000    -2.1198290000    -1.3571170000
| 17>  C        4.6452050000    -1.0105120000    -0.6955580000
| 18>  O        5.2165600000    -1.0850480000     0.5873380000
| 19>  H        0.5606050000     0.6417240000     0.7983600000
| 20>  H        0.5419330000    -1.1233220000     0.5736650000
| 21>  H        0.4865570000    -0.0657460000    -0.8349440000
| 22>  H        1.4369730000    -2.2133810000    -1.3605050000
| 23>  H        3.0695060000    -2.8510140000    -1.9373010000
| 24>  H        4.8992110000    -0.0585250000    -1.1834460000
| 25>  H        5.0849570000    -1.8142990000    -1.2894560000
| 26>  H        4.8642250000    -0.3305610000     1.0746780000
| 27> *
| 28>
| 29>                          ****END OF INPUT****
 Total Charge           Charge          ....    0
 Multiplicity           Mult            ....    1
 Number of Electrons    NEL             ....   54
 Basis Dimension        Dim             ....  138

MULLIKEN ATOMIC CHARGES
-----------------------
   0 C :    0.021630
   1 C :   -0.008172
   2 O :   -0.180474
   3 C :   -0.137338
   4 C :   -0.030760
   5 C :    0.266952
   6 O :   -0.294903
   7 H :    0.039986
   8 H :    0.052692
   9 H :    0.049961
  10 H :    0.025767
  11 H :    0.031033
  12 H :    0.011320
  13 H :   -0.002322
  14 H :    0.154629
Sum of atomic charges:   -0.0000000

LOEWDIN ATOMIC CHARGES
----------------------
   0 C :   -0.085425
   1 C :    0.065622
   2 O :   -0.125164
   3 C :   -0.079673
   4 C :   -0.007129
   5 C :    0.064414
   6 O :   -0.119940
   7 H :    0.042388
   8 H :    0.049123
   9 H :    0.046761
  10 H :    0.025339
  11 H :    0.030576
  12 H :    0.015978
  13 H :    0.023360
  14 H :    0.053768

  Mayer bond orders larger than 0.1
B(  0-C ,  1-C ) :   1.0810 B(  0-C ,  7-H ) :   0.9404 B(  0-C ,  8-H ) :   0.9328
B(  0-C ,  9-H ) :   0.9356 B(  1-C ,  2-O ) :   2.0746 B(  1-C ,  3-C ) :   0.9489
B(  3-C ,  4-C ) :   1.9189 B(  3-C ,  5-C ) :   1.0056 B(  4-C , 10-H ) :   0.9289
B(  4-C , 11-H ) :   0.9293 B(  5-C ,  6-O ) :   1.0615 B(  5-C , 12-H ) :   0.9186
B(  5-C , 13-H ) :   0.9264 B(  6-O , 14-H ) :   0.9661

FINAL SINGLE POINT ENERGY      -345.090489329684

DIPOLE MOMENT
-------------
                                X             Y             Z
Electronic contribution:      3.06031       1.76537       2.28697
Nuclear contribution   :     -4.06328      -2.07478      -2.98724
                        -----------------------------------------
Total Dipole Moment    :     -1.00297      -0.30941      -0.70026
                        -----------------------------------------
Magnitude (a.u.)       :      1.26177
Magnitude (Debye)      :      3.20716

                             ****ORCA TERMINATED NORMALLY****
TOTAL RUN TIME: 0 days 0 hours 0 minutes 6 seconds 745 msec
