                         Program Version 3.0.3 - RELEASE   -
|  1> ! RI PBE def2-SVP def2-SVP/J NBO PAL2
|  2> % maxcore 2000
|  3> % output
|  4>     # printlevel mini
|  5>     print[ P_Basis ] 0
|  6>     print[ P_SCFInfo ] 1
|  7>     print[ P_SCFIterInfo ] 1
|  8>     print[ P_OrbEn ] 0
|  9>     print[ P_Cartesian ] 0
| 10> end
| 11> *xyz 0 1
| 12>  C        0.8552850000     0.4091060000    -0.7836460000
| 13>  C        2.3069190000     0.2553350000    -0.4198570000
| 14>  O        2.7484310000    -0.8026590000    -0.0306550000
| 15>  C        3.2093870000     1.4354760000    -0.5440970000
| 16>  C        2.8060500000     2.6351260000    -0.9637570000
| 17>  C        4.6445990000     1.2438820000    -0.1726660000
| 18>  O        5.4616080000     2.1257470000    -0.2340120000
| 19>  H        0.3534480000    -0.5442120000    -0.6324590000
| 20>  H        0.7471970000     0.7166490000    -1.8268410000
| 21>  H        0.3791320000     1.1739840000    -0.1649670000
| 22>  H        1.7814630000     2.8409270000    -1.2478910000
| 23>  H        3.5264590000     3.4444360000    -1.0265120000
| 24>  H        4.9090130000     0.2283950000     0.1652610000
| 25> *
| 26>
| 27>                          ****END OF INPUT****
 Total Charge           Charge          ....    0
 Multiplicity           Mult            ....    1
 Number of Electrons    NEL             ....   52
 Basis Dimension        Dim             ....  128

MULLIKEN ATOMIC CHARGES
-----------------------
   0 C :    0.014426
   1 C :   -0.008901
   2 O :   -0.148037
   3 C :   -0.117147
   4 C :    0.019249
   5 C :    0.158373
   6 O :   -0.154033
   7 H :    0.042112
   8 H :    0.049804
   9 H :    0.052104
  10 H :    0.033772
  11 H :    0.052426
  12 H :    0.005852
Sum of atomic charges:   -0.0000000

LOEWDIN ATOMIC CHARGES
----------------------
   0 C :   -0.086899
   1 C :    0.055783
   2 O :   -0.109532
   3 C :   -0.119138
   4 C :    0.055324
   5 C :    0.099821
   6 O :   -0.100121
   7 H :    0.043226
   8 H :    0.047230
   9 H :    0.047429
  10 H :    0.030468
  11 H :    0.037234
  12 H :   -0.000825

  Mayer bond orders larger than 0.1
B(  0-C ,  1-C ) :   1.0727 B(  0-C ,  7-H ) :   0.9409 B(  0-C ,  8-H ) :   0.9331
B(  0-C ,  9-H ) :   0.9348 B(  1-C ,  2-O ) :   2.1507 B(  1-C ,  3-C ) :   0.9151
B(  3-C ,  4-C ) :   1.8922 B(  3-C ,  5-C ) :   0.9563 B(  4-C , 10-H ) :   0.9268
B(  4-C , 11-H ) :   0.9168 B(  5-C ,  6-O ) :   2.1542 B(  5-C , 12-H ) :   0.9360

FINAL SINGLE POINT ENERGY      -343.892184719178

DIPOLE MOMENT
-------------
                                X             Y             Z
Electronic contribution:      5.53025      -1.07037       1.51799
Nuclear contribution   :     -6.73798       1.57348      -1.92713
                        -----------------------------------------
Total Dipole Moment    :     -1.20773       0.50311      -0.40913
                        -----------------------------------------
Magnitude (a.u.)       :      1.37081
Magnitude (Debye)      :      3.48432

                             ****ORCA TERMINATED NORMALLY****
TOTAL RUN TIME: 0 days 0 hours 0 minutes 6 seconds 25 msec
