                         Program Version 3.0.3 - RELEASE   -
|  1> ! RI PBE def2-SVP def2-SVP/J NBO PAL2
|  2> % maxcore 2000
|  3> % output
|  4>     # printlevel mini
|  5>     print[ P_Basis ] 0
|  6>     print[ P_SCFInfo ] 1
|  7>     print[ P_SCFIterInfo ] 1
|  8>     print[ P_OrbEn ] 0
|  9>     print[ P_Cartesian ] 0
| 10> end
| 11> *xyz 0 1
| 12>  C        2.9351730000    -1.1380090000    -0.3848030000
| 13>  C        2.4589650000     0.2894930000    -0.4284350000
| 14>  O        1.4978090000     0.6178030000    -1.0784930000
| 15>  C        3.2549050000     1.3182360000     0.4006580000
| 16>  C        2.7367260000     2.7204860000     0.1542510000
| 17>  C        3.1838400000     0.9493850000     1.8732860000
| 18>  O        4.6297360000     1.2142290000     0.0355280000
| 19>  H        2.6019200000    -1.6581990000    -1.2816740000
| 20>  H        2.4796110000    -1.6300670000     0.4804060000
| 21>  H        4.0172070000    -1.2002770000    -0.2746310000
| 22>  H        1.6914950000     2.8100330000     0.4506240000
| 23>  H        2.7904420000     2.9752970000    -0.9070750000
| 24>  H        3.3344880000     3.4331390000     0.7254330000
| 25>  H        2.1486960000     0.9356830000     2.2204660000
| 26>  H        3.7396520000     1.6863300000     2.4562540000
| 27>  H        3.6296560000    -0.0300290000     2.0518660000
| 28>  H        4.7424990000     1.6316560000    -0.8236810000
| 29> *
| 30>
| 31>                          ****END OF INPUT****
 Total Charge           Charge          ....    0
 Multiplicity           Mult            ....    1
 Number of Electrons    NEL             ....   56
 Basis Dimension        Dim             ....  148

MULLIKEN ATOMIC CHARGES
-----------------------
   0 C :    0.031257
   1 C :   -0.041036
   2 O :   -0.153925
   3 C :   -0.130295
   4 C :    0.080051
   5 C :    0.055057
   6 O :   -0.253070
   7 H :    0.035631
   8 H :    0.050173
   9 H :    0.042979
  10 H :    0.023990
  11 H :    0.010550
  12 H :    0.016823
  13 H :    0.026416
  14 H :    0.027821
  15 H :    0.022570
  16 H :    0.155008
Sum of atomic charges:    0.0000000

LOEWDIN ATOMIC CHARGES
----------------------
   0 C :   -0.091067
   1 C :    0.046759
   2 O :   -0.118165
   3 C :   -0.014367
   4 C :   -0.062777
   5 C :   -0.050954
   6 O :   -0.095387
   7 H :    0.040623
   8 H :    0.052619
   9 H :    0.036785
  10 H :    0.036143
  11 H :    0.025841
  12 H :    0.027468
  13 H :    0.033485
  14 H :    0.033493
  15 H :    0.029224
  16 H :    0.070277

  Mayer bond orders larger than 0.1
B(  0-C ,  1-C ) :   1.0475 B(  0-C ,  7-H ) :   0.9419 B(  0-C ,  8-H ) :   0.9295
B(  0-C ,  9-H ) :   0.9376 B(  1-C ,  2-O ) :   2.2090 B(  1-C ,  3-C ) :   0.8571
B(  3-C ,  4-C ) :   1.0800 B(  3-C ,  5-C ) :   1.0351 B(  3-C ,  6-O ) :   1.0096
B(  4-C , 10-H ) :   0.9414 B(  4-C , 11-H ) :   0.9427 B(  4-C , 12-H ) :   0.9499
B(  5-C , 13-H ) :   0.9584 B(  5-C , 14-H ) :   0.9481 B(  5-C , 15-H ) :   0.9482
B(  6-O , 16-H ) :   0.9794

FINAL SINGLE POINT ENERGY      -346.311851178570

DIPOLE MOMENT
-------------
                                X             Y             Z
Electronic contribution:     -0.87417      -0.29705      -3.78639
Nuclear contribution   :      1.28398       0.31290       4.04406
                        -----------------------------------------
Total Dipole Moment    :      0.40981       0.01585       0.25767
                        -----------------------------------------
Magnitude (a.u.)       :      0.48434
Magnitude (Debye)      :      1.23110

                             ****ORCA TERMINATED NORMALLY****
TOTAL RUN TIME: 0 days 0 hours 0 minutes 7 seconds 623 msec
