                         Program Version 3.0.3 - RELEASE   -
|  1> ! RI PBE def2-SVP def2-SVP/J NBO PAL2
|  2> % maxcore 2000
|  3> % output
|  4>     # printlevel mini
|  5>     print[ P_Basis ] 0
|  6>     print[ P_SCFInfo ] 1
|  7>     print[ P_SCFIterInfo ] 1
|  8>     print[ P_OrbEn ] 0
|  9>     print[ P_Cartesian ] 0
| 10> end
| 11> *xyz 0 1
| 12>  C        1.0615370000     0.0348620000    -0.0861380000
| 13>  C        2.5601610000     0.0591210000     0.0017780000
| 14>  O        3.1645920000     0.6149990000     0.8875770000
| 15>  C        3.2602060000    -0.6379760000    -1.0597150000
| 16>  C        3.8320600000    -1.2288310000    -1.9418690000
| 17>  C        4.5779380000    -1.8934050000    -3.0002590000
| 18>  O        5.9360760000    -2.1013360000    -2.6963250000
| 19>  H        0.6373350000     0.5914710000     0.7478340000
| 20>  H        0.7057650000    -0.9987470000    -0.0695070000
| 21>  H        0.7366910000     0.4696390000    -1.0350630000
| 22>  H        4.4520620000    -1.3113630000    -3.9251050000
| 23>  H        4.1471400000    -2.8809120000    -3.1867860000
| 24>  H        6.3061150000    -1.2738220000    -2.3760030000
| 25> *
| 26>
| 27>                          ****END OF INPUT****
 Total Charge           Charge          ....    0
 Multiplicity           Mult            ....    1
 Number of Electrons    NEL             ....   52
 Basis Dimension        Dim             ....  128

MULLIKEN ATOMIC CHARGES
-----------------------
   0 C :    0.015967
   1 C :   -0.047335
   2 O :   -0.148095
   3 C :   -0.033150
   4 C :   -0.165238
   5 C :    0.267234
   6 O :   -0.274726
   7 H :    0.041982
   8 H :    0.051522
   9 H :    0.050168
  10 H :    0.035373
  11 H :    0.041424
  12 H :    0.164875
Sum of atomic charges:   -0.0000000

LOEWDIN ATOMIC CHARGES
----------------------
   0 C :   -0.077472
   1 C :    0.034670
   2 O :   -0.103181
   3 C :   -0.067241
   4 C :   -0.031995
   5 C :    0.050950
   6 O :   -0.107241
   7 H :    0.040772
   8 H :    0.050405
   9 H :    0.049643
  10 H :    0.034860
  11 H :    0.049530
  12 H :    0.076300

  Mayer bond orders larger than 0.1
B(  0-C ,  1-C ) :   1.0463 B(  0-C ,  7-H ) :   0.9442 B(  0-C ,  8-H ) :   0.9431
B(  0-C ,  9-H ) :   0.9428 B(  1-C ,  2-O ) :   2.1606 B(  1-C ,  3-C ) :   0.8596
B(  2-O ,  4-C ) :   0.1096 B(  3-C ,  4-C ) :   2.6554 B(  4-C ,  5-C ) :   1.0241
B(  5-C ,  6-O ) :   1.0772 B(  5-C , 10-H ) :   0.9105 B(  5-C , 11-H ) :   0.8932
B(  6-O , 12-H ) :   0.9801

FINAL SINGLE POINT ENERGY      -343.842136869234

DIPOLE MOMENT
-------------
                                X             Y             Z
Electronic contribution:      3.31394       0.77820       1.89843
Nuclear contribution   :     -3.91097      -0.86576      -2.80453
                        -----------------------------------------
Total Dipole Moment    :     -0.59703      -0.08756      -0.90610
                        -----------------------------------------
Magnitude (a.u.)       :      1.08864
Magnitude (Debye)      :      2.76710

                             ****ORCA TERMINATED NORMALLY****
TOTAL RUN TIME: 0 days 0 hours 0 minutes 5 seconds 772 msec
