                         Program Version 3.0.3 - RELEASE   -
|  1> ! RI PBE def2-SVP def2-SVP/J NBO PAL2
|  2> % maxcore 2000
|  3> % output
|  4>     # printlevel mini
|  5>     print[ P_Basis ] 0
|  6>     print[ P_SCFInfo ] 1
|  7>     print[ P_SCFIterInfo ] 1
|  8>     print[ P_OrbEn ] 0
|  9>     print[ P_Cartesian ] 0
| 10> end
| 11> *xyz 0 1
| 12>  C        0.9280840000     0.0166780000    -0.0006280000
| 13>  C        2.4206720000     0.1414590000     0.0245350000
| 14>  O        3.0465170000     0.6211650000     0.9362680000
| 15>  C        3.1122630000    -0.3616750000    -1.1533000000
| 16>  C        3.6803800000    -0.7595650000    -2.1420210000
| 17>  C        4.3838030000    -1.2799330000    -3.2883180000
| 18>  O        4.5294050000    -0.6718150000    -4.3150950000
| 19>  H        0.5145010000     0.4171640000     0.9233470000
| 20>  H        0.6430810000    -1.0322590000    -0.1188500000
| 21>  H        0.5250200000     0.5571150000    -0.8613240000
| 22>  H        4.7861740000    -2.3009340000    -3.1484140000
| 23> *
| 24>
| 25>                          ****END OF INPUT****
 Total Charge           Charge          ....    0
 Multiplicity           Mult            ....    1
 Number of Electrons    NEL             ....   50
 Basis Dimension        Dim             ....  118

MULLIKEN ATOMIC CHARGES
-----------------------
   0 C :    0.016178
   1 C :   -0.032669
   2 O :   -0.129159
   3 C :    0.035402
   4 C :   -0.036751
   5 C :    0.089763
   6 O :   -0.140591
   7 H :    0.048921
   8 H :    0.056507
   9 H :    0.063575
  10 H :    0.028824
Sum of atomic charges:   -0.0000000

LOEWDIN ATOMIC CHARGES
----------------------
   0 C :   -0.073688
   1 C :    0.038283
   2 O :   -0.082196
   3 C :   -0.008119
   4 C :   -0.034500
   5 C :    0.073067
   6 O :   -0.078254
   7 H :    0.045128
   8 H :    0.053454
   9 H :    0.055912
  10 H :    0.010912

  Mayer bond orders larger than 0.1
B(  0-C ,  1-C ) :   1.0465 B(  0-C ,  7-H ) :   0.9419 B(  0-C ,  8-H ) :   0.9411
B(  0-C ,  9-H ) :   0.9403 B(  1-C ,  2-O ) :   2.1602 B(  1-C ,  3-C ) :   0.8598
B(  2-O ,  4-C ) :   0.1059 B(  3-C ,  4-C ) :   2.5984 B(  3-C ,  6-O ) :   0.1153
B(  4-C ,  5-C ) :   0.9026 B(  5-C ,  6-O ) :   2.1396 B(  5-C , 10-H ) :   0.9367

FINAL SINGLE POINT ENERGY      -342.642345885485

DIPOLE MOMENT
-------------
                                X             Y             Z
Electronic contribution:      4.85067       0.35253      -2.10270
Nuclear contribution   :     -5.71449      -1.02782       2.29950
                        -----------------------------------------
Total Dipole Moment    :     -0.86382      -0.67529       0.19681
                        -----------------------------------------
Magnitude (a.u.)       :      1.11397
Magnitude (Debye)      :      2.83149

                             ****ORCA TERMINATED NORMALLY****
TOTAL RUN TIME: 0 days 0 hours 0 minutes 5 seconds 540 msec
