                         Program Version 3.0.3 - RELEASE   -
|  1> ! RI PBE def2-SVP def2-SVP/J NBO PAL2
|  2> % maxcore 2000
|  3> % output
|  4>     # printlevel mini
|  5>     print[ P_Basis ] 0
|  6>     print[ P_SCFInfo ] 1
|  7>     print[ P_SCFIterInfo ] 1
|  8>     print[ P_OrbEn ] 0
|  9>     print[ P_Cartesian ] 0
| 10> end
| 11> *xyz 0 1
| 12>  C        2.4438190000    -1.4201340000    -1.2450620000
| 13>  C        2.6972770000    -0.0652360000    -0.6562750000
| 14>  O        2.3509380000     0.9606490000    -1.1846410000
| 15>  C        3.4751940000    -0.0425060000     0.6543310000
| 16>  C        4.9580910000     0.0285650000     0.3085890000
| 17>  C        5.5298500000     1.4052510000     0.1520590000
| 18>  O        5.6000800000    -0.9769990000     0.1405230000
| 19>  H        2.0359170000    -1.3271920000    -2.2497400000
| 20>  H        1.7365270000    -1.9626920000    -0.6100930000
| 21>  H        3.3700810000    -2.0015830000    -1.2530900000
| 22>  H        3.3039080000    -0.9559750000     1.2241080000
| 23>  H        3.1645900000     0.8378790000     1.2172040000
| 24>  H        4.8818340000     2.0061710000    -0.4922110000
| 25>  H        6.5386040000     1.3535360000    -0.2531000000
| 26>  H        5.5506600000     1.9003460000     1.1278890000
| 27> *
| 28>
| 29>                          ****END OF INPUT****
 Total Charge           Charge          ....    0
 Multiplicity           Mult            ....    1
 Number of Electrons    NEL             ....   54
 Basis Dimension        Dim             ....  138

MULLIKEN ATOMIC CHARGES
-----------------------
   0 C :    0.028384
   1 C :   -0.084663
   2 O :   -0.156607
   3 C :    0.075797
   4 C :   -0.085373
   5 C :    0.031187
   6 O :   -0.156246
   7 H :    0.041212
   8 H :    0.049667
   9 H :    0.054403
  10 H :    0.029247
  11 H :    0.029715
  12 H :    0.054370
  13 H :    0.040745
  14 H :    0.048163
Sum of atomic charges:   -0.0000000

LOEWDIN ATOMIC CHARGES
----------------------
   0 C :   -0.085285
   1 C :    0.062142
   2 O :   -0.118703
   3 C :   -0.086033
   4 C :    0.061728
   5 C :   -0.084713
   6 O :   -0.118395
   7 H :    0.039881
   8 H :    0.052157
   9 H :    0.049843
  10 H :    0.042893
  11 H :    0.042843
  12 H :    0.049933
  13 H :    0.039808
  14 H :    0.051899

  Mayer bond orders larger than 0.1
B(  0-C ,  1-C ) :   1.0446 B(  0-C ,  7-H ) :   0.9459 B(  0-C ,  8-H ) :   0.9305
B(  0-C ,  9-H ) :   0.9312 B(  1-C ,  2-O ) :   2.1614 B(  1-C ,  3-C ) :   0.9529
B(  3-C ,  4-C ) :   0.9505 B(  3-C , 10-H ) :   0.9057 B(  3-C , 11-H ) :   0.9061
B(  4-C ,  5-C ) :   1.0462 B(  4-C ,  6-O ) :   2.1604 B(  5-C , 12-H ) :   0.9310
B(  5-C , 13-H ) :   0.9461 B(  5-C , 14-H ) :   0.9303

FINAL SINGLE POINT ENERGY      -345.122340303028

DIPOLE MOMENT
-------------
                                X             Y             Z
Electronic contribution:      0.14503       0.01029      -0.34405
Nuclear contribution   :     -0.35465      -0.02445       0.84109
                        -----------------------------------------
Total Dipole Moment    :     -0.20962      -0.01416       0.49704
                        -----------------------------------------
Magnitude (a.u.)       :      0.53962
Magnitude (Debye)      :      1.37160

                             ****ORCA TERMINATED NORMALLY****
TOTAL RUN TIME: 0 days 0 hours 0 minutes 6 seconds 690 msec
