                         Program Version 3.0.3 - RELEASE   -
|  1> ! RI PBE def2-SVP def2-SVP/J NBO PAL2
|  2> % maxcore 2000
|  3> % output
|  4>     # printlevel mini
|  5>     print[ P_Basis ] 0
|  6>     print[ P_SCFInfo ] 1
|  7>     print[ P_SCFIterInfo ] 1
|  8>     print[ P_OrbEn ] 0
|  9>     print[ P_Cartesian ] 0
| 10> end
| 11> *xyz 0 1
| 12>  C        1.1690510000     0.0373900000    -0.7103610000
| 13>  C        2.5585830000    -0.3996900000    -0.3467890000
| 14>  O        3.0379670000    -1.4281770000    -0.7551940000
| 15>  C        3.3302540000     0.5177230000     0.5817740000
| 16>  C        4.8243690000     0.3104530000     0.4896550000
| 17>  C        5.4085170000     0.8433610000    -0.7844170000
| 18>  O        4.7810220000     1.4242000000    -1.6276970000
| 19>  H        0.6311550000    -0.7749920000    -1.1955660000
| 20>  H        1.2430860000     0.8850750000    -1.3987480000
| 21>  H        0.6217040000     0.3862080000     0.1693130000
| 22>  H        2.9748410000     0.3052500000     1.5972710000
| 23>  H        3.0623080000     1.5557590000     0.3695890000
| 24>  H        5.0746110000    -0.7549970000     0.5425810000
| 25>  H        5.3582550000     0.7888980000     1.3198470000
| 26>  H        6.4989760000     0.6731480000    -0.9102480000
| 27> *
| 28>
| 29>                          ****END OF INPUT****
 Total Charge           Charge          ....    0
 Multiplicity           Mult            ....    1
 Number of Electrons    NEL             ....   54
 Basis Dimension        Dim             ....  138

MULLIKEN ATOMIC CHARGES
-----------------------
   0 C :    0.016751
   1 C :   -0.066939
   2 O :   -0.167450
   3 C :    0.005171
   4 C :    0.006411
   5 C :    0.077622
   6 O :   -0.164766
   7 H :    0.039800
   8 H :    0.062909
   9 H :    0.034523
  10 H :    0.039574
  11 H :    0.030223
  12 H :    0.049274
  13 H :    0.035608
  14 H :    0.001291
Sum of atomic charges:   -0.0000000

LOEWDIN ATOMIC CHARGES
----------------------
   0 C :   -0.087912
   1 C :    0.063094
   2 O :   -0.125879
   3 C :   -0.071053
   4 C :   -0.081848
   5 C :    0.099389
   6 O :   -0.110923
   7 H :    0.039286
   8 H :    0.056340
   9 H :    0.040782
  10 H :    0.050168
  11 H :    0.037327
  12 H :    0.050303
  13 H :    0.048071
  14 H :   -0.007145

  Mayer bond orders larger than 0.1
B(  0-C ,  1-C ) :   1.0512 B(  0-C ,  7-H ) :   0.9460 B(  0-C ,  8-H ) :   0.9342
B(  0-C ,  9-H ) :   0.9409 B(  1-C ,  2-O ) :   2.1796 B(  1-C ,  3-C ) :   0.9396
B(  3-C ,  4-C ) :   1.0941 B(  3-C , 10-H ) :   0.8960 B(  3-C , 11-H ) :   0.9235
B(  4-C ,  5-C ) :   0.9738 B(  4-C , 12-H ) :   0.8918 B(  4-C , 13-H ) :   0.9030
B(  5-C ,  6-O ) :   2.1728 B(  5-C , 14-H ) :   0.9296

FINAL SINGLE POINT ENERGY      -345.114028122296

DIPOLE MOMENT
-------------
                                X             Y             Z
Electronic contribution:      2.87566      -1.05850      -2.90875
Nuclear contribution   :     -2.97093       1.46365       3.95623
                        -----------------------------------------
Total Dipole Moment    :     -0.09527       0.40514       1.04748
                        -----------------------------------------
Magnitude (a.u.)       :      1.12714
Magnitude (Debye)      :      2.86495

                             ****ORCA TERMINATED NORMALLY****
TOTAL RUN TIME: 0 days 0 hours 0 minutes 6 seconds 755 msec
