                         Program Version 3.0.3 - RELEASE   -
|  1> ! RI PBE def2-SVP def2-SVP/J NBO PAL2
|  2> % maxcore 2000
|  3> % output
|  4>     # printlevel mini
|  5>     print[ P_Basis ] 0
|  6>     print[ P_SCFInfo ] 1
|  7>     print[ P_SCFIterInfo ] 1
|  8>     print[ P_OrbEn ] 0
|  9>     print[ P_Cartesian ] 0
| 10> end
| 11> *xyz 0 1
| 12>  C        0.9789610000    -0.0902170000    -0.1033790000
| 13>  C        2.4808950000    -0.0726910000    -0.3115170000
| 14>  O        2.8054750000     0.1256040000    -1.6803960000
| 15>  C        3.1657140000     0.9555970000     0.5795950000
| 16>  C        4.6835270000     0.9770520000     0.4589280000
| 17>  C        5.3718980000    -0.2308740000     1.0693360000
| 18>  O        5.0999760000    -0.3926800000     2.4488690000
| 19>  H        0.5109750000    -0.8213840000    -0.7649060000
| 20>  H        0.5477180000     0.8938480000    -0.3185820000
| 21>  H        0.7271190000    -0.3442980000     0.9289570000
| 22>  H        2.8765280000    -1.0679190000    -0.0850080000
| 23>  H        2.4187330000     0.9620820000    -1.9568800000
| 24>  H        2.8857670000     0.7635940000     1.6202090000
| 25>  H        2.7637560000     1.9458290000     0.3272120000
| 26>  H        5.0734440000     1.8822330000     0.9414420000
| 27>  H        4.9663550000     1.0419880000    -0.5966870000
| 28>  H        6.4537020000    -0.1662470000     0.8906660000
| 29>  H        5.0274100000    -1.1525680000     0.5946620000
| 30>  H        5.4436570000     0.3746330000     2.9137880000
| 31> *
| 32>
| 33>                          ****END OF INPUT****
 Total Charge           Charge          ....    0
 Multiplicity           Mult            ....    1
 Number of Electrons    NEL             ....   58
 Basis Dimension        Dim             ....  158

MULLIKEN ATOMIC CHARGES
-----------------------
   0 C :    0.024122
   1 C :    0.047907
   2 O :   -0.284330
   3 C :    0.011109
   4 C :   -0.015017
   5 C :    0.156151
   6 O :   -0.290358
   7 H :    0.027081
   8 H :    0.000091
   9 H :    0.017779
  10 H :    0.005665
  11 H :    0.148417
  12 H :   -0.000199
  13 H :   -0.013111
  14 H :   -0.007245
  15 H :    0.001860
  16 H :    0.003440
  17 H :    0.014939
  18 H :    0.151699
Sum of atomic charges:   -0.0000000

LOEWDIN ATOMIC CHARGES
----------------------
   0 C :   -0.075257
   1 C :    0.041871
   2 O :   -0.115348
   3 C :   -0.057578
   4 C :   -0.065715
   5 C :    0.054582
   6 O :   -0.124848
   7 H :    0.028783
   8 H :    0.019626
   9 H :    0.031416
  10 H :    0.021316
  11 H :    0.063344
  12 H :    0.023432
  13 H :    0.017740
  14 H :    0.018327
  15 H :    0.026200
  16 H :    0.006485
  17 H :    0.019602
  18 H :    0.066022

  Mayer bond orders larger than 0.1
B(  0-C ,  1-C ) :   1.0971 B(  0-C ,  7-H ) :   0.9567 B(  0-C ,  8-H ) :   0.9507
B(  0-C ,  9-H ) :   0.9489 B(  1-C ,  2-O ) :   1.0121 B(  1-C ,  3-C ) :   1.0483
B(  1-C , 10-H ) :   0.9080 B(  2-O , 11-H ) :   0.9837 B(  3-C ,  4-C ) :   1.0860
B(  3-C , 12-H ) :   0.9144 B(  3-C , 13-H ) :   0.9174 B(  4-C ,  5-C ) :   1.0870
B(  4-C , 14-H ) :   0.9261 B(  4-C , 15-H ) :   0.9044 B(  5-C ,  6-O ) :   1.0459
B(  5-C , 16-H ) :   0.9374 B(  5-C , 17-H ) :   0.9367 B(  6-O , 18-H ) :   0.9850

FINAL SINGLE POINT ENERGY      -347.495242706869

DIPOLE MOMENT
-------------
                                X             Y             Z
Electronic contribution:      2.34316      -1.20876      -0.08431
Nuclear contribution   :     -2.40104       2.03009       0.20096
                        -----------------------------------------
Total Dipole Moment    :     -0.05788       0.82134       0.11665
                        -----------------------------------------
Magnitude (a.u.)       :      0.83160
Magnitude (Debye)      :      2.11375

                             ****ORCA TERMINATED NORMALLY****
TOTAL RUN TIME: 0 days 0 hours 0 minutes 7 seconds 664 msec
