                         Program Version 3.0.3 - RELEASE   -
|  1> ! RI PBE def2-SVP def2-SVP/J NBO PAL2
|  2> % maxcore 2000
|  3> % output
|  4>     # printlevel mini
|  5>     print[ P_Basis ] 0
|  6>     print[ P_SCFInfo ] 1
|  7>     print[ P_SCFIterInfo ] 1
|  8>     print[ P_OrbEn ] 0
|  9>     print[ P_Cartesian ] 0
| 10> end
| 11> *xyz 0 1
| 12>  C        0.8474320000     0.1917060000     0.0973610000
| 13>  C        2.3686030000     0.1095870000     0.1281350000
| 14>  O        2.8888650000     1.0619340000     1.0154130000
| 15>  C        2.8990160000    -1.2563070000     0.4881090000
| 16>  C        2.2421940000    -2.4054800000     0.4186330000
| 17>  C        2.8878980000     0.4067370000    -1.2713850000
| 18>  O        3.6514160000     1.3078380000    -1.4889190000
| 19>  H        0.4548330000    -0.0702140000     1.0807120000
| 20>  H        0.4152920000    -0.4837020000    -0.6440860000
| 21>  H        0.5425440000     1.2120810000    -0.1399490000
| 22>  H        3.4513930000     1.6459410000     0.4826150000
| 23>  H        3.9343800000    -1.2371480000     0.8185310000
| 24>  H        1.2065250000    -2.4673000000     0.1043430000
| 25>  H        2.7237740000    -3.3366510000     0.6929910000
| 26>  H        2.5217450000    -0.2607320000    -2.0746950000
| 27> *
| 28>
| 29>                          ****END OF INPUT****
 Total Charge           Charge          ....    0
 Multiplicity           Mult            ....    1
 Number of Electrons    NEL             ....   54
 Basis Dimension        Dim             ....  138

MULLIKEN ATOMIC CHARGES
-----------------------
   0 C :    0.068904
   1 C :   -0.106717
   2 O :   -0.226988
   3 C :   -0.002282
   4 C :   -0.021798
   5 C :    0.161614
   6 O :   -0.165723
   7 H :    0.041909
   8 H :    0.021141
   9 H :    0.024281
  10 H :    0.143546
  11 H :    0.007974
  12 H :    0.022186
  13 H :    0.031923
  14 H :    0.000029
Sum of atomic charges:   -0.0000000

LOEWDIN ATOMIC CHARGES
----------------------
   0 C :   -0.048453
   1 C :   -0.029582
   2 O :   -0.094005
   3 C :   -0.023865
   4 C :   -0.052296
   5 C :    0.101993
   6 O :   -0.094591
   7 H :    0.039467
   8 H :    0.027358
   9 H :    0.033305
  10 H :    0.052820
  11 H :    0.032331
  12 H :    0.023675
  13 H :    0.031048
  14 H :    0.000793

  Mayer bond orders larger than 0.1
B(  0-C ,  1-C ) :   1.0362 B(  0-C ,  7-H ) :   0.9481 B(  0-C ,  8-H ) :   0.9381
B(  0-C ,  9-H ) :   0.9494 B(  1-C ,  2-O ) :   1.1477 B(  1-C ,  3-C ) :   0.9398
B(  1-C ,  5-C ) :   0.8855 B(  2-O , 10-H ) :   0.9372 B(  3-C ,  4-C ) :   1.9655
B(  3-C , 11-H ) :   0.9471 B(  4-C , 12-H ) :   0.9373 B(  4-C , 13-H ) :   0.9376
B(  5-C ,  6-O ) :   2.1269 B(  5-C , 14-H ) :   0.9276 B(  6-O , 10-H ) :   0.1054

FINAL SINGLE POINT ENERGY      -345.080038171039

DIPOLE MOMENT
-------------
                                X             Y             Z
Electronic contribution:      4.33263       3.85479      -1.25703
Nuclear contribution   :     -4.79311      -4.45792       0.96528
                        -----------------------------------------
Total Dipole Moment    :     -0.46048      -0.60313      -0.29175
                        -----------------------------------------
Magnitude (a.u.)       :      0.81297
Magnitude (Debye)      :      2.06642

                             ****ORCA TERMINATED NORMALLY****
TOTAL RUN TIME: 0 days 0 hours 0 minutes 6 seconds 830 msec
