                         Program Version 3.0.3 - RELEASE   -
|  1> ! RI PBE def2-SVP def2-SVP/J NBO PAL2
|  2> % maxcore 2000
|  3> % output
|  4>     # printlevel mini
|  5>     print[ P_Basis ] 0
|  6>     print[ P_SCFInfo ] 1
|  7>     print[ P_SCFIterInfo ] 1
|  8>     print[ P_OrbEn ] 0
|  9>     print[ P_Cartesian ] 0
| 10> end
| 11> *xyz 0 1
| 12>  C        1.7315360000     0.4932430000     0.8926640000
| 13>  C        2.9557830000     0.1399310000     0.0589070000
| 14>  O        4.1056140000     0.8151110000     0.5174420000
| 15>  C        3.1398460000    -1.3462900000    -0.0309490000
| 16>  C        4.2609580000    -2.0045380000     0.2375040000
| 17>  C        4.3972320000    -3.4875830000     0.1468040000
| 18>  O        5.4285620000    -3.8783840000    -0.7410060000
| 19>  H        1.5936770000     1.5754020000     0.9138280000
| 20>  H        1.8520500000     0.1350250000     1.9197370000
| 21>  H        0.8284090000     0.0342070000     0.4832950000
| 22>  H        2.7992370000     0.5230630000    -0.9576340000
| 23>  H        4.2717580000     0.5351460000     1.4232470000
| 24>  H        2.2548280000    -1.9071270000    -0.3307870000
| 25>  H        5.1595850000    -1.4548970000     0.5086610000
| 26>  H        3.4347720000    -3.9364460000    -0.1356040000
| 27>  H        4.6812400000    -3.9060460000     1.1170970000
| 28>  H        5.2684120000    -3.4437070000    -1.5832050000
| 29> *
| 30>
| 31>                          ****END OF INPUT****
 Total Charge           Charge          ....    0
 Multiplicity           Mult            ....    1
 Number of Electrons    NEL             ....   56
 Basis Dimension        Dim             ....  148

MULLIKEN ATOMIC CHARGES
-----------------------
   0 C :   -0.021438
   1 C :    0.146148
   2 O :   -0.266412
   3 C :   -0.064053
   4 C :   -0.141547
   5 C :    0.255073
   6 O :   -0.294712
   7 H :    0.035250
   8 H :    0.014557
   9 H :    0.018580
  10 H :    0.019344
  11 H :    0.154170
  12 H :   -0.008528
  13 H :   -0.003440
  14 H :   -0.009748
  15 H :    0.014694
  16 H :    0.152064
Sum of atomic charges:   -0.0000000

LOEWDIN ATOMIC CHARGES
----------------------
   0 C :   -0.074101
   1 C :    0.039376
   2 O :   -0.101940
   3 C :   -0.052790
   4 C :   -0.072718
   5 C :    0.056723
   6 O :   -0.122889
   7 H :    0.031032
   8 H :    0.024148
   9 H :    0.029935
  10 H :    0.033963
  11 H :    0.065808
  12 H :    0.022988
  13 H :    0.020487
  14 H :    0.005575
  15 H :    0.027272
  16 H :    0.067131

  Mayer bond orders larger than 0.1
B(  0-C ,  1-C ) :   1.0729 B(  0-C ,  7-H ) :   0.9577 B(  0-C ,  8-H ) :   0.9582
B(  0-C ,  9-H ) :   0.9493 B(  1-C ,  2-O ) :   1.0736 B(  1-C ,  3-C ) :   0.9885
B(  1-C , 10-H ) :   0.8909 B(  2-O , 11-H ) :   0.9752 B(  3-C ,  4-C ) :   1.8759
B(  3-C , 12-H ) :   0.9402 B(  4-C ,  5-C ) :   1.0634 B(  4-C , 13-H ) :   0.9434
B(  5-C ,  6-O ) :   1.0310 B(  5-C , 14-H ) :   0.9339 B(  5-C , 15-H ) :   0.9192
B(  6-O , 16-H ) :   0.9853

FINAL SINGLE POINT ENERGY      -346.274492231634

DIPOLE MOMENT
-------------
                                X             Y             Z
Electronic contribution:      4.24302      -1.18720      -1.56539
Nuclear contribution   :     -4.98977       1.32589       1.72103
                        -----------------------------------------
Total Dipole Moment    :     -0.74675       0.13869       0.15564
                        -----------------------------------------
Magnitude (a.u.)       :      0.77531
Magnitude (Debye)      :      1.97067

                             ****ORCA TERMINATED NORMALLY****
TOTAL RUN TIME: 0 days 0 hours 0 minutes 7 seconds 38 msec
