                         Program Version 3.0.3 - RELEASE   -
|  1> ! RI PBE def2-SVP def2-SVP/J NBO PAL2
|  2> % maxcore 2000
|  3> % output
|  4>     # printlevel mini
|  5>     print[ P_Basis ] 0
|  6>     print[ P_SCFInfo ] 1
|  7>     print[ P_SCFIterInfo ] 1
|  8>     print[ P_OrbEn ] 0
|  9>     print[ P_Cartesian ] 0
| 10> end
| 11> *xyz 0 1
| 12>  C        0.9687850000     0.5389980000     0.0321660000
| 13>  C        2.3926040000     0.0243520000     0.0761050000
| 14>  O        3.1820090000     0.7309950000     1.0206600000
| 15>  C        2.5276110000    -1.4471940000     0.3198900000
| 16>  C        1.5497810000    -2.3514280000     0.3797330000
| 17>  C        1.8554440000    -3.7593000000     0.6431310000
| 18>  O        1.0301700000    -4.6348380000     0.7084310000
| 19>  H        0.9787850000     1.6174470000    -0.1289160000
| 20>  H        0.4479070000     0.3344490000     0.9720670000
| 21>  H        0.4019580000     0.0752510000    -0.7779000000
| 22>  H        2.8749650000     0.2375410000    -0.8862900000
| 23>  H        2.8078140000     0.5787080000     1.8940480000
| 24>  H        3.5541930000    -1.7776490000     0.4771040000
| 25>  H        0.5038180000    -2.0993180000     0.2371090000
| 26>  H        2.9361640000    -3.9796140000     0.7862730000
| 27> *
| 28>
| 29>                          ****END OF INPUT****
 Total Charge           Charge          ....    0
 Multiplicity           Mult            ....    1
 Number of Electrons    NEL             ....   54
 Basis Dimension        Dim             ....  138

MULLIKEN ATOMIC CHARGES
-----------------------
   0 C :    0.007247
   1 C :    0.145063
   2 O :   -0.281327
   3 C :   -0.081456
   4 C :   -0.012111
   5 C :    0.120803
   6 O :   -0.165816
   7 H :    0.039013
   8 H :    0.020460
   9 H :    0.032485
  10 H :    0.023362
  11 H :    0.154741
  12 H :    0.015429
  13 H :    0.006923
  14 H :   -0.024816
Sum of atomic charges:   -0.0000000

LOEWDIN ATOMIC CHARGES
----------------------
   0 C :   -0.075548
   1 C :    0.040108
   2 O :   -0.103536
   3 C :   -0.000921
   4 C :   -0.076036
   5 C :    0.069800
   6 O :   -0.113269
   7 H :    0.036411
   8 H :    0.026732
   9 H :    0.035039
  10 H :    0.040060
  11 H :    0.070068
  12 H :    0.030849
  13 H :    0.033035
  14 H :   -0.012792

  Mayer bond orders larger than 0.1
B(  0-C ,  1-C ) :   1.1251 B(  0-C ,  7-H ) :   0.9512 B(  0-C ,  8-H ) :   0.9451
B(  0-C ,  9-H ) :   0.9368 B(  1-C ,  2-O ) :   0.9991 B(  1-C ,  3-C ) :   1.0013
B(  1-C , 10-H ) :   0.8781 B(  2-O , 11-H ) :   0.9842 B(  3-C ,  4-C ) :   1.7314
B(  3-C ,  6-O ) :   0.1013 B(  3-C , 12-H ) :   0.9617 B(  4-C ,  5-C ) :   1.0191
B(  4-C , 13-H ) :   0.9523 B(  5-C ,  6-O ) :   2.1135 B(  5-C , 14-H ) :   0.9354

FINAL SINGLE POINT ENERGY      -345.083969566997

DIPOLE MOMENT
-------------
                                X             Y             Z
Electronic contribution:      1.02085      -5.70295       1.16989
Nuclear contribution   :     -0.90299       6.64289      -1.14898
                        -----------------------------------------
Total Dipole Moment    :      0.11787       0.93994       0.02092
                        -----------------------------------------
Magnitude (a.u.)       :      0.94753
Magnitude (Debye)      :      2.40844

                             ****ORCA TERMINATED NORMALLY****
TOTAL RUN TIME: 0 days 0 hours 0 minutes 6 seconds 850 msec
