                         Program Version 3.0.3 - RELEASE   -
|  1> ! RI PBE def2-SVP def2-SVP/J NBO PAL2
|  2> % maxcore 2000
|  3> % output
|  4>     # printlevel mini
|  5>     print[ P_Basis ] 0
|  6>     print[ P_SCFInfo ] 1
|  7>     print[ P_SCFIterInfo ] 1
|  8>     print[ P_OrbEn ] 0
|  9>     print[ P_Cartesian ] 0
| 10> end
| 11> *xyz 0 1
| 12>  C        2.7718340000     1.0499120000    -0.6900430000
| 13>  C        2.6664340000    -0.1621500000     0.2249870000
| 14>  O        3.3539030000    -1.2731240000    -0.3252930000
| 15>  C        3.1274130000     0.1346530000     1.6348550000
| 16>  C        2.3019420000     0.0448170000     2.6716280000
| 17>  C        4.5594210000     0.5436300000     1.8309820000
| 18>  O        5.4824720000    -0.4291970000     1.3486950000
| 19>  H        2.3842950000     0.7908550000    -1.6767560000
| 20>  H        3.8115860000     1.3641840000    -0.8123390000
| 21>  H        2.1991770000     1.8942760000    -0.2978320000
| 22>  H        1.6175380000    -0.4688170000     0.2768120000
| 23>  H        4.2968650000    -1.1137880000    -0.1904010000
| 24>  H        1.2626160000    -0.2402940000     2.5461860000
| 25>  H        2.6330320000     0.2636920000     3.6821420000
| 26>  H        4.7432210000     0.7635690000     2.8888010000
| 27>  H        4.7837820000     1.4511480000     1.2644410000
| 28>  H        5.3558910000    -1.2304680000     1.8663240000
| 29> *
| 30>
| 31>                          ****END OF INPUT****
 Total Charge           Charge          ....    0
 Multiplicity           Mult            ....    1
 Number of Electrons    NEL             ....   56
 Basis Dimension        Dim             ....  148

MULLIKEN ATOMIC CHARGES
-----------------------
   0 C :    0.015257
   1 C :    0.151221
   2 O :   -0.283588
   3 C :   -0.226983
   4 C :   -0.023965
   5 C :    0.266521
   6 O :   -0.291144
   7 H :    0.027201
   8 H :    0.016412
   9 H :    0.016073
  10 H :   -0.013105
  11 H :    0.133303
  12 H :    0.018760
  13 H :    0.011302
  14 H :   -0.001122
  15 H :    0.019984
  16 H :    0.163874
Sum of atomic charges:   -0.0000000

LOEWDIN ATOMIC CHARGES
----------------------
   0 C :   -0.074588
   1 C :    0.050241
   2 O :   -0.115273
   3 C :   -0.068197
   4 C :   -0.052992
   5 C :    0.065018
   6 O :   -0.105957
   7 H :    0.032188
   8 H :    0.022552
   9 H :    0.028624
  10 H :    0.022151
  11 H :    0.037843
  12 H :    0.023715
  13 H :    0.019772
  14 H :    0.013512
  15 H :    0.027628
  16 H :    0.073763

  Mayer bond orders larger than 0.1
B(  0-C ,  1-C ) :   1.0728 B(  0-C ,  7-H ) :   0.9499 B(  0-C ,  8-H ) :   0.9522
B(  0-C ,  9-H ) :   0.9486 B(  1-C ,  2-O ) :   1.0411 B(  1-C ,  3-C ) :   0.9945
B(  1-C , 10-H ) :   0.8998 B(  2-O , 11-H ) :   0.9557 B(  3-C ,  4-C ) :   1.9746
B(  3-C ,  5-C ) :   1.0360 B(  4-C , 12-H ) :   0.9315 B(  4-C , 13-H ) :   0.9325
B(  5-C ,  6-O ) :   1.0101 B(  5-C , 14-H ) :   0.9296 B(  5-C , 15-H ) :   0.9189
B(  6-O , 11-H ) :   0.1114 B(  6-O , 16-H ) :   0.9715

FINAL SINGLE POINT ENERGY      -346.277182860730

DIPOLE MOMENT
-------------
                                X             Y             Z
Electronic contribution:      2.04530      -3.29031       0.38390
Nuclear contribution   :     -2.00203       3.63847       0.29852
                        -----------------------------------------
Total Dipole Moment    :      0.04327       0.34816       0.68242
                        -----------------------------------------
Magnitude (a.u.)       :      0.76732
Magnitude (Debye)      :      1.95037

                             ****ORCA TERMINATED NORMALLY****
TOTAL RUN TIME: 0 days 0 hours 0 minutes 7 seconds 571 msec
