                         Program Version 3.0.3 - RELEASE   -
|  1> ! RI PBE def2-SVP def2-SVP/J NBO PAL2
|  2> % maxcore 2000
|  3> % output
|  4>     # printlevel mini
|  5>     print[ P_Basis ] 0
|  6>     print[ P_SCFInfo ] 1
|  7>     print[ P_SCFIterInfo ] 1
|  8>     print[ P_OrbEn ] 0
|  9>     print[ P_Cartesian ] 0
| 10> end
| 11> *xyz 0 1
| 12>  C        1.0343720000    -0.2011420000     0.3726380000
| 13>  C        2.3779890000     0.1020330000    -0.2445030000
| 14>  O        2.9661320000    -1.1297530000    -0.6111450000
| 15>  C        2.3219620000     1.0311830000    -1.4357080000
| 16>  C        1.2414060000     1.6575290000    -1.9001670000
| 17>  C        3.5906320000     1.2782490000    -2.1429530000
| 18>  O        4.6449240000     0.7617250000    -1.8551060000
| 19>  H        1.1745980000    -0.8861090000     1.2093730000
| 20>  H        0.3761320000    -0.6830840000    -0.3537770000
| 21>  H        0.5528540000     0.7044270000     0.7466390000
| 22>  H        3.0078370000     0.5998110000     0.5106650000
| 23>  H        3.8523620000    -0.9251330000    -0.9357910000
| 24>  H        0.2616600000     1.5439040000    -1.4529930000
| 25>  H        1.3153390000     2.3142330000    -2.7620320000
| 26>  H        3.5250900000     1.9936270000    -2.9886220000
| 27> *
| 28>
| 29>                          ****END OF INPUT****
 Total Charge           Charge          ....    0
 Multiplicity           Mult            ....    1
 Number of Electrons    NEL             ....   54
 Basis Dimension        Dim             ....  138

MULLIKEN ATOMIC CHARGES
-----------------------
   0 C :   -0.000908
   1 C :    0.134872
   2 O :   -0.275714
   3 C :   -0.128922
   4 C :    0.001857
   5 C :    0.145501
   6 O :   -0.181309
   7 H :    0.035240
   8 H :    0.030013
   9 H :    0.023574
  10 H :    0.011655
  11 H :    0.152624
  12 H :    0.033181
  13 H :    0.030605
  14 H :   -0.012269
Sum of atomic charges:   -0.0000000

LOEWDIN ATOMIC CHARGES
----------------------
   0 C :   -0.067749
   1 C :    0.051863
   2 O :   -0.113160
   3 C :   -0.083522
   4 C :    0.008884
   5 C :    0.092006
   6 O :   -0.114473
   7 H :    0.037675
   8 H :    0.030766
   9 H :    0.029432
  10 H :    0.019887
  11 H :    0.052594
  12 H :    0.030590
  13 H :    0.028913
  14 H :   -0.003704

  Mayer bond orders larger than 0.1
B(  0-C ,  1-C ) :   1.1310 B(  0-C ,  7-H ) :   0.9473 B(  0-C ,  8-H ) :   0.9451
B(  0-C ,  9-H ) :   0.9473 B(  1-C ,  2-O ) :   1.0696 B(  1-C ,  3-C ) :   0.9419
B(  1-C , 10-H ) :   0.8950 B(  2-O , 11-H ) :   0.9564 B(  3-C ,  4-C ) :   1.8911
B(  3-C ,  5-C ) :   1.0076 B(  4-C , 12-H ) :   0.9253 B(  4-C , 13-H ) :   0.9291
B(  5-C ,  6-O ) :   2.0645 B(  5-C , 14-H ) :   0.9373

FINAL SINGLE POINT ENERGY      -345.086595679960

DIPOLE MOMENT
-------------
                                X             Y             Z
Electronic contribution:      5.72481      -0.15613      -2.68031
Nuclear contribution   :     -6.47451       0.96110       2.57328
                        -----------------------------------------
Total Dipole Moment    :     -0.74971       0.80497      -0.10703
                        -----------------------------------------
Magnitude (a.u.)       :      1.10521
Magnitude (Debye)      :      2.80923

                             ****ORCA TERMINATED NORMALLY****
TOTAL RUN TIME: 0 days 0 hours 0 minutes 7 seconds 51 msec
