                         Program Version 3.0.3 - RELEASE   -
|  1> ! RI PBE def2-SVP def2-SVP/J NBO PAL2
|  2> % maxcore 2000
|  3> % output
|  4>     # printlevel mini
|  5>     print[ P_Basis ] 0
|  6>     print[ P_SCFInfo ] 1
|  7>     print[ P_SCFIterInfo ] 1
|  8>     print[ P_OrbEn ] 0
|  9>     print[ P_Cartesian ] 0
| 10> end
| 11> *xyz 0 1
| 12>  C        1.2409380000     0.3140700000     0.0519730000
| 13>  C        2.7396040000     0.3176630000    -0.1754400000
| 14>  O        3.4160050000     0.4413550000     1.0791050000
| 15>  C        3.2569660000    -0.8817810000    -0.9747920000
| 16>  C        2.5688330000    -0.9890200000    -2.3301090000
| 17>  C        4.7698110000    -0.8121660000    -1.1810320000
| 18>  O        5.5281140000    -0.9510110000    -0.0069970000
| 19>  H        0.9643500000     1.1519610000     0.6945370000
| 20>  H        0.9236300000    -0.6149790000     0.5389570000
| 21>  H        0.6876530000     0.4064000000    -0.8832920000
| 22>  H        3.0171380000     1.2300200000    -0.7169820000
| 23>  H        3.0787410000    -0.2450320000     1.6638600000
| 24>  H        3.0455090000    -1.7913390000    -0.3939910000
| 25>  H        2.6862560000    -0.0652170000    -2.9058580000
| 26>  H        1.5009530000    -1.1895770000    -2.2360020000
| 27>  H        3.0046060000    -1.7998440000    -2.9183350000
| 28>  H        5.0107150000     0.1308430000    -1.7009070000
| 29>  H        5.0749380000    -1.6260720000    -1.8450560000
| 30>  H        5.1555410000    -0.3229850000     0.6257510000
| 31> *
| 32>
| 33>                          ****END OF INPUT****
 Total Charge           Charge          ....    0
 Multiplicity           Mult            ....    1
 Number of Electrons    NEL             ....   58
 Basis Dimension        Dim             ....  158

MULLIKEN ATOMIC CHARGES
-----------------------
   0 C :    0.010963
   1 C :    0.081821
   2 O :   -0.285560
   3 C :   -0.167321
   4 C :   -0.001443
   5 C :    0.232025
   6 O :   -0.289737
   7 H :    0.033001
   8 H :    0.013531
   9 H :    0.027527
  10 H :    0.005023
  11 H :    0.160392
  12 H :   -0.004534
  13 H :    0.021968
  14 H :    0.026689
  15 H :    0.021615
  16 H :   -0.019695
  17 H :    0.000155
  18 H :    0.133582
Sum of atomic charges:   -0.0000000

LOEWDIN ATOMIC CHARGES
----------------------
   0 C :   -0.076465
   1 C :    0.047091
   2 O :   -0.095347
   3 C :   -0.080884
   4 C :   -0.056864
   5 C :    0.057928
   6 O :   -0.130826
   7 H :    0.032195
   8 H :    0.024763
   9 H :    0.033101
  10 H :    0.022202
  11 H :    0.069652
  12 H :    0.019692
  13 H :    0.026836
  14 H :    0.025704
  15 H :    0.029785
  16 H :   -0.000264
  17 H :    0.016868
  18 H :    0.034834

  Mayer bond orders larger than 0.1
B(  0-C ,  1-C ) :   1.0982 B(  0-C ,  7-H ) :   0.9519 B(  0-C ,  8-H ) :   0.9520
B(  0-C ,  9-H ) :   0.9438 B(  1-C ,  2-O ) :   0.9827 B(  1-C ,  3-C ) :   1.0056
B(  1-C , 10-H ) :   0.9098 B(  2-O , 11-H ) :   0.9733 B(  2-O , 18-H ) :   0.1197
B(  3-C ,  4-C ) :   1.0590 B(  3-C ,  5-C ) :   1.0290 B(  3-C , 12-H ) :   0.8895
B(  4-C , 13-H ) :   0.9611 B(  4-C , 14-H ) :   0.9540 B(  4-C , 15-H ) :   0.9511
B(  5-C ,  6-O ) :   1.0978 B(  5-C , 16-H ) :   0.9234 B(  5-C , 17-H ) :   0.9361
B(  6-O , 18-H ) :   0.9530

FINAL SINGLE POINT ENERGY      -347.500824271025

DIPOLE MOMENT
-------------
                                X             Y             Z
Electronic contribution:      4.95120       0.40483       4.12525
Nuclear contribution   :     -6.04324      -0.37926      -4.19623
                        -----------------------------------------
Total Dipole Moment    :     -1.09204       0.02557      -0.07098
                        -----------------------------------------
Magnitude (a.u.)       :      1.09464
Magnitude (Debye)      :      2.78236

                             ****ORCA TERMINATED NORMALLY****
TOTAL RUN TIME: 0 days 0 hours 0 minutes 8 seconds 464 msec
