                         Program Version 3.0.3 - RELEASE   -
|  1> ! RI PBE def2-SVP def2-SVP/J NBO PAL2
|  2> % maxcore 2000
|  3> % output
|  4>     # printlevel mini
|  5>     print[ P_Basis ] 0
|  6>     print[ P_SCFInfo ] 1
|  7>     print[ P_SCFIterInfo ] 1
|  8>     print[ P_OrbEn ] 0
|  9>     print[ P_Cartesian ] 0
| 10> end
| 11> *xyz 0 1
| 12>  C        3.9731540000    -0.7806350000    -0.7830790000
| 13>  C        3.1715490000     0.1715420000     0.0859490000
| 14>  O        3.9134390000     0.5416740000     1.2302630000
| 15>  C        2.6130060000     1.4003030000    -0.6596600000
| 16>  C        1.8635960000     0.9791390000    -1.9182270000
| 17>  C        3.7030770000     2.4099020000    -0.9926860000
| 18>  O        1.6921130000     1.9765040000     0.2591410000
| 19>  H        4.3542430000    -1.5913090000    -0.1597940000
| 20>  H        4.8302200000    -0.2786270000    -1.2445060000
| 21>  H        3.3727270000    -1.2213950000    -1.5798030000
| 22>  H        2.2953510000    -0.3525570000     0.4808620000
| 23>  H        4.7846610000     0.8301550000     0.9447270000
| 24>  H        1.3280270000     1.8391970000    -2.3310480000
| 25>  H        1.1268730000     0.2062710000    -1.6864530000
| 26>  H        2.5339490000     0.6061830000    -2.6949760000
| 27>  H        4.4769590000     1.9817200000    -1.6350790000
| 28>  H        4.1622510000     2.7871680000    -0.0774100000
| 29>  H        3.2754740000     3.2627410000    -1.5283280000
| 30>  H        1.3453510000     2.7833330000    -0.1314600000
| 31> *
| 32>
| 33>                          ****END OF INPUT****
 Total Charge           Charge          ....    0
 Multiplicity           Mult            ....    1
 Number of Electrons    NEL             ....   58
 Basis Dimension        Dim             ....  158

MULLIKEN ATOMIC CHARGES
-----------------------
   0 C :    0.010177
   1 C :    0.109478
   2 O :   -0.262043
   3 C :   -0.126422
   4 C :    0.056076
   5 C :    0.032335
   6 O :   -0.242942
   7 H :    0.028957
   8 H :    0.003950
   9 H :    0.020598
  10 H :    0.004005
  11 H :    0.145920
  12 H :   -0.001230
  13 H :    0.023570
  14 H :    0.017116
  15 H :    0.012288
  16 H :    0.018179
  17 H :    0.005940
  18 H :    0.144049
Sum of atomic charges:   -0.0000000

LOEWDIN ATOMIC CHARGES
----------------------
   0 C :   -0.077724
   1 C :    0.040112
   2 O :   -0.097557
   3 C :   -0.001416
   4 C :   -0.066888
   5 C :   -0.074104
   6 O :   -0.100128
   7 H :    0.032248
   8 H :    0.019598
   9 H :    0.030092
  10 H :    0.025162
  11 H :    0.060192
  12 H :    0.021682
  13 H :    0.028296
  14 H :    0.025449
  15 H :    0.024485
  16 H :    0.023819
  17 H :    0.024519
  18 H :    0.062162

  Mayer bond orders larger than 0.1
B(  0-C ,  1-C ) :   1.0870 B(  0-C ,  7-H ) :   0.9500 B(  0-C ,  8-H ) :   0.9481
B(  0-C ,  9-H ) :   0.9409 B(  1-C ,  2-O ) :   1.0665 B(  1-C ,  3-C ) :   0.9338
B(  1-C , 10-H ) :   0.8971 B(  2-O , 11-H ) :   0.9820 B(  3-C ,  4-C ) :   1.0547
B(  3-C ,  5-C ) :   1.0448 B(  3-C ,  6-O ) :   1.0521 B(  4-C , 12-H ) :   0.9414
B(  4-C , 13-H ) :   0.9518 B(  4-C , 14-H ) :   0.9418 B(  5-C , 15-H ) :   0.9467
B(  5-C , 16-H ) :   0.9434 B(  5-C , 17-H ) :   0.9469 B(  6-O , 18-H ) :   0.9798

FINAL SINGLE POINT ENERGY      -347.498144645859

DIPOLE MOMENT
-------------
                                X             Y             Z
Electronic contribution:     -1.50240       1.02522       5.66892
Nuclear contribution   :      1.81930      -0.77461      -6.65650
                        -----------------------------------------
Total Dipole Moment    :      0.31689       0.25060      -0.98759
                        -----------------------------------------
Magnitude (a.u.)       :      1.06703
Magnitude (Debye)      :      2.71217

                             ****ORCA TERMINATED NORMALLY****
TOTAL RUN TIME: 0 days 0 hours 0 minutes 7 seconds 981 msec
