                         Program Version 3.0.3 - RELEASE   -
|  1> ! RI PBE def2-SVP def2-SVP/J NBO PAL2
|  2> % maxcore 2000
|  3> % output
|  4>     # printlevel mini
|  5>     print[ P_Basis ] 0
|  6>     print[ P_SCFInfo ] 1
|  7>     print[ P_SCFIterInfo ] 1
|  8>     print[ P_OrbEn ] 0
|  9>     print[ P_Cartesian ] 0
| 10> end
| 11> *xyz 0 1
| 12>  C        3.6669450000     0.7944790000    -0.8449090000
| 13>  C        3.0761340000    -0.5392800000    -0.4182800000
| 14>  O        3.4392670000    -1.5827940000    -1.2961190000
| 15>  C        3.4033900000    -0.8967490000     1.0368070000
| 16>  C        2.5867350000    -2.0900200000     1.5397040000
| 17>  C        4.8563160000    -1.2042770000     1.2702150000
| 18>  O        5.6856830000    -1.3832210000     0.4150610000
| 19>  H        3.3819020000     1.0059740000    -1.8767040000
| 20>  H        4.7575320000     0.7811410000    -0.7885270000
| 21>  H        3.2985620000     1.6081520000    -0.2139760000
| 22>  H        1.9849960000    -0.4715210000    -0.4936640000
| 23>  H        4.3964190000    -1.6817620000    -1.2152140000
| 24>  H        3.1727370000    -0.0340320000     1.6777110000
| 25>  H        2.7161750000    -2.9394820000     0.8672860000
| 26>  H        1.5262100000    -1.8335660000     1.5678530000
| 27>  H        2.8853170000    -2.3925710000     2.5467760000
| 28>  H        5.1410810000    -1.2976680000     2.3413990000
| 29> *
| 30>
| 31>                          ****END OF INPUT****
 Total Charge           Charge          ....    0
 Multiplicity           Mult            ....    1
 Number of Electrons    NEL             ....   56
 Basis Dimension        Dim             ....  148

MULLIKEN ATOMIC CHARGES
-----------------------
   0 C :    0.026788
   1 C :    0.084007
   2 O :   -0.275939
   3 C :   -0.124385
   4 C :    0.022787
   5 C :    0.121878
   6 O :   -0.178517
   7 H :    0.026545
   8 H :    0.024571
   9 H :    0.006485
  10 H :    0.002250
  11 H :    0.148106
  12 H :    0.021899
  13 H :    0.039236
  14 H :    0.032554
  15 H :    0.020825
  16 H :    0.000911
Sum of atomic charges:    0.0000000

LOEWDIN ATOMIC CHARGES
----------------------
   0 C :   -0.080073
   1 C :    0.046295
   2 O :   -0.110563
   3 C :   -0.098109
   4 C :   -0.045166
   5 C :    0.112047
   6 O :   -0.110482
   7 H :    0.032222
   8 H :    0.025980
   9 H :    0.025780
  10 H :    0.023108
  11 H :    0.049236
  12 H :    0.041853
  13 H :    0.032533
  14 H :    0.033649
  15 H :    0.026882
  16 H :   -0.005192

  Mayer bond orders larger than 0.1
B(  0-C ,  1-C ) :   1.0826 B(  0-C ,  7-H ) :   0.9510 B(  0-C ,  8-H ) :   0.9543
B(  0-C ,  9-H ) :   0.9437 B(  1-C ,  2-O ) :   1.0529 B(  1-C ,  3-C ) :   0.9845
B(  1-C , 10-H ) :   0.9140 B(  2-O , 11-H ) :   0.9651 B(  3-C ,  4-C ) :   1.0580
B(  3-C ,  5-C ) :   0.9424 B(  3-C , 12-H ) :   0.8816 B(  4-C , 13-H ) :   0.9533
B(  4-C , 14-H ) :   0.9568 B(  4-C , 15-H ) :   0.9575 B(  5-C ,  6-O ) :   2.1083
B(  5-C , 16-H ) :   0.9280

FINAL SINGLE POINT ENERGY      -346.303915268959

DIPOLE MOMENT
-------------
                                X             Y             Z
Electronic contribution:      4.30549      -2.16628      -1.27503
Nuclear contribution   :     -4.67043       2.55213       2.15668
                        -----------------------------------------
Total Dipole Moment    :     -0.36494       0.38585       0.88165
                        -----------------------------------------
Magnitude (a.u.)       :      1.02926
Magnitude (Debye)      :      2.61618

                             ****ORCA TERMINATED NORMALLY****
TOTAL RUN TIME: 0 days 0 hours 0 minutes 6 seconds 833 msec
