                         Program Version 3.0.3 - RELEASE   -
|  1> ! RI PBE def2-SVP def2-SVP/J NBO PAL2
|  2> % maxcore 2000
|  3> % output
|  4>     # printlevel mini
|  5>     print[ P_Basis ] 0
|  6>     print[ P_SCFInfo ] 1
|  7>     print[ P_SCFIterInfo ] 1
|  8>     print[ P_OrbEn ] 0
|  9>     print[ P_Cartesian ] 0
| 10> end
| 11> *xyz 0 1
| 12>  C        0.8709460000    -0.0228770000     0.1071750000
| 13>  C        2.3794670000     0.0601740000    -0.0838450000
| 14>  O        3.0321580000     0.5342120000     1.0811170000
| 15>  C        2.9269590000    -1.2190480000    -0.5352920000
| 16>  C        3.3599120000    -2.2822080000    -0.8982570000
| 17>  C        3.8889800000    -3.5753710000    -1.3131060000
| 18>  O        2.9521910000    -4.6284500000    -1.2289000000
| 19>  H        0.4940660000     0.9483920000     0.4310400000
| 20>  H        0.6230470000    -0.7682590000     0.8668890000
| 21>  H        0.3762090000    -0.3078470000    -0.8232330000
| 22>  H        2.5978790000     0.8139540000    -0.8473740000
| 23>  H        3.0107590000    -0.1677010000     1.7383490000
| 24>  H        4.7902030000    -3.7952560000    -0.7237150000
| 25>  H        4.1972740000    -3.5273060000    -2.3606750000
| 26>  H        2.5635510000    -4.6107090000    -0.3502730000
| 27> *
| 28>
| 29>                          ****END OF INPUT****
 Total Charge           Charge          ....    0
 Multiplicity           Mult            ....    1
 Number of Electrons    NEL             ....   54
 Basis Dimension        Dim             ....  138

MULLIKEN ATOMIC CHARGES
-----------------------
   0 C :    0.024115
   1 C :    0.121888
   2 O :   -0.267627
   3 C :   -0.109006
   4 C :   -0.225646
   5 C :    0.269474
   6 O :   -0.280712
   7 H :    0.029754
   8 H :    0.013889
   9 H :    0.030160
  10 H :    0.028303
  11 H :    0.152128
  12 H :    0.026221
  13 H :    0.032222
  14 H :    0.154837
Sum of atomic charges:   -0.0000000

LOEWDIN ATOMIC CHARGES
----------------------
   0 C :   -0.063737
   1 C :    0.033989
   2 O :   -0.102171
   3 C :   -0.066508
   4 C :   -0.081491
   5 C :    0.050403
   6 O :   -0.114602
   7 H :    0.031458
   8 H :    0.025201
   9 H :    0.035217
  10 H :    0.043466
  11 H :    0.067305
  12 H :    0.027466
  13 H :    0.044394
  14 H :    0.069610

  Mayer bond orders larger than 0.1
B(  0-C ,  1-C ) :   1.0823 B(  0-C ,  7-H ) :   0.9529 B(  0-C ,  8-H ) :   0.9550
B(  0-C ,  9-H ) :   0.9499 B(  1-C ,  2-O ) :   1.0351 B(  1-C ,  3-C ) :   0.9643
B(  1-C , 10-H ) :   0.8771 B(  2-O , 11-H ) :   0.9836 B(  3-C ,  4-C ) :   2.7174
B(  4-C ,  5-C ) :   1.0174 B(  5-C ,  6-O ) :   1.0712 B(  5-C , 12-H ) :   0.9173
B(  5-C , 13-H ) :   0.8968 B(  6-O , 14-H ) :   0.9839

FINAL SINGLE POINT ENERGY      -345.030412208087

DIPOLE MOMENT
-------------
                                X             Y             Z
Electronic contribution:      2.98012      -1.54786      -0.41111
Nuclear contribution   :     -3.16957       1.38966       0.85345
                        -----------------------------------------
Total Dipole Moment    :     -0.18945      -0.15821       0.44234
                        -----------------------------------------
Magnitude (a.u.)       :      0.50654
Magnitude (Debye)      :      1.28752

                             ****ORCA TERMINATED NORMALLY****
TOTAL RUN TIME: 0 days 0 hours 0 minutes 6 seconds 187 msec
