                         Program Version 3.0.3 - RELEASE   -
|  1> ! RI PBE def2-SVP def2-SVP/J NBO PAL2
|  2> % maxcore 2000
|  3> % output
|  4>     # printlevel mini
|  5>     print[ P_Basis ] 0
|  6>     print[ P_SCFInfo ] 1
|  7>     print[ P_SCFIterInfo ] 1
|  8>     print[ P_OrbEn ] 0
|  9>     print[ P_Cartesian ] 0
| 10> end
| 11> *xyz 0 1
| 12>  C        1.0545600000    -0.0038500000     0.0109790000
| 13>  C        2.5740050000     0.0880360000     0.0813780000
| 14>  O        3.0428060000     1.4039350000    -0.1269540000
| 15>  C        3.0725100000    -0.4812700000     1.3315640000
| 16>  C        3.4533690000    -0.9572850000     2.3728070000
| 17>  C        3.9456420000    -1.4756060000     3.6211070000
| 18>  O        3.7857970000    -2.6094100000     3.9941670000
| 19>  H        0.7173920000     0.4101470000    -0.9400630000
| 20>  H        0.5981810000     0.5633400000     0.8257670000
| 21>  H        0.7227620000    -1.0404040000     0.0900650000
| 22>  H        3.0027750000    -0.4958050000    -0.7402070000
| 23>  H        2.7531110000     1.9487580000     0.6112960000
| 24>  H        4.4988790000    -0.7386960000     4.2344850000
| 25> *
| 26>
| 27>                          ****END OF INPUT****
 Total Charge           Charge          ....    0
 Multiplicity           Mult            ....    1
 Number of Electrons    NEL             ....   52
 Basis Dimension        Dim             ....  128

MULLIKEN ATOMIC CHARGES
-----------------------
   0 C :    0.011039
   1 C :    0.138516
   2 O :   -0.263773
   3 C :   -0.026345
   4 C :   -0.096704
   5 C :    0.073235
   6 O :   -0.151711
   7 H :    0.037309
   8 H :    0.024242
   9 H :    0.038615
  10 H :    0.039235
  11 H :    0.158484
  12 H :    0.017858
Sum of atomic charges:   -0.0000000

LOEWDIN ATOMIC CHARGES
----------------------
   0 C :   -0.059485
   1 C :    0.034008
   2 O :   -0.095210
   3 C :   -0.004834
   4 C :   -0.082183
   5 C :    0.067440
   6 O :   -0.092039
   7 H :    0.035524
   8 H :    0.029482
   9 H :    0.039222
  10 H :    0.051861
  11 H :    0.071999
  12 H :    0.004217

  Mayer bond orders larger than 0.1
B(  0-C ,  1-C ) :   1.0784 B(  0-C ,  7-H ) :   0.9527 B(  0-C ,  8-H ) :   0.9566
B(  0-C ,  9-H ) :   0.9518 B(  1-C ,  2-O ) :   1.0405 B(  1-C ,  3-C ) :   0.9561
B(  1-C , 10-H ) :   0.8674 B(  2-O , 11-H ) :   0.9818 B(  3-C ,  4-C ) :   2.6308
B(  3-C ,  6-O ) :   0.1203 B(  4-C ,  5-C ) :   0.8984 B(  5-C ,  6-O ) :   2.1400
B(  5-C , 12-H ) :   0.9428

FINAL SINGLE POINT ENERGY      -343.834741146873

DIPOLE MOMENT
-------------
                                X             Y             Z
Electronic contribution:      4.62776      -2.74424       4.67476
Nuclear contribution   :     -5.15121       3.62498      -5.05914
                        -----------------------------------------
Total Dipole Moment    :     -0.52345       0.88073      -0.38438
                        -----------------------------------------
Magnitude (a.u.)       :      1.09427
Magnitude (Debye)      :      2.78142

                             ****ORCA TERMINATED NORMALLY****
TOTAL RUN TIME: 0 days 0 hours 0 minutes 5 seconds 841 msec
