                         Program Version 3.0.3 - RELEASE   -
|  1> ! RI PBE def2-SVP def2-SVP/J NBO PAL2
|  2> % maxcore 2000
|  3> % output
|  4>     # printlevel mini
|  5>     print[ P_Basis ] 0
|  6>     print[ P_SCFInfo ] 1
|  7>     print[ P_SCFIterInfo ] 1
|  8>     print[ P_OrbEn ] 0
|  9>     print[ P_Cartesian ] 0
| 10> end
| 11> *xyz 0 1
| 12>  C        1.7655060000     1.2659940000    -0.1673980000
| 13>  C        3.1920750000     0.7866070000    -0.3430250000
| 14>  O        4.0941900000     1.6063690000     0.4051030000
| 15>  C        3.3509700000    -0.6860570000     0.0092100000
| 16>  C        4.7567010000    -1.2623390000    -0.1674210000
| 17>  C        5.2781800000    -1.1622910000    -1.5926800000
| 18>  O        5.6716960000    -0.6951150000     0.7497930000
| 19>  H        1.6858030000     2.3270300000    -0.4109470000
| 20>  H        1.4344020000     1.1218150000     0.8667820000
| 21>  H        1.0822430000     0.7099440000    -0.8132040000
| 22>  H        3.4915410000     0.9465100000    -1.3827850000
| 23>  H        3.7807150000     1.6336130000     1.3150900000
| 24>  H        2.6504210000    -1.2641010000    -0.6037850000
| 25>  H        3.0504070000    -0.8347170000     1.0540410000
| 26>  H        4.7053210000    -2.3232980000     0.1009520000
| 27>  H        5.4143070000    -0.1207230000    -1.8947680000
| 28>  H        4.5973270000    -1.6402800000    -2.3030530000
| 29>  H        6.2491890000    -1.6551710000    -1.6613780000
| 30>  H        5.5654050000     0.2627090000     0.6783720000
| 31> *
| 32>
| 33>                          ****END OF INPUT****
 Total Charge           Charge          ....    0
 Multiplicity           Mult            ....    1
 Number of Electrons    NEL             ....   58
 Basis Dimension        Dim             ....  158

MULLIKEN ATOMIC CHARGES
-----------------------
   0 C :    0.017764
   1 C :    0.038701
   2 O :   -0.287926
   3 C :    0.001646
   4 C :    0.093604
   5 C :    0.013633
   6 O :   -0.289446
   7 H :    0.030664
   8 H :    0.011045
   9 H :    0.022702
  10 H :    0.014465
  11 H :    0.159055
  12 H :    0.003195
  13 H :   -0.004442
  14 H :   -0.001257
  15 H :    0.017884
  16 H :    0.004779
  17 H :    0.022801
  18 H :    0.131133
Sum of atomic charges:    0.0000000

LOEWDIN ATOMIC CHARGES
----------------------
   0 C :   -0.074181
   1 C :    0.042326
   2 O :   -0.101110
   3 C :   -0.069935
   4 C :    0.042651
   5 C :   -0.079241
   6 O :   -0.124188
   7 H :    0.030510
   8 H :    0.023278
   9 H :    0.033975
  10 H :    0.022985
  11 H :    0.068654
  12 H :    0.030575
  13 H :    0.021326
  14 H :    0.019977
  15 H :    0.022409
  16 H :    0.023885
  17 H :    0.030733
  18 H :    0.035372

  Mayer bond orders larger than 0.1
B(  0-C ,  1-C ) :   1.1036 B(  0-C ,  7-H ) :   0.9541 B(  0-C ,  8-H ) :   0.9527
B(  0-C ,  9-H ) :   0.9479 B(  1-C ,  2-O ) :   0.9783 B(  1-C ,  3-C ) :   1.0488
B(  1-C , 10-H ) :   0.9117 B(  2-O , 11-H ) :   0.9734 B(  2-O , 18-H ) :   0.1146
B(  3-C ,  4-C ) :   1.0506 B(  3-C , 12-H ) :   0.9072 B(  3-C , 13-H ) :   0.9127
B(  4-C ,  5-C ) :   1.0775 B(  4-C ,  6-O ) :   1.0537 B(  4-C , 14-H ) :   0.9132
B(  5-C , 15-H ) :   0.9518 B(  5-C , 16-H ) :   0.9463 B(  5-C , 17-H ) :   0.9518
B(  6-O , 18-H ) :   0.9586

FINAL SINGLE POINT ENERGY      -347.504886301223

DIPOLE MOMENT
-------------
                                X             Y             Z
Electronic contribution:      3.46944       1.08448       3.10812
Nuclear contribution   :     -4.43797      -0.88279      -3.23178
                        -----------------------------------------
Total Dipole Moment    :     -0.96853       0.20170      -0.12366
                        -----------------------------------------
Magnitude (a.u.)       :      0.99701
Magnitude (Debye)      :      2.53419

                             ****ORCA TERMINATED NORMALLY****
TOTAL RUN TIME: 0 days 0 hours 0 minutes 7 seconds 792 msec
