                         Program Version 3.0.3 - RELEASE   -
|  1> ! RI PBE def2-SVP def2-SVP/J NBO PAL2
|  2> % maxcore 2000
|  3> % output
|  4>     # printlevel mini
|  5>     print[ P_Basis ] 0
|  6>     print[ P_SCFInfo ] 1
|  7>     print[ P_SCFIterInfo ] 1
|  8>     print[ P_OrbEn ] 0
|  9>     print[ P_Cartesian ] 0
| 10> end
| 11> *xyz 0 1
| 12>  C        3.2121170000     1.8121930000     0.0868080000
| 13>  C        2.6942880000     0.4086230000    -0.1882260000
| 14>  O        2.8578510000     0.0404410000    -1.5390760000
| 15>  C        3.3065560000    -0.6363360000     0.7434860000
| 16>  C        4.7855010000    -0.8760000000     0.5538100000
| 17>  C        5.5049480000    -1.5582700000     1.6826210000
| 18>  O        5.3671290000    -0.5536420000    -0.4589200000
| 19>  H        2.7335480000     2.5172550000    -0.5946110000
| 20>  H        4.2921120000     1.8709920000    -0.0668300000
| 21>  H        2.9901160000     2.1215410000     1.1122150000
| 22>  H        1.6127590000     0.4031140000    -0.0163350000
| 23>  H        3.8097390000    -0.0691620000    -1.6687010000
| 24>  H        2.8195230000    -1.6042370000     0.5643930000
| 25>  H        3.1113630000    -0.3921050000     1.7931240000
| 26>  H        5.5907970000    -0.8619080000     2.5228710000
| 27>  H        6.5003110000    -1.8650460000     1.3664290000
| 28>  H        4.9363400000    -2.4195520000     2.0425220000
| 29> *
| 30>
| 31>                          ****END OF INPUT****
 Total Charge           Charge          ....    0
 Multiplicity           Mult            ....    1
 Number of Electrons    NEL             ....   56
 Basis Dimension        Dim             ....  148

MULLIKEN ATOMIC CHARGES
-----------------------
   0 C :    0.008991
   1 C :    0.073738
   2 O :   -0.284177
   3 C :    0.014700
   4 C :   -0.062606
   5 C :    0.032284
   6 O :   -0.188123
   7 H :    0.029909
   8 H :    0.022575
   9 H :    0.004220
  10 H :    0.001603
  11 H :    0.147303
  12 H :    0.048598
  13 H :    0.016599
  14 H :    0.054239
  15 H :    0.039944
  16 H :    0.040201
Sum of atomic charges:   -0.0000000

LOEWDIN ATOMIC CHARGES
----------------------
   0 C :   -0.080922
   1 C :    0.043973
   2 O :   -0.118673
   3 C :   -0.085326
   4 C :    0.072361
   5 C :   -0.083994
   6 O :   -0.125327
   7 H :    0.032041
   8 H :    0.024795
   9 H :    0.023636
  10 H :    0.023013
  11 H :    0.045860
  12 H :    0.054293
  13 H :    0.036536
  14 H :    0.052936
  15 H :    0.040047
  16 H :    0.044751

  Mayer bond orders larger than 0.1
B(  0-C ,  1-C ) :   1.0772 B(  0-C ,  7-H ) :   0.9545 B(  0-C ,  8-H ) :   0.9544
B(  0-C ,  9-H ) :   0.9471 B(  1-C ,  2-O ) :   1.0614 B(  1-C ,  3-C ) :   1.0359
B(  1-C , 10-H ) :   0.9109 B(  2-O , 11-H ) :   0.9615 B(  3-C ,  4-C ) :   0.9630
B(  3-C , 12-H ) :   0.8825 B(  3-C , 13-H ) :   0.9149 B(  4-C ,  5-C ) :   1.0553
B(  4-C ,  6-O ) :   2.0871 B(  5-C , 14-H ) :   0.9349 B(  5-C , 15-H ) :   0.9452
B(  5-C , 16-H ) :   0.9410

FINAL SINGLE POINT ENERGY      -346.315757734905

DIPOLE MOMENT
-------------
                                X             Y             Z
Electronic contribution:      1.20244      -1.73206      -4.39859
Nuclear contribution   :     -1.13407       1.43671       5.69375
                        -----------------------------------------
Total Dipole Moment    :      0.06837      -0.29534       1.29516
                        -----------------------------------------
Magnitude (a.u.)       :      1.33016
Magnitude (Debye)      :      3.38100

                             ****ORCA TERMINATED NORMALLY****
TOTAL RUN TIME: 0 days 0 hours 0 minutes 7 seconds 530 msec
