                         Program Version 3.0.3 - RELEASE   -
|  1> ! RI PBE def2-SVP def2-SVP/J NBO PAL2
|  2> % maxcore 2000
|  3> % output
|  4>     # printlevel mini
|  5>     print[ P_Basis ] 0
|  6>     print[ P_SCFInfo ] 1
|  7>     print[ P_SCFIterInfo ] 1
|  8>     print[ P_OrbEn ] 0
|  9>     print[ P_Cartesian ] 0
| 10> end
| 11> *xyz 0 1
| 12>  C        1.0128140000    -0.0269890000     0.0069780000
| 13>  C        2.5253930000    -0.0631210000     0.1285790000
| 14>  O        3.0853180000    -1.0561790000    -0.7077000000
| 15>  C        3.1396760000     1.3091650000    -0.1246930000
| 16>  C        4.6583260000     1.3041620000    -0.1631500000
| 17>  C        5.2640220000     0.9340510000    -1.4823750000
| 18>  O        4.6500420000     0.6370620000    -2.4738340000
| 19>  H        0.5976960000    -1.0181320000     0.1958450000
| 20>  H        0.7174280000     0.2804300000    -1.0005210000
| 21>  H        0.5730600000     0.6755830000     0.7203630000
| 22>  H        2.7889730000    -0.3753880000     1.1473140000
| 23>  H        3.2006210000    -0.6798570000    -1.5886370000
| 24>  H        2.7943660000     1.9916280000     0.6567810000
| 25>  H        2.7598030000     1.7021910000    -1.0747600000
| 26>  H        5.0846260000     0.6231330000     0.5856580000
| 27>  H        5.0721630000     2.2904890000     0.0864050000
| 28>  H        6.3738730000     0.9688620000    -1.5085640000
| 29> *
| 30>
| 31>                          ****END OF INPUT****
 Total Charge           Charge          ....    0
 Multiplicity           Mult            ....    1
 Number of Electrons    NEL             ....   56
 Basis Dimension        Dim             ....  148

MULLIKEN ATOMIC CHARGES
-----------------------
   0 C :    0.046973
   1 C :    0.057397
   2 O :   -0.286846
   3 C :   -0.035107
   4 C :    0.021551
   5 C :    0.077368
   6 O :   -0.181313
   7 H :    0.024786
   8 H :    0.008311
   9 H :    0.006062
  10 H :   -0.007039
  11 H :    0.152755
  12 H :    0.013292
  13 H :    0.015127
  14 H :    0.045276
  15 H :    0.033824
  16 H :    0.007585
Sum of atomic charges:   -0.0000000

LOEWDIN ATOMIC CHARGES
----------------------
   0 C :   -0.074491
   1 C :    0.042925
   2 O :   -0.117736
   3 C :   -0.058100
   4 C :   -0.082195
   5 C :    0.101341
   6 O :   -0.116064
   7 H :    0.029712
   8 H :    0.023513
   9 H :    0.025504
  10 H :    0.015739
  11 H :    0.051688
  12 H :    0.033469
  13 H :    0.025731
  14 H :    0.053371
  15 H :    0.049393
  16 H :   -0.003798

  Mayer bond orders larger than 0.1
B(  0-C ,  1-C ) :   1.0881 B(  0-C ,  7-H ) :   0.9557 B(  0-C ,  8-H ) :   0.9533
B(  0-C ,  9-H ) :   0.9469 B(  1-C ,  2-O ) :   1.0699 B(  1-C ,  3-C ) :   1.0530
B(  1-C , 10-H ) :   0.9070 B(  2-O , 11-H ) :   0.9591 B(  3-C ,  4-C ) :   1.0721
B(  3-C , 12-H ) :   0.9158 B(  3-C , 13-H ) :   0.9259 B(  4-C ,  5-C ) :   0.9856
B(  4-C , 14-H ) :   0.8965 B(  4-C , 15-H ) :   0.9016 B(  5-C ,  6-O ) :   2.1067
B(  5-C , 16-H ) :   0.9281

FINAL SINGLE POINT ENERGY      -346.304575059240

DIPOLE MOMENT
-------------
                                X             Y             Z
Electronic contribution:      4.58559      -1.41657      -4.29559
Nuclear contribution   :     -4.33546       2.24492       4.94791
                        -----------------------------------------
Total Dipole Moment    :      0.25013       0.82835       0.65232
                        -----------------------------------------
Magnitude (a.u.)       :      1.08363
Magnitude (Debye)      :      2.75437

                             ****ORCA TERMINATED NORMALLY****
TOTAL RUN TIME: 0 days 0 hours 0 minutes 8 seconds 43 msec
