                         Program Version 3.0.3 - RELEASE   -
|  1> ! RI PBE def2-SVP def2-SVP/J NBO PAL2
|  2> % maxcore 2000
|  3> % output
|  4>     # printlevel mini
|  5>     print[ P_Basis ] 0
|  6>     print[ P_SCFInfo ] 1
|  7>     print[ P_SCFIterInfo ] 1
|  8>     print[ P_OrbEn ] 0
|  9>     print[ P_Cartesian ] 0
| 10> end
| 11> *xyz 0 1
| 12>  C        0.7110670000     0.7542210000     0.5202790000
| 13>  C        2.0269700000     0.6436740000    -0.2215230000
| 14>  O        2.0731760000    -0.4576810000    -1.1091310000
| 15>  C        2.3740170000    -1.6739560000    -0.6105480000
| 16>  C        2.6350420000    -2.0179520000     0.6458080000
| 17>  C        2.3094790000     1.8703550000    -1.0660170000
| 18>  O        2.1081000000     2.9905050000    -0.6940040000
| 19>  H        0.5580750000    -0.0994130000     1.1797570000
| 20>  H       -0.1158270000     0.7988020000    -0.1908690000
| 21>  H        0.7080440000     1.6708020000     1.1111550000
| 22>  H        2.8644500000     0.5714090000     0.4894570000
| 23>  H        2.3895670000    -2.4038120000    -1.4128570000
| 24>  H        2.6152900000    -1.3299130000     1.4799530000
| 25>  H        2.8810980000    -3.0493540000     0.8555900000
| 26>  H        2.7425410000     1.6467230000    -2.0635500000
| 27> *
| 28>
| 29>                          ****END OF INPUT****
 Total Charge           Charge          ....    0
 Multiplicity           Mult            ....    1
 Number of Electrons    NEL             ....   54
 Basis Dimension        Dim             ....  138

MULLIKEN ATOMIC CHARGES
-----------------------
   0 C :    0.019843
   1 C :    0.037084
   2 O :   -0.259420
   3 C :    0.107633
   4 C :   -0.114709
   5 C :    0.108776
   6 O :   -0.151393
   7 H :    0.034511
   8 H :    0.032782
   9 H :    0.046278
  10 H :    0.050679
  11 H :    0.021396
  12 H :    0.032450
  13 H :    0.030715
  14 H :    0.003377
Sum of atomic charges:    0.0000000

LOEWDIN ATOMIC CHARGES
----------------------
   0 C :   -0.060624
   1 C :    0.010964
   2 O :   -0.062354
   3 C :    0.036623
   4 C :   -0.152535
   5 C :    0.095524
   6 O :   -0.093048
   7 H :    0.033398
   8 H :    0.035891
   9 H :    0.040513
  10 H :    0.037358
  11 H :    0.026914
  12 H :    0.022482
  13 H :    0.035154
  14 H :   -0.006261

  Mayer bond orders larger than 0.1
B(  0-C ,  1-C ) :   1.0921 B(  0-C ,  7-H ) :   0.9540 B(  0-C ,  8-H ) :   0.9544
B(  0-C ,  9-H ) :   0.9457 B(  1-C ,  2-O ) :   0.9404 B(  1-C ,  5-C ) :   0.8964
B(  1-C , 10-H ) :   0.8835 B(  2-O ,  3-C ) :   1.1447 B(  2-O ,  4-C ) :   0.1001
B(  3-C ,  4-C ) :   1.8654 B(  3-C , 11-H ) :   0.9645 B(  4-C , 12-H ) :   0.9504
B(  4-C , 13-H ) :   0.9373 B(  5-C ,  6-O ) :   2.1941 B(  5-C , 14-H ) :   0.9291

FINAL SINGLE POINT ENERGY      -345.071939931727

DIPOLE MOMENT
-------------
                                X             Y             Z
Electronic contribution:      1.46422       3.87337      -3.87372
Nuclear contribution   :     -1.43669      -4.52194       4.05540
                        -----------------------------------------
Total Dipole Moment    :      0.02753      -0.64857       0.18168
                        -----------------------------------------
Magnitude (a.u.)       :      0.67410
Magnitude (Debye)      :      1.71343

                             ****ORCA TERMINATED NORMALLY****
TOTAL RUN TIME: 0 days 0 hours 0 minutes 6 seconds 946 msec
