                         Program Version 3.0.3 - RELEASE   -
|  1> ! RI PBE def2-SVP def2-SVP/J NBO PAL2
|  2> % maxcore 2000
|  3> % output
|  4>     # printlevel mini
|  5>     print[ P_Basis ] 0
|  6>     print[ P_SCFInfo ] 1
|  7>     print[ P_SCFIterInfo ] 1
|  8>     print[ P_OrbEn ] 0
|  9>     print[ P_Cartesian ] 0
| 10> end
| 11> *xyz 0 1
| 12>  C        0.8249170000     1.2832350000     2.0653860000
| 13>  C        2.2529970000     1.7277140000     2.2421340000
| 14>  O        2.9729660000     1.3811950000     1.0719570000
| 15>  C        4.2774320000     1.6922780000     1.0409880000
| 16>  C        5.0139910000     2.2897910000     1.9792980000
| 17>  C        6.4620140000     2.5669860000     1.7641400000
| 18>  O        6.7626940000     3.9535090000     1.7649460000
| 19>  H        0.2423780000     1.5384200000     2.9530030000
| 20>  H        0.7710440000     0.2033420000     1.9166750000
| 21>  H        0.3706110000     1.7733290000     1.2024600000
| 22>  H        2.7163730000     1.2401280000     3.1089850000
| 23>  H        2.3148160000     2.8121980000     2.3970150000
| 24>  H        4.7203230000     1.3766950000     0.1001390000
| 25>  H        4.5839170000     2.6151370000     2.9200210000
| 26>  H        6.7957390000     2.0916590000     0.8306630000
| 27>  H        7.0643930000     2.1471280000     2.5745320000
| 28>  H        6.1536930000     4.3770650000     1.1535460000
| 29> *
| 30>
| 31>                          ****END OF INPUT****
 Total Charge           Charge          ....    0
 Multiplicity           Mult            ....    1
 Number of Electrons    NEL             ....   56
 Basis Dimension        Dim             ....  148

MULLIKEN ATOMIC CHARGES
-----------------------
   0 C :   -0.016868
   1 C :    0.098677
   2 O :   -0.259609
   3 C :    0.130672
   4 C :   -0.208964
   5 C :    0.248553
   6 O :   -0.293940
   7 H :    0.027600
   8 H :    0.038868
   9 H :    0.036181
  10 H :    0.020935
  11 H :    0.022897
  12 H :    0.005748
  13 H :    0.004641
  14 H :   -0.010149
  15 H :    0.011934
  16 H :    0.142826
Sum of atomic charges:    0.0000000

LOEWDIN ATOMIC CHARGES
----------------------
   0 C :   -0.073224
   1 C :    0.067158
   2 O :   -0.064415
   3 C :    0.025908
   4 C :   -0.150620
   5 C :    0.058512
   6 O :   -0.129805
   7 H :    0.035924
   8 H :    0.033586
   9 H :    0.032992
  10 H :    0.015263
  11 H :    0.015022
  12 H :    0.020797
  13 H :    0.023062
  14 H :    0.004880
  15 H :    0.024374
  16 H :    0.060585

  Mayer bond orders larger than 0.1
B(  0-C ,  1-C ) :   1.1141 B(  0-C ,  7-H ) :   0.9534 B(  0-C ,  8-H ) :   0.9626
B(  0-C ,  9-H ) :   0.9615 B(  1-C ,  2-O ) :   0.9666 B(  1-C , 10-H ) :   0.9360
B(  1-C , 11-H ) :   0.9381 B(  2-O ,  3-C ) :   1.1696 B(  3-C ,  4-C ) :   1.7288
B(  3-C , 12-H ) :   0.9650 B(  4-C ,  5-C ) :   1.0681 B(  4-C , 13-H ) :   0.9573
B(  5-C ,  6-O ) :   1.0354 B(  5-C , 14-H ) :   0.9336 B(  5-C , 15-H ) :   0.9179
B(  6-O , 16-H ) :   0.9850

FINAL SINGLE POINT ENERGY      -346.273240059090

DIPOLE MOMENT
-------------
                                X             Y             Z
Electronic contribution:      4.05110       1.13061      -1.99201
Nuclear contribution   :     -4.84634      -1.31299       1.99000
                        -----------------------------------------
Total Dipole Moment    :     -0.79523      -0.18238      -0.00201
                        -----------------------------------------
Magnitude (a.u.)       :      0.81588
Magnitude (Debye)      :      2.07381

                             ****ORCA TERMINATED NORMALLY****
TOTAL RUN TIME: 0 days 0 hours 0 minutes 7 seconds 151 msec
