                         Program Version 3.0.3 - RELEASE   -
|  1> ! RI PBE def2-SVP def2-SVP/J NBO PAL2
|  2> % maxcore 2000
|  3> % output
|  4>     # printlevel mini
|  5>     print[ P_Basis ] 0
|  6>     print[ P_SCFInfo ] 1
|  7>     print[ P_SCFIterInfo ] 1
|  8>     print[ P_OrbEn ] 0
|  9>     print[ P_Cartesian ] 0
| 10> end
| 11> *xyz 0 1
| 12>  C        1.3650410000     0.6757860000     0.4450740000
| 13>  C        2.6290950000     0.2261280000    -0.2357910000
| 14>  O        3.5188830000    -0.2688280000     0.7633070000
| 15>  C        4.6994830000    -0.7175160000     0.3660090000
| 16>  C        5.1994930000    -0.7775000000    -0.8795560000
| 17>  C        6.5330420000    -1.3160690000    -1.0652310000
| 18>  O        7.0955580000    -1.4242670000    -2.1292580000
| 19>  H        0.6633840000     1.0606120000    -0.2975480000
| 20>  H        1.5723280000     1.4686060000     1.1656790000
| 21>  H        0.8894660000    -0.1544460000     0.9698070000
| 22>  H        3.1165020000     1.0528160000    -0.7643580000
| 23>  H        2.4329420000    -0.5718460000    -0.9604450000
| 24>  H        5.2879160000    -1.0670340000     1.2108260000
| 25>  H        4.6626770000    -0.4455270000    -1.7589650000
| 26>  H        7.0357920000    -1.6409160000    -0.1261520000
| 27> *
| 28>
| 29>                          ****END OF INPUT****
 Total Charge           Charge          ....    0
 Multiplicity           Mult            ....    1
 Number of Electrons    NEL             ....   54
 Basis Dimension        Dim             ....  138

MULLIKEN ATOMIC CHARGES
-----------------------
   0 C :   -0.020935
   1 C :    0.083755
   2 O :   -0.231710
   3 C :    0.146249
   4 C :   -0.101444
   5 C :    0.112856
   6 O :   -0.188313
   7 H :    0.035385
   8 H :    0.044761
   9 H :    0.042390
  10 H :    0.036956
  11 H :    0.040609
  12 H :    0.024516
  13 H :    0.013078
  14 H :   -0.038153
Sum of atomic charges:   -0.0000000

LOEWDIN ATOMIC CHARGES
----------------------
   0 C :   -0.072343
   1 C :    0.071748
   2 O :   -0.033248
   3 C :    0.066949
   4 C :   -0.153635
   5 C :    0.059941
   6 O :   -0.139051
   7 H :    0.040266
   8 H :    0.035927
   9 H :    0.035783
  10 H :    0.022444
  11 H :    0.022915
  12 H :    0.027622
  13 H :    0.033413
  14 H :   -0.018731

  Mayer bond orders larger than 0.1
B(  0-C ,  1-C ) :   1.1204 B(  0-C ,  7-H ) :   0.9513 B(  0-C ,  8-H ) :   0.9622
B(  0-C ,  9-H ) :   0.9610 B(  1-C ,  2-O ) :   0.9377 B(  1-C , 10-H ) :   0.9404
B(  1-C , 11-H ) :   0.9415 B(  2-O ,  3-C ) :   1.2295 B(  3-C ,  4-C ) :   1.5785
B(  3-C , 12-H ) :   0.9636 B(  4-C ,  5-C ) :   1.0610 B(  4-C , 13-H ) :   0.9631
B(  5-C ,  6-O ) :   2.0948 B(  5-C , 14-H ) :   0.9311

FINAL SINGLE POINT ENERGY      -345.090025349603

DIPOLE MOMENT
-------------
                                X             Y             Z
Electronic contribution:      7.51756      -2.96847      -1.61244
Nuclear contribution   :     -8.96084       3.48273       2.37865
                        -----------------------------------------
Total Dipole Moment    :     -1.44328       0.51426       0.76621
                        -----------------------------------------
Magnitude (a.u.)       :      1.71307
Magnitude (Debye)      :      4.35428

                             ****ORCA TERMINATED NORMALLY****
TOTAL RUN TIME: 0 days 0 hours 0 minutes 6 seconds 710 msec
