                         Program Version 3.0.3 - RELEASE   -
|  1> ! RI PBE def2-SVP def2-SVP/J NBO PAL2
|  2> % maxcore 2000
|  3> % output
|  4>     # printlevel mini
|  5>     print[ P_Basis ] 0
|  6>     print[ P_SCFInfo ] 1
|  7>     print[ P_SCFIterInfo ] 1
|  8>     print[ P_OrbEn ] 0
|  9>     print[ P_Cartesian ] 0
| 10> end
| 11> *xyz 0 1
| 12>  C        1.0739040000     0.3260030000    -1.1150390000
| 13>  C        2.4745960000     0.1426490000    -0.5923440000
| 14>  O        3.2506510000    -0.4719410000    -1.6042910000
| 15>  C        4.5629260000    -0.6852070000    -1.3531970000
| 16>  C        5.2002660000    -0.4165590000    -0.2154490000
| 17>  C        5.2081140000    -1.2983390000    -2.5584680000
| 18>  O        5.0143910000    -0.5327650000    -3.7260670000
| 19>  H        0.4498300000     0.7932890000    -0.3505680000
| 20>  H        0.6293590000    -0.6346970000    -1.3811720000
| 21>  H        1.0689870000     0.9665720000    -1.9990230000
| 22>  H        2.4816870000    -0.4915450000     0.3027350000
| 23>  H        2.9278310000     1.1048280000    -0.3244000000
| 24>  H        4.7126890000    -0.0094500000     0.6590830000
| 25>  H        6.2604870000    -0.6166140000    -0.1495410000
| 26>  H        4.8086650000    -2.3153670000    -2.6900520000
| 27>  H        6.2830310000    -1.3761010000    -2.3969870000
| 28>  H        4.0718960000    -0.3516440000    -3.7904220000
| 29> *
| 30>
| 31>                          ****END OF INPUT****
 Total Charge           Charge          ....    0
 Multiplicity           Mult            ....    1
 Number of Electrons    NEL             ....   56
 Basis Dimension        Dim             ....  148

MULLIKEN ATOMIC CHARGES
-----------------------
   0 C :   -0.025532
   1 C :    0.110170
   2 O :   -0.287861
   3 C :   -0.022873
   4 C :   -0.099547
   5 C :    0.269204
   6 O :   -0.289120
   7 H :    0.031271
   8 H :    0.035869
   9 H :    0.034916
  10 H :    0.024543
  11 H :    0.025157
  12 H :    0.012919
  13 H :    0.015432
  14 H :    0.007930
  15 H :    0.004816
  16 H :    0.152707
Sum of atomic charges:   -0.0000000

LOEWDIN ATOMIC CHARGES
----------------------
   0 C :   -0.073818
   1 C :    0.068372
   2 O :   -0.075705
   3 C :    0.004590
   4 C :   -0.148512
   5 C :    0.055300
   6 O :   -0.118658
   7 H :    0.037292
   8 H :    0.032530
   9 H :    0.031878
  10 H :    0.016075
  11 H :    0.017147
  12 H :    0.020208
  13 H :    0.029976
  14 H :    0.014117
  15 H :    0.028324
  16 H :    0.060883

  Mayer bond orders larger than 0.1
B(  0-C ,  1-C ) :   1.1206 B(  0-C ,  7-H ) :   0.9528 B(  0-C ,  8-H ) :   0.9615
B(  0-C ,  9-H ) :   0.9624 B(  1-C ,  2-O ) :   0.9589 B(  1-C , 10-H ) :   0.9378
B(  1-C , 11-H ) :   0.9362 B(  2-O ,  3-C ) :   1.1291 B(  3-C ,  4-C ) :   1.8475
B(  3-C ,  5-C ) :   1.0271 B(  4-C , 12-H ) :   0.9387 B(  4-C , 13-H ) :   0.9200
B(  5-C ,  6-O ) :   1.0615 B(  5-C , 14-H ) :   0.9052 B(  5-C , 15-H ) :   0.9291
B(  6-O , 16-H ) :   0.9773

FINAL SINGLE POINT ENERGY      -346.275561365462

DIPOLE MOMENT
-------------
                                X             Y             Z
Electronic contribution:      3.32504      -1.08789      -3.40788
Nuclear contribution   :     -4.07858       1.12674       3.99191
                        -----------------------------------------
Total Dipole Moment    :     -0.75354       0.03886       0.58403
                        -----------------------------------------
Magnitude (a.u.)       :      0.95416
Magnitude (Debye)      :      2.42529

                             ****ORCA TERMINATED NORMALLY****
TOTAL RUN TIME: 0 days 0 hours 0 minutes 7 seconds 587 msec
