                         Program Version 3.0.3 - RELEASE   -
|  1> ! RI PBE def2-SVP def2-SVP/J NBO PAL2
|  2> % maxcore 2000
|  3> % output
|  4>     # printlevel mini
|  5>     print[ P_Basis ] 0
|  6>     print[ P_SCFInfo ] 1
|  7>     print[ P_SCFIterInfo ] 1
|  8>     print[ P_OrbEn ] 0
|  9>     print[ P_Cartesian ] 0
| 10> end
| 11> *xyz 0 1
| 12>  C        2.4337130000    -0.8474080000     0.1769480000
| 13>  C        3.4311800000    -0.6794140000    -0.9383870000
| 14>  O        4.6618930000    -1.2436940000    -0.5249970000
| 15>  C        5.6861630000    -1.1884350000    -1.3984620000
| 16>  C        5.6941750000    -0.6626500000    -2.6238330000
| 17>  C        6.9005950000    -1.8211110000    -0.8146610000
| 18>  O        7.9582650000    -1.9110120000    -1.3757070000
| 19>  H        1.4728730000    -0.4196360000    -0.1161950000
| 20>  H        2.7745570000    -0.3407180000     1.0814890000
| 21>  H        2.2843260000    -1.9036100000     0.4076560000
| 22>  H        3.5841530000     0.3804810000    -1.1790410000
| 23>  H        3.0936540000    -1.1832260000    -1.8532330000
| 24>  H        4.8349770000    -0.1953450000    -3.0825440000
| 25>  H        6.6204390000    -0.7134250000    -3.1800470000
| 26>  H        6.7454470000    -2.2145190000     0.2107120000
| 27> *
| 28>
| 29>                          ****END OF INPUT****
 Total Charge           Charge          ....    0
 Multiplicity           Mult            ....    1
 Number of Electrons    NEL             ....   54
 Basis Dimension        Dim             ....  138

MULLIKEN ATOMIC CHARGES
-----------------------
   0 C :   -0.010974
   1 C :    0.100499
   2 O :   -0.263365
   3 C :    0.040351
   4 C :   -0.075094
   5 C :    0.143147
   6 O :   -0.144366
   7 H :    0.026550
   8 H :    0.037800
   9 H :    0.037363
  10 H :    0.028040
  11 H :    0.023720
  12 H :    0.030216
  13 H :    0.040431
  14 H :   -0.014318
Sum of atomic charges:   -0.0000000

LOEWDIN ATOMIC CHARGES
----------------------
   0 C :   -0.069736
   1 C :    0.067921
   2 O :   -0.062817
   3 C :   -0.031674
   4 C :   -0.085683
   5 C :    0.083859
   6 O :   -0.098522
   7 H :    0.036770
   8 H :    0.033965
   9 H :    0.033784
  10 H :    0.017498
  11 H :    0.016729
  12 H :    0.026616
  13 H :    0.039030
  14 H :   -0.007740

  Mayer bond orders larger than 0.1
B(  0-C ,  1-C ) :   1.1202 B(  0-C ,  7-H ) :   0.9521 B(  0-C ,  8-H ) :   0.9630
B(  0-C ,  9-H ) :   0.9633 B(  1-C ,  2-O ) :   0.9569 B(  1-C , 10-H ) :   0.9359
B(  1-C , 11-H ) :   0.9353 B(  2-O ,  3-C ) :   1.1507 B(  2-O ,  4-C ) :   0.1058
B(  3-C ,  4-C ) :   1.8031 B(  3-C ,  5-C ) :   0.9457 B(  4-C , 12-H ) :   0.9377
B(  4-C , 13-H ) :   0.9089 B(  5-C ,  6-O ) :   2.1807 B(  5-C , 14-H ) :   0.9172

FINAL SINGLE POINT ENERGY      -345.081580844205

DIPOLE MOMENT
-------------
                                X             Y             Z
Electronic contribution:      8.42131      -2.39091      -0.57759
Nuclear contribution   :     -9.75097       2.76909       0.67187
                        -----------------------------------------
Total Dipole Moment    :     -1.32966       0.37818       0.09428
                        -----------------------------------------
Magnitude (a.u.)       :      1.38561
Magnitude (Debye)      :      3.52193

                             ****ORCA TERMINATED NORMALLY****
TOTAL RUN TIME: 0 days 0 hours 0 minutes 6 seconds 978 msec
