                         Program Version 3.0.3 - RELEASE   -
|  1> ! RI PBE def2-SVP def2-SVP/J NBO PAL2
|  2> % maxcore 2000
|  3> % output
|  4>     # printlevel mini
|  5>     print[ P_Basis ] 0
|  6>     print[ P_SCFInfo ] 1
|  7>     print[ P_SCFIterInfo ] 1
|  8>     print[ P_OrbEn ] 0
|  9>     print[ P_Cartesian ] 0
| 10> end
| 11> *xyz 0 1
| 12>  C        1.2093210000    -0.5312690000     1.1169620000
| 13>  C        2.6145000000    -0.2050060000     0.6778450000
| 14>  O        3.4481770000    -1.2996310000     0.9814300000
| 15>  C        4.7857230000    -1.1794230000     0.5257780000
| 16>  C        5.6217010000    -0.2783180000     1.4133710000
| 17>  C        5.3274590000    -2.5949320000     0.4881910000
| 18>  O        4.5515420000    -3.4323750000    -0.3293780000
| 19>  H        0.5406100000     0.3036390000     0.8966910000
| 20>  H        1.1770280000    -0.7245350000     2.1909010000
| 21>  H        0.8367220000    -1.4165660000     0.5976030000
| 22>  H        2.9676480000     0.7016570000     1.1877890000
| 23>  H        2.6463950000    -0.0049920000    -0.4036550000
| 24>  H        4.7717570000    -0.7887110000    -0.5035290000
| 25>  H        5.6334760000    -0.6584550000     2.4376940000
| 26>  H        5.2352440000     0.7420750000     1.4312890000
| 27>  H        6.6508310000    -0.2335320000     1.0484170000
| 28>  H        5.3788680000    -2.9792580000     1.5181760000
| 29>  H        6.3410410000    -2.5896820000     0.0803320000
| 30>  H        3.6379660000    -3.2891960000    -0.0587180000
| 31> *
| 32>
| 33>                          ****END OF INPUT****
 Total Charge           Charge          ....    0
 Multiplicity           Mult            ....    1
 Number of Electrons    NEL             ....   58
 Basis Dimension        Dim             ....  158

MULLIKEN ATOMIC CHARGES
-----------------------
   0 C :   -0.035087
   1 C :    0.147008
   2 O :   -0.361341
   3 C :    0.006087
   4 C :    0.014980
   5 C :    0.219820
   6 O :   -0.285520
   7 H :    0.026766
   8 H :    0.035450
   9 H :    0.028158
  10 H :   -0.001380
  11 H :    0.000598
  12 H :   -0.007346
  13 H :    0.025143
  14 H :    0.020178
  15 H :    0.020427
  16 H :   -0.005335
  17 H :    0.004570
  18 H :    0.146823
Sum of atomic charges:   -0.0000000

LOEWDIN ATOMIC CHARGES
----------------------
   0 C :   -0.075859
   1 C :    0.059871
   2 O :   -0.147516
   3 C :    0.024374
   4 C :   -0.072279
   5 C :    0.048250
   6 O :   -0.121516
   7 H :    0.034103
   8 H :    0.031667
   9 H :    0.028515
  10 H :    0.004472
  11 H :    0.006445
  12 H :    0.006974
  13 H :    0.029446
  14 H :    0.026198
  15 H :    0.032880
  16 H :    0.005276
  17 H :    0.022192
  18 H :    0.056508

  Mayer bond orders larger than 0.1
B(  0-C ,  1-C ) :   1.1249 B(  0-C ,  7-H ) :   0.9540 B(  0-C ,  8-H ) :   0.9629
B(  0-C ,  9-H ) :   0.9629 B(  1-C ,  2-O ) :   0.9937 B(  1-C , 10-H ) :   0.9298
B(  1-C , 11-H ) :   0.9315 B(  2-O ,  3-C ) :   0.9807 B(  3-C ,  4-C ) :   1.0865
B(  3-C ,  5-C ) :   1.0364 B(  3-C , 12-H ) :   0.9029 B(  4-C , 13-H ) :   0.9501
B(  4-C , 14-H ) :   0.9478 B(  4-C , 15-H ) :   0.9503 B(  5-C ,  6-O ) :   1.0843
B(  5-C , 16-H ) :   0.9217 B(  5-C , 17-H ) :   0.9305 B(  6-O , 18-H ) :   0.9710

FINAL SINGLE POINT ENERGY      -347.491149224189

DIPOLE MOMENT
-------------
                                X             Y             Z
Electronic contribution:      1.05155      -4.48619      -1.78732
Nuclear contribution   :     -1.23412       5.30278       2.02272
                        -----------------------------------------
Total Dipole Moment    :     -0.18257       0.81659       0.23540
                        -----------------------------------------
Magnitude (a.u.)       :      0.86923
Magnitude (Debye)      :      2.20941

                             ****ORCA TERMINATED NORMALLY****
TOTAL RUN TIME: 0 days 0 hours 0 minutes 8 seconds 167 msec
