                         Program Version 3.0.3 - RELEASE   -
|  1> ! RI PBE def2-SVP def2-SVP/J NBO PAL2
|  2> % maxcore 2000
|  3> % output
|  4>     # printlevel mini
|  5>     print[ P_Basis ] 0
|  6>     print[ P_SCFInfo ] 1
|  7>     print[ P_SCFIterInfo ] 1
|  8>     print[ P_OrbEn ] 0
|  9>     print[ P_Cartesian ] 0
| 10> end
| 11> *xyz 0 1
| 12>  C        0.9190280000     2.0150820000    -0.0329180000
| 13>  C        2.3315110000     2.0239810000     0.4906950000
| 14>  O        3.1886780000     1.5115640000    -0.5091520000
| 15>  C        4.5377440000     1.4829120000    -0.1231670000
| 16>  C        5.3047770000     0.6526600000    -1.1355770000
| 17>  C        5.1213340000     2.8832590000    -0.1033930000
| 18>  O        6.0329750000     3.2300930000     0.5929270000
| 19>  H        0.2323520000     2.3973090000     0.7252410000
| 20>  H        0.6142100000     1.0004380000    -0.2959140000
| 21>  H        0.8336600000     2.6406730000    -0.9233390000
| 22>  H        2.4157400000     1.4072890000     1.3977130000
| 23>  H        2.6319480000     3.0458580000     0.7677920000
| 24>  H        4.6528360000     1.0524190000     0.8822720000
| 25>  H        5.2244280000     1.0941000000    -2.1317170000
| 26>  H        4.8867400000    -0.3542760000    -1.1725810000
| 27>  H        6.3580390000     0.5939740000    -0.8579270000
| 28>  H        4.6469110000     3.5755940000    -0.8363650000
| 29> *
| 30>
| 31>                          ****END OF INPUT****
 Total Charge           Charge          ....    0
 Multiplicity           Mult            ....    1
 Number of Electrons    NEL             ....   56
 Basis Dimension        Dim             ....  148

MULLIKEN ATOMIC CHARGES
-----------------------
   0 C :   -0.021611
   1 C :    0.127464
   2 O :   -0.334146
   3 C :    0.067338
   4 C :    0.029838
   5 C :    0.074457
   6 O :   -0.150499
   7 H :    0.027359
   8 H :    0.033475
   9 H :    0.032461
  10 H :    0.002239
  11 H :    0.004373
  12 H :    0.003881
  13 H :    0.029282
  14 H :    0.040892
  15 H :    0.036833
  16 H :   -0.003635
Sum of atomic charges:   -0.0000000

LOEWDIN ATOMIC CHARGES
----------------------
   0 C :   -0.073008
   1 C :    0.059082
   2 O :   -0.138281
   3 C :    0.005107
   4 C :   -0.053778
   5 C :    0.077288
   6 O :   -0.099872
   7 H :    0.034963
   8 H :    0.031664
   9 H :    0.031554
  10 H :    0.008059
  11 H :    0.005196
  12 H :    0.016034
  13 H :    0.032594
  14 H :    0.036815
  15 H :    0.038228
  16 H :   -0.011646

  Mayer bond orders larger than 0.1
B(  0-C ,  1-C ) :   1.1246 B(  0-C ,  7-H ) :   0.9527 B(  0-C ,  8-H ) :   0.9625
B(  0-C ,  9-H ) :   0.9631 B(  1-C ,  2-O ) :   0.9946 B(  1-C , 10-H ) :   0.9287
B(  1-C , 11-H ) :   0.9310 B(  2-O ,  3-C ) :   1.0128 B(  3-C ,  4-C ) :   1.0707
B(  3-C ,  5-C ) :   0.9183 B(  3-C , 12-H ) :   0.8973 B(  4-C , 13-H ) :   0.9539
B(  4-C , 14-H ) :   0.9534 B(  4-C , 15-H ) :   0.9511 B(  5-C ,  6-O ) :   2.1839
B(  5-C , 16-H ) :   0.9068

FINAL SINGLE POINT ENERGY      -346.288621419920

DIPOLE MOMENT
-------------
                                X             Y             Z
Electronic contribution:      5.54191       2.68378       1.08589
Nuclear contribution   :     -6.14903      -3.03765      -1.18792
                        -----------------------------------------
Total Dipole Moment    :     -0.60713      -0.35388      -0.10203
                        -----------------------------------------
Magnitude (a.u.)       :      0.71010
Magnitude (Debye)      :      1.80493

                             ****ORCA TERMINATED NORMALLY****
TOTAL RUN TIME: 0 days 0 hours 0 minutes 7 seconds 790 msec
