                         Program Version 3.0.3 - RELEASE   -
|  1> ! RI PBE def2-SVP def2-SVP/J NBO PAL2
|  2> % maxcore 2000
|  3> % output
|  4>     # printlevel mini
|  5>     print[ P_Basis ] 0
|  6>     print[ P_SCFInfo ] 1
|  7>     print[ P_SCFIterInfo ] 1
|  8>     print[ P_OrbEn ] 0
|  9>     print[ P_Cartesian ] 0
| 10> end
| 11> *xyz 0 1
| 12>  C        0.9527890000    -1.2983570000     0.8470790000
| 13>  C        2.3931860000    -0.9620420000     0.5574170000
| 14>  O        3.2169860000    -1.9720520000     1.0883060000
| 15>  C        4.5866720000    -1.7518100000     0.8564450000
| 16>  C        5.3501800000    -2.9584830000     1.3689190000
| 17>  C        5.2372780000    -3.1258530000     2.8742080000
| 18>  O        4.9290020000    -4.1219090000     0.6847000000
| 19>  H        0.2961500000    -0.5220170000     0.4486310000
| 20>  H        0.7833510000    -1.3742340000     1.9228610000
| 21>  H        0.6776000000    -2.2498050000     0.3875500000
| 22>  H        2.6608340000     0.0073830000     1.0046210000
| 23>  H        2.5619570000    -0.8760350000    -0.5267370000
| 24>  H        4.9242890000    -0.8362360000     1.3654250000
| 25>  H        4.7721050000    -1.6343680000    -0.2210570000
| 26>  H        6.4022640000    -2.8209220000     1.0979620000
| 27>  H        4.1913790000    -3.2293820000     3.1709850000
| 28>  H        5.6567730000    -2.2628560000     3.3984240000
| 29>  H        5.7787980000    -4.0192950000     3.1883550000
| 30>  H        3.9667980000    -4.1314280000     0.7320860000
| 31> *
| 32>
| 33>                          ****END OF INPUT****
 Total Charge           Charge          ....    0
 Multiplicity           Mult            ....    1
 Number of Electrons    NEL             ....   58
 Basis Dimension        Dim             ....  158

MULLIKEN ATOMIC CHARGES
-----------------------
   0 C :   -0.024277
   1 C :    0.135396
   2 O :   -0.364854
   3 C :    0.169443
   4 C :    0.077962
   5 C :    0.015347
   6 O :   -0.284468
   7 H :    0.025143
   8 H :    0.034262
   9 H :    0.028262
  10 H :   -0.004113
  11 H :    0.003317
  12 H :   -0.010055
  13 H :    0.000559
  14 H :    0.001108
  15 H :    0.016399
  16 H :    0.005462
  17 H :    0.026429
  18 H :    0.148677
Sum of atomic charges:    0.0000000

LOEWDIN ATOMIC CHARGES
----------------------
   0 C :   -0.074430
   1 C :    0.059090
   2 O :   -0.150648
   3 C :    0.047706
   4 C :    0.030069
   5 C :   -0.077090
   6 O :   -0.114679
   7 H :    0.034390
   8 H :    0.030982
   9 H :    0.029600
  10 H :    0.005443
  11 H :    0.006220
  12 H :    0.005544
  13 H :    0.006953
  14 H :    0.024045
  15 H :    0.024050
  16 H :    0.025522
  17 H :    0.029092
  18 H :    0.058143

  Mayer bond orders larger than 0.1
B(  0-C ,  1-C ) :   1.1203 B(  0-C ,  7-H ) :   0.9527 B(  0-C ,  8-H ) :   0.9656
B(  0-C ,  9-H ) :   0.9631 B(  1-C ,  2-O ) :   0.9969 B(  1-C , 10-H ) :   0.9308
B(  1-C , 11-H ) :   0.9336 B(  2-O ,  3-C ) :   0.9961 B(  3-C ,  4-C ) :   1.0440
B(  3-C , 12-H ) :   0.9201 B(  3-C , 13-H ) :   0.9219 B(  4-C ,  5-C ) :   1.0756
B(  4-C ,  6-O ) :   1.0422 B(  4-C , 14-H ) :   0.9048 B(  5-C , 15-H ) :   0.9558
B(  5-C , 16-H ) :   0.9480 B(  5-C , 17-H ) :   0.9589 B(  6-O , 18-H ) :   0.9767

FINAL SINGLE POINT ENERGY      -347.491855855892

DIPOLE MOMENT
-------------
                                X             Y             Z
Electronic contribution:      2.36721      -3.01367      -1.69686
Nuclear contribution   :     -2.74081       3.76770       1.72242
                        -----------------------------------------
Total Dipole Moment    :     -0.37360       0.75403       0.02557
                        -----------------------------------------
Magnitude (a.u.)       :      0.84190
Magnitude (Debye)      :      2.13994

                             ****ORCA TERMINATED NORMALLY****
TOTAL RUN TIME: 0 days 0 hours 0 minutes 8 seconds 56 msec
