                         Program Version 3.0.3 - RELEASE   -
|  1> ! RI PBE def2-SVP def2-SVP/J NBO PAL2
|  2> % maxcore 2000
|  3> % output
|  4>     # printlevel mini
|  5>     print[ P_Basis ] 0
|  6>     print[ P_SCFInfo ] 1
|  7>     print[ P_SCFIterInfo ] 1
|  8>     print[ P_OrbEn ] 0
|  9>     print[ P_Cartesian ] 0
| 10> end
| 11> *xyz 0 1
| 12>  C        1.2773300000     0.2633280000     0.5424450000
| 13>  C        2.7600640000     0.5301700000     0.5623010000
| 14>  O        3.0572560000     1.3879330000     1.6404510000
| 15>  C        4.4184690000     1.6874350000     1.7321950000
| 16>  C        4.7197470000     2.6119100000     2.8965450000
| 17>  C        3.5757560000     3.0601280000     3.7529230000
| 18>  O        5.8608770000     2.9500180000     3.0892240000
| 19>  H        1.0245880000    -0.4004330000    -0.2870040000
| 20>  H        0.7194030000     1.1937910000     0.4213280000
| 21>  H        0.9580630000    -0.2106880000     1.4725450000
| 22>  H        3.0841160000     0.9947870000    -0.3813860000
| 23>  H        3.3227660000    -0.4096000000     0.6701070000
| 24>  H        4.7876740000     2.1797060000     0.8192550000
| 25>  H        5.0250360000     0.7790230000     1.8699620000
| 26>  H        2.8315740000     3.5759340000     3.1408110000
| 27>  H        3.9446170000     3.7133450000     4.5411400000
| 28>  H        3.0656650000     2.1920210000     4.1780380000
| 29> *
| 30>
| 31>                          ****END OF INPUT****
 Total Charge           Charge          ....    0
 Multiplicity           Mult            ....    1
 Number of Electrons    NEL             ....   56
 Basis Dimension        Dim             ....  148

MULLIKEN ATOMIC CHARGES
-----------------------
   0 C :   -0.024481
   1 C :    0.139943
   2 O :   -0.348477
   3 C :    0.200178
   4 C :   -0.100473
   5 C :    0.044534
   6 O :   -0.174370
   7 H :    0.025109
   8 H :    0.033516
   9 H :    0.033493
  10 H :   -0.003710
  11 H :    0.000184
  12 H :    0.021607
  13 H :    0.024916
  14 H :    0.046876
  15 H :    0.036308
  16 H :    0.044846
Sum of atomic charges:   -0.0000000

LOEWDIN ATOMIC CHARGES
----------------------
   0 C :   -0.074200
   1 C :    0.060943
   2 O :   -0.147814
   3 C :    0.028956
   4 C :    0.048279
   5 C :   -0.088524
   6 O :   -0.124592
   7 H :    0.034479
   8 H :    0.031273
   9 H :    0.031078
  10 H :    0.005316
  11 H :    0.006237
  12 H :    0.025412
  13 H :    0.026268
  14 H :    0.049870
  15 H :    0.036963
  16 H :    0.050057

  Mayer bond orders larger than 0.1
B(  0-C ,  1-C ) :   1.1189 B(  0-C ,  7-H ) :   0.9533 B(  0-C ,  8-H ) :   0.9634
B(  0-C ,  9-H ) :   0.9648 B(  1-C ,  2-O ) :   0.9886 B(  1-C , 10-H ) :   0.9324
B(  1-C , 11-H ) :   0.9323 B(  2-O ,  3-C ) :   1.0372 B(  3-C ,  4-C ) :   0.9326
B(  3-C , 12-H ) :   0.9144 B(  3-C , 13-H ) :   0.9132 B(  4-C ,  5-C ) :   1.0493
B(  4-C ,  6-O ) :   2.1650 B(  5-C , 14-H ) :   0.9312 B(  5-C , 15-H ) :   0.9461
B(  5-C , 16-H ) :   0.9285

FINAL SINGLE POINT ENERGY      -346.297546760654

DIPOLE MOMENT
-------------
                                X             Y             Z
Electronic contribution:      6.43581       3.33271       2.99558
Nuclear contribution   :     -7.24256      -3.85216      -3.50170
                        -----------------------------------------
Total Dipole Moment    :     -0.80676      -0.51945      -0.50612
                        -----------------------------------------
Magnitude (a.u.)       :      1.08482
Magnitude (Debye)      :      2.75740

                             ****ORCA TERMINATED NORMALLY****
TOTAL RUN TIME: 0 days 0 hours 0 minutes 7 seconds 109 msec
