                         Program Version 3.0.3 - RELEASE   -
|  1> ! RI PBE def2-SVP def2-SVP/J NBO PAL2
|  2> % maxcore 2000
|  3> % output
|  4>     # printlevel mini
|  5>     print[ P_Basis ] 0
|  6>     print[ P_SCFInfo ] 1
|  7>     print[ P_SCFIterInfo ] 1
|  8>     print[ P_OrbEn ] 0
|  9>     print[ P_Cartesian ] 0
| 10> end
| 11> *xyz 0 1
| 12>  C        1.7482320000    -1.2336810000     0.5754520000
| 13>  C        2.9978740000    -0.6447220000    -0.0266790000
| 14>  O        3.4563640000    -1.4954730000    -1.0515820000
| 15>  C        4.6270260000    -1.0286500000    -1.6669920000
| 16>  C        5.0099830000    -1.9878760000    -2.7766950000
| 17>  C        4.0385210000    -1.9808400000    -3.9228440000
| 18>  O        4.3612380000    -2.0368690000    -5.0785340000
| 19>  H        1.3742270000    -0.5903520000     1.3746680000
| 20>  H        1.9506840000    -2.2214670000     0.9936060000
| 21>  H        0.9668320000    -1.3341140000    -0.1802240000
| 22>  H        3.7810110000    -0.5308010000     0.7385080000
| 23>  H        2.7966710000     0.3570710000    -0.4359040000
| 24>  H        5.4460900000    -0.9606690000    -0.9355810000
| 25>  H        4.4696530000    -0.0149210000    -2.0690840000
| 26>  H        5.0214020000    -3.0030760000    -2.3606600000
| 27>  H        6.0082470000    -1.7714170000    -3.1622410000
| 28>  H        2.9683440000    -1.9237430000    -3.6342050000
| 29> *
| 30>
| 31>                          ****END OF INPUT****
 Total Charge           Charge          ....    0
 Multiplicity           Mult            ....    1
 Number of Electrons    NEL             ....   56
 Basis Dimension        Dim             ....  148

MULLIKEN ATOMIC CHARGES
-----------------------
   0 C :   -0.026872
   1 C :    0.124026
   2 O :   -0.349945
   3 C :    0.140344
   4 C :    0.031036
   5 C :    0.066232
   6 O :   -0.163097
   7 H :    0.026533
   8 H :    0.031861
   9 H :    0.035946
  10 H :    0.001856
  11 H :   -0.001505
  12 H :    0.008467
  13 H :    0.001211
  14 H :    0.051419
  15 H :    0.022975
  16 H :   -0.000488
Sum of atomic charges:   -0.0000000

LOEWDIN ATOMIC CHARGES
----------------------
   0 C :   -0.074868
   1 C :    0.057949
   2 O :   -0.150501
   3 C :    0.064574
   4 C :   -0.088189
   5 C :    0.091642
   6 O :   -0.108180
   7 H :    0.034302
   8 H :    0.031324
   9 H :    0.031851
  10 H :    0.005666
  11 H :    0.005517
  12 H :    0.010142
  13 H :    0.005932
  14 H :    0.052852
  15 H :    0.040222
  16 H :   -0.010236

  Mayer bond orders larger than 0.1
B(  0-C ,  1-C ) :   1.1224 B(  0-C ,  7-H ) :   0.9532 B(  0-C ,  8-H ) :   0.9617
B(  0-C ,  9-H ) :   0.9639 B(  1-C ,  2-O ) :   1.0032 B(  1-C , 10-H ) :   0.9325
B(  1-C , 11-H ) :   0.9309 B(  2-O ,  3-C ) :   1.0058 B(  3-C ,  4-C ) :   1.0505
B(  3-C , 12-H ) :   0.9260 B(  3-C , 13-H ) :   0.9283 B(  4-C ,  5-C ) :   0.9695
B(  4-C , 14-H ) :   0.9053 B(  4-C , 15-H ) :   0.9133 B(  5-C ,  6-O ) :   2.1791
B(  5-C , 16-H ) :   0.9289

FINAL SINGLE POINT ENERGY      -346.287221349585

DIPOLE MOMENT
-------------
                                X             Y             Z
Electronic contribution:      2.43487      -2.24542      -8.23527
Nuclear contribution   :     -2.39663       2.62743       9.42451
                        -----------------------------------------
Total Dipole Moment    :      0.03824       0.38201       1.18924
                        -----------------------------------------
Magnitude (a.u.)       :      1.24967
Magnitude (Debye)      :      3.17641

                             ****ORCA TERMINATED NORMALLY****
TOTAL RUN TIME: 0 days 0 hours 0 minutes 7 seconds 665 msec
