                         Program Version 3.0.3 - RELEASE   -
|  1> ! RI PBE def2-SVP def2-SVP/J NBO PAL2
|  2> % maxcore 2000
|  3> % output
|  4>     # printlevel mini
|  5>     print[ P_Basis ] 0
|  6>     print[ P_SCFInfo ] 1
|  7>     print[ P_SCFIterInfo ] 1
|  8>     print[ P_OrbEn ] 0
|  9>     print[ P_Cartesian ] 0
| 10> end
| 11> *xyz 0 1
| 12>  C        1.1242450000     0.0117960000     0.1450810000
| 13>  C        2.6294730000    -0.0494260000     0.0947390000
| 14>  O        3.1553140000     0.9572570000     0.9239680000
| 15>  C        4.5562530000     0.9741010000     0.9377480000
| 16>  C        5.0008880000     2.0870910000     1.8562580000
| 17>  O        6.4023750000     2.1045880000     1.8691000000
| 18>  C        6.9179510000     3.1078980000     2.6977990000
| 19>  H        0.6917360000    -0.7624300000    -0.4923460000
| 20>  H        0.7669370000     0.9836130000    -0.2010140000
| 21>  H        0.7669260000    -0.1412570000     1.1652670000
| 22>  H        2.9886060000     0.0908490000    -0.9366510000
| 23>  H        2.9885330000    -1.0348560000     0.4300320000
| 24>  H        4.9591940000     1.1448780000    -0.0716590000
| 25>  H        4.9592630000     0.0153880000     1.2967400000
| 26>  H        4.6000360000     1.9165880000     2.8666650000
| 27>  H        4.5984250000     3.0464820000     1.4981050000
| 28>  H        8.0056060000     3.0501480000     2.6486650000
| 29>  H        6.6009980000     2.9717620000     3.7413680000
| 30>  H        6.5992430000     4.1068210000     2.3682460000
| 31> *
| 32>
| 33>                          ****END OF INPUT****
 Total Charge           Charge          ....    0
 Multiplicity           Mult            ....    1
 Number of Electrons    NEL             ....   58
 Basis Dimension        Dim             ....  158

MULLIKEN ATOMIC CHARGES
-----------------------
   0 C :   -0.015462
   1 C :    0.137660
   2 O :   -0.356399
   3 C :    0.171549
   4 C :    0.170294
   5 O :   -0.354320
   6 C :    0.142876
   7 H :    0.019971
   8 H :    0.028882
   9 H :    0.028498
  10 H :   -0.004166
  11 H :   -0.007662
  12 H :   -0.000991
  13 H :   -0.002960
  14 H :   -0.001297
  15 H :   -0.003146
  16 H :    0.036996
  17 H :    0.006580
  18 H :    0.003098
Sum of atomic charges:   -0.0000000

LOEWDIN ATOMIC CHARGES
----------------------
   0 C :   -0.072965
   1 C :    0.059061
   2 O :   -0.148629
   3 C :    0.054026
   4 C :    0.053052
   5 O :   -0.148569
   6 C :    0.049524
   7 H :    0.032246
   8 H :    0.029632
   9 H :    0.029457
  10 H :    0.003650
  11 H :    0.003202
  12 H :    0.005981
  13 H :    0.005479
  14 H :    0.005659
  15 H :    0.005187
  16 H :    0.023420
  17 H :    0.005589
  18 H :    0.004999

  Mayer bond orders larger than 0.1
B(  0-C ,  1-C ) :   1.1156 B(  0-C ,  7-H ) :   0.9542 B(  0-C ,  8-H ) :   0.9644
B(  0-C ,  9-H ) :   0.9649 B(  1-C ,  2-O ) :   1.0038 B(  1-C , 10-H ) :   0.9339
B(  1-C , 11-H ) :   0.9320 B(  2-O ,  3-C ) :   1.0169 B(  3-C ,  4-C ) :   1.0574
B(  3-C , 12-H ) :   0.9261 B(  3-C , 13-H ) :   0.9268 B(  4-C ,  5-O ) :   1.0210
B(  4-C , 14-H ) :   0.9243 B(  4-C , 15-H ) :   0.9250 B(  5-O ,  6-C ) :   1.0203
B(  6-C , 16-H ) :   0.9774 B(  6-C , 17-H ) :   0.9571 B(  6-C , 18-H ) :   0.9559

FINAL SINGLE POINT ENERGY      -347.471162861876

DIPOLE MOMENT
-------------
                                X             Y             Z
Electronic contribution:      2.49862       0.50072       0.40848
Nuclear contribution   :     -2.54021      -0.48999      -0.39817
                        -----------------------------------------
Total Dipole Moment    :     -0.04159       0.01072       0.01031
                        -----------------------------------------
Magnitude (a.u.)       :      0.04417
Magnitude (Debye)      :      0.11226

                             ****ORCA TERMINATED NORMALLY****
TOTAL RUN TIME: 0 days 0 hours 0 minutes 7 seconds 206 msec
