                         Program Version 3.0.3 - RELEASE   -
|  1> ! RI PBE def2-SVP def2-SVP/J NBO PAL2
|  2> % maxcore 2000
|  3> % output
|  4>     # printlevel mini
|  5>     print[ P_Basis ] 0
|  6>     print[ P_SCFInfo ] 1
|  7>     print[ P_SCFIterInfo ] 1
|  8>     print[ P_OrbEn ] 0
|  9>     print[ P_Cartesian ] 0
| 10> end
| 11> *xyz 0 1
| 12>  C        2.4005380000    -1.6006480000    -4.5898440000
| 13>  C        3.6800910000    -1.8200800000    -3.8254040000
| 14>  O        3.5364550000    -1.2434070000    -2.5469410000
| 15>  C        4.5958550000    -1.3404770000    -1.7046570000
| 16>  C        5.7655790000    -1.9297490000    -1.9663010000
| 17>  O        6.8232230000    -2.0244720000    -1.1200070000
| 18>  C        6.6662740000    -1.4464650000     0.1485360000
| 19>  H        2.4800060000    -2.0372560000    -5.5876750000
| 20>  H        2.1918430000    -0.5344790000    -4.6954590000
| 21>  H        1.5584950000    -2.0671320000    -4.0752750000
| 22>  H        4.5318110000    -1.3577580000    -4.3441040000
| 23>  H        3.8975330000    -2.8926720000    -3.7230120000
| 24>  H        4.3781810000    -0.8670520000    -0.7568210000
| 25>  H        5.9879620000    -2.4042910000    -2.9121220000
| 26>  H        7.5981940000    -1.6140840000     0.6863670000
| 27>  H        5.8398760000    -1.9125760000     0.6996130000
| 28>  H        6.4782750000    -0.3679930000     0.0748170000
| 29> *
| 30>
| 31>                          ****END OF INPUT****
 Total Charge           Charge          ....    0
 Multiplicity           Mult            ....    1
 Number of Electrons    NEL             ....   56
 Basis Dimension        Dim             ....  148

MULLIKEN ATOMIC CHARGES
-----------------------
   0 C :   -0.003077
   1 C :    0.085969
   2 O :   -0.274354
   3 C :    0.053588
   4 C :    0.067453
   5 O :   -0.276489
   6 C :    0.124653
   7 H :    0.021251
   8 H :    0.034285
   9 H :    0.031722
  10 H :    0.015214
  11 H :    0.019366
  12 H :    0.003790
  13 H :    0.009958
  14 H :    0.038082
  15 H :    0.022798
  16 H :    0.025790
Sum of atomic charges:   -0.0000000

LOEWDIN ATOMIC CHARGES
----------------------
   0 C :   -0.071592
   1 C :    0.060846
   2 O :   -0.080466
   3 C :   -0.044732
   4 C :   -0.045497
   5 O :   -0.080580
   6 C :    0.055670
   7 H :    0.034079
   8 H :    0.031845
   9 H :    0.031730
  10 H :    0.009932
  11 H :    0.010599
  12 H :    0.018588
  13 H :    0.019368
  14 H :    0.026392
  15 H :    0.011588
  16 H :    0.012230

  Mayer bond orders larger than 0.1
B(  0-C ,  1-C ) :   1.1176 B(  0-C ,  7-H ) :   0.9517 B(  0-C ,  8-H ) :   0.9629
B(  0-C ,  9-H ) :   0.9609 B(  1-C ,  2-O ) :   0.9848 B(  1-C , 10-H ) :   0.9302
B(  1-C , 11-H ) :   0.9321 B(  2-O ,  3-C ) :   1.1114 B(  3-C ,  4-C ) :   1.6630
B(  3-C ,  5-O ) :   0.1007 B(  3-C , 12-H ) :   0.9669 B(  4-C ,  5-O ) :   1.1100
B(  4-C , 13-H ) :   0.9647 B(  5-O ,  6-C ) :   1.0033 B(  6-C , 14-H ) :   0.9724
B(  6-C , 15-H ) :   0.9533 B(  6-C , 16-H ) :   0.9540

FINAL SINGLE POINT ENERGY      -346.260792888998

DIPOLE MOMENT
-------------
                                X             Y             Z
Electronic contribution:      2.64963      -0.18923       2.23814
Nuclear contribution   :     -2.70661       0.20442      -2.25830
                        -----------------------------------------
Total Dipole Moment    :     -0.05697       0.01520      -0.02016
                        -----------------------------------------
Magnitude (a.u.)       :      0.06232
Magnitude (Debye)      :      0.15839

                             ****ORCA TERMINATED NORMALLY****
TOTAL RUN TIME: 0 days 0 hours 0 minutes 7 seconds 152 msec
