                         Program Version 3.0.3 - RELEASE   -
|  1> ! RI PBE def2-SVP def2-SVP/J NBO PAL2
|  2> % maxcore 2000
|  3> % output
|  4>     # printlevel mini
|  5>     print[ P_Basis ] 0
|  6>     print[ P_SCFInfo ] 1
|  7>     print[ P_SCFIterInfo ] 1
|  8>     print[ P_OrbEn ] 0
|  9>     print[ P_Cartesian ] 0
| 10> end
| 11> *xyz 0 1
| 12>  C        1.0519560000     0.9769590000    -2.6878800000
| 13>  C        2.5139550000     1.2049660000    -2.4001340000
| 14>  O        3.0610650000     0.0092190000    -1.8788930000
| 15>  C        4.4115570000     0.1029290000    -1.5324600000
| 16>  C        4.7576280000    -1.1326920000    -0.7335090000
| 17>  O        5.2356480000     0.3096490000    -2.6516020000
| 18>  C        5.2677600000    -0.7449520000    -3.5856660000
| 19>  H        0.5977630000     1.8884830000    -3.0826570000
| 20>  H        0.5183960000     0.6898220000    -1.7796670000
| 21>  H        0.9232030000     0.1822610000    -3.4254970000
| 22>  H        2.6436170000     2.0150400000    -1.6671240000
| 23>  H        3.0500540000     1.4998010000    -3.3096370000
| 24>  H        4.5764860000     1.0077360000    -0.9306790000
| 25>  H        4.4970200000    -2.0385170000    -1.2829370000
| 26>  H        4.1943060000    -1.1321100000     0.2002100000
| 27>  H        5.8241730000    -1.1447430000    -0.5038940000
| 28>  H        5.7529070000    -0.3550370000    -4.4807080000
| 29>  H        4.2606330000    -1.0857800000    -3.8461320000
| 30>  H        5.8488850000    -1.5991440000    -3.2196440000
| 31> *
| 32>
| 33>                          ****END OF INPUT****
 Total Charge           Charge          ....    0
 Multiplicity           Mult            ....    1
 Number of Electrons    NEL             ....   58
 Basis Dimension        Dim             ....  158

MULLIKEN ATOMIC CHARGES
-----------------------
   0 C :   -0.021366
   1 C :    0.134950
   2 O :   -0.332853
   3 C :    0.206318
   4 C :    0.010399
   5 O :   -0.342447
   6 C :    0.137907
   7 H :    0.020362
   8 H :    0.029385
   9 H :    0.030669
  10 H :   -0.002600
  11 H :    0.005301
  12 H :   -0.016815
  13 H :    0.025154
  14 H :    0.026905
  15 H :    0.029398
  16 H :    0.029089
  17 H :    0.015762
  18 H :    0.014481
Sum of atomic charges:   -0.0000000

LOEWDIN ATOMIC CHARGES
----------------------
   0 C :   -0.075329
   1 C :    0.058303
   2 O :   -0.141022
   3 C :    0.096351
   4 C :   -0.079626
   5 O :   -0.148051
   6 C :    0.046798
   7 H :    0.032218
   8 H :    0.029157
   9 H :    0.029520
  10 H :    0.006789
  11 H :    0.006253
  12 H :    0.003088
  13 H :    0.030023
  14 H :    0.035849
  15 H :    0.033779
  16 H :    0.022797
  17 H :    0.006449
  18 H :    0.006654

  Mayer bond orders larger than 0.1
B(  0-C ,  1-C ) :   1.1172 B(  0-C ,  7-H ) :   0.9528 B(  0-C ,  8-H ) :   0.9610
B(  0-C ,  9-H ) :   0.9653 B(  1-C ,  2-O ) :   0.9804 B(  1-C , 10-H ) :   0.9351
B(  1-C , 11-H ) :   0.9360 B(  2-O ,  3-C ) :   1.0526 B(  3-C ,  4-C ) :   1.0733
B(  3-C ,  5-O ) :   1.0565 B(  3-C , 12-H ) :   0.9137 B(  4-C , 13-H ) :   0.9509
B(  4-C , 14-H ) :   0.9494 B(  4-C , 15-H ) :   0.9527 B(  5-O ,  6-C ) :   0.9961
B(  6-C , 16-H ) :   0.9762 B(  6-C , 17-H ) :   0.9537 B(  6-C , 18-H ) :   0.9604

FINAL SINGLE POINT ENERGY      -347.487788187360

DIPOLE MOMENT
-------------
                                X             Y             Z
Electronic contribution:      2.23386       1.07188       0.59502
Nuclear contribution   :     -2.31405      -1.13812      -0.62377
                        -----------------------------------------
Total Dipole Moment    :     -0.08019      -0.06624      -0.02874
                        -----------------------------------------
Magnitude (a.u.)       :      0.10791
Magnitude (Debye)      :      0.27428

                             ****ORCA TERMINATED NORMALLY****
TOTAL RUN TIME: 0 days 0 hours 0 minutes 8 seconds 113 msec
