                         Program Version 3.0.3 - RELEASE   -
|  1> ! RI PBE def2-SVP def2-SVP/J NBO PAL2
|  2> % maxcore 2000
|  3> % output
|  4>     # printlevel mini
|  5>     print[ P_Basis ] 0
|  6>     print[ P_SCFInfo ] 1
|  7>     print[ P_SCFIterInfo ] 1
|  8>     print[ P_OrbEn ] 0
|  9>     print[ P_Cartesian ] 0
| 10> end
| 11> *xyz 0 1
| 12>  C        0.9026330000     0.7089810000    -1.8678200000
| 13>  C        2.3995700000     0.6971070000    -2.0415730000
| 14>  O        2.9385970000    -0.3340020000    -1.2357520000
| 15>  C        4.3280310000    -0.4076330000    -1.2755480000
| 16>  O        4.8397580000    -0.8402670000    -2.4955800000
| 17>  C        4.5716640000    -2.2015390000    -2.7751300000
| 18>  C        5.2228800000    -2.5594270000    -4.0862320000
| 19>  H        0.4579530000     1.5029330000    -2.4718720000
| 20>  H        0.6357920000     0.8782310000    -0.8227970000
| 21>  H        0.4703540000    -0.2435630000    -2.1808660000
| 22>  H        2.8340590000     1.6610420000    -1.7367670000
| 23>  H        2.6697330000     0.5343660000    -3.0915410000
| 24>  H        4.6083800000    -1.0973460000    -0.4690850000
| 25>  H        4.7754030000     0.5797480000    -1.1034450000
| 26>  H        3.4893500000    -2.3710050000    -2.8173740000
| 27>  H        4.9696490000    -2.8249040000    -1.9603420000
| 28>  H        4.8198650000    -1.9485900000    -4.8965770000
| 29>  H        5.0409920000    -3.6096690000    -4.3247380000
| 30>  H        6.3014270000    -2.3966750000    -4.0396400000
| 31> *
| 32>
| 33>                          ****END OF INPUT****
 Total Charge           Charge          ....    0
 Multiplicity           Mult            ....    1
 Number of Electrons    NEL             ....   58
 Basis Dimension        Dim             ....  158

MULLIKEN ATOMIC CHARGES
-----------------------
   0 C :   -0.016818
   1 C :    0.128909
   2 O :   -0.349357
   3 C :    0.335387
   4 O :   -0.347859
   5 C :    0.127267
   6 C :   -0.030221
   7 H :    0.020527
   8 H :    0.027650
   9 H :    0.028587
  10 H :   -0.007307
  11 H :    0.011424
  12 H :   -0.010506
  13 H :   -0.011521
  14 H :    0.011707
  15 H :   -0.004503
  16 H :    0.029046
  17 H :    0.022027
  18 H :    0.035562
Sum of atomic charges:    0.0000000

LOEWDIN ATOMIC CHARGES
----------------------
   0 C :   -0.073186
   1 C :    0.057673
   2 O :   -0.145469
   3 C :    0.117355
   4 O :   -0.145755
   5 C :    0.057150
   6 C :   -0.076214
   7 H :    0.032212
   8 H :    0.028916
   9 H :    0.029506
  10 H :    0.005464
  11 H :    0.006689
  12 H :   -0.000323
  13 H :    0.000005
  14 H :    0.006954
  15 H :    0.006159
  16 H :    0.029937
  17 H :    0.032452
  18 H :    0.030476

  Mayer bond orders larger than 0.1
B(  0-C ,  1-C ) :   1.1169 B(  0-C ,  7-H ) :   0.9547 B(  0-C ,  8-H ) :   0.9639
B(  0-C ,  9-H ) :   0.9651 B(  1-C ,  2-O ) :   0.9811 B(  1-C , 10-H ) :   0.9320
B(  1-C , 11-H ) :   0.9384 B(  2-O ,  3-C ) :   1.0652 B(  3-C ,  4-O ) :   1.0653
B(  3-C , 12-H ) :   0.9310 B(  3-C , 13-H ) :   0.9296 B(  4-O ,  5-C ) :   0.9853
B(  5-C ,  6-C ) :   1.1195 B(  5-C , 14-H ) :   0.9374 B(  5-C , 15-H ) :   0.9305
B(  6-C , 16-H ) :   0.9633 B(  6-C , 17-H ) :   0.9545 B(  6-C , 18-H ) :   0.9636

FINAL SINGLE POINT ENERGY      -347.487925426631

DIPOLE MOMENT
-------------
                                X             Y             Z
Electronic contribution:      1.94581       0.80106       2.61848
Nuclear contribution   :     -2.00867      -0.82176      -2.70126
                        -----------------------------------------
Total Dipole Moment    :     -0.06286      -0.02069      -0.08278
                        -----------------------------------------
Magnitude (a.u.)       :      0.10598
Magnitude (Debye)      :      0.26939

                             ****ORCA TERMINATED NORMALLY****
TOTAL RUN TIME: 0 days 0 hours 0 minutes 7 seconds 674 msec
