                         Program Version 3.0.3 - RELEASE   -
|  1> ! RI PBE def2-SVP def2-SVP/J NBO PAL2
|  2> % maxcore 2000
|  3> % output
|  4>     # printlevel mini
|  5>     print[ P_Basis ] 0
|  6>     print[ P_SCFInfo ] 1
|  7>     print[ P_SCFIterInfo ] 1
|  8>     print[ P_OrbEn ] 0
|  9>     print[ P_Cartesian ] 0
| 10> end
| 11> *xyz 0 1
| 12>  C        0.9830970000     0.1752340000     0.3630070000
| 13>  C        2.3133040000     0.2060220000     0.2978460000
| 14>  O        3.2090870000    -0.5938310000     0.9906830000
| 15>  C        2.8464610000    -1.5514060000     1.8607740000
| 16>  O        1.7433580000    -1.8698630000     2.1778750000
| 17>  C        3.0219180000     1.1153050000    -0.5385200000
| 18>  C        3.6158390000     1.8835220000    -1.2449930000
| 19>  H        0.4436010000    -0.5106000000     0.9939940000
| 20>  H        0.4402530000     0.8787740000    -0.2533310000
| 21>  H        3.7686630000    -2.0089710000     2.2456090000
| 22>  H        4.1395110000     2.5658140000    -1.8723450000
| 23> *
| 24>
| 25>                          ****END OF INPUT****
 Total Charge           Charge          ....    0
 Multiplicity           Mult            ....    1
 Number of Electrons    NEL             ....   50
 Basis Dimension        Dim             ....  118

MULLIKEN ATOMIC CHARGES
-----------------------
   0 C :   -0.006811
   1 C :    0.027214
   2 O :   -0.202561
   3 C :    0.229560
   4 O :   -0.179581
   5 C :    0.413086
   6 C :   -0.410135
   7 H :    0.059118
   8 H :    0.037800
   9 H :    0.017190
  10 H :    0.015120
Sum of atomic charges:    0.0000000

LOEWDIN ATOMIC CHARGES
----------------------
   0 C :   -0.047464
   1 C :    0.018106
   2 O :   -0.016019
   3 C :    0.092925
   4 O :   -0.112574
   5 C :   -0.020048
   6 C :   -0.035099
   7 H :    0.034890
   8 H :    0.042067
   9 H :    0.002434
  10 H :    0.040783

  Mayer bond orders larger than 0.1
B(  0-C ,  1-C ) :   1.8785 B(  0-C ,  6-C ) :   0.1166 B(  0-C ,  7-H ) :   0.9196
B(  0-C ,  8-H ) :   0.9176 B(  1-C ,  2-O ) :   1.0296 B(  1-C ,  5-C ) :   0.9771
B(  2-O ,  3-C ) :   1.1400 B(  3-C ,  4-O ) :   2.0726 B(  3-C ,  9-H ) :   0.9351
B(  5-C ,  6-C ) :   2.3110 B(  6-C , 10-H ) :   1.0884

FINAL SINGLE POINT ENERGY      -342.632900289161

DIPOLE MOMENT
-------------
                                X             Y             Z
Electronic contribution:      1.53284      -1.14714       0.98760
Nuclear contribution   :     -1.18879       1.48168      -1.29677
                        -----------------------------------------
Total Dipole Moment    :      0.34405       0.33454      -0.30917
                        -----------------------------------------
Magnitude (a.u.)       :      0.57085
Magnitude (Debye)      :      1.45099

                             ****ORCA TERMINATED NORMALLY****
TOTAL RUN TIME: 0 days 0 hours 0 minutes 5 seconds 329 msec
