                         Program Version 3.0.3 - RELEASE   -
|  1> ! RI PBE def2-SVP def2-SVP/J NBO PAL2
|  2> % maxcore 2000
|  3> % output
|  4>     # printlevel mini
|  5>     print[ P_Basis ] 0
|  6>     print[ P_SCFInfo ] 1
|  7>     print[ P_SCFIterInfo ] 1
|  8>     print[ P_OrbEn ] 0
|  9>     print[ P_Cartesian ] 0
| 10> end
| 11> *xyz 0 1
| 12>  C        1.0850940000     0.4341030000    -0.1144280000
| 13>  C        2.4002210000     0.5587270000    -0.1380380000
| 14>  O        3.0698580000     1.0137740000     0.9678570000
| 15>  C        4.4221750000     1.1241610000     0.8896450000
| 16>  O        5.0601040000     0.8472530000    -0.0877860000
| 17>  C        4.9586300000     1.6261020000     2.1684810000
| 18>  C        6.2624590000     1.8134480000     2.3239950000
| 19>  H        0.5699570000     0.0739080000    -0.9937680000
| 20>  H        0.5040730000     0.6833550000     0.7644680000
| 21>  H        3.0333110000     0.3260770000    -0.9847080000
| 22>  H        4.2430180000     1.8287110000     2.9564160000
| 23>  H        6.9459040000     1.5984480000     1.5099760000
| 24>  H        6.6741070000     2.1813130000     3.2558000000
| 25> *
| 26>
| 27>                          ****END OF INPUT****
 Total Charge           Charge          ....    0
 Multiplicity           Mult            ....    1
 Number of Electrons    NEL             ....   52
 Basis Dimension        Dim             ....  128

MULLIKEN ATOMIC CHARGES
-----------------------
   0 C :   -0.052223
   1 C :    0.097825
   2 O :   -0.209255
   3 C :    0.166357
   4 O :   -0.170578
   5 C :   -0.080396
   6 C :    0.027246
   7 H :    0.039766
   8 H :    0.038118
   9 H :    0.030715
  10 H :    0.020620
  11 H :    0.051633
  12 H :    0.040174
Sum of atomic charges:   -0.0000000

LOEWDIN ATOMIC CHARGES
----------------------
   0 C :   -0.085692
   1 C :    0.047535
   2 O :   -0.022240
   3 C :    0.048855
   4 O :   -0.136853
   5 C :   -0.067782
   6 C :    0.017977
   7 H :    0.037177
   8 H :    0.032609
   9 H :    0.021815
  10 H :    0.035821
  11 H :    0.036921
  12 H :    0.033857

  Mayer bond orders larger than 0.1
B(  0-C ,  1-C ) :   1.9396 B(  0-C ,  7-H ) :   0.9394 B(  0-C ,  8-H ) :   0.9437
B(  1-C ,  2-O ) :   1.0314 B(  1-C ,  9-H ) :   0.9506 B(  2-O ,  3-C ) :   1.0990
B(  3-C ,  4-O ) :   2.0890 B(  3-C ,  5-C ) :   0.9999 B(  5-C ,  6-C ) :   1.9414
B(  5-C , 10-H ) :   0.9502 B(  6-C , 11-H ) :   0.9366 B(  6-C , 12-H ) :   0.9402

FINAL SINGLE POINT ENERGY      -343.889952152042

DIPOLE MOMENT
-------------
                                X             Y             Z
Electronic contribution:      1.14192      -0.18166      -0.85032
Nuclear contribution   :     -1.30042       0.34943       1.37436
                        -----------------------------------------
Total Dipole Moment    :     -0.15851       0.16777       0.52404
                        -----------------------------------------
Magnitude (a.u.)       :      0.57262
Magnitude (Debye)      :      1.45548

                             ****ORCA TERMINATED NORMALLY****
TOTAL RUN TIME: 0 days 0 hours 0 minutes 5 seconds 919 msec
