                         Program Version 3.0.3 - RELEASE   -
|  1> ! RI PBE def2-SVP def2-SVP/J NBO PAL2
|  2> % maxcore 2000
|  3> % output
|  4>     # printlevel mini
|  5>     print[ P_Basis ] 0
|  6>     print[ P_SCFInfo ] 1
|  7>     print[ P_SCFIterInfo ] 1
|  8>     print[ P_OrbEn ] 0
|  9>     print[ P_Cartesian ] 0
| 10> end
| 11> *xyz 0 1
| 12>  C        1.2077210000    -0.4757820000    -0.3375410000
| 13>  C        2.4893510000    -0.2184450000    -0.1528460000
| 14>  O        2.8735950000     0.6742660000     0.8204020000
| 15>  C        4.1945290000     0.9025790000     0.9720090000
| 16>  O        5.0640120000     0.3904690000     0.3270230000
| 17>  C        4.4202190000     1.8581630000     2.0284640000
| 18>  C        4.6647920000     2.6478470000     2.8969710000
| 19>  H        0.9131110000    -1.1782590000    -1.1043170000
| 20>  H        0.4395510000    -0.0012710000     0.2596360000
| 21>  H        3.3044120000    -0.6569820000    -0.7132640000
| 22>  H        4.8826980000     3.3495150000     3.6684630000
| 23> *
| 24>
| 25>                          ****END OF INPUT****
 Total Charge           Charge          ....    0
 Multiplicity           Mult            ....    1
 Number of Electrons    NEL             ....   50
 Basis Dimension        Dim             ....  118

MULLIKEN ATOMIC CHARGES
-----------------------
   0 C :   -0.045550
   1 C :    0.105131
   2 O :   -0.195685
   3 C :    0.146958
   4 O :   -0.157536
   5 C :    0.407806
   6 C :   -0.406570
   7 H :    0.044231
   8 H :    0.042126
   9 H :    0.032699
  10 H :    0.026391
Sum of atomic charges:   -0.0000000

LOEWDIN ATOMIC CHARGES
----------------------
   0 C :   -0.075135
   1 C :    0.048142
   2 O :   -0.007222
   3 C :    0.035560
   4 O :   -0.108091
   5 C :   -0.037545
   6 C :    0.001195
   7 H :    0.039025
   8 H :    0.035325
   9 H :    0.023627
  10 H :    0.045119

  Mayer bond orders larger than 0.1
B(  0-C ,  1-C ) :   1.9392 B(  0-C ,  7-H ) :   0.9420 B(  0-C ,  8-H ) :   0.9419
B(  1-C ,  2-O ) :   1.0165 B(  1-C ,  9-H ) :   0.9530 B(  2-O ,  3-C ) :   1.1486
B(  3-C ,  4-O ) :   2.0682 B(  3-C ,  5-C ) :   0.8657 B(  5-C ,  6-C ) :   2.3489
B(  6-C , 10-H ) :   1.0829

FINAL SINGLE POINT ENERGY      -342.634556237035

DIPOLE MOMENT
-------------
                                X             Y             Z
Electronic contribution:      3.83665       1.76595       1.67648
Nuclear contribution   :     -4.33667      -1.52433      -1.36582
                        -----------------------------------------
Total Dipole Moment    :     -0.50002       0.24162       0.31065
                        -----------------------------------------
Magnitude (a.u.)       :      0.63632
Magnitude (Debye)      :      1.61741

                             ****ORCA TERMINATED NORMALLY****
TOTAL RUN TIME: 0 days 0 hours 0 minutes 5 seconds 783 msec
