                         Program Version 3.0.3 - RELEASE   -
|  1> ! RI PBE def2-SVP def2-SVP/J NBO PAL2
|  2> % maxcore 2000
|  3> % output
|  4>     # printlevel mini
|  5>     print[ P_Basis ] 0
|  6>     print[ P_SCFInfo ] 1
|  7>     print[ P_SCFIterInfo ] 1
|  8>     print[ P_OrbEn ] 0
|  9>     print[ P_Cartesian ] 0
| 10> end
| 11> *xyz 0 1
| 12>  C        3.8269990000     3.0214110000    -1.1797920000
| 13>  C        3.2823730000     1.8129050000    -1.1755800000
| 14>  O        3.2472480000     0.9120500000    -0.1597670000
| 15>  C        3.9902210000     1.1871740000     0.9725130000
| 16>  O        3.3135970000     2.1495930000     1.7430520000
| 17>  C        3.8956470000     2.5022710000     2.9045760000
| 18>  C        5.0388060000     2.0558450000     3.4174040000
| 19>  H        3.7892030000     3.6004510000    -2.0919470000
| 20>  H        4.2880360000     3.4727740000    -0.3120090000
| 21>  H        2.7843420000     1.3995060000    -2.0449830000
| 22>  H        4.9897680000     1.5592800000     0.7064130000
| 23>  H        4.0675910000     0.2509050000     1.5334950000
| 24>  H        3.2890980000     3.2414150000     3.4161050000
| 25>  H        5.6690320000     1.3194630000     2.9377640000
| 26>  H        5.3641680000     2.4456280000     4.3716440000
| 27> *
| 28>
| 29>                          ****END OF INPUT****
 Total Charge           Charge          ....    0
 Multiplicity           Mult            ....    1
 Number of Electrons    NEL             ....   54
 Basis Dimension        Dim             ....  138

MULLIKEN ATOMIC CHARGES
-----------------------
   0 C :   -0.100092
   1 C :    0.105558
   2 O :   -0.239578
   3 C :    0.272707
   4 O :   -0.252256
   5 C :    0.104052
   6 C :   -0.121776
   7 H :    0.031235
   8 H :    0.040104
   9 H :    0.017309
  10 H :    0.023151
  11 H :    0.037861
  12 H :    0.021602
  13 H :    0.030622
  14 H :    0.029501
Sum of atomic charges:   -0.0000000

LOEWDIN ATOMIC CHARGES
----------------------
   0 C :   -0.135169
   1 C :    0.039346
   2 O :   -0.052410
   3 C :    0.144206
   4 O :   -0.066687
   5 C :    0.033589
   6 C :   -0.153508
   7 H :    0.035232
   8 H :    0.026998
   9 H :    0.025934
  10 H :    0.002762
  11 H :    0.015727
  12 H :    0.026785
  13 H :    0.022785
  14 H :    0.034409

  Mayer bond orders larger than 0.1
B(  0-C ,  1-C ) :   1.8985 B(  0-C ,  7-H ) :   0.9355 B(  0-C ,  8-H ) :   0.9478
B(  1-C ,  2-O ) :   1.1111 B(  1-C ,  9-H ) :   0.9674 B(  2-O ,  3-C ) :   1.0611
B(  3-C ,  4-O ) :   0.9730 B(  3-C , 10-H ) :   0.9254 B(  3-C , 11-H ) :   0.9420
B(  4-O ,  5-C ) :   1.1507 B(  5-C ,  6-C ) :   1.8594 B(  5-C , 12-H ) :   0.9677
B(  6-C , 13-H ) :   0.9558 B(  6-C , 14-H ) :   0.9368

FINAL SINGLE POINT ENERGY      -345.047920384230

DIPOLE MOMENT
-------------
                                X             Y             Z
Electronic contribution:     -3.26757      -1.71411      -0.95812
Nuclear contribution   :      3.61349       1.70395       0.99601
                        -----------------------------------------
Total Dipole Moment    :      0.34593      -0.01016       0.03789
                        -----------------------------------------
Magnitude (a.u.)       :      0.34814
Magnitude (Debye)      :      0.88491

                             ****ORCA TERMINATED NORMALLY****
TOTAL RUN TIME: 0 days 0 hours 0 minutes 6 seconds 841 msec
