                         Program Version 3.0.3 - RELEASE   -
|  1> ! RI PBE def2-SVP def2-SVP/J NBO PAL2
|  2> % maxcore 2000
|  3> % output
|  4>     # printlevel mini
|  5>     print[ P_Basis ] 0
|  6>     print[ P_SCFInfo ] 1
|  7>     print[ P_SCFIterInfo ] 1
|  8>     print[ P_OrbEn ] 0
|  9>     print[ P_Cartesian ] 0
| 10> end
| 11> *xyz 0 1
| 12>  C        0.9975740000     0.0782180000    -0.0514360000
| 13>  C        2.4863360000    -0.0050370000    -0.1414410000
| 14>  O        3.0940200000    -0.2019140000    -1.1632440000
| 15>  C        3.2556890000     0.1804820000     1.1830110000
| 16>  O        2.6361150000     0.3784760000     2.2023500000
| 17>  C        4.7267050000     0.1002830000     1.0999330000
| 18>  C        5.4735640000     0.2479870000     2.1895410000
| 19>  H        0.5603640000    -0.0653110000    -1.0371460000
| 20>  H        0.7042080000     1.0456150000     0.3636300000
| 21>  H        0.6253930000    -0.6735740000     0.6489100000
| 22>  H        5.1537440000    -0.0818610000     0.1216600000
| 23>  H        5.0065120000     0.4293440000     3.1522860000
| 24>  H        6.5549670000     0.1926820000     2.1505360000
| 25> *
| 26>
| 27>                          ****END OF INPUT****
 Total Charge           Charge          ....    0
 Multiplicity           Mult            ....    1
 Number of Electrons    NEL             ....   52
 Basis Dimension        Dim             ....  128

MULLIKEN ATOMIC CHARGES
-----------------------
   0 C :    0.046126
   1 C :   -0.053961
   2 O :   -0.129464
   3 C :    0.029813
   4 O :   -0.137639
   5 C :   -0.051657
   6 C :    0.040272
   7 H :    0.036251
   8 H :    0.054317
   9 H :    0.056889
  10 H :    0.020117
  11 H :    0.043653
  12 H :    0.045284
Sum of atomic charges:    0.0000000

LOEWDIN ATOMIC CHARGES
----------------------
   0 C :   -0.081954
   1 C :    0.032703
   2 O :   -0.090376
   3 C :    0.018852
   4 O :   -0.100408
   5 C :   -0.064693
   6 C :    0.033537
   7 H :    0.039449
   8 H :    0.055869
   9 H :    0.056159
  10 H :    0.034048
  11 H :    0.032583
  12 H :    0.034229

  Mayer bond orders larger than 0.1
B(  0-C ,  1-C ) :   1.0508 B(  0-C ,  7-H ) :   0.9439 B(  0-C ,  8-H ) :   0.9310
B(  0-C ,  9-H ) :   0.9315 B(  1-C ,  2-O ) :   2.1759 B(  1-C ,  3-C ) :   0.8051
B(  3-C ,  4-O ) :   2.1455 B(  3-C ,  5-C ) :   1.0165 B(  5-C ,  6-C ) :   1.9021
B(  5-C , 10-H ) :   0.9477 B(  6-C , 11-H ) :   0.9308 B(  6-C , 12-H ) :   0.9447

FINAL SINGLE POINT ENERGY      -343.894365331726

DIPOLE MOMENT
-------------
                                X             Y             Z
Electronic contribution:      0.70540      -0.14690      -0.66967
Nuclear contribution   :     -0.56633       0.16794       0.84352
                        -----------------------------------------
Total Dipole Moment    :      0.13907       0.02104       0.17385
                        -----------------------------------------
Magnitude (a.u.)       :      0.22362
Magnitude (Debye)      :      0.56840

                             ****ORCA TERMINATED NORMALLY****
TOTAL RUN TIME: 0 days 0 hours 0 minutes 5 seconds 366 msec
