                         Program Version 3.0.3 - RELEASE   -
|  1> ! RI PBE def2-SVP def2-SVP/J NBO PAL2
|  2> % maxcore 2000
|  3> % output
|  4>     # printlevel mini
|  5>     print[ P_Basis ] 0
|  6>     print[ P_SCFInfo ] 1
|  7>     print[ P_SCFIterInfo ] 1
|  8>     print[ P_OrbEn ] 0
|  9>     print[ P_Cartesian ] 0
| 10> end
| 11> *xyz 0 1
| 12>  C        1.0080090000    -0.5693680000     0.0324420000
| 13>  C        2.1129880000     0.4071200000    -0.2024660000
| 14>  O        2.6226150000     0.6298800000    -1.2672180000
| 15>  C        2.6040890000     1.1642050000     1.0499210000
| 16>  O        2.1091110000     0.9585190000     2.1303310000
| 17>  C        3.6708230000     2.1103360000     0.8349750000
| 18>  C        4.5592420000     2.9011140000     0.6676000000
| 19>  H        0.7377820000    -1.0474950000    -0.9065560000
| 20>  H        0.1447550000    -0.0583530000     0.4660030000
| 21>  H        1.3191370000    -1.3150350000     0.7682550000
| 22>  H        5.3474500000     3.6029860000     0.5204110000
| 23> *
| 24>
| 25>                          ****END OF INPUT****
 Total Charge           Charge          ....    0
 Multiplicity           Mult            ....    1
 Number of Electrons    NEL             ....   50
 Basis Dimension        Dim             ....  118

MULLIKEN ATOMIC CHARGES
-----------------------
   0 C :    0.041258
   1 C :   -0.051219
   2 O :   -0.106618
   3 C :    0.019056
   4 O :   -0.117016
   5 C :    0.424178
   6 C :   -0.390764
   7 H :    0.040566
   8 H :    0.055745
   9 H :    0.057992
  10 H :    0.026823
Sum of atomic charges:    0.0000000

LOEWDIN ATOMIC CHARGES
----------------------
   0 C :   -0.082923
   1 C :    0.033470
   2 O :   -0.076931
   3 C :    0.009915
   4 O :   -0.070726
   5 C :   -0.031533
   6 C :    0.016423
   7 H :    0.042183
   8 H :    0.056856
   9 H :    0.057128
  10 H :    0.046138

  Mayer bond orders larger than 0.1
B(  0-C ,  1-C ) :   1.0479 B(  0-C ,  7-H ) :   0.9439 B(  0-C ,  8-H ) :   0.9311
B(  0-C ,  9-H ) :   0.9314 B(  1-C ,  2-O ) :   2.2181 B(  1-C ,  3-C ) :   0.8033
B(  3-C ,  4-O ) :   2.1448 B(  3-C ,  5-C ) :   0.8856 B(  4-O ,  6-C ) :   0.1171
B(  5-C ,  6-C ) :   2.2901 B(  6-C , 10-H ) :   1.0878

FINAL SINGLE POINT ENERGY      -342.640308641264

DIPOLE MOMENT
-------------
                                X             Y             Z
Electronic contribution:      2.79185       2.81281       0.86457
Nuclear contribution   :     -2.72511      -2.75788      -0.89522
                        -----------------------------------------
Total Dipole Moment    :      0.06674       0.05493      -0.03065
                        -----------------------------------------
Magnitude (a.u.)       :      0.09171
Magnitude (Debye)      :      0.23311

                             ****ORCA TERMINATED NORMALLY****
TOTAL RUN TIME: 0 days 0 hours 0 minutes 5 seconds 166 msec
