                         Program Version 3.0.3 - RELEASE   -
|  1> ! RI PBE def2-SVP def2-SVP/J NBO PAL2
|  2> % maxcore 2000
|  3> % output
|  4>     # printlevel mini
|  5>     print[ P_Basis ] 0
|  6>     print[ P_SCFInfo ] 1
|  7>     print[ P_SCFIterInfo ] 1
|  8>     print[ P_OrbEn ] 0
|  9>     print[ P_Cartesian ] 0
| 10> end
| 11> *xyz 0 1
| 12>  C        2.9284710000     0.9930180000     1.0731700000
| 13>  C        2.7050360000     0.1681660000    -0.1537100000
| 14>  O        1.9861120000     0.5194840000    -1.0591220000
| 15>  C        3.4157540000    -1.1822120000    -0.2678060000
| 16>  O        3.0806890000    -1.7828210000    -1.4797700000
| 17>  C        4.9020140000    -1.0286050000    -0.1381240000
| 18>  C        5.6146820000    -1.4676710000     0.8880890000
| 19>  H        2.1427220000     1.7408790000     1.1648090000
| 20>  H        3.8948640000     1.4981590000     0.9875860000
| 21>  H        2.9767930000     0.3707720000     1.9686850000
| 22>  H        3.0512770000    -1.7874090000     0.5793830000
| 23>  H        2.4560750000    -1.1703800000    -1.9036610000
| 24>  H        5.3839750000    -0.5319510000    -0.9772750000
| 25>  H        5.1497640000    -1.9917350000     1.7176400000
| 26>  H        6.6884930000    -1.3297940000     0.9337960000
| 27> *
| 28>
| 29>                          ****END OF INPUT****
 Total Charge           Charge          ....    0
 Multiplicity           Mult            ....    1
 Number of Electrons    NEL             ....   54
 Basis Dimension        Dim             ....  138

MULLIKEN ATOMIC CHARGES
-----------------------
   0 C :    0.050379
   1 C :   -0.072773
   2 O :   -0.173312
   3 C :    0.125705
   4 O :   -0.234677
   5 C :   -0.032157
   6 C :   -0.033270
   7 H :    0.047425
   8 H :    0.063627
   9 H :    0.037812
  10 H :    0.009686
  11 H :    0.146251
  12 H :    0.006568
  13 H :    0.024238
  14 H :    0.034498
Sum of atomic charges:    0.0000000

LOEWDIN ATOMIC CHARGES
----------------------
   0 C :   -0.081214
   1 C :    0.056751
   2 O :   -0.109029
   3 C :    0.011169
   4 O :   -0.101804
   5 C :   -0.033237
   6 C :   -0.055223
   7 H :    0.044637
   8 H :    0.060027
   9 H :    0.043949
  10 H :    0.029035
  11 H :    0.051473
  12 H :    0.030319
  13 H :    0.023564
  14 H :    0.029583

  Mayer bond orders larger than 0.1
B(  0-C ,  1-C ) :   1.0474 B(  0-C ,  7-H ) :   0.9394 B(  0-C ,  8-H ) :   0.9236
B(  0-C ,  9-H ) :   0.9411 B(  1-C ,  2-O ) :   2.1111 B(  1-C ,  3-C ) :   0.9064
B(  2-O , 11-H ) :   0.1125 B(  3-C ,  4-O ) :   1.1733 B(  3-C ,  5-C ) :   0.9895
B(  3-C , 10-H ) :   0.8792 B(  4-O , 11-H ) :   0.9335 B(  5-C ,  6-C ) :   1.9675
B(  5-C , 12-H ) :   0.9491 B(  6-C , 13-H ) :   0.9489 B(  6-C , 14-H ) :   0.9402

FINAL SINGLE POINT ENERGY      -345.089094940750

DIPOLE MOMENT
-------------
                                X             Y             Z
Electronic contribution:     -3.31678      -0.57614      -4.66785
Nuclear contribution   :      3.66010       1.01743       5.60791
                        -----------------------------------------
Total Dipole Moment    :      0.34332       0.44129       0.94006
                        -----------------------------------------
Magnitude (a.u.)       :      1.09376
Magnitude (Debye)      :      2.78013

                             ****ORCA TERMINATED NORMALLY****
TOTAL RUN TIME: 0 days 0 hours 0 minutes 6 seconds 764 msec
