                         Program Version 3.0.3 - RELEASE   -
|  1> ! RI PBE def2-SVP def2-SVP/J NBO PAL2
|  2> % maxcore 2000
|  3> % output
|  4>     # printlevel mini
|  5>     print[ P_Basis ] 0
|  6>     print[ P_SCFInfo ] 1
|  7>     print[ P_SCFIterInfo ] 1
|  8>     print[ P_OrbEn ] 0
|  9>     print[ P_Cartesian ] 0
| 10> end
| 11> *xyz 0 1
| 12>  C        1.6294850000    -0.8110790000     0.1938180000
| 13>  C        2.0391870000     0.5545410000    -0.2480330000
| 14>  O        1.5980620000     1.5720950000     0.2232670000
| 15>  C        3.0768440000     0.6786230000    -1.3780190000
| 16>  O        3.3454190000     2.0183970000    -1.6341560000
| 17>  C        4.2796470000    -0.0859190000    -1.0521080000
| 18>  C        5.2599830000    -0.7237420000    -0.7848390000
| 19>  H        0.7123840000    -0.7532840000     0.7771180000
| 20>  H        2.4267390000    -1.2333110000     0.8116790000
| 21>  H        1.5026760000    -1.4796940000    -0.6601730000
| 22>  H        2.6119610000     0.2111060000    -2.2631410000
| 23>  H        2.8020360000     2.5087890000    -0.9938780000
| 24>  H        6.1398760000    -1.2767130000    -0.5534450000
| 25> *
| 26>
| 27>                          ****END OF INPUT****
 Total Charge           Charge          ....    0
 Multiplicity           Mult            ....    1
 Number of Electrons    NEL             ....   52
 Basis Dimension        Dim             ....  128

MULLIKEN ATOMIC CHARGES
-----------------------
   0 C :    0.039073
   1 C :   -0.060833
   2 O :   -0.166964
   3 C :    0.153618
   4 O :   -0.223159
   5 C :    0.365560
   6 C :   -0.476966
   7 H :    0.048188
   8 H :    0.075915
   9 H :    0.045199
  10 H :    0.043260
  11 H :    0.149673
  12 H :    0.007436
Sum of atomic charges:   -0.0000000

LOEWDIN ATOMIC CHARGES
----------------------
   0 C :   -0.079855
   1 C :    0.066900
   2 O :   -0.099747
   3 C :    0.004237
   4 O :   -0.092416
   5 C :   -0.031799
   6 C :   -0.064825
   7 H :    0.045580
   8 H :    0.064441
   9 H :    0.048495
  10 H :    0.045719
  11 H :    0.054905
  12 H :    0.038365

  Mayer bond orders larger than 0.1
B(  0-C ,  1-C ) :   1.0557 B(  0-C ,  7-H ) :   0.9378 B(  0-C ,  8-H ) :   0.9231
B(  0-C ,  9-H ) :   0.9382 B(  1-C ,  2-O ) :   2.1245 B(  1-C ,  3-C ) :   0.8989
B(  2-O , 11-H ) :   0.1100 B(  3-C ,  4-O ) :   1.2345 B(  3-C ,  5-C ) :   0.8816
B(  3-C , 10-H ) :   0.8779 B(  4-O , 11-H ) :   0.9342 B(  5-C ,  6-C ) :   2.3876
B(  5-C , 12-H ) :  -0.1092 B(  6-C , 12-H ) :   1.0987

FINAL SINGLE POINT ENERGY      -343.840847600800

DIPOLE MOMENT
-------------
                                X             Y             Z
Electronic contribution:      1.27407       3.70603      -0.79448
Nuclear contribution   :     -1.51885      -4.77227       1.01000
                        -----------------------------------------
Total Dipole Moment    :     -0.24478      -1.06624       0.21552
                        -----------------------------------------
Magnitude (a.u.)       :      1.11501
Magnitude (Debye)      :      2.83412

                             ****ORCA TERMINATED NORMALLY****
TOTAL RUN TIME: 0 days 0 hours 0 minutes 6 seconds 233 msec
