                         Program Version 3.0.3 - RELEASE   -
|  1> ! RI PBE def2-SVP def2-SVP/J NBO PAL2
|  2> % maxcore 2000
|  3> % output
|  4>     # printlevel mini
|  5>     print[ P_Basis ] 0
|  6>     print[ P_SCFInfo ] 1
|  7>     print[ P_SCFIterInfo ] 1
|  8>     print[ P_OrbEn ] 0
|  9>     print[ P_Cartesian ] 0
| 10> end
| 11> *xyz 0 1
| 12>  C        2.8949080000    -1.5062300000    -0.2090210000
| 13>  C        2.3147800000    -0.1260490000    -0.2245960000
| 14>  O        1.1337090000     0.0966910000    -0.1404830000
| 15>  C        3.2588560000     1.0541770000    -0.3526050000
| 16>  O        4.5963410000     0.6315950000    -0.4394860000
| 17>  C        5.5301150000     1.5974950000    -0.5549720000
| 18>  C        5.3440380000     2.9123120000    -0.5987080000
| 19>  H        2.0926500000    -2.2350300000    -0.1138600000
| 20>  H        3.6036810000    -1.6058540000     0.6170770000
| 21>  H        3.4675640000    -1.6829760000    -1.1230840000
| 22>  H        3.1080220000     1.7046960000     0.5183590000
| 23>  H        2.9683180000     1.6250440000    -1.2438200000
| 24>  H        6.5183840000     1.1546860000    -0.6125340000
| 25>  H        4.3727090000     3.3841650000    -0.5440110000
| 26>  H        6.2090350000     3.5533890000    -0.6945770000
| 27> *
| 28>
| 29>                          ****END OF INPUT****
 Total Charge           Charge          ....    0
 Multiplicity           Mult            ....    1
 Number of Electrons    NEL             ....   54
 Basis Dimension        Dim             ....  138

MULLIKEN ATOMIC CHARGES
-----------------------
   0 C :    0.051032
   1 C :   -0.103976
   2 O :   -0.166335
   3 C :    0.168199
   4 O :   -0.264776
   5 C :    0.114907
   6 C :   -0.114998
   7 H :    0.038900
   8 H :    0.047637
   9 H :    0.046308
  10 H :    0.052053
  11 H :    0.052194
  12 H :    0.013755
  13 H :    0.033189
  14 H :    0.031910
Sum of atomic charges:   -0.0000000

LOEWDIN ATOMIC CHARGES
----------------------
   0 C :   -0.086890
   1 C :    0.049012
   2 O :   -0.117927
   3 C :    0.038098
   4 O :   -0.066987
   5 C :    0.034346
   6 C :   -0.149566
   7 H :    0.039257
   8 H :    0.050954
   9 H :    0.050636
  10 H :    0.037078
  11 H :    0.037235
  12 H :    0.024745
  13 H :    0.024729
  14 H :    0.035280

  Mayer bond orders larger than 0.1
B(  0-C ,  1-C ) :   1.0506 B(  0-C ,  7-H ) :   0.9448 B(  0-C ,  8-H ) :   0.9303
B(  0-C ,  9-H ) :   0.9302 B(  1-C ,  2-O ) :   2.1742 B(  1-C ,  3-C ) :   0.9250
B(  3-C ,  4-O ) :   0.9922 B(  3-C , 10-H ) :   0.9195 B(  3-C , 11-H ) :   0.9190
B(  4-O ,  5-C ) :   1.1366 B(  5-C ,  6-C ) :   1.8659 B(  5-C , 12-H ) :   0.9673
B(  6-C , 13-H ) :   0.9527 B(  6-C , 14-H ) :   0.9361

FINAL SINGLE POINT ENERGY      -345.081434976462

DIPOLE MOMENT
-------------
                                X             Y             Z
Electronic contribution:     -2.83283      -0.71917       0.25360
Nuclear contribution   :      3.58739       0.66571      -0.31295
                        -----------------------------------------
Total Dipole Moment    :      0.75456      -0.05346      -0.05935
                        -----------------------------------------
Magnitude (a.u.)       :      0.75877
Magnitude (Debye)      :      1.92865

                             ****ORCA TERMINATED NORMALLY****
TOTAL RUN TIME: 0 days 0 hours 0 minutes 6 seconds 839 msec
