                         Program Version 3.0.3 - RELEASE   -
|  1> ! RI PBE def2-SVP def2-SVP/J NBO PAL2
|  2> % maxcore 2000
|  3> % output
|  4>     # printlevel mini
|  5>     print[ P_Basis ] 0
|  6>     print[ P_SCFInfo ] 1
|  7>     print[ P_SCFIterInfo ] 1
|  8>     print[ P_OrbEn ] 0
|  9>     print[ P_Cartesian ] 0
| 10> end
| 11> *xyz 0 1
| 12>  C        0.9748890000     0.0371070000     0.0081680000
| 13>  C        2.4913030000     0.0831260000    -0.0221310000
| 14>  O        3.0525480000     0.2561090000     1.2737180000
| 15>  C        3.0908720000    -1.2236900000    -0.5738120000
| 16>  O        2.4460370000    -2.1538420000    -0.9593970000
| 17>  C        2.9841410000     1.1627050000    -0.8707310000
| 18>  C        3.3976130000     2.0021970000    -1.6212840000
| 19>  H        0.6406160000    -0.8099010000     0.6122410000
| 20>  H        0.5743200000    -0.0956100000    -0.9964360000
| 21>  H        0.5902190000     0.9653130000     0.4305620000
| 22>  H        2.5933230000    -0.3454060000     1.8691790000
| 23>  H        4.1985520000    -1.2394590000    -0.5337970000
| 24>  H        3.7600650000     2.7608520000    -2.2745810000
| 25> *
| 26>
| 27>                          ****END OF INPUT****
 Total Charge           Charge          ....    0
 Multiplicity           Mult            ....    1
 Number of Electrons    NEL             ....   52
 Basis Dimension        Dim             ....  128

MULLIKEN ATOMIC CHARGES
-----------------------
   0 C :    0.065631
   1 C :   -0.061089
   2 O :   -0.229993
   3 C :    0.127910
   4 O :   -0.136031
   5 C :    0.437015
   6 C :   -0.483989
   7 H :    0.022085
   8 H :    0.040150
   9 H :    0.039763
  10 H :    0.161997
  11 H :    0.006910
  12 H :    0.009641
Sum of atomic charges:    0.0000000

LOEWDIN ATOMIC CHARGES
----------------------
   0 C :   -0.050093
   1 C :   -0.032370
   2 O :   -0.076750
   3 C :    0.088730
   4 O :   -0.090343
   5 C :   -0.014604
   6 C :   -0.047961
   7 H :    0.029708
   8 H :    0.043559
   9 H :    0.036958
  10 H :    0.074796
  11 H :   -0.001912
  12 H :    0.040282

  Mayer bond orders larger than 0.1
B(  0-C ,  1-C ) :   1.0680 B(  0-C ,  7-H ) :   0.9422 B(  0-C ,  8-H ) :   0.9428
B(  0-C ,  9-H ) :   0.9534 B(  1-C ,  2-O ) :   1.0789 B(  1-C ,  3-C ) :   0.8661
B(  1-C ,  5-C ) :   0.8771 B(  2-O , 10-H ) :   0.9751 B(  3-C ,  4-O ) :   2.2082
B(  3-C , 11-H ) :   0.9296 B(  5-C ,  6-C ) :   2.3529 B(  5-C , 12-H ) :  -0.1140
B(  6-C , 12-H ) :   1.1032

FINAL SINGLE POINT ENERGY      -343.825686067942

DIPOLE MOMENT
-------------
                                X             Y             Z
Electronic contribution:      2.87203      -1.04744      -0.79959
Nuclear contribution   :     -3.08261       1.38259       1.06258
                        -----------------------------------------
Total Dipole Moment    :     -0.21058       0.33515       0.26299
                        -----------------------------------------
Magnitude (a.u.)       :      0.47522
Magnitude (Debye)      :      1.20792

                             ****ORCA TERMINATED NORMALLY****
TOTAL RUN TIME: 0 days 0 hours 0 minutes 6 seconds 253 msec
