                         Program Version 3.0.3 - RELEASE   -
|  1> ! RI PBE def2-SVP def2-SVP/J NBO PAL2
|  2> % maxcore 2000
|  3> % output
|  4>     # printlevel mini
|  5>     print[ P_Basis ] 0
|  6>     print[ P_SCFInfo ] 1
|  7>     print[ P_SCFIterInfo ] 1
|  8>     print[ P_OrbEn ] 0
|  9>     print[ P_Cartesian ] 0
| 10> end
| 11> *xyz 0 1
| 12>  C        1.0413660000     0.1159030000     0.0412740000
| 13>  C        2.5566880000     0.0226010000     0.1714100000
| 14>  O        3.1694440000     1.1856390000    -0.3715410000
| 15>  C        2.9855680000     0.0366870000     1.6429110000
| 16>  O        2.5572400000     1.1935790000     2.3116450000
| 17>  C        3.0623610000    -1.2356540000    -0.4769830000
| 18>  C        4.0613520000    -1.2967210000    -1.3447860000
| 19>  H        0.6735760000     0.9868840000     0.5845450000
| 20>  H        0.5584700000    -0.7749940000     0.4489840000
| 21>  H        0.7527110000     0.1980420000    -1.0107470000
| 22>  H        2.8131790000     1.3332810000    -1.2522320000
| 23>  H        4.0785340000    -0.0635270000     1.6732850000
| 24>  H        2.5497500000    -0.8188660000     2.1637070000
| 25>  H        2.8730900000     1.9391340000     1.7897360000
| 26>  H        2.5472240000    -2.1476250000    -0.1823090000
| 27>  H        4.5993730000    -0.4043240000    -1.6447260000
| 28>  H        4.3763750000    -2.2404170000    -1.7739950000
| 29> *
| 30>
| 31>                          ****END OF INPUT****
 Total Charge           Charge          ....    0
 Multiplicity           Mult            ....    1
 Number of Electrons    NEL             ....   56
 Basis Dimension        Dim             ....  148

MULLIKEN ATOMIC CHARGES
-----------------------
   0 C :    0.062749
   1 C :   -0.124876
   2 O :   -0.260976
   3 C :    0.263332
   4 O :   -0.276326
   5 C :   -0.038373
   6 C :   -0.027911
   7 H :    0.020830
   8 H :    0.014534
   9 H :    0.011137
  10 H :    0.159522
  11 H :    0.003813
  12 H :   -0.001891
  13 H :    0.155025
  14 H :   -0.001760
  15 H :    0.016613
  16 H :    0.024557
Sum of atomic charges:    0.0000000

LOEWDIN ATOMIC CHARGES
----------------------
   0 C :   -0.061022
   1 C :   -0.008640
   2 O :   -0.096924
   3 C :    0.060774
   4 O :   -0.111693
   5 C :   -0.038706
   6 C :   -0.061281
   7 H :    0.026378
   8 H :    0.030986
   9 H :    0.022865
  10 H :    0.070370
  11 H :    0.010057
  12 H :    0.020911
  13 H :    0.063323
  14 H :    0.027355
  15 H :    0.019347
  16 H :    0.025899

  Mayer bond orders larger than 0.1
B(  0-C ,  1-C ) :   1.0431 B(  0-C ,  7-H ) :   0.9399 B(  0-C ,  8-H ) :   0.9487
B(  0-C ,  9-H ) :   0.9558 B(  1-C ,  2-O ) :   1.0413 B(  1-C ,  3-C ) :   0.9803
B(  1-C ,  5-C ) :   0.9669 B(  2-O , 10-H ) :   0.9704 B(  3-C ,  4-O ) :   1.0849
B(  3-C , 11-H ) :   0.9270 B(  3-C , 12-H ) :   0.9306 B(  4-O , 13-H ) :   0.9682
B(  5-C ,  6-C ) :   2.0085 B(  5-C , 14-H ) :   0.9462 B(  6-C , 15-H ) :   0.9330
B(  6-C , 16-H ) :   0.9392

FINAL SINGLE POINT ENERGY      -346.279103453635

DIPOLE MOMENT
-------------
                                X             Y             Z
Electronic contribution:      1.53394       2.40051       1.45487
Nuclear contribution   :     -1.70178      -2.54770      -2.19593
                        -----------------------------------------
Total Dipole Moment    :     -0.16784      -0.14719      -0.74106
                        -----------------------------------------
Magnitude (a.u.)       :      0.77395
Magnitude (Debye)      :      1.96723

                             ****ORCA TERMINATED NORMALLY****
TOTAL RUN TIME: 0 days 0 hours 0 minutes 7 seconds 620 msec
