                         Program Version 3.0.3 - RELEASE   -
|  1> ! RI PBE def2-SVP def2-SVP/J NBO PAL2
|  2> % maxcore 2000
|  3> % output
|  4>     # printlevel mini
|  5>     print[ P_Basis ] 0
|  6>     print[ P_SCFInfo ] 1
|  7>     print[ P_SCFIterInfo ] 1
|  8>     print[ P_OrbEn ] 0
|  9>     print[ P_Cartesian ] 0
| 10> end
| 11> *xyz 0 1
| 12>  C        1.0374240000    -0.1527280000     0.0354590000
| 13>  C        2.5547690000    -0.1214890000     0.0201170000
| 14>  O        3.0109330000    -1.2567320000     0.7265290000
| 15>  C        3.0942410000    -0.1791260000    -1.4141450000
| 16>  O        4.4997150000    -0.2684770000    -1.4214470000
| 17>  C        3.0623720000     1.1133400000     0.6456720000
| 18>  C        3.5183150000     2.1211160000     1.1148160000
| 19>  H        0.6911960000    -1.0665260000    -0.4510870000
| 20>  H        0.6251760000     0.7138940000    -0.4834020000
| 21>  H        0.6781550000    -0.1480390000     1.0646420000
| 22>  H        3.9442560000    -1.3601810000     0.5011070000
| 23>  H        2.7358350000     0.6841640000    -1.9872970000
| 24>  H        2.7221010000    -1.0942550000    -1.8797170000
| 25>  H        4.8472100000     0.5646790000    -1.0836090000
| 26>  H        3.9029000000     3.0102690000     1.5567540000
| 27> *
| 28>
| 29>                          ****END OF INPUT****
 Total Charge           Charge          ....    0
 Multiplicity           Mult            ....    1
 Number of Electrons    NEL             ....   54
 Basis Dimension        Dim             ....  138

MULLIKEN ATOMIC CHARGES
-----------------------
   0 C :    0.071853
   1 C :   -0.092270
   2 O :   -0.241467
   3 C :    0.222503
   4 O :   -0.279876
   5 C :    0.425544
   6 C :   -0.532399
   7 H :    0.024555
   8 H :    0.024628
   9 H :    0.037495
  10 H :    0.148560
  11 H :    0.011482
  12 H :    0.017812
  13 H :    0.158696
  14 H :    0.002884
Sum of atomic charges:    0.0000000

LOEWDIN ATOMIC CHARGES
----------------------
   0 C :   -0.041831
   1 C :   -0.016540
   2 O :   -0.087770
   3 C :    0.057355
   4 O :   -0.107579
   5 C :   -0.029445
   6 C :   -0.084252
   7 H :    0.032148
   8 H :    0.033284
   9 H :    0.037814
  10 H :    0.060127
  11 H :    0.012605
  12 H :    0.025183
  13 H :    0.071734
  14 H :    0.037169

  Mayer bond orders larger than 0.1
B(  0-C ,  1-C ) :   1.0384 B(  0-C ,  7-H ) :   0.9472 B(  0-C ,  8-H ) :   0.9530
B(  0-C ,  9-H ) :   0.9530 B(  1-C ,  2-O ) :   1.0630 B(  1-C ,  3-C ) :   1.0028
B(  1-C ,  5-C ) :   0.8682 B(  2-O , 10-H ) :   0.9607 B(  3-C ,  4-O ) :   1.0522
B(  3-C , 11-H ) :   0.9316 B(  3-C , 12-H ) :   0.9245 B(  4-O , 13-H ) :   0.9738
B(  5-C ,  6-C ) :   2.3177 B(  5-C , 14-H ) :  -0.1190 B(  6-C , 14-H ) :   1.1076

FINAL SINGLE POINT ENERGY      -345.033378938853

DIPOLE MOMENT
-------------
                                X             Y             Z
Electronic contribution:      3.56277       0.21430       1.66508
Nuclear contribution   :     -3.55282       0.42439      -1.91907
                        -----------------------------------------
Total Dipole Moment    :      0.00995       0.63869      -0.25399
                        -----------------------------------------
Magnitude (a.u.)       :      0.68741
Magnitude (Debye)      :      1.74726

                             ****ORCA TERMINATED NORMALLY****
TOTAL RUN TIME: 0 days 0 hours 0 minutes 7 seconds 20 msec
