                         Program Version 3.0.3 - RELEASE   -
|  1> ! RI PBE def2-SVP def2-SVP/J NBO PAL2
|  2> % maxcore 2000
|  3> % output
|  4>     # printlevel mini
|  5>     print[ P_Basis ] 0
|  6>     print[ P_SCFInfo ] 1
|  7>     print[ P_SCFIterInfo ] 1
|  8>     print[ P_OrbEn ] 0
|  9>     print[ P_Cartesian ] 0
| 10> end
| 11> *xyz 0 1
| 12>  C        0.7312060000    -0.2594790000     0.1892800000
| 13>  C        2.2256640000    -0.0974980000    -0.0671650000
| 14>  O        2.4967710000    -0.1386200000    -1.4335960000
| 15>  C        2.7511950000     1.1975740000     0.5226740000
| 16>  O        3.2182700000     2.0380540000    -0.2170490000
| 17>  C        2.6779340000     1.3707160000     1.9896310000
| 18>  C        3.0671980000     2.4996200000     2.5708640000
| 19>  H        0.3929630000    -1.1836420000    -0.2807830000
| 20>  H        0.1815030000     0.5724350000    -0.2557510000
| 21>  H        0.4980970000    -0.3089700000     1.2548420000
| 22>  H        2.7614080000    -0.9154870000     0.4434990000
| 23>  H        2.9159830000     0.7127610000    -1.6384980000
| 24>  H        2.3007840000     0.5393390000     2.5761440000
| 25>  H        3.4426250000     3.3196420000     1.9679980000
| 26>  H        3.0228000000     2.6329430000     3.6450800000
| 27> *
| 28>
| 29>                          ****END OF INPUT****
 Total Charge           Charge          ....    0
 Multiplicity           Mult            ....    1
 Number of Electrons    NEL             ....   54
 Basis Dimension        Dim             ....  138

MULLIKEN ATOMIC CHARGES
-----------------------
   0 C :    0.013401
   1 C :    0.065053
   2 O :   -0.242934
   3 C :    0.016483
   4 O :   -0.183658
   5 C :   -0.050266
   6 C :    0.034055
   7 H :    0.041830
   8 H :    0.026180
   9 H :    0.014408
  10 H :    0.016058
  11 H :    0.148023
  12 H :    0.010855
  13 H :    0.048725
  14 H :    0.041786
Sum of atomic charges:   -0.0000000

LOEWDIN ATOMIC CHARGES
----------------------
   0 C :   -0.062150
   1 C :    0.011112
   2 O :   -0.106367
   3 C :    0.044932
   4 O :   -0.120036
   5 C :   -0.070080
   6 C :    0.028947
   7 H :    0.037285
   8 H :    0.031152
   9 H :    0.025473
  10 H :    0.026728
  11 H :    0.052910
  12 H :    0.030566
  13 H :    0.035713
  14 H :    0.033814

  Mayer bond orders larger than 0.1
B(  0-C ,  1-C ) :   1.0390 B(  0-C ,  7-H ) :   0.9571 B(  0-C ,  8-H ) :   0.9536
B(  0-C ,  9-H ) :   0.9479 B(  1-C ,  2-O ) :   1.1739 B(  1-C ,  3-C ) :   0.9393
B(  1-C , 10-H ) :   0.8856 B(  2-O , 11-H ) :   0.9375 B(  3-C ,  4-O ) :   2.0829
B(  3-C ,  5-C ) :   0.9973 B(  4-O , 11-H ) :   0.1067 B(  5-C ,  6-C ) :   1.9326
B(  5-C , 12-H ) :   0.9495 B(  6-C , 13-H ) :   0.9356 B(  6-C , 14-H ) :   0.9411

FINAL SINGLE POINT ENERGY      -345.092109161547

DIPOLE MOMENT
-------------
                                X             Y             Z
Electronic contribution:      3.54046       1.90391      -2.76792
Nuclear contribution   :     -3.77061      -1.88781       3.90834
                        -----------------------------------------
Total Dipole Moment    :     -0.23014       0.01610       1.14043
                        -----------------------------------------
Magnitude (a.u.)       :      1.16353
Magnitude (Debye)      :      2.95746

                             ****ORCA TERMINATED NORMALLY****
TOTAL RUN TIME: 0 days 0 hours 0 minutes 6 seconds 949 msec
