                         Program Version 3.0.3 - RELEASE   -
|  1> ! RI PBE def2-SVP def2-SVP/J NBO PAL2
|  2> % maxcore 2000
|  3> % output
|  4>     # printlevel mini
|  5>     print[ P_Basis ] 0
|  6>     print[ P_SCFInfo ] 1
|  7>     print[ P_SCFIterInfo ] 1
|  8>     print[ P_OrbEn ] 0
|  9>     print[ P_Cartesian ] 0
| 10> end
| 11> *xyz 0 1
| 12>  C        1.0411370000    -0.0899840000    -0.1931040000
| 13>  C        2.5414830000     0.0946070000    -0.0187480000
| 14>  O        3.2872950000    -0.5026420000    -1.0488070000
| 15>  C        2.8460150000     1.5800690000     0.1350280000
| 16>  O        2.8024950000     2.1488380000     1.1959400000
| 17>  C        3.1422170000     2.2862180000    -1.1028900000
| 18>  C        3.3576300000     2.8474660000    -2.1440720000
| 19>  H        0.8163970000    -1.1545510000    -0.2743730000
| 20>  H        0.6920800000     0.4080780000    -1.1028330000
| 21>  H        0.4971290000     0.3254750000     0.6571490000
| 22>  H        2.8691910000    -0.3782170000     0.9098040000
| 23>  H        3.0589190000    -0.0778150000    -1.8827340000
| 24>  H        3.5561130000     3.3712590000    -3.0508610000
| 25> *
| 26>
| 27>                          ****END OF INPUT****
 Total Charge           Charge          ....    0
 Multiplicity           Mult            ....    1
 Number of Electrons    NEL             ....   52
 Basis Dimension        Dim             ....  128

MULLIKEN ATOMIC CHARGES
-----------------------
   0 C :    0.012694
   1 C :    0.098839
   2 O :   -0.265791
   3 C :    0.024405
   4 O :   -0.133579
   5 C :    0.373181
   6 C :   -0.411664
   7 H :    0.043342
   8 H :    0.015698
   9 H :    0.035000
  10 H :    0.024048
  11 H :    0.158660
  12 H :    0.025165
Sum of atomic charges:   -0.0000000

LOEWDIN ATOMIC CHARGES
----------------------
   0 C :   -0.067401
   1 C :    0.021318
   2 O :   -0.094688
   3 C :    0.031778
   4 O :   -0.086111
   5 C :   -0.042508
   6 C :   -0.012376
   7 H :    0.036242
   8 H :    0.026793
   9 H :    0.038779
  10 H :    0.037694
  11 H :    0.065367
  12 H :    0.045113

  Mayer bond orders larger than 0.1
B(  0-C ,  1-C ) :   1.0730 B(  0-C ,  7-H ) :   0.9562 B(  0-C ,  8-H ) :   0.9529
B(  0-C ,  9-H ) :   0.9450 B(  1-C ,  2-O ) :   1.0510 B(  1-C ,  3-C ) :   0.9247
B(  1-C , 10-H ) :   0.8882 B(  2-O , 11-H ) :   0.9711 B(  3-C ,  4-O ) :   2.1586
B(  3-C ,  5-C ) :   0.8621 B(  4-O ,  6-C ) :   0.1087 B(  5-C ,  6-C ) :   2.3038
B(  5-C , 12-H ) :  -0.1014 B(  6-C , 12-H ) :   1.0892

FINAL SINGLE POINT ENERGY      -343.834488330068

DIPOLE MOMENT
-------------
                                X             Y             Z
Electronic contribution:      3.97000       3.93055       0.94421
Nuclear contribution   :     -4.37552      -3.95444      -2.00558
                        -----------------------------------------
Total Dipole Moment    :     -0.40552      -0.02389      -1.06137
                        -----------------------------------------
Magnitude (a.u.)       :      1.13645
Magnitude (Debye)      :      2.88863

                             ****ORCA TERMINATED NORMALLY****
TOTAL RUN TIME: 0 days 0 hours 0 minutes 6 seconds 34 msec
