                         Program Version 3.0.3 - RELEASE   -
|  1> ! RI PBE def2-SVP def2-SVP/J NBO PAL2
|  2> % maxcore 2000
|  3> % output
|  4>     # printlevel mini
|  5>     print[ P_Basis ] 0
|  6>     print[ P_SCFInfo ] 1
|  7>     print[ P_SCFIterInfo ] 1
|  8>     print[ P_OrbEn ] 0
|  9>     print[ P_Cartesian ] 0
| 10> end
| 11> *xyz 0 1
| 12>  C        3.6701410000     0.5782020000     1.3258870000
| 13>  C        2.8957790000     0.1667300000     0.0920520000
| 14>  O        2.8905420000     1.1827530000    -0.8987480000
| 15>  C        3.3570060000    -1.1517440000    -0.5525220000
| 16>  O        2.5262150000    -1.4302890000    -1.6503800000
| 17>  C        4.8129730000    -1.1087660000    -0.9188790000
| 18>  C        5.2768710000    -1.1332660000    -2.1604260000
| 19>  H        3.2198130000     1.4687580000     1.7668640000
| 20>  H        4.7106370000     0.8110520000     1.0852130000
| 21>  H        3.6648240000    -0.2171020000     2.0760140000
| 22>  H        1.8414700000     0.0311690000     0.3508690000
| 23>  H        3.8017630000     1.3098550000    -1.1895180000
| 24>  H        3.2046930000    -1.9568570000     0.1776410000
| 25>  H        2.3204810000    -0.5760420000    -2.0514540000
| 26>  H        5.5103510000    -1.0507480000    -0.0862860000
| 27>  H        4.6027260000    -1.2286370000    -3.0039960000
| 28>  H        6.3401150000    -1.0936590000    -2.3663290000
| 29> *
| 30>
| 31>                          ****END OF INPUT****
 Total Charge           Charge          ....    0
 Multiplicity           Mult            ....    1
 Number of Electrons    NEL             ....   56
 Basis Dimension        Dim             ....  148

MULLIKEN ATOMIC CHARGES
-----------------------
   0 C :    0.016341
   1 C :    0.043527
   2 O :   -0.283356
   3 C :    0.161107
   4 O :   -0.252998
   5 C :   -0.109058
   6 C :   -0.030136
   7 H :    0.030862
   8 H :    0.015066
   9 H :    0.025480
  10 H :    0.014583
  11 H :    0.152901
  12 H :    0.010352
  13 H :    0.148585
  14 H :    0.006603
  15 H :    0.022537
  16 H :    0.027603
Sum of atomic charges:   -0.0000000

LOEWDIN ATOMIC CHARGES
----------------------
   0 C :   -0.077115
   1 C :    0.031586
   2 O :   -0.104047
   3 C :    0.025779
   4 O :   -0.099011
   5 C :   -0.058010
   6 C :   -0.058325
   7 H :    0.034016
   8 H :    0.024150
   9 H :    0.033590
  10 H :    0.025337
  11 H :    0.065620
  12 H :    0.029328
  13 H :    0.054728
  14 H :    0.025341
  15 H :    0.021358
  16 H :    0.025673

  Mayer bond orders larger than 0.1
B(  0-C ,  1-C ) :   1.0881 B(  0-C ,  7-H ) :   0.9476 B(  0-C ,  8-H ) :   0.9426
B(  0-C ,  9-H ) :   0.9506 B(  1-C ,  2-O ) :   1.0005 B(  1-C ,  3-C ) :   0.9952
B(  1-C , 10-H ) :   0.9063 B(  2-O , 11-H ) :   0.9725 B(  3-C ,  4-O ) :   1.1118
B(  3-C ,  5-C ) :   0.9647 B(  3-C , 12-H ) :   0.8906 B(  4-O , 13-H ) :   0.9545
B(  5-C ,  6-C ) :   1.9924 B(  5-C , 14-H ) :   0.9421 B(  6-C , 15-H ) :   0.9340
B(  6-C , 16-H ) :   0.9460

FINAL SINGLE POINT ENERGY      -346.279990453302

DIPOLE MOMENT
-------------
                                X             Y             Z
Electronic contribution:     -2.53646      -0.82363      -2.99414
Nuclear contribution   :      3.09410       1.17789       3.43115
                        -----------------------------------------
Total Dipole Moment    :      0.55764       0.35426       0.43701
                        -----------------------------------------
Magnitude (a.u.)       :      0.79211
Magnitude (Debye)      :      2.01338

                             ****ORCA TERMINATED NORMALLY****
TOTAL RUN TIME: 0 days 0 hours 0 minutes 7 seconds 645 msec
