                         Program Version 3.0.3 - RELEASE   -
|  1> ! RI PBE def2-SVP def2-SVP/J NBO PAL2
|  2> % maxcore 2000
|  3> % output
|  4>     # printlevel mini
|  5>     print[ P_Basis ] 0
|  6>     print[ P_SCFInfo ] 1
|  7>     print[ P_SCFIterInfo ] 1
|  8>     print[ P_OrbEn ] 0
|  9>     print[ P_Cartesian ] 0
| 10> end
| 11> *xyz 0 1
| 12>  C        0.9397380000     0.0775800000    -0.0762470000
| 13>  C        2.4474590000    -0.0171190000    -0.0284680000
| 14>  O        2.9482400000    -0.0275740000     1.2963170000
| 15>  C        3.0192290000    -1.2272530000    -0.7835130000
| 16>  O        4.4246770000    -1.1824260000    -0.7675310000
| 17>  C        2.5078960000    -2.4776850000    -0.2093470000
| 18>  C        2.0919940000    -3.4792340000     0.3072670000
| 19>  H        0.6068110000     0.9676140000     0.4597790000
| 20>  H        0.4790540000    -0.8010470000     0.3834820000
| 21>  H        0.5845020000     0.1428130000    -1.1077280000
| 22>  H        2.8967970000     0.8658400000    -0.4919390000
| 23>  H        2.5282780000    -0.7613670000     1.7604840000
| 24>  H        2.7161990000    -1.1698070000    -1.8340320000
| 25>  H        4.6727890000    -0.9757570000     0.1427430000
| 26>  H        1.7344400000    -4.3836680000     0.7408320000
| 27> *
| 28>
| 29>                          ****END OF INPUT****
 Total Charge           Charge          ....    0
 Multiplicity           Mult            ....    1
 Number of Electrons    NEL             ....   54
 Basis Dimension        Dim             ....  138

MULLIKEN ATOMIC CHARGES
-----------------------
   0 C :    0.018941
   1 C :    0.052863
   2 O :   -0.281729
   3 C :    0.197482
   4 O :   -0.255290
   5 C :    0.339224
   6 C :   -0.496647
   7 H :    0.033079
   8 H :    0.023939
   9 H :    0.019840
  10 H :    0.014231
  11 H :    0.156026
  12 H :    0.023514
  13 H :    0.149982
  14 H :    0.004546
Sum of atomic charges:    0.0000000

LOEWDIN ATOMIC CHARGES
----------------------
   0 C :   -0.074009
   1 C :    0.034643
   2 O :   -0.102888
   3 C :    0.020203
   4 O :   -0.092676
   5 C :   -0.037528
   6 C :   -0.079616
   7 H :    0.033562
   8 H :    0.028514
   9 H :    0.033929
  10 H :    0.027002
  11 H :    0.069211
  12 H :    0.041460
  13 H :    0.060710
  14 H :    0.037485

  Mayer bond orders larger than 0.1
B(  0-C ,  1-C ) :   1.0782 B(  0-C ,  7-H ) :   0.9507 B(  0-C ,  8-H ) :   0.9478
B(  0-C ,  9-H ) :   0.9487 B(  1-C ,  2-O ) :   1.0056 B(  1-C ,  3-C ) :   0.9957
B(  1-C , 10-H ) :   0.9059 B(  2-O , 11-H ) :   0.9768 B(  3-C ,  4-O ) :   1.0723
B(  3-C ,  5-C ) :   0.9136 B(  3-C , 12-H ) :   0.8735 B(  4-O , 13-H ) :   0.9636
B(  5-C ,  6-C ) :   2.3430 B(  5-C , 14-H ) :  -0.1124 B(  6-C , 14-H ) :   1.1016

FINAL SINGLE POINT ENERGY      -345.033965647864

DIPOLE MOMENT
-------------
                                X             Y             Z
Electronic contribution:      3.99122      -2.69569       0.16712
Nuclear contribution   :     -4.73244       2.60534       0.13175
                        -----------------------------------------
Total Dipole Moment    :     -0.74122      -0.09035       0.29887
                        -----------------------------------------
Magnitude (a.u.)       :      0.80430
Magnitude (Debye)      :      2.04436

                             ****ORCA TERMINATED NORMALLY****
TOTAL RUN TIME: 0 days 0 hours 0 minutes 7 seconds 16 msec
