                         Program Version 3.0.3 - RELEASE   -
|  1> ! RI PBE def2-SVP def2-SVP/J NBO PAL2
|  2> % maxcore 2000
|  3> % output
|  4>     # printlevel mini
|  5>     print[ P_Basis ] 0
|  6>     print[ P_SCFInfo ] 1
|  7>     print[ P_SCFIterInfo ] 1
|  8>     print[ P_OrbEn ] 0
|  9>     print[ P_Cartesian ] 0
| 10> end
| 11> *xyz 0 1
| 12>  C        2.4289580000    -1.5525360000     0.2325130000
| 13>  C        2.2511220000    -0.0467070000     0.1531120000
| 14>  O        2.7461770000     0.6003640000     1.3074680000
| 15>  C        2.8675360000     0.5535360000    -1.0953240000
| 16>  O        4.2647530000     0.3350350000    -1.0315120000
| 17>  C        5.0136740000     0.8381410000    -2.0301900000
| 18>  C        4.6043420000     1.5103180000    -3.1011930000
| 19>  H        1.9720370000    -1.9297380000     1.1483890000
| 20>  H        3.4887590000    -1.8173040000     0.2384010000
| 21>  H        1.9598220000    -2.0501060000    -0.6204010000
| 22>  H        1.1821240000     0.1889100000     0.1242870000
| 23>  H        3.7061360000     0.5319500000     1.2795480000
| 24>  H        2.6672040000     1.6306210000    -1.1290010000
| 25>  H        2.4563320000     0.0878150000    -1.9997360000
| 26>  H        6.0625860000     0.6201340000    -1.8588830000
| 27>  H        3.5679140000     1.7437350000    -3.3015980000
| 28>  H        5.3433930000     1.8459210000    -3.8150790000
| 29> *
| 30>
| 31>                          ****END OF INPUT****
 Total Charge           Charge          ....    0
 Multiplicity           Mult            ....    1
 Number of Electrons    NEL             ....   56
 Basis Dimension        Dim             ....  148

MULLIKEN ATOMIC CHARGES
-----------------------
   0 C :    0.008492
   1 C :    0.075601
   2 O :   -0.280610
   3 C :    0.142033
   4 O :   -0.278102
   5 C :    0.109829
   6 C :   -0.115880
   7 H :    0.030459
   8 H :    0.019795
   9 H :    0.011213
  10 H :    0.009191
  11 H :    0.152687
  12 H :    0.025552
  13 H :    0.016096
  14 H :    0.014943
  15 H :    0.029431
  16 H :    0.029270
Sum of atomic charges:   -0.0000000

LOEWDIN ATOMIC CHARGES
----------------------
   0 C :   -0.076660
   1 C :    0.029918
   2 O :   -0.110776
   3 C :    0.057436
   4 O :   -0.070305
   5 C :    0.031532
   6 C :   -0.151448
   7 H :    0.030995
   8 H :    0.025082
   9 H :    0.028161
  10 H :    0.027872
  11 H :    0.062303
  12 H :    0.018002
  13 H :    0.016438
  14 H :    0.023854
  15 H :    0.023512
  16 H :    0.034084

  Mayer bond orders larger than 0.1
B(  0-C ,  1-C ) :   1.0757 B(  0-C ,  7-H ) :   0.9587 B(  0-C ,  8-H ) :   0.9572
B(  0-C ,  9-H ) :   0.9484 B(  1-C ,  2-O ) :   1.0403 B(  1-C ,  3-C ) :   1.0389
B(  1-C , 10-H ) :   0.9056 B(  2-O , 11-H ) :   0.9795 B(  3-C ,  4-O ) :   0.9604
B(  3-C , 12-H ) :   0.9263 B(  3-C , 13-H ) :   0.9243 B(  4-O ,  5-C ) :   1.1445
B(  4-O ,  6-C ) :   0.1003 B(  5-C ,  6-C ) :   1.8739 B(  5-C , 14-H ) :   0.9636
B(  6-C , 15-H ) :   0.9527 B(  6-C , 16-H ) :   0.9358

FINAL SINGLE POINT ENERGY      -346.275663918167

DIPOLE MOMENT
-------------
                                X             Y             Z
Electronic contribution:      1.89904       1.88890       1.91818
Nuclear contribution   :     -1.83830      -2.08694      -2.33510
                        -----------------------------------------
Total Dipole Moment    :      0.06074      -0.19804      -0.41692
                        -----------------------------------------
Magnitude (a.u.)       :      0.46554
Magnitude (Debye)      :      1.18331

                             ****ORCA TERMINATED NORMALLY****
TOTAL RUN TIME: 0 days 0 hours 0 minutes 7 seconds 377 msec
