                         Program Version 3.0.3 - RELEASE   -
|  1> ! RI PBE def2-SVP def2-SVP/J NBO PAL2
|  2> % maxcore 2000
|  3> % output
|  4>     # printlevel mini
|  5>     print[ P_Basis ] 0
|  6>     print[ P_SCFInfo ] 1
|  7>     print[ P_SCFIterInfo ] 1
|  8>     print[ P_OrbEn ] 0
|  9>     print[ P_Cartesian ] 0
| 10> end
| 11> *xyz 0 1
| 12>  C        0.7989290000    -0.2035340000     0.0607800000
| 13>  C        2.2833660000     0.0503250000    -0.1127310000
| 14>  O        2.4744240000     1.0627990000    -1.1333440000
| 15>  C        2.5334810000     0.6426710000    -2.3926240000
| 16>  O        2.4386140000    -0.4886780000    -2.7723440000
| 17>  C        2.9276470000     0.5739970000     1.1267620000
| 18>  C        3.8573100000    -0.0799340000     1.8054300000
| 19>  H        0.3626820000    -0.5656850000    -0.8712290000
| 20>  H        0.2862770000     0.7127060000     0.3623130000
| 21>  H        0.6415250000    -0.9577030000     0.8339180000
| 22>  H        2.7836130000    -0.8610240000    -0.4464830000
| 23>  H        2.6899390000     1.5093900000    -3.0522380000
| 24>  H        2.5681100000     1.5396800000     1.4754950000
| 25>  H        4.2318940000    -1.0420680000     1.4699210000
| 26>  H        4.2763700000     0.3185490000     2.7218830000
| 27> *
| 28>
| 29>                          ****END OF INPUT****
 Total Charge           Charge          ....    0
 Multiplicity           Mult            ....    1
 Number of Electrons    NEL             ....   54
 Basis Dimension        Dim             ....  138

MULLIKEN ATOMIC CHARGES
-----------------------
   0 C :    0.020487
   1 C :    0.083551
   2 O :   -0.241581
   3 C :    0.206158
   4 O :   -0.208939
   5 C :   -0.035727
   6 C :   -0.019172
   7 H :    0.040100
   8 H :    0.026528
   9 H :    0.036136
  10 H :    0.015398
  11 H :    0.009327
  12 H :    0.009534
  13 H :    0.026120
  14 H :    0.032080
Sum of atomic charges:   -0.0000000

LOEWDIN ATOMIC CHARGES
----------------------
   0 C :   -0.062079
   1 C :    0.060455
   2 O :   -0.055904
   3 C :    0.070192
   4 O :   -0.147102
   5 C :   -0.031034
   6 C :   -0.041800
   7 H :    0.035261
   8 H :    0.030345
   9 H :    0.038760
  10 H :    0.022563
  11 H :   -0.003809
  12 H :    0.029357
  13 H :    0.025871
  14 H :    0.028926

  Mayer bond orders larger than 0.1
B(  0-C ,  1-C ) :   1.0891 B(  0-C ,  7-H ) :   0.9490 B(  0-C ,  8-H ) :   0.9517
B(  0-C ,  9-H ) :   0.9579 B(  1-C ,  2-O ) :   0.8650 B(  1-C ,  5-C ) :   1.0265
B(  1-C , 10-H ) :   0.9154 B(  2-O ,  3-C ) :   1.2132 B(  2-O ,  4-O ) :   0.1091
B(  3-C ,  4-O ) :   2.0275 B(  3-C , 11-H ) :   0.9334 B(  5-C ,  6-C ) :   2.0147
B(  5-C , 12-H ) :   0.9489 B(  6-C , 13-H ) :   0.9472 B(  6-C , 14-H ) :   0.9435

FINAL SINGLE POINT ENERGY      -345.100847481343

DIPOLE MOMENT
-------------
                                X             Y             Z
Electronic contribution:      1.58506       1.31796      -5.67210
Nuclear contribution   :     -1.66908      -1.00807       6.35459
                        -----------------------------------------
Total Dipole Moment    :     -0.08402       0.30989       0.68248
                        -----------------------------------------
Magnitude (a.u.)       :      0.75424
Magnitude (Debye)      :      1.91712

                             ****ORCA TERMINATED NORMALLY****
TOTAL RUN TIME: 0 days 0 hours 0 minutes 6 seconds 972 msec
