                         Program Version 3.0.3 - RELEASE   -
|  1> ! RI PBE def2-SVP def2-SVP/J NBO PAL2
|  2> % maxcore 2000
|  3> % output
|  4>     # printlevel mini
|  5>     print[ P_Basis ] 0
|  6>     print[ P_SCFInfo ] 1
|  7>     print[ P_SCFIterInfo ] 1
|  8>     print[ P_OrbEn ] 0
|  9>     print[ P_Cartesian ] 0
| 10> end
| 11> *xyz 0 1
| 12>  C        0.8993920000    -0.0790400000    -0.2145030000
| 13>  C        2.3938610000     0.0845320000    -0.0056980000
| 14>  O        2.6764830000     1.4083360000     0.5028360000
| 15>  C        2.8757220000     2.3566540000    -0.4110920000
| 16>  O        2.8397410000     2.2168480000    -1.5985000000
| 17>  C        2.9349700000    -0.8721180000     0.9469970000
| 18>  C        3.3594830000    -1.6902790000     1.7137930000
| 19>  H        0.5502440000     0.6394790000    -0.9567930000
| 20>  H        0.3671180000     0.0762520000     0.7246720000
| 21>  H        0.6861820000    -1.0866310000    -0.5741120000
| 22>  H        2.9126280000    -0.0187780000    -0.9628960000
| 23>  H        3.0842350000     3.3065700000     0.1020900000
| 24>  H        3.7422390000    -2.4113240000     2.3971060000
| 25> *
| 26>
| 27>                          ****END OF INPUT****
 Total Charge           Charge          ....    0
 Multiplicity           Mult            ....    1
 Number of Electrons    NEL             ....   52
 Basis Dimension        Dim             ....  128

MULLIKEN ATOMIC CHARGES
-----------------------
   0 C :    0.011431
   1 C :    0.097176
   2 O :   -0.235770
   3 C :    0.218971
   4 O :   -0.206263
   5 C :    0.382458
   6 C :   -0.467072
   7 H :    0.041965
   8 H :    0.042238
   9 H :    0.041804
  10 H :    0.049909
  11 H :    0.014031
  12 H :    0.009123
Sum of atomic charges:   -0.0000000

LOEWDIN ATOMIC CHARGES
----------------------
   0 C :   -0.051834
   1 C :    0.053404
   2 O :   -0.049338
   3 C :    0.077412
   4 O :   -0.141378
   5 C :   -0.026177
   6 C :   -0.055894
   7 H :    0.036073
   8 H :    0.036279
   9 H :    0.042241
  10 H :    0.040338
  11 H :    0.000040
  12 H :    0.038834

  Mayer bond orders larger than 0.1
B(  0-C ,  1-C ) :   1.0973 B(  0-C ,  7-H ) :   0.9506 B(  0-C ,  8-H ) :   0.9537
B(  0-C ,  9-H ) :   0.9567 B(  1-C ,  2-O ) :   0.9044 B(  1-C ,  5-C ) :   0.9746
B(  1-C , 10-H ) :   0.8938 B(  2-O ,  3-C ) :   1.1989 B(  2-O ,  4-O ) :   0.1093
B(  3-C ,  4-O ) :   2.0245 B(  3-C , 11-H ) :   0.9353 B(  5-C ,  6-C ) :   2.3730
B(  5-C , 12-H ) :  -0.1066 B(  6-C , 12-H ) :   1.0967

FINAL SINGLE POINT ENERGY      -343.853494442930

DIPOLE MOMENT
-------------
                                X             Y             Z
Electronic contribution:      3.44713       2.37095       0.22092
Nuclear contribution   :     -3.66202      -2.70823       0.23135
                        -----------------------------------------
Total Dipole Moment    :     -0.21489      -0.33728       0.45227
                        -----------------------------------------
Magnitude (a.u.)       :      0.60373
Magnitude (Debye)      :      1.53455

                             ****ORCA TERMINATED NORMALLY****
TOTAL RUN TIME: 0 days 0 hours 0 minutes 6 seconds 608 msec
