                         Program Version 3.0.3 - RELEASE   -
|  1> ! RI PBE def2-SVP def2-SVP/J NBO PAL2
|  2> % maxcore 2000
|  3> % output
|  4>     # printlevel mini
|  5>     print[ P_Basis ] 0
|  6>     print[ P_SCFInfo ] 1
|  7>     print[ P_SCFIterInfo ] 1
|  8>     print[ P_OrbEn ] 0
|  9>     print[ P_Cartesian ] 0
| 10> end
| 11> *xyz 0 1
| 12>  C        3.0208510000     1.6139850000    -0.2760330000
| 13>  C        2.5530470000     0.5106290000     0.6417320000
| 14>  O        3.1527030000     0.6151350000     1.9395530000
| 15>  C        4.3579860000     0.0474640000     2.0929080000
| 16>  O        4.9392610000    -0.5374410000     1.2181310000
| 17>  C        4.8662730000     0.2415530000     3.4961050000
| 18>  C        6.2210970000    -0.3929510000     3.7307210000
| 19>  H        2.4958160000     1.5467460000    -1.2319740000
| 20>  H        4.0909800000     1.5282960000    -0.4689260000
| 21>  H        2.8154510000     2.5947700000     0.1578070000
| 22>  H        2.7830270000    -0.4709840000     0.2240640000
| 23>  H        1.4805350000     0.5786930000     0.8287010000
| 24>  H        4.1089470000    -0.1595630000     4.1770340000
| 25>  H        4.8868850000     1.3189320000     3.6891050000
| 26>  H        6.1868800000    -1.4684190000     3.5513420000
| 27>  H        6.5485840000    -0.2254160000     4.7584110000
| 28>  H        6.9714660000     0.0243710000     3.0578280000
| 29> *
| 30>
| 31>                          ****END OF INPUT****
 Total Charge           Charge          ....    0
 Multiplicity           Mult            ....    1
 Number of Electrons    NEL             ....   56
 Basis Dimension        Dim             ....  148

MULLIKEN ATOMIC CHARGES
-----------------------
   0 C :   -0.050844
   1 C :    0.135026
   2 O :   -0.263259
   3 C :    0.098350
   4 O :   -0.196269
   5 C :   -0.036230
   6 C :   -0.015845
   7 H :    0.028999
   8 H :    0.044047
   9 H :    0.031249
  10 H :    0.027343
  11 H :    0.027584
  12 H :    0.040809
  13 H :    0.041366
  14 H :    0.038187
  15 H :    0.016711
  16 H :    0.032774
Sum of atomic charges:   -0.0000000

LOEWDIN ATOMIC CHARGES
----------------------
   0 C :   -0.077646
   1 C :    0.066897
   2 O :   -0.069085
   3 C :    0.046506
   4 O :   -0.154256
   5 C :   -0.074542
   6 C :   -0.062900
   7 H :    0.036600
   8 H :    0.034048
   9 H :    0.028977
  10 H :    0.018876
  11 H :    0.023526
  12 H :    0.045475
  13 H :    0.045273
  14 H :    0.032701
  15 H :    0.027764
  16 H :    0.031785

  Mayer bond orders larger than 0.1
B(  0-C ,  1-C ) :   1.1390 B(  0-C ,  7-H ) :   0.9545 B(  0-C ,  8-H ) :   0.9608
B(  0-C ,  9-H ) :   0.9631 B(  1-C ,  2-O ) :   0.9235 B(  1-C , 10-H ) :   0.9323
B(  1-C , 11-H ) :   0.9507 B(  2-O ,  3-C ) :   1.1927 B(  3-C ,  4-O ) :   2.0606
B(  3-C ,  5-C ) :   0.9884 B(  5-C ,  6-C ) :   1.1201 B(  5-C , 12-H ) :   0.9138
B(  5-C , 13-H ) :   0.9178 B(  6-C , 14-H ) :   0.9670 B(  6-C , 15-H ) :   0.9566
B(  6-C , 16-H ) :   0.9655

FINAL SINGLE POINT ENERGY      -346.335666045250

DIPOLE MOMENT
-------------
                                X             Y             Z
Electronic contribution:     -1.19890      -1.72325      -0.30248
Nuclear contribution   :      0.73981       2.10265       0.51531
                        -----------------------------------------
Total Dipole Moment    :     -0.45908       0.37940       0.21283
                        -----------------------------------------
Magnitude (a.u.)       :      0.63246
Magnitude (Debye)      :      1.60758

                             ****ORCA TERMINATED NORMALLY****
TOTAL RUN TIME: 0 days 0 hours 0 minutes 7 seconds 742 msec
