                         Program Version 3.0.3 - RELEASE   -
|  1> ! RI PBE def2-SVP def2-SVP/J NBO PAL2
|  2> % maxcore 2000
|  3> % output
|  4>     # printlevel mini
|  5>     print[ P_Basis ] 0
|  6>     print[ P_SCFInfo ] 1
|  7>     print[ P_SCFIterInfo ] 1
|  8>     print[ P_OrbEn ] 0
|  9>     print[ P_Cartesian ] 0
| 10> end
| 11> *xyz 0 1
| 12>  C        4.4288970000    -0.8386060000    -1.2746420000
| 13>  C        3.6926010000    -0.8486770000     0.0432240000
| 14>  O        3.2365840000     0.4626540000     0.3987110000
| 15>  C        4.1077910000     1.2418670000     1.0557300000
| 16>  O        5.2216420000     0.9019120000     1.3617380000
| 17>  C        3.5034130000     2.5604870000     1.3496350000
| 18>  C        4.1905940000     3.4889850000     2.0000190000
| 19>  H        4.7024560000    -1.8596770000    -1.5511510000
| 20>  H        5.3434850000    -0.2485880000    -1.2025560000
| 21>  H        3.8019560000    -0.4260140000    -2.0675720000
| 22>  H        4.3267250000    -1.2308010000     0.8447700000
| 23>  H        2.7836300000    -1.4488570000    -0.0144250000
| 24>  H        2.4868090000     2.7214660000     1.0101520000
| 25>  H        5.2062080000     3.2877750000     2.3229020000
| 26>  H        3.7629190000     4.4586540000     2.2240670000
| 27> *
| 28>
| 29>                          ****END OF INPUT****
 Total Charge           Charge          ....    0
 Multiplicity           Mult            ....    1
 Number of Electrons    NEL             ....   54
 Basis Dimension        Dim             ....  138

MULLIKEN ATOMIC CHARGES
-----------------------
   0 C :   -0.052621
   1 C :    0.132330
   2 O :   -0.260233
   3 C :    0.154070
   4 O :   -0.191758
   5 C :   -0.073480
   6 C :    0.026382
   7 H :    0.030076
   8 H :    0.044023
   9 H :    0.035197
  10 H :    0.033504
  11 H :    0.026687
  12 H :    0.013987
  13 H :    0.045786
  14 H :    0.036051
Sum of atomic charges:    0.0000000

LOEWDIN ATOMIC CHARGES
----------------------
   0 C :   -0.077536
   1 C :    0.067616
   2 O :   -0.060740
   3 C :    0.037853
   4 O :   -0.157205
   5 C :   -0.067504
   6 C :    0.010779
   7 H :    0.036899
   8 H :    0.034772
   9 H :    0.030347
  10 H :    0.020989
  11 H :    0.024050
  12 H :    0.033244
  13 H :    0.034797
  14 H :    0.031638

  Mayer bond orders larger than 0.1
B(  0-C ,  1-C ) :   1.1435 B(  0-C ,  7-H ) :   0.9549 B(  0-C ,  8-H ) :   0.9585
B(  0-C ,  9-H ) :   0.9625 B(  1-C ,  2-O ) :   0.9215 B(  1-C , 10-H ) :   0.9312
B(  1-C , 11-H ) :   0.9493 B(  2-O ,  3-C ) :   1.1821 B(  3-C ,  4-O ) :   2.0554
B(  3-C ,  5-C ) :   0.9851 B(  5-C ,  6-C ) :   1.9579 B(  5-C , 12-H ) :   0.9499
B(  6-C , 13-H ) :   0.9342 B(  6-C , 14-H ) :   0.9407

FINAL SINGLE POINT ENERGY      -345.112019212809

DIPOLE MOMENT
-------------
                                X             Y             Z
Electronic contribution:     -0.37519       2.15273       3.33707
Nuclear contribution   :     -0.11848      -2.15826      -3.61237
                        -----------------------------------------
Total Dipole Moment    :     -0.49367      -0.00553      -0.27531
                        -----------------------------------------
Magnitude (a.u.)       :      0.56528
Magnitude (Debye)      :      1.43682

                             ****ORCA TERMINATED NORMALLY****
TOTAL RUN TIME: 0 days 0 hours 0 minutes 6 seconds 583 msec
