                         Program Version 3.0.3 - RELEASE   -
|  1> ! RI PBE def2-SVP def2-SVP/J NBO PAL2
|  2> % maxcore 2000
|  3> % output
|  4>     # printlevel mini
|  5>     print[ P_Basis ] 0
|  6>     print[ P_SCFInfo ] 1
|  7>     print[ P_SCFIterInfo ] 1
|  8>     print[ P_OrbEn ] 0
|  9>     print[ P_Cartesian ] 0
| 10> end
| 11> *xyz 0 1
| 12>  C        1.0018930000     0.0937460000     0.0406510000
| 13>  C        2.5074700000     0.0022100000     0.0027460000
| 14>  O        2.9580360000    -0.7473090000    -1.1394150000
| 15>  C        3.0057910000    -2.0705910000    -0.9922770000
| 16>  O        2.7162630000    -2.6739460000     0.0059180000
| 17>  C        3.4647100000    -2.7104250000    -2.2066140000
| 18>  C        3.8376130000    -3.2914250000    -3.1871120000
| 19>  H        0.6952000000     0.7294410000     0.8744810000
| 20>  H        0.5553090000    -0.8912100000     0.1817520000
| 21>  H        0.6159350000     0.5302650000    -0.8823730000
| 22>  H        2.9003670000    -0.4649740000     0.9068620000
| 23>  H        2.9649300000     0.9834210000    -0.1247980000
| 24>  H        4.1696840000    -3.8082120000    -4.0573200000
| 25> *
| 26>
| 27>                          ****END OF INPUT****
 Total Charge           Charge          ....    0
 Multiplicity           Mult            ....    1
 Number of Electrons    NEL             ....   52
 Basis Dimension        Dim             ....  128

MULLIKEN ATOMIC CHARGES
-----------------------
   0 C :   -0.046758
   1 C :    0.137658
   2 O :   -0.242443
   3 C :    0.130776
   4 O :   -0.176050
   5 C :    0.411718
   6 C :   -0.414228
   7 H :    0.033948
   8 H :    0.043527
   9 H :    0.038599
  10 H :    0.031386
  11 H :    0.029461
  12 H :    0.022407
Sum of atomic charges:   -0.0000000

LOEWDIN ATOMIC CHARGES
----------------------
   0 C :   -0.074776
   1 C :    0.071915
   2 O :   -0.043661
   3 C :    0.023415
   4 O :   -0.126306
   5 C :   -0.036614
   6 C :   -0.011587
   7 H :    0.038660
   8 H :    0.034897
   9 H :    0.032120
  10 H :    0.021959
  11 H :    0.026596
  12 H :    0.043379

  Mayer bond orders larger than 0.1
B(  0-C ,  1-C ) :   1.1409 B(  0-C ,  7-H ) :   0.9560 B(  0-C ,  8-H ) :   0.9590
B(  0-C ,  9-H ) :   0.9616 B(  1-C ,  2-O ) :   0.9110 B(  1-C , 10-H ) :   0.9316
B(  1-C , 11-H ) :   0.9497 B(  2-O ,  3-C ) :   1.2320 B(  2-O ,  4-O ) :   0.1081
B(  3-C ,  4-O ) :   2.0335 B(  3-C ,  5-C ) :   0.8654 B(  5-C ,  6-C ) :   2.3602
B(  6-C , 12-H ) :   1.0819

FINAL SINGLE POINT ENERGY      -343.857684338027

DIPOLE MOMENT
-------------
                                X             Y             Z
Electronic contribution:      4.22415      -5.45173      -3.01667
Nuclear contribution   :     -4.25192       6.06213       2.69421
                        -----------------------------------------
Total Dipole Moment    :     -0.02777       0.61040      -0.32246
                        -----------------------------------------
Magnitude (a.u.)       :      0.69089
Magnitude (Debye)      :      1.75611

                             ****ORCA TERMINATED NORMALLY****
TOTAL RUN TIME: 0 days 0 hours 0 minutes 5 seconds 553 msec
