                         Program Version 3.0.3 - RELEASE   -
|  1> ! RI PBE def2-SVP def2-SVP/J NBO PAL2
|  2> % maxcore 2000
|  3> % output
|  4>     # printlevel mini
|  5>     print[ P_Basis ] 0
|  6>     print[ P_SCFInfo ] 1
|  7>     print[ P_SCFIterInfo ] 1
|  8>     print[ P_OrbEn ] 0
|  9>     print[ P_Cartesian ] 0
| 10> end
| 11> *xyz 0 1
| 12>  C        0.9054520000     1.7294920000    -0.9908330000
| 13>  C        2.3655860000     1.7441950000    -1.3603290000
| 14>  O        3.1065700000     1.1895800000    -0.2844350000
| 15>  C        4.4605970000     1.0778190000    -0.5317370000
| 16>  O        5.1187280000     2.3187690000    -0.6282400000
| 17>  C        5.2345090000     3.0045580000     0.5354890000
| 18>  C        5.7220310000     4.2346420000     0.5905700000
| 19>  H        0.3075680000     2.1483070000    -1.8031010000
| 20>  H        0.7302830000     2.3254810000    -0.0931980000
| 21>  H        0.5637170000     0.7105580000    -0.7990830000
| 22>  H        2.7083540000     2.7654130000    -1.5599190000
| 23>  H        2.5465390000     1.1488790000    -2.2671670000
| 24>  H        4.6580410000     0.5835350000    -1.4900210000
| 25>  H        4.8754980000     0.4914410000     0.2945850000
| 26>  H        4.9026270000     2.4701220000     1.4231670000
| 27>  H        6.0356740000     4.7601610000    -0.3026130000
| 28>  H        5.8161070000     4.7289300000     1.5468550000
| 29> *
| 30>
| 31>                          ****END OF INPUT****
 Total Charge           Charge          ....    0
 Multiplicity           Mult            ....    1
 Number of Electrons    NEL             ....   56
 Basis Dimension        Dim             ....  148

MULLIKEN ATOMIC CHARGES
-----------------------
   0 C :   -0.022070
   1 C :    0.126534
   2 O :   -0.334727
   3 C :    0.319336
   4 O :   -0.275525
   5 C :    0.087946
   6 C :   -0.075009
   7 H :    0.025402
   8 H :    0.033909
   9 H :    0.029783
  10 H :    0.019182
  11 H :   -0.002320
  12 H :   -0.000343
  13 H :    0.012346
  14 H :    0.004619
  15 H :    0.026354
  16 H :    0.024581
Sum of atomic charges:   -0.0000000

LOEWDIN ATOMIC CHARGES
----------------------
   0 C :   -0.073293
   1 C :    0.060759
   2 O :   -0.135482
   3 C :    0.124176
   4 O :   -0.083447
   5 C :    0.031751
   6 C :   -0.124806
   7 H :    0.034302
   8 H :    0.032157
   9 H :    0.029585
  10 H :    0.011949
  11 H :    0.007726
  12 H :    0.003838
  13 H :    0.008428
  14 H :    0.013536
  15 H :    0.028016
  16 H :    0.030805

  Mayer bond orders larger than 0.1
B(  0-C ,  1-C ) :   1.1204 B(  0-C ,  7-H ) :   0.9534 B(  0-C ,  8-H ) :   0.9642
B(  0-C ,  9-H ) :   0.9637 B(  1-C ,  2-O ) :   0.9763 B(  1-C , 10-H ) :   0.9397
B(  1-C , 11-H ) :   0.9336 B(  2-O ,  3-C ) :   1.0980 B(  3-C ,  4-O ) :   1.0014
B(  3-C , 12-H ) :   0.9341 B(  3-C , 13-H ) :   0.9359 B(  4-O ,  5-C ) :   1.0904
B(  5-C ,  6-C ) :   1.9403 B(  5-C , 14-H ) :   0.9414 B(  6-C , 15-H ) :   0.9468
B(  6-C , 16-H ) :   0.9378

FINAL SINGLE POINT ENERGY      -346.268924357987

DIPOLE MOMENT
-------------
                                X             Y             Z
Electronic contribution:      4.39292      -0.84022       0.83528
Nuclear contribution   :     -4.67188       0.53848      -0.99265
                        -----------------------------------------
Total Dipole Moment    :     -0.27895      -0.30173      -0.15737
                        -----------------------------------------
Magnitude (a.u.)       :      0.44003
Magnitude (Debye)      :      1.11846

                             ****ORCA TERMINATED NORMALLY****
TOTAL RUN TIME: 0 days 0 hours 0 minutes 6 seconds 948 msec
