                         Program Version 3.0.3 - RELEASE   -
|  1> ! RI PBE def2-SVP def2-SVP/J NBO PAL2
|  2> % maxcore 2000
|  3> % output
|  4>     # printlevel mini
|  5>     print[ P_Basis ] 0
|  6>     print[ P_SCFInfo ] 1
|  7>     print[ P_SCFIterInfo ] 1
|  8>     print[ P_OrbEn ] 0
|  9>     print[ P_Cartesian ] 0
| 10> end
| 11> *xyz 0 1
| 12>  C        1.7477460000    -0.0048080000     0.4814180000
| 13>  C        3.0757260000    -0.6598940000     0.2545430000
| 14>  O        3.4944660000    -1.6146410000     0.8477290000
| 15>  O        3.7620280000    -0.0220900000    -0.7136080000
| 16>  C        5.0259710000    -0.5585460000    -1.0274760000
| 17>  C        5.1407580000    -1.4119970000    -2.2409690000
| 18>  C        5.6664040000     0.0002530000    -2.2421250000
| 19>  H        1.2161280000    -0.5272550000     1.2725640000
| 20>  H        1.1616580000    -0.0243620000    -0.4394250000
| 21>  H        1.8904970000     1.0425930000     0.7535920000
| 22>  H        5.6207680000    -0.7995320000    -0.1562590000
| 23>  H        4.2300680000    -1.5970240000    -2.7963620000
| 24>  H        5.8402310000    -2.2377560000    -2.2180510000
| 25>  H        5.0993510000     0.7363200000    -2.7977850000
| 26>  H        6.7363110000     0.1636370000    -2.2253780000
| 27> *
| 28>
| 29>                          ****END OF INPUT****
 Total Charge           Charge          ....    0
 Multiplicity           Mult            ....    1
 Number of Electrons    NEL             ....   54
 Basis Dimension        Dim             ....  138

MULLIKEN ATOMIC CHARGES
-----------------------
   0 C :    0.021302
   1 C :    0.062514
   2 O :   -0.192775
   3 O :   -0.236478
   4 C :    0.070974
   5 C :   -0.050558
   6 C :   -0.047095
   7 H :    0.043034
   8 H :    0.053300
   9 H :    0.051863
  10 H :    0.036864
  11 H :    0.043173
  12 H :    0.049950
  13 H :    0.047733
  14 H :    0.046199
Sum of atomic charges:   -0.0000000

LOEWDIN ATOMIC CHARGES
----------------------
   0 C :   -0.086472
   1 C :    0.044237
   2 O :   -0.146347
   3 O :   -0.058004
   4 C :    0.048850
   5 C :   -0.049798
   6 C :   -0.050618
   7 H :    0.042891
   8 H :    0.049524
   9 H :    0.050020
  10 H :    0.021557
  11 H :    0.033384
  12 H :    0.033572
  13 H :    0.034760
  14 H :    0.032442

  Mayer bond orders larger than 0.1
B(  0-C ,  1-C ) :   1.0517 B(  0-C ,  7-H ) :   0.9527 B(  0-C ,  8-H ) :   0.9420
B(  0-C ,  9-H ) :   0.9405 B(  1-C ,  2-O ) :   2.0810 B(  1-C ,  3-O ) :   1.1389
B(  3-O ,  4-C ) :   0.9695 B(  4-C ,  5-C ) :   1.0172 B(  4-C ,  6-C ) :   0.9943
B(  4-C , 10-H ) :   0.9411 B(  5-C ,  6-C ) :   1.0368 B(  5-C , 11-H ) :   0.9441
B(  5-C , 12-H ) :   0.9467 B(  6-C , 13-H ) :   0.9437 B(  6-C , 14-H ) :   0.9429

FINAL SINGLE POINT ENERGY      -345.103942430047

DIPOLE MOMENT
-------------
                                X             Y             Z
Electronic contribution:     -0.16807      -1.04081       2.79183
Nuclear contribution   :      0.11396       1.53175      -3.26542
                        -----------------------------------------
Total Dipole Moment    :     -0.05412       0.49094      -0.47360
                        -----------------------------------------
Magnitude (a.u.)       :      0.68428
Magnitude (Debye)      :      1.73931

                             ****ORCA TERMINATED NORMALLY****
TOTAL RUN TIME: 0 days 0 hours 0 minutes 6 seconds 838 msec
