                         Program Version 3.0.3 - RELEASE   -
|  1> ! RI PBE def2-SVP def2-SVP/J NBO PAL2
|  2> % maxcore 2000
|  3> % output
|  4>     # printlevel mini
|  5>     print[ P_Basis ] 0
|  6>     print[ P_SCFInfo ] 1
|  7>     print[ P_SCFIterInfo ] 1
|  8>     print[ P_OrbEn ] 0
|  9>     print[ P_Cartesian ] 0
| 10> end
| 11> *xyz 0 1
| 12>  C        1.1131880000     0.1531220000    -1.8289270000
| 13>  C        2.5721870000    -0.1702850000    -1.7203290000
| 14>  O        3.0942680000    -1.1657510000    -2.1413620000
| 15>  O        3.2316770000     0.8154160000    -1.0861260000
| 16>  C        4.6567590000     0.6715250000    -0.9839130000
| 17>  C        5.3432520000     1.3512610000    -2.1193320000
| 18>  C        6.1690280000     0.7351610000    -2.9511960000
| 19>  H        0.5692100000    -0.7284470000    -2.1589570000
| 20>  H        0.9792010000     0.9557000000    -2.5581100000
| 21>  H        0.7253050000     0.5098430000    -0.8743030000
| 22>  H        4.9152890000    -0.3870710000    -0.9470440000
| 23>  H        4.9133680000     1.1447050000    -0.0332980000
| 24>  H        5.1379140000     2.4128530000    -2.2355720000
| 25>  H        6.3713420000    -0.3270650000    -2.8598040000
| 26>  H        6.6681230000     1.2666430000    -3.7532360000
| 27> *
| 28>
| 29>                          ****END OF INPUT****
 Total Charge           Charge          ....    0
 Multiplicity           Mult            ....    1
 Number of Electrons    NEL             ....   54
 Basis Dimension        Dim             ....  138

MULLIKEN ATOMIC CHARGES
-----------------------
   0 C :    0.021789
   1 C :    0.056006
   2 O :   -0.190714
   3 O :   -0.271013
   4 C :    0.242226
   5 C :   -0.119131
   6 C :   -0.015003
   7 H :    0.044601
   8 H :    0.054771
   9 H :    0.045172
  10 H :    0.022738
  11 H :    0.024948
  12 H :    0.017185
  13 H :    0.035791
  14 H :    0.030633
Sum of atomic charges:   -0.0000000

LOEWDIN ATOMIC CHARGES
----------------------
   0 C :   -0.084165
   1 C :    0.043368
   2 O :   -0.150399
   3 O :   -0.072954
   4 C :    0.071279
   5 C :   -0.049926
   6 C :   -0.035574
   7 H :    0.043057
   8 H :    0.052447
   9 H :    0.045345
  10 H :    0.021775
  11 H :    0.030033
  12 H :    0.028350
  13 H :    0.029520
  14 H :    0.027844

  Mayer bond orders larger than 0.1
B(  0-C ,  1-C ) :   1.0402 B(  0-C ,  7-H ) :   0.9545 B(  0-C ,  8-H ) :   0.9415
B(  0-C ,  9-H ) :   0.9434 B(  1-C ,  2-O ) :   2.0869 B(  1-C ,  3-O ) :   1.1623
B(  3-O ,  4-C ) :   0.9157 B(  4-C ,  5-C ) :   1.0812 B(  4-C , 10-H ) :   0.9225
B(  4-C , 11-H ) :   0.9270 B(  5-C ,  6-C ) :   2.0086 B(  5-C , 12-H ) :   0.9564
B(  6-C , 13-H ) :   0.9466 B(  6-C , 14-H ) :   0.9455

FINAL SINGLE POINT ENERGY      -345.106958643312

DIPOLE MOMENT
-------------
                                X             Y             Z
Electronic contribution:     -0.66674      -1.49667       0.98096
Nuclear contribution   :      0.63921       2.11884      -0.77715
                        -----------------------------------------
Total Dipole Moment    :     -0.02754       0.62217       0.20381
                        -----------------------------------------
Magnitude (a.u.)       :      0.65528
Magnitude (Debye)      :      1.66560

                             ****ORCA TERMINATED NORMALLY****
TOTAL RUN TIME: 0 days 0 hours 0 minutes 6 seconds 800 msec
