                         Program Version 3.0.3 - RELEASE   -
|  1> ! RI PBE def2-SVP def2-SVP/J NBO PAL2
|  2> % maxcore 2000
|  3> % output
|  4>     # printlevel mini
|  5>     print[ P_Basis ] 0
|  6>     print[ P_SCFInfo ] 1
|  7>     print[ P_SCFIterInfo ] 1
|  8>     print[ P_OrbEn ] 0
|  9>     print[ P_Cartesian ] 0
| 10> end
| 11> *xyz 0 1
| 12>  C        1.8557070000    -1.3756670000    -1.2380110000
| 13>  C        2.6905000000    -0.3317410000    -0.5649330000
| 14>  O        2.3432000000     0.7869560000    -0.3106230000
| 15>  O        3.9127430000    -0.8211580000    -0.2684980000
| 16>  C        4.7896780000     0.0634610000     0.4321460000
| 17>  C        4.6626380000    -0.0708340000     1.8734960000
| 18>  C        4.5751170000    -0.1786020000     3.0645310000
| 19>  H        0.9383340000    -0.9243620000    -1.6072330000
| 20>  H        1.6143710000    -2.1597720000    -0.5168160000
| 21>  H        2.4100960000    -1.8412830000    -2.0536760000
| 22>  H        4.5845820000     1.0937370000     0.1329580000
| 23>  H        5.7969720000    -0.2119240000     0.1154960000
| 24>  H        4.4895620000    -0.2701020000     4.1216520000
| 25> *
| 26>
| 27>                          ****END OF INPUT****
 Total Charge           Charge          ....    0
 Multiplicity           Mult            ....    1
 Number of Electrons    NEL             ....   52
 Basis Dimension        Dim             ....  128

MULLIKEN ATOMIC CHARGES
-----------------------
   0 C :    0.024981
   1 C :    0.058156
   2 O :   -0.182630
   3 O :   -0.264152
   4 C :    0.274023
   5 C :    0.282533
   6 C :   -0.447469
   7 H :    0.044645
   8 H :    0.058655
   9 H :    0.048205
  10 H :    0.051095
  11 H :    0.044528
  12 H :    0.007429
Sum of atomic charges:   -0.0000000

LOEWDIN ATOMIC CHARGES
----------------------
   0 C :   -0.082266
   1 C :    0.048698
   2 O :   -0.141396
   3 O :   -0.068838
   4 C :    0.066169
   5 C :   -0.038871
   6 C :   -0.054468
   7 H :    0.044023
   8 H :    0.054851
   9 H :    0.047688
  10 H :    0.040823
  11 H :    0.045822
  12 H :    0.037765

  Mayer bond orders larger than 0.1
B(  0-C ,  1-C ) :   1.0428 B(  0-C ,  7-H ) :   0.9537 B(  0-C ,  8-H ) :   0.9399
B(  0-C ,  9-H ) :   0.9426 B(  1-C ,  2-O ) :   2.0903 B(  1-C ,  3-O ) :   1.1476
B(  3-O ,  4-C ) :   0.9442 B(  4-C ,  5-C ) :   1.0669 B(  4-C , 10-H ) :   0.8956
B(  4-C , 11-H ) :   0.9099 B(  5-C ,  6-C ) :   2.3846 B(  5-C , 12-H ) :  -0.1041
B(  6-C , 12-H ) :   1.0954

FINAL SINGLE POINT ENERGY      -343.859957252224

DIPOLE MOMENT
-------------
                                X             Y             Z
Electronic contribution:      1.39775       1.91203       1.65747
Nuclear contribution   :     -1.09438      -2.45338      -1.77625
                        -----------------------------------------
Total Dipole Moment    :      0.30337      -0.54135      -0.11878
                        -----------------------------------------
Magnitude (a.u.)       :      0.63183
Magnitude (Debye)      :      1.60598

                             ****ORCA TERMINATED NORMALLY****
TOTAL RUN TIME: 0 days 0 hours 0 minutes 5 seconds 930 msec
