                         Program Version 3.0.3 - RELEASE   -
|  1> ! RI PBE def2-SVP def2-SVP/J NBO PAL2
|  2> % maxcore 2000
|  3> % output
|  4>     # printlevel mini
|  5>     print[ P_Basis ] 0
|  6>     print[ P_SCFInfo ] 1
|  7>     print[ P_SCFIterInfo ] 1
|  8>     print[ P_OrbEn ] 0
|  9>     print[ P_Cartesian ] 0
| 10> end
| 11> *xyz 0 1
| 12>  C        1.9273700000     0.4627090000    -0.4975730000
| 13>  O        2.1026170000    -0.5741470000     0.4356820000
| 14>  C        3.1156610000    -1.4464130000     0.0701760000
| 15>  C        3.0884410000    -2.7979680000     0.6904760000
| 16>  C        2.8289660000    -2.6507120000    -0.7900270000
| 17>  C        1.4220170000    -2.8785590000    -1.2739000000
| 18>  C        3.9106320000    -3.1026600000    -1.7346870000
| 19>  H        1.1269760000     1.1030260000    -0.1260080000
| 20>  H        1.6494340000     0.0755100000    -1.4853340000
| 21>  H        2.8414950000     1.0624580000    -0.6033190000
| 22>  H        4.0850460000    -0.9638710000    -0.0663820000
| 23>  H        2.2325600000    -3.0084710000     1.3211100000
| 24>  H        4.0216440000    -3.2380510000     1.0218150000
| 25>  H        0.6932500000    -2.4392520000    -0.5913500000
| 26>  H        1.2109840000    -3.9491310000    -1.3549400000
| 27>  H        1.2697990000    -2.4373400000    -2.2639870000
| 28>  H        4.9051810000    -2.8734270000    -1.3435560000
| 29>  H        3.8125440000    -2.6136910000    -2.7089590000
| 30>  H        3.8616750000    -4.1840410000    -1.8980490000
| 31> *
| 32>
| 33>                          ****END OF INPUT****
 Total Charge           Charge          ....    0
 Multiplicity           Mult            ....    1
 Number of Electrons    NEL             ....   56
 Basis Dimension        Dim             ....  158

MULLIKEN ATOMIC CHARGES
-----------------------
   0 C :    0.158450
   1 O :   -0.301435
   2 C :    0.080216
   3 C :    0.039246
   4 C :   -0.340464
   5 C :    0.090762
   6 C :    0.104473
   7 H :    0.032435
   8 H :    0.007913
   9 H :    0.004690
  10 H :   -0.003168
  11 H :    0.031591
  12 H :    0.020479
  13 H :    0.015486
  14 H :    0.017289
  15 H :    0.012669
  16 H :    0.001745
  17 H :    0.010286
  18 H :    0.017339
Sum of atomic charges:    0.0000000

LOEWDIN ATOMIC CHARGES
----------------------
   0 C :    0.054271
   1 O :   -0.124133
   2 C :    0.035036
   3 C :   -0.045109
   4 C :   -0.079771
   5 C :   -0.048426
   6 C :   -0.045817
   7 H :    0.022698
   8 H :    0.006710
   9 H :    0.006338
  10 H :    0.005019
  11 H :    0.032197
  12 H :    0.025545
  13 H :    0.027327
  14 H :    0.028310
  15 H :    0.023375
  16 H :    0.024061
  17 H :    0.025253
  18 H :    0.027115

  Mayer bond orders larger than 0.1
B(  0-C ,  1-O ) :   1.0000 B(  0-C ,  7-H ) :   0.9763 B(  0-C ,  8-H ) :   0.9550
B(  0-C ,  9-H ) :   0.9560 B(  1-O ,  2-C ) :   1.1011 B(  2-C ,  3-C ) :   0.9837
B(  2-C ,  4-C ) :   0.9047 B(  2-C , 10-H ) :   0.9298 B(  3-C ,  4-C ) :   0.9677
B(  3-C , 11-H ) :   0.9343 B(  3-C , 12-H ) :   0.9327 B(  4-C ,  5-C ) :   1.0991
B(  4-C ,  6-C ) :   1.0801 B(  5-C , 13-H ) :   0.9378 B(  5-C , 14-H ) :   0.9557
B(  5-C , 15-H ) :   0.9530 B(  6-C , 16-H ) :   0.9439 B(  6-C , 17-H ) :   0.9556
B(  6-C , 18-H ) :   0.9542

FINAL SINGLE POINT ENERGY      -310.404114661263

DIPOLE MOMENT
-------------
                                X             Y             Z
Electronic contribution:     -0.22566       1.62219       3.91475
Nuclear contribution   :      0.37243      -1.54709      -4.32758
                        -----------------------------------------
Total Dipole Moment    :      0.14677       0.07510      -0.41284
                        -----------------------------------------
Magnitude (a.u.)       :      0.44454
Magnitude (Debye)      :      1.12993

                             ****ORCA TERMINATED NORMALLY****
TOTAL RUN TIME: 0 days 0 hours 0 minutes 8 seconds 300 msec
