                         Program Version 3.0.3 - RELEASE   -
|  1> ! RI PBE def2-SVP def2-SVP/J NBO PAL2
|  2> % maxcore 2000
|  3> % output
|  4>     # printlevel mini
|  5>     print[ P_Basis ] 0
|  6>     print[ P_SCFInfo ] 1
|  7>     print[ P_SCFIterInfo ] 1
|  8>     print[ P_OrbEn ] 0
|  9>     print[ P_Cartesian ] 0
| 10> end
| 11> *xyz 0 1
| 12>  C        2.2723620000     1.0043460000    -0.6174330000
| 13>  O        1.9648230000    -0.2263320000    -0.0107800000
| 14>  C        3.0345280000    -1.1062460000    -0.0328740000
| 15>  C        2.7084210000    -2.5522180000     0.0110610000
| 16>  C        3.2642170000    -1.9336900000    -1.2592350000
| 17>  C        4.6047170000    -2.3031230000    -1.7565120000
| 18>  C        5.7552190000    -1.7317320000    -1.4239810000
| 19>  H        1.3786650000     1.6259630000    -0.5615800000
| 20>  H        2.5574960000     0.8733280000    -1.6687720000
| 21>  H        3.0931380000     1.5141890000    -0.0954310000
| 22>  H        3.9068920000    -0.7660120000     0.5236610000
| 23>  H        1.6587930000    -2.8178480000     0.0158320000
| 24>  H        3.3607520000    -3.2002390000     0.5830340000
| 25>  H        2.5104760000    -1.8006290000    -2.0307670000
| 26>  H        4.6226400000    -3.1371710000    -2.4566610000
| 27>  H        5.8047860000    -0.8917820000    -0.7390680000
| 28>  H        6.6946740000    -2.0869160000    -1.8305930000
| 29> *
| 30>
| 31>                          ****END OF INPUT****
 Total Charge           Charge          ....    0
 Multiplicity           Mult            ....    1
 Number of Electrons    NEL             ....   54
 Basis Dimension        Dim             ....  148

MULLIKEN ATOMIC CHARGES
-----------------------
   0 C :    0.154432
   1 O :   -0.306347
   2 C :    0.054514
   3 C :    0.027100
   4 C :   -0.107075
   5 C :    0.002586
   6 C :   -0.040619
   7 H :    0.036476
   8 H :    0.010720
   9 H :    0.004252
  10 H :    0.012604
  11 H :    0.038727
  12 H :    0.033628
  13 H :    0.037995
  14 H :    0.004848
  15 H :    0.013590
  16 H :    0.022569
Sum of atomic charges:   -0.0000000

LOEWDIN ATOMIC CHARGES
----------------------
   0 C :    0.052988
   1 O :   -0.126495
   2 C :    0.039616
   3 C :   -0.032260
   4 C :   -0.063984
   5 C :   -0.024431
   6 C :   -0.067872
   7 H :    0.023307
   8 H :    0.007714
   9 H :    0.006895
  10 H :    0.009964
  11 H :    0.033672
  12 H :    0.030630
  13 H :    0.038185
  14 H :    0.028875
  15 H :    0.018337
  16 H :    0.024860

  Mayer bond orders larger than 0.1
B(  0-C ,  1-O ) :   1.0038 B(  0-C ,  7-H ) :   0.9768 B(  0-C ,  8-H ) :   0.9553
B(  0-C ,  9-H ) :   0.9554 B(  1-O ,  2-C ) :   1.0838 B(  2-C ,  3-C ) :   1.0032
B(  2-C ,  4-C ) :   0.9414 B(  2-C , 10-H ) :   0.9286 B(  3-C ,  4-C ) :   0.9742
B(  3-C , 11-H ) :   0.9332 B(  3-C , 12-H ) :   0.9366 B(  4-C ,  5-C ) :   1.0562
B(  4-C , 13-H ) :   0.9177 B(  5-C ,  6-C ) :   1.9926 B(  5-C , 14-H ) :   0.9548
B(  6-C , 15-H ) :   0.9400 B(  6-C , 16-H ) :   0.9432

FINAL SINGLE POINT ENERGY      -309.176396314797

DIPOLE MOMENT
-------------
                                X             Y             Z
Electronic contribution:     -1.88933      -1.14069       0.90257
Nuclear contribution   :      2.08864       1.26397      -1.09555
                        -----------------------------------------
Total Dipole Moment    :      0.19932       0.12328      -0.19297
                        -----------------------------------------
Magnitude (a.u.)       :      0.30358
Magnitude (Debye)      :      0.77165

                             ****ORCA TERMINATED NORMALLY****
TOTAL RUN TIME: 0 days 0 hours 0 minutes 7 seconds 206 msec
