                         Program Version 3.0.3 - RELEASE   -
|  1> ! RI PBE def2-SVP def2-SVP/J NBO PAL2
|  2> % maxcore 2000
|  3> % output
|  4>     # printlevel mini
|  5>     print[ P_Basis ] 0
|  6>     print[ P_SCFInfo ] 1
|  7>     print[ P_SCFIterInfo ] 1
|  8>     print[ P_OrbEn ] 0
|  9>     print[ P_Cartesian ] 0
| 10> end
| 11> *xyz 0 1
| 12>  C        2.3845520000     1.1423170000     0.0922710000
| 13>  O        2.2655670000    -0.2590090000     0.1736380000
| 14>  C        2.7997890000    -0.7700640000     1.3365680000
| 15>  C        3.2487290000    -2.1755210000     1.3050040000
| 16>  C        4.2864850000    -1.0692570000     1.3800360000
| 17>  C        5.0318820000    -0.8546320000     2.5792020000
| 18>  C        5.6445010000    -0.6721810000     3.5975370000
| 19>  H        1.9310980000     1.4495300000    -0.8496670000
| 20>  H        3.4352900000     1.4557350000     0.1086160000
| 21>  H        1.8594990000     1.6353700000     0.9202090000
| 22>  H        2.3623080000    -0.3872790000     2.2578030000
| 23>  H        3.1693900000    -2.6899230000     0.3559650000
| 24>  H        3.1017320000    -2.7841950000     2.1870830000
| 25>  H        4.8127770000    -0.8712280000     0.4521050000
| 26>  H        6.1912020000    -0.5112620000     4.4960010000
| 27> *
| 28>
| 29>                          ****END OF INPUT****
 Total Charge           Charge          ....    0
 Multiplicity           Mult            ....    1
 Number of Electrons    NEL             ....   52
 Basis Dimension        Dim             ....  138

MULLIKEN ATOMIC CHARGES
-----------------------
   0 C :    0.161028
   1 O :   -0.299615
   2 C :    0.069630
   3 C :    0.046030
   4 C :   -0.170791
   5 C :    0.451640
   6 C :   -0.477595
   7 H :    0.034911
   8 H :    0.011811
   9 H :    0.010347
  10 H :    0.019370
  11 H :    0.046295
  12 H :    0.043393
  13 H :    0.055838
  14 H :   -0.002293
Sum of atomic charges:   -0.0000000

LOEWDIN ATOMIC CHARGES
----------------------
   0 C :    0.057963
   1 O :   -0.119815
   2 C :    0.051786
   3 C :   -0.022811
   4 C :   -0.068445
   5 C :   -0.020826
   6 C :   -0.094030
   7 H :    0.024451
   8 H :    0.009248
   9 H :    0.010203
  10 H :    0.014940
  11 H :    0.038930
  12 H :    0.037153
  13 H :    0.047994
  14 H :    0.033258

  Mayer bond orders larger than 0.1
B(  0-C ,  1-O ) :   0.9939 B(  0-C ,  7-H ) :   0.9772 B(  0-C ,  8-H ) :   0.9575
B(  0-C ,  9-H ) :   0.9571 B(  1-O ,  2-C ) :   1.1045 B(  2-C ,  3-C ) :   1.0014
B(  2-C ,  4-C ) :   0.8985 B(  2-C , 10-H ) :   0.9338 B(  3-C ,  4-C ) :   0.9665
B(  3-C , 11-H ) :   0.9297 B(  3-C , 12-H ) :   0.9346 B(  4-C ,  5-C ) :   1.0175
B(  4-C , 13-H ) :   0.9121 B(  5-C ,  6-C ) :   2.2689 B(  5-C , 14-H ) :  -0.1061
B(  6-C , 14-H ) :   1.0967

FINAL SINGLE POINT ENERGY      -307.936290233772

DIPOLE MOMENT
-------------
                                X             Y             Z
Electronic contribution:      1.57332      -1.85225       1.31789
Nuclear contribution   :     -1.70131       2.13111      -1.35264
                        -----------------------------------------
Total Dipole Moment    :     -0.12798       0.27886      -0.03476
                        -----------------------------------------
Magnitude (a.u.)       :      0.30879
Magnitude (Debye)      :      0.78488

                             ****ORCA TERMINATED NORMALLY****
TOTAL RUN TIME: 0 days 0 hours 0 minutes 6 seconds 646 msec
