                         Program Version 3.0.3 - RELEASE   -
|  1> ! RI PBE def2-SVP def2-SVP/J NBO PAL2
|  2> % maxcore 2000
|  3> % output
|  4>     # printlevel mini
|  5>     print[ P_Basis ] 0
|  6>     print[ P_SCFInfo ] 1
|  7>     print[ P_SCFIterInfo ] 1
|  8>     print[ P_OrbEn ] 0
|  9>     print[ P_Cartesian ] 0
| 10> end
| 11> *xyz 0 1
| 12>  C        2.7357070000    -0.3026840000    -1.4839910000
| 13>  O        2.1191740000    -1.3421030000    -0.7651130000
| 14>  C        2.6031080000    -1.4513850000     0.5267030000
| 15>  C        2.5172720000    -2.7890440000     1.1624060000
| 16>  C        3.8648530000    -2.2199470000     0.7774700000
| 17>  C        4.8252820000    -1.7959270000     1.8459530000
| 18>  O        5.5418940000    -2.8787200000     2.4025960000
| 19>  H        2.2898080000    -0.2878520000    -2.4784400000
| 20>  H        3.8170790000    -0.4644670000    -1.5763320000
| 21>  H        2.5679590000     0.6707280000    -1.0042520000
| 22>  H        2.4174930000    -0.5772930000     1.1524850000
| 23>  H        2.1214270000    -3.5900490000     0.5513620000
| 24>  H        2.2509130000    -2.8344420000     2.2127730000
| 25>  H        4.3144320000    -2.6648590000    -0.1048270000
| 26>  H        4.2816750000    -1.2437280000     2.6277770000
| 27>  H        5.5810130000    -1.1198290000     1.4373280000
| 28>  H        4.9044110000    -3.5593000000     2.6368120000
| 29> *
| 30>
| 31>                          ****END OF INPUT****
 Total Charge           Charge          ....    0
 Multiplicity           Mult            ....    1
 Number of Electrons    NEL             ....   56
 Basis Dimension        Dim             ....  148

MULLIKEN ATOMIC CHARGES
-----------------------
   0 C :    0.160346
   1 O :   -0.305197
   2 C :    0.068229
   3 C :    0.003644
   4 C :   -0.212330
   5 C :    0.284402
   6 O :   -0.288029
   7 H :    0.033039
   8 H :    0.009711
   9 H :    0.004092
  10 H :    0.001216
  11 H :    0.042342
  12 H :    0.026291
  13 H :    0.031340
  14 H :   -0.020431
  15 H :    0.010860
  16 H :    0.150474
Sum of atomic charges:   -0.0000000

LOEWDIN ATOMIC CHARGES
----------------------
   0 C :    0.054882
   1 O :   -0.126183
   2 C :    0.039925
   3 C :   -0.051563
   4 C :   -0.080412
   5 C :    0.059512
   6 O :   -0.124392
   7 H :    0.023535
   8 H :    0.006680
   9 H :    0.006758
  10 H :    0.006559
  11 H :    0.035722
  12 H :    0.025347
  13 H :    0.032054
  14 H :    0.002065
  15 H :    0.023712
  16 H :    0.065797

  Mayer bond orders larger than 0.1
B(  0-C ,  1-O ) :   1.0027 B(  0-C ,  7-H ) :   0.9762 B(  0-C ,  8-H ) :   0.9559
B(  0-C ,  9-H ) :   0.9561 B(  1-O ,  2-C ) :   1.0909 B(  2-C ,  3-C ) :   1.0057
B(  2-C ,  4-C ) :   0.9061 B(  2-C , 10-H ) :   0.9287 B(  3-C ,  4-C ) :   0.9734
B(  3-C , 11-H ) :   0.9346 B(  3-C , 12-H ) :   0.9362 B(  4-C ,  5-C ) :   1.0685
B(  4-C , 13-H ) :   0.9310 B(  5-C ,  6-O ) :   1.0578 B(  5-C , 14-H ) :   0.9184
B(  5-C , 15-H ) :   0.9307 B(  6-O , 16-H ) :   0.9852

FINAL SINGLE POINT ENERGY      -346.255012391846

DIPOLE MOMENT
-------------
                                X             Y             Z
Electronic contribution:      0.00484      -2.14171       0.85932
Nuclear contribution   :     -0.29277       2.38658      -0.90968
                        -----------------------------------------
Total Dipole Moment    :     -0.28793       0.24487      -0.05036
                        -----------------------------------------
Magnitude (a.u.)       :      0.38131
Magnitude (Debye)      :      0.96922

                             ****ORCA TERMINATED NORMALLY****
TOTAL RUN TIME: 0 days 0 hours 0 minutes 7 seconds 412 msec
