                         Program Version 3.0.3 - RELEASE   -
|  1> ! RI PBE def2-SVP def2-SVP/J NBO PAL2
|  2> % maxcore 2000
|  3> % output
|  4>     # printlevel mini
|  5>     print[ P_Basis ] 0
|  6>     print[ P_SCFInfo ] 1
|  7>     print[ P_SCFIterInfo ] 1
|  8>     print[ P_OrbEn ] 0
|  9>     print[ P_Cartesian ] 0
| 10> end
| 11> *xyz 0 1
| 12>  C        1.5896040000     0.0399140000    -0.2400690000
| 13>  O        1.6056440000    -1.2620730000     0.2900640000
| 14>  C        2.8764880000    -1.8132340000     0.3037620000
| 15>  C        2.9643830000    -3.3005440000     0.3961720000
| 16>  C        3.3887640000    -2.6172640000    -0.8648560000
| 17>  C        2.5678170000    -2.7712110000    -2.1103520000
| 18>  O        4.7748050000    -2.6228710000    -1.0596610000
| 19>  H        0.5614370000     0.3988780000    -0.1899960000
| 20>  H        1.9241480000     0.0563560000    -1.2848680000
| 21>  H        2.2302000000     0.7155870000     0.3423130000
| 22>  H        3.6236570000    -1.2346520000     0.8482090000
| 23>  H        2.0265520000    -3.8421570000     0.3726050000
| 24>  H        3.7400900000    -3.7236260000     1.0211980000
| 25>  H        1.5033930000    -2.6986510000    -1.8836890000
| 26>  H        2.7641660000    -3.7395600000    -2.5768490000
| 27>  H        2.8122110000    -1.9905200000    -2.8384840000
| 28>  H        5.0071400000    -1.8477830000    -1.5800910000
| 29> *
| 30>
| 31>                          ****END OF INPUT****
 Total Charge           Charge          ....    0
 Multiplicity           Mult            ....    1
 Number of Electrons    NEL             ....   56
 Basis Dimension        Dim             ....  148

MULLIKEN ATOMIC CHARGES
-----------------------
   0 C :    0.166318
   1 O :   -0.297117
   2 C :    0.056968
   3 C :    0.023396
   4 C :   -0.129452
   5 C :    0.089119
   6 O :   -0.231662
   7 H :    0.032718
   8 H :   -0.000139
   9 H :    0.005182
  10 H :    0.001164
  11 H :    0.038565
  12 H :    0.036397
  13 H :    0.017108
  14 H :    0.027682
  15 H :    0.010653
  16 H :    0.153100
Sum of atomic charges:   -0.0000000

LOEWDIN ATOMIC CHARGES
----------------------
   0 C :    0.054611
   1 O :   -0.124972
   2 C :    0.016211
   3 C :   -0.047814
   4 C :   -0.011506
   5 C :   -0.064908
   6 O :   -0.091905
   7 H :    0.023241
   8 H :    0.003816
   9 H :    0.007275
  10 H :    0.007962
  11 H :    0.034806
  12 H :    0.035351
  13 H :    0.032857
  14 H :    0.032465
  15 H :    0.022431
  16 H :    0.070081

  Mayer bond orders larger than 0.1
B(  0-C ,  1-O ) :   0.9999 B(  0-C ,  7-H ) :   0.9764 B(  0-C ,  8-H ) :   0.9546
B(  0-C ,  9-H ) :   0.9560 B(  1-O ,  2-C ) :   1.0948 B(  2-C ,  3-C ) :   0.9864
B(  2-C ,  4-C ) :   0.8889 B(  2-C , 10-H ) :   0.9177 B(  3-C ,  4-C ) :   0.9658
B(  3-C , 11-H ) :   0.9358 B(  3-C , 12-H ) :   0.9212 B(  4-C ,  5-C ) :   1.0914
B(  4-C ,  6-O ) :   1.0936 B(  5-C , 13-H ) :   0.9284 B(  5-C , 14-H ) :   0.9500
B(  5-C , 15-H ) :   0.9473 B(  6-O , 16-H ) :   0.9802

FINAL SINGLE POINT ENERGY      -346.261069603243

DIPOLE MOMENT
-------------
                                X             Y             Z
Electronic contribution:      1.99704      -1.45211       2.22497
Nuclear contribution   :     -1.98810       2.11372      -2.66045
                        -----------------------------------------
Total Dipole Moment    :      0.00894       0.66161      -0.43548
                        -----------------------------------------
Magnitude (a.u.)       :      0.79212
Magnitude (Debye)      :      2.01340

                             ****ORCA TERMINATED NORMALLY****
TOTAL RUN TIME: 0 days 0 hours 0 minutes 7 seconds 551 msec
