                         Program Version 3.0.3 - RELEASE   -
|  1> ! RI PBE def2-SVP def2-SVP/J NBO PAL2
|  2> % maxcore 2000
|  3> % output
|  4>     # printlevel mini
|  5>     print[ P_Basis ] 0
|  6>     print[ P_SCFInfo ] 1
|  7>     print[ P_SCFIterInfo ] 1
|  8>     print[ P_OrbEn ] 0
|  9>     print[ P_Cartesian ] 0
| 10> end
| 11> *xyz 0 1
| 12>  C        1.6259130000    -0.2671900000    -0.0693580000
| 13>  O        2.8618150000     0.2788310000    -0.4688740000
| 14>  C        3.3566990000     1.1927860000     0.4278090000
| 15>  C        4.3163270000     2.1806770000    -0.0636560000
| 16>  C        2.9204840000     2.6591100000     0.2897370000
| 17>  C        2.7244260000     3.4071720000     1.5348200000
| 18>  O        3.4628740000     3.3394290000     2.4877710000
| 19>  H        1.3369610000    -0.9959110000    -0.8257520000
| 20>  H        0.8529430000     0.5078790000     0.0011770000
| 21>  H        1.7092420000    -0.7704290000     0.9016650000
| 22>  H        3.4556600000     0.8481260000     1.4567600000
| 23>  H        4.5542030000     2.1547120000    -1.1191400000
| 24>  H        5.1037560000     2.4958760000     0.6095300000
| 25>  H        2.2444700000     2.8690110000    -0.5301360000
| 26>  H        1.8159370000     4.0444110000     1.5725490000
| 27> *
| 28>
| 29>                          ****END OF INPUT****
 Total Charge           Charge          ....    0
 Multiplicity           Mult            ....    1
 Number of Electrons    NEL             ....   54
 Basis Dimension        Dim             ....  138

MULLIKEN ATOMIC CHARGES
-----------------------
   0 C :    0.152045
   1 O :   -0.289580
   2 C :    0.069263
   3 C :    0.074208
   4 C :   -0.165387
   5 C :    0.142648
   6 O :   -0.187666
   7 H :    0.041822
   8 H :    0.013098
   9 H :    0.016039
  10 H :    0.030348
  11 H :    0.047090
  12 H :    0.045872
  13 H :    0.029643
  14 H :   -0.019444
Sum of atomic charges:    0.0000000

LOEWDIN ATOMIC CHARGES
----------------------
   0 C :    0.057456
   1 O :   -0.108768
   2 C :    0.063827
   3 C :   -0.014144
   4 C :   -0.105964
   5 C :    0.078918
   6 O :   -0.137625
   7 H :    0.026584
   8 H :    0.009482
   9 H :    0.012822
  10 H :    0.016482
  11 H :    0.040193
  12 H :    0.037867
  13 H :    0.033418
  14 H :   -0.010549

  Mayer bond orders larger than 0.1
B(  0-C ,  1-O ) :   0.9890 B(  0-C ,  7-H ) :   0.9766 B(  0-C ,  8-H ) :   0.9573
B(  0-C ,  9-H ) :   0.9581 B(  1-O ,  2-C ) :   1.1211 B(  2-C ,  3-C ) :   1.0314
B(  2-C ,  4-C ) :   0.8653 B(  2-C , 10-H ) :   0.9294 B(  3-C ,  4-C ) :   0.9456
B(  3-C , 11-H ) :   0.9344 B(  3-C , 12-H ) :   0.9224 B(  4-C ,  5-C ) :   1.0072
B(  4-C , 13-H ) :   0.9282 B(  5-C ,  6-O ) :   2.1169 B(  5-C , 14-H ) :   0.9358

FINAL SINGLE POINT ENERGY      -345.066958251947

DIPOLE MOMENT
-------------
                                X             Y             Z
Electronic contribution:      2.22385       2.61318       1.89019
Nuclear contribution   :     -2.85924      -2.97705      -2.53485
                        -----------------------------------------
Total Dipole Moment    :     -0.63539      -0.36387      -0.64467
                        -----------------------------------------
Magnitude (a.u.)       :      0.97556
Magnitude (Debye)      :      2.47967

                             ****ORCA TERMINATED NORMALLY****
TOTAL RUN TIME: 0 days 0 hours 0 minutes 6 seconds 598 msec
