                         Program Version 3.0.3 - RELEASE   -
|  1> ! RI PBE def2-SVP def2-SVP/J NBO PAL2
|  2> % maxcore 2000
|  3> % output
|  4>     # printlevel mini
|  5>     print[ P_Basis ] 0
|  6>     print[ P_SCFInfo ] 1
|  7>     print[ P_SCFIterInfo ] 1
|  8>     print[ P_OrbEn ] 0
|  9>     print[ P_Cartesian ] 0
| 10> end
| 11> *xyz 0 1
| 12>  C        3.0851960000     0.1422720000     1.0286300000
| 13>  O        2.2311860000     0.1928820000    -0.0865550000
| 14>  C        2.8228100000     0.8043020000    -1.1784090000
| 15>  C        1.9097450000     1.4126720000    -2.1887420000
| 16>  C        2.7493200000     2.2969230000    -1.3298330000
| 17>  O        3.7815280000     2.9780480000    -1.9515400000
| 18>  C        4.8103260000     3.3248240000    -1.0589100000
| 19>  H        2.5363540000    -0.3410280000     1.8370080000
| 20>  H        3.3884440000     1.1472660000     1.3494090000
| 21>  H        3.9896410000    -0.4423940000     0.8138920000
| 22>  H        3.7265950000     0.3219860000    -1.5523780000
| 23>  H        0.8479620000     1.3795190000    -1.9806140000
| 24>  H        2.1903810000     1.3229300000    -3.2303820000
| 25>  H        2.2422920000     2.8414630000    -0.5325140000
| 26>  H        5.5781910000     3.8433480000    -1.6331820000
| 27>  H        5.2508310000     2.4366990000    -0.5876710000
| 28>  H        4.4455070000     3.9937980000    -0.2681100000
| 29> *
| 30>
| 31>                          ****END OF INPUT****
 Total Charge           Charge          ....    0
 Multiplicity           Mult            ....    1
 Number of Electrons    NEL             ....   56
 Basis Dimension        Dim             ....  148

MULLIKEN ATOMIC CHARGES
-----------------------
   0 C :    0.162591
   1 O :   -0.300022
   2 C :    0.043769
   3 C :    0.005504
   4 C :    0.039391
   5 O :   -0.299722
   6 C :    0.157523
   7 H :    0.034426
   8 H :   -0.001432
   9 H :    0.005104
  10 H :    0.009824
  11 H :    0.046587
  12 H :    0.043048
  13 H :    0.009709
  14 H :    0.034886
  15 H :    0.001262
  16 H :    0.007552
Sum of atomic charges:   -0.0000000

LOEWDIN ATOMIC CHARGES
----------------------
   0 C :    0.053392
   1 O :   -0.126115
   2 C :    0.017202
   3 C :   -0.051581
   4 C :    0.016653
   5 O :   -0.126125
   6 C :    0.052322
   7 H :    0.023629
   8 H :    0.003173
   9 H :    0.006812
  10 H :    0.010029
  11 H :    0.038185
  12 H :    0.037586
  13 H :    0.010038
  14 H :    0.023769
  15 H :    0.003814
  16 H :    0.007215

  Mayer bond orders larger than 0.1
B(  0-C ,  1-O ) :   1.0069 B(  0-C ,  7-H ) :   0.9757 B(  0-C ,  8-H ) :   0.9524
B(  0-C ,  9-H ) :   0.9568 B(  1-O ,  2-C ) :   1.0850 B(  2-C ,  3-C ) :   0.9938
B(  2-C ,  4-C ) :   0.9348 B(  2-C , 10-H ) :   0.9182 B(  3-C ,  4-C ) :   0.9993
B(  3-C , 11-H ) :   0.9284 B(  3-C , 12-H ) :   0.9281 B(  4-C ,  5-O ) :   1.0854
B(  4-C , 13-H ) :   0.9177 B(  5-O ,  6-C ) :   1.0052 B(  6-C , 14-H ) :   0.9755
B(  6-C , 15-H ) :   0.9532 B(  6-C , 16-H ) :   0.9571

FINAL SINGLE POINT ENERGY      -346.243193057918

DIPOLE MOMENT
-------------
                                X             Y             Z
Electronic contribution:     -2.64713      -0.41939      -2.82321
Nuclear contribution   :      3.11076       0.48914       3.31703
                        -----------------------------------------
Total Dipole Moment    :      0.46363       0.06975       0.49381
                        -----------------------------------------
Magnitude (a.u.)       :      0.68093
Magnitude (Debye)      :      1.73079

                             ****ORCA TERMINATED NORMALLY****
TOTAL RUN TIME: 0 days 0 hours 0 minutes 6 seconds 878 msec
