                         Program Version 3.0.3 - RELEASE   -
|  1> ! RI PBE def2-SVP def2-SVP/J NBO PAL2
|  2> % maxcore 2000
|  3> % output
|  4>     # printlevel mini
|  5>     print[ P_Basis ] 0
|  6>     print[ P_SCFInfo ] 1
|  7>     print[ P_SCFIterInfo ] 1
|  8>     print[ P_OrbEn ] 0
|  9>     print[ P_Cartesian ] 0
| 10> end
| 11> *xyz 0 1
| 12>  C        1.5800270000     0.0880990000     1.0165380000
| 13>  O        1.7275090000    -0.5209730000    -0.2499910000
| 14>  C        2.8936870000    -1.2513840000    -0.3729040000
| 15>  C        2.9783620000    -2.5936470000     0.2550070000
| 16>  C        2.8175890000    -2.4466650000    -1.2498150000
| 17>  O        4.0535340000    -0.5020810000    -0.3504010000
| 18>  C        4.1952470000     0.3431450000    -1.4741130000
| 19>  H        0.6324580000     0.6258350000     0.9994810000
| 20>  H        2.3930370000     0.7912760000     1.2207530000
| 21>  H        1.5551810000    -0.6627750000     1.8147850000
| 22>  H        2.1175240000    -2.9392810000     0.8136810000
| 23>  H        3.9419580000    -2.9143460000     0.6291000000
| 24>  H        1.8556580000    -2.6946990000    -1.6793450000
| 25>  H        3.6800950000    -2.6713200000    -1.8646670000
| 26>  H        5.1380150000     0.8753570000    -1.3511890000
| 27>  H        3.3758250000     1.0652800000    -1.5386260000
| 28>  H        4.2263940000    -0.2379310000    -2.4030850000
| 29> *
| 30>
| 31>                          ****END OF INPUT****
 Total Charge           Charge          ....    0
 Multiplicity           Mult            ....    1
 Number of Electrons    NEL             ....   56
 Basis Dimension        Dim             ....  148

MULLIKEN ATOMIC CHARGES
-----------------------
   0 C :    0.166788
   1 O :   -0.298336
   2 C :    0.059232
   3 C :   -0.030657
   4 C :   -0.026993
   5 O :   -0.297781
   6 C :    0.170750
   7 H :    0.029689
   8 H :    0.016406
   9 H :    0.004887
  10 H :    0.040339
  11 H :    0.039119
  12 H :    0.038509
  13 H :    0.041168
  14 H :    0.029593
  15 H :    0.017302
  16 H :   -0.000016
Sum of atomic charges:   -0.0000000

LOEWDIN ATOMIC CHARGES
----------------------
   0 C :    0.054488
   1 O :   -0.122646
   2 C :    0.034883
   3 C :   -0.053440
   4 C :   -0.052813
   5 O :   -0.122250
   6 C :    0.055407
   7 H :    0.022165
   8 H :    0.009577
   9 H :    0.008599
  10 H :    0.031483
  11 H :    0.031727
  12 H :    0.031749
  13 H :    0.031559
  14 H :    0.022209
  15 H :    0.009705
  16 H :    0.007599

  Mayer bond orders larger than 0.1
B(  0-C ,  1-O ) :   0.9845 B(  0-C ,  7-H ) :   0.9774 B(  0-C ,  8-H ) :   0.9587
B(  0-C ,  9-H ) :   0.9569 B(  1-O ,  2-C ) :   1.0995 B(  2-C ,  3-C ) :   0.9862
B(  2-C ,  4-C ) :   0.9871 B(  2-C ,  5-O ) :   1.0981 B(  3-C ,  4-C ) :   1.0162
B(  3-C , 10-H ) :   0.9325 B(  3-C , 11-H ) :   0.9354 B(  4-C , 12-H ) :   0.9354
B(  4-C , 13-H ) :   0.9325 B(  5-O ,  6-C ) :   0.9844 B(  6-C , 14-H ) :   0.9776
B(  6-C , 15-H ) :   0.9594 B(  6-C , 16-H ) :   0.9558

FINAL SINGLE POINT ENERGY      -346.254451466849

DIPOLE MOMENT
-------------
                                X             Y             Z
Electronic contribution:      0.00424      -0.48703      -0.04784
Nuclear contribution   :     -0.00438       0.57246       0.05704
                        -----------------------------------------
Total Dipole Moment    :     -0.00013       0.08543       0.00920
                        -----------------------------------------
Magnitude (a.u.)       :      0.08593
Magnitude (Debye)      :      0.21841

                             ****ORCA TERMINATED NORMALLY****
TOTAL RUN TIME: 0 days 0 hours 0 minutes 7 seconds 526 msec
