                         Program Version 3.0.3 - RELEASE   -
|  1> ! RI PBE def2-SVP def2-SVP/J NBO PAL2
|  2> % maxcore 2000
|  3> % output
|  4>     # printlevel mini
|  5>     print[ P_Basis ] 0
|  6>     print[ P_SCFInfo ] 1
|  7>     print[ P_SCFIterInfo ] 1
|  8>     print[ P_OrbEn ] 0
|  9>     print[ P_Cartesian ] 0
| 10> end
| 11> *xyz 0 1
| 12>  C        2.6164160000     0.5815830000    -0.9362640000
| 13>  O        2.1589000000    -0.2201260000     0.1191050000
| 14>  C        2.9062790000    -1.3846840000     0.2998900000
| 15>  C        2.4498590000    -2.2626750000     1.4620450000
| 16>  C        2.7927520000    -3.4907290000     0.5987090000
| 17>  C        2.7150860000    -2.5904990000    -0.6531670000
| 18>  C        3.6809520000    -2.8336500000    -1.7887420000
| 19>  H        2.0193960000     1.4940710000    -0.9371440000
| 20>  H        2.5015540000     0.0866410000    -1.9089460000
| 21>  H        3.6745930000     0.8499020000    -0.8071780000
| 22>  H        3.9783460000    -1.1387900000     0.3797290000
| 23>  H        1.3712770000    -2.1579750000     1.5960820000
| 24>  H        2.9457770000    -2.1395880000     2.4251140000
| 25>  H        2.1234080000    -4.3500950000     0.6473970000
| 26>  H        3.8156410000    -3.8355050000     0.7720070000
| 27>  H        1.6815520000    -2.5658870000    -1.0154690000
| 28>  H        4.7153370000    -2.7992960000    -1.4335470000
| 29>  H        3.5758880000    -2.0890950000    -2.5822650000
| 30>  H        3.5206860000    -3.8181070000    -2.2379440000
| 31> *
| 32>
| 33>                          ****END OF INPUT****
 Total Charge           Charge          ....    0
 Multiplicity           Mult            ....    1
 Number of Electrons    NEL             ....   56
 Basis Dimension        Dim             ....  158

MULLIKEN ATOMIC CHARGES
-----------------------
   0 C :    0.158177
   1 O :   -0.309934
   2 C :    0.076389
   3 C :    0.058176
   4 C :    0.023309
   5 C :   -0.174703
   6 C :    0.065207
   7 H :    0.029232
   8 H :    0.006176
   9 H :    0.000414
  10 H :   -0.023971
  11 H :    0.015291
  12 H :    0.009010
  13 H :    0.014626
  14 H :    0.002987
  15 H :    0.000539
  16 H :    0.008269
  17 H :    0.022109
  18 H :    0.018696
Sum of atomic charges:   -0.0000000

LOEWDIN ATOMIC CHARGES
----------------------
   0 C :    0.051644
   1 O :   -0.137575
   2 C :    0.047382
   3 C :   -0.034390
   4 C :   -0.028197
   5 C :   -0.055820
   6 C :   -0.067289
   7 H :    0.022522
   8 H :    0.004428
   9 H :    0.005023
  10 H :    0.001751
  11 H :    0.029868
  12 H :    0.017336
  13 H :    0.018733
  14 H :    0.020951
  15 H :    0.026265
  16 H :    0.022657
  17 H :    0.025624
  18 H :    0.029088

  Mayer bond orders larger than 0.1
B(  0-C ,  1-O ) :   1.0148 B(  0-C ,  7-H ) :   0.9746 B(  0-C ,  8-H ) :   0.9570
B(  0-C ,  9-H ) :   0.9524 B(  1-O ,  2-C ) :   1.0932 B(  2-C ,  3-C ) :   1.0869
B(  2-C ,  5-C ) :   1.0381 B(  2-C , 10-H ) :   0.8948 B(  3-C ,  4-C ) :   1.1102
B(  3-C , 11-H ) :   0.9094 B(  3-C , 12-H ) :   0.9282 B(  4-C ,  5-C ) :   1.0902
B(  4-C , 13-H ) :   0.9267 B(  4-C , 14-H ) :   0.9256 B(  5-C ,  6-C ) :   1.0917
B(  5-C , 15-H ) :   0.8804 B(  6-C , 16-H ) :   0.9500 B(  6-C , 17-H ) :   0.9596
B(  6-C , 18-H ) :   0.9533

FINAL SINGLE POINT ENERGY      -310.408850020630

DIPOLE MOMENT
-------------
                                X             Y             Z
Electronic contribution:     -2.29050       1.85863       2.72863
Nuclear contribution   :      2.57267      -1.93775      -3.04510
                        -----------------------------------------
Total Dipole Moment    :      0.28217      -0.07912      -0.31647
                        -----------------------------------------
Magnitude (a.u.)       :      0.43131
Magnitude (Debye)      :      1.09630

                             ****ORCA TERMINATED NORMALLY****
TOTAL RUN TIME: 0 days 0 hours 0 minutes 8 seconds 87 msec
