                         Program Version 3.0.3 - RELEASE   -
|  1> ! RI PBE def2-SVP def2-SVP/J NBO PAL2
|  2> % maxcore 2000
|  3> % output
|  4>     # printlevel mini
|  5>     print[ P_Basis ] 0
|  6>     print[ P_SCFInfo ] 1
|  7>     print[ P_SCFIterInfo ] 1
|  8>     print[ P_OrbEn ] 0
|  9>     print[ P_Cartesian ] 0
| 10> end
| 11> *xyz 0 1
| 12>  C        2.3924850000    -0.1000950000     1.1163190000
| 13>  O        3.4457820000     0.4238870000     0.3444660000
| 14>  C        3.0478990000     1.3695460000    -0.6034670000
| 15>  C        2.1408410000     0.8525620000    -1.6851980000
| 16>  C        4.1171920000     2.3439770000    -0.9561850000
| 17>  C        2.9258360000     2.8034020000    -0.1511600000
| 18>  C        3.1147680000     3.2053670000     1.2839950000
| 19>  H        2.8460600000    -0.6824640000     1.9190370000
| 20>  H        1.7431800000    -0.7622330000     0.5313120000
| 21>  H        1.7776270000     0.6941220000     1.5562790000
| 22>  H        1.1683980000     0.5438340000    -1.2928740000
| 23>  H        2.5985330000    -0.0045220000    -2.1869440000
| 24>  H        1.9627380000     1.6291770000    -2.4308660000
| 25>  H        4.2171420000     2.6552970000    -1.9890590000
| 26>  H        5.0501270000     2.2391420000    -0.4146190000
| 27>  H        2.1919470000     3.3909680000    -0.6960440000
| 28>  H        3.7777380000     2.5065230000     1.7973210000
| 29>  H        2.1644280000     3.2300820000     1.8244630000
| 30>  H        3.5595800000     4.2019390000     1.3532940000
| 31> *
| 32>
| 33>                          ****END OF INPUT****
 Total Charge           Charge          ....    0
 Multiplicity           Mult            ....    1
 Number of Electrons    NEL             ....   56
 Basis Dimension        Dim             ....  158

MULLIKEN ATOMIC CHARGES
-----------------------
   0 C :    0.158297
   1 O :   -0.308943
   2 C :   -0.092978
   3 C :    0.094101
   4 C :    0.032629
   5 C :   -0.173577
   6 C :    0.077162
   7 H :    0.029280
   8 H :    0.011877
   9 H :    0.005266
  10 H :    0.018020
  11 H :    0.024177
  12 H :    0.005884
  13 H :    0.020358
  14 H :    0.030395
  15 H :    0.011532
  16 H :    0.018102
  17 H :    0.020897
  18 H :    0.017520
Sum of atomic charges:   -0.0000000

LOEWDIN ATOMIC CHARGES
----------------------
   0 C :    0.052994
   1 O :   -0.125736
   2 C :    0.006729
   3 C :   -0.059892
   4 C :   -0.044197
   5 C :   -0.057070
   6 C :   -0.058025
   7 H :    0.023089
   8 H :    0.005411
   9 H :    0.007102
  10 H :    0.025543
  11 H :    0.031201
  12 H :    0.032075
  13 H :    0.024147
  14 H :    0.031393
  15 H :    0.022773
  16 H :    0.028247
  17 H :    0.025058
  18 H :    0.029157

  Mayer bond orders larger than 0.1
B(  0-C ,  1-O ) :   0.9961 B(  0-C ,  7-H ) :   0.9753 B(  0-C ,  8-H ) :   0.9591
B(  0-C ,  9-H ) :   0.9515 B(  1-O ,  2-C ) :   1.0813 B(  2-C ,  3-C ) :   1.0842
B(  2-C ,  4-C ) :   0.9859 B(  2-C ,  5-C ) :   0.9062 B(  3-C , 10-H ) :   0.9499
B(  3-C , 11-H ) :   0.9483 B(  3-C , 12-H ) :   0.9328 B(  4-C ,  5-C ) :   0.9761
B(  4-C , 13-H ) :   0.9357 B(  4-C , 14-H ) :   0.9326 B(  5-C ,  6-C ) :   1.1098
B(  5-C , 15-H ) :   0.9350 B(  6-C , 16-H ) :   0.9428 B(  6-C , 17-H ) :   0.9572
B(  6-C , 18-H ) :   0.9525

FINAL SINGLE POINT ENERGY      -310.404484366969

DIPOLE MOMENT
-------------
                                X             Y             Z
Electronic contribution:      2.42490      -1.19619      -0.71318
Nuclear contribution   :     -2.87008       1.28229       0.70716
                        -----------------------------------------
Total Dipole Moment    :     -0.44517       0.08610      -0.00603
                        -----------------------------------------
Magnitude (a.u.)       :      0.45346
Magnitude (Debye)      :      1.15261

                             ****ORCA TERMINATED NORMALLY****
TOTAL RUN TIME: 0 days 0 hours 0 minutes 8 seconds 127 msec
