                         Program Version 3.0.3 - RELEASE   -
|  1> ! RI PBE def2-SVP def2-SVP/J NBO PAL2
|  2> % maxcore 2000
|  3> % output
|  4>     # printlevel mini
|  5>     print[ P_Basis ] 0
|  6>     print[ P_SCFInfo ] 1
|  7>     print[ P_SCFIterInfo ] 1
|  8>     print[ P_OrbEn ] 0
|  9>     print[ P_Cartesian ] 0
| 10> end
| 11> *xyz 0 1
| 12>  C        1.7153330000     0.3240260000    -1.2936160000
| 13>  O        2.1244020000    -0.3405290000    -0.1261280000
| 14>  C        3.0291690000    -1.3575970000    -0.3853540000
| 15>  C        3.0749630000    -2.4990890000     0.5750800000
| 16>  C        2.1651020000    -2.5395500000     1.7697760000
| 17>  C        2.5359740000    -2.7078730000    -0.8184400000
| 18>  C        3.2867950000    -3.5250760000    -1.8299200000
| 19>  H        1.0122340000     1.1026830000    -0.9964920000
| 20>  H        1.2200360000    -0.3606250000    -1.9939740000
| 21>  H        2.5658870000     0.7913070000    -1.8084190000
| 22>  H        3.9734150000    -1.0126840000    -0.8110810000
| 23>  H        4.0695900000    -2.9024600000     0.7475250000
| 24>  H        2.6020280000    -2.0031250000     2.6161520000
| 25>  H        1.2055500000    -2.0720430000     1.5460250000
| 26>  H        1.9809750000    -3.5705230000     2.0835580000
| 27>  H        1.4521900000    -2.7827400000    -0.8617590000
| 28>  H        4.3633550000    -3.3524540000    -1.7478770000
| 29>  H        2.9891400000    -3.2732400000    -2.8518350000
| 30>  H        3.1157510000    -4.5958180000    -1.6858020000
| 31> *
| 32>
| 33>                          ****END OF INPUT****
 Total Charge           Charge          ....    0
 Multiplicity           Mult            ....    1
 Number of Electrons    NEL             ....   56
 Basis Dimension        Dim             ....  158

MULLIKEN ATOMIC CHARGES
-----------------------
   0 C :    0.162076
   1 O :   -0.303158
   2 C :    0.102137
   3 C :   -0.121672
   4 C :    0.092296
   5 C :   -0.169993
   6 C :    0.073700
   7 H :    0.032507
   8 H :    0.006257
   9 H :    0.000977
  10 H :   -0.007848
  11 H :    0.008119
  12 H :    0.021583
  13 H :    0.012148
  14 H :    0.014731
  15 H :    0.020117
  16 H :    0.010292
  17 H :    0.018824
  18 H :    0.026908
Sum of atomic charges:   -0.0000000

LOEWDIN ATOMIC CHARGES
----------------------
   0 C :    0.053485
   1 O :   -0.124604
   2 C :    0.036075
   3 C :   -0.048269
   4 C :   -0.052828
   5 C :   -0.063623
   6 C :   -0.058863
   7 H :    0.021866
   8 H :    0.005486
   9 H :    0.005799
  10 H :    0.003979
  11 H :    0.024856
  12 H :    0.030091
  13 H :    0.027580
  14 H :    0.027298
  15 H :    0.027657
  16 H :    0.026693
  17 H :    0.027647
  18 H :    0.029677

  Mayer bond orders larger than 0.1
B(  0-C ,  1-O ) :   1.0057 B(  0-C ,  7-H ) :   0.9764 B(  0-C ,  8-H ) :   0.9558
B(  0-C ,  9-H ) :   0.9543 B(  1-O ,  2-C ) :   1.0903 B(  2-C ,  3-C ) :   0.9438
B(  2-C ,  5-C ) :   0.9524 B(  2-C , 10-H ) :   0.9299 B(  3-C ,  4-C ) :   1.1124
B(  3-C ,  5-C ) :   0.9402 B(  3-C , 11-H ) :   0.9240 B(  4-C , 12-H ) :   0.9577
B(  4-C , 13-H ) :   0.9433 B(  4-C , 14-H ) :   0.9584 B(  5-C ,  6-C ) :   1.0889
B(  5-C , 15-H ) :   0.9289 B(  6-C , 16-H ) :   0.9496 B(  6-C , 17-H ) :   0.9585
B(  6-C , 18-H ) :   0.9562

FINAL SINGLE POINT ENERGY      -310.404107612308

DIPOLE MOMENT
-------------
                                X             Y             Z
Electronic contribution:      0.02232       2.48622       1.44725
Nuclear contribution   :      0.03313      -2.57723      -1.84854
                        -----------------------------------------
Total Dipole Moment    :      0.05544      -0.09101      -0.40129
                        -----------------------------------------
Magnitude (a.u.)       :      0.41520
Magnitude (Debye)      :      1.05535

                             ****ORCA TERMINATED NORMALLY****
TOTAL RUN TIME: 0 days 0 hours 0 minutes 7 seconds 978 msec
