                         Program Version 3.0.3 - RELEASE   -
|  1> ! RI PBE def2-SVP def2-SVP/J NBO PAL2
|  2> % maxcore 2000
|  3> % output
|  4>     # printlevel mini
|  5>     print[ P_Basis ] 0
|  6>     print[ P_SCFInfo ] 1
|  7>     print[ P_SCFIterInfo ] 1
|  8>     print[ P_OrbEn ] 0
|  9>     print[ P_Cartesian ] 0
| 10> end
| 11> *xyz 0 1
| 12>  C        1.9675900000    -1.3036460000     0.0941850000
| 13>  O        2.3269140000     0.0506120000    -0.0259220000
| 14>  C        2.8420640000     0.3656990000    -1.2783770000
| 15>  C        3.2883970000     1.8156590000    -1.4740210000
| 16>  C        4.4282590000     1.2908540000    -2.3690540000
| 17>  C        4.2688550000    -0.0697360000    -1.6679090000
| 18>  O        4.5021500000    -1.2639820000    -2.3570300000
| 19>  H        1.5697160000    -1.4464010000     1.0989610000
| 20>  H        2.8276340000    -1.9676040000    -0.0505540000
| 21>  H        1.1932020000    -1.5755590000    -0.6369490000
| 22>  H        2.1400180000     0.0629320000    -2.0760310000
| 23>  H        3.6680700000     2.2161280000    -0.5324830000
| 24>  H        2.5717350000     2.5155840000    -1.9009950000
| 25>  H        5.3996370000     1.7815890000    -2.3217030000
| 26>  H        4.1147740000     1.2268190000    -3.4152430000
| 27>  H        4.8843560000    -0.1079510000    -0.7649300000
| 28>  H        4.0042380000    -1.2420770000    -3.1788580000
| 29> *
| 30>
| 31>                          ****END OF INPUT****
 Total Charge           Charge          ....    0
 Multiplicity           Mult            ....    1
 Number of Electrons    NEL             ....   56
 Basis Dimension        Dim             ....  148

MULLIKEN ATOMIC CHARGES
-----------------------
   0 C :    0.155163
   1 O :   -0.310340
   2 C :    0.066467
   3 C :    0.032382
   4 C :    0.008719
   5 C :    0.054971
   6 O :   -0.241163
   7 H :    0.028662
   8 H :    0.021397
   9 H :   -0.001346
  10 H :   -0.038008
  11 H :    0.023635
  12 H :    0.018491
  13 H :    0.021863
  14 H :    0.001543
  15 H :    0.005508
  16 H :    0.152054
Sum of atomic charges:   -0.0000000

LOEWDIN ATOMIC CHARGES
----------------------
   0 C :    0.053171
   1 O :   -0.137383
   2 C :    0.022899
   3 C :   -0.033050
   4 C :   -0.047773
   5 C :    0.021377
   6 O :   -0.101143
   7 H :    0.022254
   8 H :    0.010400
   9 H :    0.004580
  10 H :   -0.002158
  11 H :    0.031818
  12 H :    0.021069
  13 H :    0.021429
  14 H :    0.021203
  15 H :    0.025938
  16 H :    0.065369

  Mayer bond orders larger than 0.1
B(  0-C ,  1-O ) :   1.0016 B(  0-C ,  7-H ) :   0.9761 B(  0-C ,  8-H ) :   0.9596
B(  0-C ,  9-H ) :   0.9516 B(  1-O ,  2-C ) :   1.1023 B(  2-C ,  3-C ) :   1.0637
B(  2-C ,  5-C ) :   1.0050 B(  2-C , 10-H ) :   0.8827 B(  3-C ,  4-C ) :   1.0916
B(  3-C , 11-H ) :   0.9190 B(  3-C , 12-H ) :   0.9265 B(  4-C ,  5-C ) :   1.0615
B(  4-C , 13-H ) :   0.9280 B(  4-C , 14-H ) :   0.9200 B(  5-C ,  6-O ) :   1.1056
B(  5-C , 15-H ) :   0.8841 B(  6-O , 16-H ) :   0.9760

FINAL SINGLE POINT ENERGY      -346.267243681416

DIPOLE MOMENT
-------------
                                X             Y             Z
Electronic contribution:      0.92490      -0.66146       0.27279
Nuclear contribution   :     -1.19068       0.68498      -0.75906
                        -----------------------------------------
Total Dipole Moment    :     -0.26578       0.02353      -0.48627
                        -----------------------------------------
Magnitude (a.u.)       :      0.55466
Magnitude (Debye)      :      1.40984

                             ****ORCA TERMINATED NORMALLY****
TOTAL RUN TIME: 0 days 0 hours 0 minutes 7 seconds 564 msec
