                         Program Version 3.0.3 - RELEASE   -
|  1> ! RI PBE def2-SVP def2-SVP/J NBO PAL2
|  2> % maxcore 2000
|  3> % output
|  4>     # printlevel mini
|  5>     print[ P_Basis ] 0
|  6>     print[ P_SCFInfo ] 1
|  7>     print[ P_SCFIterInfo ] 1
|  8>     print[ P_OrbEn ] 0
|  9>     print[ P_Cartesian ] 0
| 10> end
| 11> *xyz 0 1
| 12>  C        2.2486280000     0.7425120000     0.6089780000
| 13>  O        3.2739800000     0.8911790000    -0.3396720000
| 14>  C        2.9481040000     0.4466110000    -1.6171950000
| 15>  C        2.6949380000    -1.0279330000    -1.7569660000
| 16>  C        3.6762280000     1.1686040000    -2.7040460000
| 17>  C        2.2123160000     1.4111330000    -2.5252260000
| 18>  O        1.8679280000     2.6837360000    -2.0876750000
| 19>  H        2.5493730000     1.3048290000     1.4932330000
| 20>  H        2.0970260000    -0.3049910000     0.8963650000
| 21>  H        1.2923600000     1.1414610000     0.2469730000
| 22>  H        1.8409940000    -1.3562760000    -1.1583510000
| 23>  H        3.5747980000    -1.5963270000    -1.4430180000
| 24>  H        2.4826210000    -1.2800930000    -2.7976110000
| 25>  H        4.0288410000     0.6178300000    -3.5671530000
| 26>  H        4.3082080000     1.9820070000    -2.3693670000
| 27>  H        1.5344040000     0.9747240000    -3.2581450000
| 28>  H        1.0692520000     2.6222020000    -1.5577130000
| 29> *
| 30>
| 31>                          ****END OF INPUT****
 Total Charge           Charge          ....    0
 Multiplicity           Mult            ....    1
 Number of Electrons    NEL             ....   56
 Basis Dimension        Dim             ....  148

MULLIKEN ATOMIC CHARGES
-----------------------
   0 C :    0.171448
   1 O :   -0.296579
   2 C :   -0.107293
   3 C :    0.091788
   4 C :    0.025929
   5 C :    0.030679
   6 O :   -0.221025
   7 H :    0.033924
   8 H :    0.007861
   9 H :   -0.021409
  10 H :    0.016459
  11 H :    0.030095
  12 H :    0.005005
  13 H :    0.025515
  14 H :    0.046586
  15 H :    0.003905
  16 H :    0.157112
Sum of atomic charges:   -0.0000000

LOEWDIN ATOMIC CHARGES
----------------------
   0 C :    0.054970
   1 O :   -0.118581
   2 C :   -0.014272
   3 C :   -0.061607
   4 C :   -0.049312
   5 C :    0.016389
   6 O :   -0.086471
   7 H :    0.025107
   8 H :    0.004642
   9 H :   -0.003186
  10 H :    0.025454
  11 H :    0.032839
  12 H :    0.031467
  13 H :    0.026664
  14 H :    0.041306
  15 H :    0.003881
  16 H :    0.070711

  Mayer bond orders larger than 0.1
B(  0-C ,  1-O ) :   1.0094 B(  0-C ,  7-H ) :   0.9762 B(  0-C ,  8-H ) :   0.9563
B(  0-C ,  9-H ) :   0.9461 B(  1-O ,  2-C ) :   1.0911 B(  2-C ,  3-C ) :   1.0671
B(  2-C ,  4-C ) :   0.9735 B(  2-C ,  5-C ) :   0.8594 B(  3-C , 10-H ) :   0.9497
B(  3-C , 11-H ) :   0.9473 B(  3-C , 12-H ) :   0.9352 B(  4-C ,  5-C ) :   0.9768
B(  4-C , 13-H ) :   0.9359 B(  4-C , 14-H ) :   0.9218 B(  5-C ,  6-O ) :   1.1649
B(  5-C , 15-H ) :   0.9425 B(  6-O , 16-H ) :   0.9833

FINAL SINGLE POINT ENERGY      -346.255900311876

DIPOLE MOMENT
-------------
                                X             Y             Z
Electronic contribution:      1.09059       4.23353      -0.80092
Nuclear contribution   :     -1.81180      -4.78093       0.96692
                        -----------------------------------------
Total Dipole Moment    :     -0.72121      -0.54740       0.16600
                        -----------------------------------------
Magnitude (a.u.)       :      0.92051
Magnitude (Debye)      :      2.33976

                             ****ORCA TERMINATED NORMALLY****
TOTAL RUN TIME: 0 days 0 hours 0 minutes 7 seconds 57 msec
