                         Program Version 3.0.3 - RELEASE   -
|  1> ! RI PBE def2-SVP def2-SVP/J NBO PAL2
|  2> % maxcore 2000
|  3> % output
|  4>     # printlevel mini
|  5>     print[ P_Basis ] 0
|  6>     print[ P_SCFInfo ] 1
|  7>     print[ P_SCFIterInfo ] 1
|  8>     print[ P_OrbEn ] 0
|  9>     print[ P_Cartesian ] 0
| 10> end
| 11> *xyz 0 1
| 12>  C        0.8070580000     0.0838640000    -0.0676310000
| 13>  O        2.1929020000     0.2182620000    -0.2691040000
| 14>  C        2.7690700000     1.1065460000     0.6208400000
| 15>  C        4.0253310000     1.8044780000     0.1958670000
| 16>  C        4.6354920000     1.5594920000    -1.1546250000
| 17>  C        2.7346730000     2.5693570000     0.3321290000
| 18>  O        2.5262190000     3.4261160000     1.4086430000
| 19>  H        0.4374520000    -0.6202360000    -0.8133180000
| 20>  H        0.2901070000     1.0439200000    -0.1871870000
| 21>  H        0.5855600000    -0.3072440000     0.9339530000
| 22>  H        2.6887710000     0.8290920000     1.6721470000
| 23>  H        4.7273560000     1.9638280000     1.0093120000
| 24>  H        5.2903610000     0.6848000000    -1.1368590000
| 25>  H        3.8653980000     1.3732360000    -1.9039650000
| 26>  H        5.2297920000     2.4186810000    -1.4769620000
| 27>  H        2.2513730000     2.8547120000    -0.6020620000
| 28>  H        3.0984850000     4.1908960000     1.3018320000
| 29> *
| 30>
| 31>                          ****END OF INPUT****
 Total Charge           Charge          ....    0
 Multiplicity           Mult            ....    1
 Number of Electrons    NEL             ....   56
 Basis Dimension        Dim             ....  148

MULLIKEN ATOMIC CHARGES
-----------------------
   0 C :    0.162988
   1 O :   -0.306608
   2 C :    0.104996
   3 C :   -0.155874
   4 C :    0.080167
   5 C :    0.041480
   6 O :   -0.231223
   7 H :    0.032459
   8 H :    0.009522
   9 H :    0.004827
  10 H :    0.006045
  11 H :    0.018676
  12 H :    0.029308
  13 H :    0.017480
  14 H :    0.016982
  15 H :    0.009264
  16 H :    0.159510
Sum of atomic charges:    0.0000000

LOEWDIN ATOMIC CHARGES
----------------------
   0 C :    0.056109
   1 O :   -0.125329
   2 C :    0.030270
   3 C :   -0.068094
   4 C :   -0.055470
   5 C :    0.011692
   6 O :   -0.098906
   7 H :    0.022005
   8 H :    0.007802
   9 H :    0.007820
  10 H :    0.010962
  11 H :    0.029305
  12 H :    0.032712
  13 H :    0.029328
  14 H :    0.027397
  15 H :    0.008668
  16 H :    0.073729

  Mayer bond orders larger than 0.1
B(  0-C ,  1-O ) :   1.0006 B(  0-C ,  7-H ) :   0.9765 B(  0-C ,  8-H ) :   0.9568
B(  0-C ,  9-H ) :   0.9566 B(  1-O ,  2-C ) :   1.0895 B(  2-C ,  3-C ) :   0.9473
B(  2-C ,  5-C ) :   0.9354 B(  2-C , 10-H ) :   0.9222 B(  3-C ,  4-C ) :   1.0912
B(  3-C ,  5-C ) :   0.9254 B(  3-C , 11-H ) :   0.9195 B(  4-C , 12-H ) :   0.9564
B(  4-C , 13-H ) :   0.9465 B(  4-C , 14-H ) :   0.9596 B(  5-C ,  6-O ) :   1.1395
B(  5-C , 15-H ) :   0.9340 B(  6-O , 16-H ) :   0.9796

FINAL SINGLE POINT ENERGY      -346.257717241778

DIPOLE MOMENT
-------------
                                X             Y             Z
Electronic contribution:     -0.48285       1.36496       2.48856
Nuclear contribution   :      0.60302      -1.00441      -2.59886
                        -----------------------------------------
Total Dipole Moment    :      0.12017       0.36055      -0.11030
                        -----------------------------------------
Magnitude (a.u.)       :      0.39573
Magnitude (Debye)      :      1.00587

                             ****ORCA TERMINATED NORMALLY****
TOTAL RUN TIME: 0 days 0 hours 0 minutes 7 seconds 457 msec
