                         Program Version 3.0.3 - RELEASE   -
|  1> ! RI PBE def2-SVP def2-SVP/J NBO PAL2
|  2> % maxcore 2000
|  3> % output
|  4>     # printlevel mini
|  5>     print[ P_Basis ] 0
|  6>     print[ P_SCFInfo ] 1
|  7>     print[ P_SCFIterInfo ] 1
|  8>     print[ P_OrbEn ] 0
|  9>     print[ P_Cartesian ] 0
| 10> end
| 11> *xyz 0 1
| 12>  C        2.8872620000    -1.1218920000    -0.0658570000
| 13>  O        2.3855230000     0.1374990000     0.3246850000
| 14>  C        2.9199080000     1.1865530000    -0.4018960000
| 15>  C        2.3856850000     2.5941410000    -0.0754420000
| 16>  C        3.8178480000     3.1683280000    -0.1811520000
| 17>  C        4.3172820000     1.7324280000    -0.0556620000
| 18>  O        5.3273270000     1.2346480000     0.3388170000
| 19>  H        2.3875780000    -1.8689670000     0.5501030000
| 20>  H        3.9682870000    -1.1882270000     0.0892340000
| 21>  H        2.6636400000    -1.3224570000    -1.1226650000
| 22>  H        2.8713530000     0.9969540000    -1.4887000000
| 23>  H        2.0162910000     2.6210490000     0.9501970000
| 24>  H        1.6310010000     2.9958230000    -0.7487830000
| 25>  H        4.1598580000     3.8615210000     0.5871680000
| 26>  H        4.0440760000     3.5875200000    -1.1648480000
| 27> *
| 28>
| 29>                          ****END OF INPUT****
 Total Charge           Charge          ....    0
 Multiplicity           Mult            ....    1
 Number of Electrons    NEL             ....   54
 Basis Dimension        Dim             ....  138

MULLIKEN ATOMIC CHARGES
-----------------------
   0 C :    0.148228
   1 O :   -0.309913
   2 C :    0.059265
   3 C :    0.046843
   4 C :   -0.029623
   5 C :   -0.017907
   6 O :   -0.117432
   7 H :    0.032211
   8 H :    0.032794
   9 H :    0.003851
  10 H :    0.007982
  11 H :    0.031991
  12 H :    0.018031
  13 H :    0.045442
  14 H :    0.048239
Sum of atomic charges:   -0.0000000

LOEWDIN ATOMIC CHARGES
----------------------
   0 C :    0.057067
   1 O :   -0.128689
   2 C :    0.010080
   3 C :   -0.030433
   4 C :   -0.063653
   5 C :    0.038605
   6 O :   -0.093550
   7 H :    0.024856
   8 H :    0.014884
   9 H :    0.006475
  10 H :    0.017903
  11 H :    0.036029
  12 H :    0.026283
  13 H :    0.038275
  14 H :    0.045868

  Mayer bond orders larger than 0.1
B(  0-C ,  1-O ) :   0.9894 B(  0-C ,  7-H ) :   0.9749 B(  0-C ,  8-H ) :   0.9625
B(  0-C ,  9-H ) :   0.9531 B(  1-O ,  2-C ) :   1.0912 B(  2-C ,  3-C ) :   1.0722
B(  2-C ,  5-C ) :   0.9091 B(  2-C , 10-H ) :   0.8798 B(  3-C ,  4-C ) :   1.1018
B(  3-C , 11-H ) :   0.9203 B(  3-C , 12-H ) :   0.9081 B(  4-C ,  5-C ) :   0.9841
B(  4-C , 13-H ) :   0.9218 B(  4-C , 14-H ) :   0.9124 B(  5-C ,  6-O ) :   2.2409

FINAL SINGLE POINT ENERGY      -345.073576784251

DIPOLE MOMENT
-------------
                                X             Y             Z
Electronic contribution:      2.93555       0.36765       1.54643
Nuclear contribution   :     -3.46000      -0.11558      -2.10898
                        -----------------------------------------
Total Dipole Moment    :     -0.52445       0.25206      -0.56254
                        -----------------------------------------
Magnitude (a.u.)       :      0.80934
Magnitude (Debye)      :      2.05718

                             ****ORCA TERMINATED NORMALLY****
TOTAL RUN TIME: 0 days 0 hours 0 minutes 7 seconds 243 msec
