                         Program Version 3.0.3 - RELEASE   -
|  1> ! RI PBE def2-SVP def2-SVP/J NBO PAL2
|  2> % maxcore 2000
|  3> % output
|  4>     # printlevel mini
|  5>     print[ P_Basis ] 0
|  6>     print[ P_SCFInfo ] 1
|  7>     print[ P_SCFIterInfo ] 1
|  8>     print[ P_OrbEn ] 0
|  9>     print[ P_Cartesian ] 0
| 10> end
| 11> *xyz 0 1
| 12>  C        1.2800720000     0.4221490000     0.6187810000
| 13>  O        2.4547740000     0.1410290000    -0.1074020000
| 14>  C        2.9883250000     1.1459190000    -0.8378100000
| 15>  C        3.8182160000     0.9556100000    -1.8632730000
| 16>  C        4.3724020000     2.2549990000    -2.3599650000
| 17>  C        3.4489310000     3.2981880000    -1.7056850000
| 18>  C        2.8267640000     2.6006860000    -0.4891350000
| 19>  H        1.0146140000    -0.4968010000     1.1400160000
| 20>  H        0.4547150000     0.7046940000    -0.0443510000
| 21>  H        1.4349780000     1.2152810000     1.3570920000
| 22>  H        4.1131550000    -0.0179690000    -2.2332760000
| 23>  H        4.3724900000     2.3364090000    -3.4510290000
| 24>  H        5.4153960000     2.3868610000    -2.0413440000
| 25>  H        2.6541420000     3.5613180000    -2.4079620000
| 26>  H        3.9674180000     4.2214320000    -1.4418890000
| 27>  H        1.7877220000     2.8996350000    -0.3284680000
| 28>  H        3.3661780000     2.8244500000     0.4411090000
| 29> *
| 30>
| 31>                          ****END OF INPUT****
 Total Charge           Charge          ....    0
 Multiplicity           Mult            ....    1
 Number of Electrons    NEL             ....   54
 Basis Dimension        Dim             ....  148

MULLIKEN ATOMIC CHARGES
-----------------------
   0 C :    0.147240
   1 O :   -0.269996
   2 C :    0.040622
   3 C :   -0.117919
   4 C :    0.037310
   5 C :   -0.021268
   6 C :    0.029326
   7 H :    0.035046
   8 H :    0.021439
   9 H :    0.025087
  10 H :   -0.028842
  11 H :    0.018314
  12 H :    0.019885
  13 H :    0.021277
  14 H :    0.005137
  15 H :    0.012332
  16 H :    0.025013
Sum of atomic charges:   -0.0000000

LOEWDIN ATOMIC CHARGES
----------------------
   0 C :    0.061578
   1 O :   -0.079817
   2 C :    0.005695
   3 C :   -0.096486
   4 C :   -0.037462
   5 C :   -0.028793
   6 C :   -0.050218
   7 H :    0.026491
   8 H :    0.012891
   9 H :    0.012493
  10 H :    0.020265
  11 H :    0.024217
  12 H :    0.024205
  13 H :    0.028395
  14 H :    0.021906
  15 H :    0.024211
  16 H :    0.030429

  Mayer bond orders larger than 0.1
B(  0-C ,  1-O ) :   0.9864 B(  0-C ,  7-H ) :   0.9755 B(  0-C ,  8-H ) :   0.9601
B(  0-C ,  9-H ) :   0.9589 B(  1-O ,  2-C ) :   1.1453 B(  2-C ,  3-C ) :   1.7818
B(  2-C ,  6-C ) :   1.0278 B(  3-C ,  4-C ) :   1.0234 B(  3-C , 10-H ) :   0.9927
B(  4-C ,  5-C ) :   1.1053 B(  4-C , 11-H ) :   0.9329 B(  4-C , 12-H ) :   0.9114
B(  5-C ,  6-C ) :   1.0911 B(  5-C , 13-H ) :   0.9399 B(  5-C , 14-H ) :   0.9339
B(  6-C , 15-H ) :   0.9230 B(  6-C , 16-H ) :   0.9009

FINAL SINGLE POINT ENERGY      -309.219643614160

DIPOLE MOMENT
-------------
                                X             Y             Z
Electronic contribution:      0.78171      -3.67509       0.09941
Nuclear contribution   :     -1.21227       4.03383       0.21173
                        -----------------------------------------
Total Dipole Moment    :     -0.43056       0.35874       0.31115
                        -----------------------------------------
Magnitude (a.u.)       :      0.64101
Magnitude (Debye)      :      1.62931

                             ****ORCA TERMINATED NORMALLY****
TOTAL RUN TIME: 0 days 0 hours 0 minutes 7 seconds 821 msec
