                         Program Version 3.0.3 - RELEASE   -
|  1> ! RI PBE def2-SVP def2-SVP/J NBO PAL2
|  2> % maxcore 2000
|  3> % output
|  4>     # printlevel mini
|  5>     print[ P_Basis ] 0
|  6>     print[ P_SCFInfo ] 1
|  7>     print[ P_SCFIterInfo ] 1
|  8>     print[ P_OrbEn ] 0
|  9>     print[ P_Cartesian ] 0
| 10> end
| 11> *xyz 0 1
| 12>  C        3.0546350000    -1.2978310000     0.1669040000
| 13>  O        2.5868040000     0.0285030000     0.1115960000
| 14>  C        3.0857720000     0.8218890000    -0.8517130000
| 15>  C        2.7467330000     2.1121700000    -1.0401520000
| 16>  C        3.5026060000     2.6128500000    -2.1773100000
| 17>  C        4.2919070000     1.6492300000    -2.6792800000
| 18>  C        4.1007430000     0.4035060000    -1.8758260000
| 19>  H        2.5392440000    -1.7712780000     1.0009800000
| 20>  H        4.1346180000    -1.3380190000     0.3455240000
| 21>  H        2.8238910000    -1.8462370000    -0.7528100000
| 22>  H        2.0374480000     2.6723930000    -0.4481310000
| 23>  H        3.4271930000     3.6253220000    -2.5536730000
| 24>  H        4.9647350000     1.7257880000    -3.5210180000
| 25>  H        5.0340510000     0.0648970000    -1.4087090000
| 26>  H        3.7397190000    -0.4324730000    -2.4879820000
| 27> *
| 28>
| 29>                          ****END OF INPUT****
 Total Charge           Charge          ....    0
 Multiplicity           Mult            ....    1
 Number of Electrons    NEL             ....   52
 Basis Dimension        Dim             ....  138

MULLIKEN ATOMIC CHARGES
-----------------------
   0 C :    0.150944
   1 O :   -0.248381
   2 C :    0.032406
   3 C :   -0.046365
   4 C :    0.020375
   5 C :   -0.093126
   6 C :    0.069415
   7 H :    0.042667
   8 H :    0.020384
   9 H :    0.022049
  10 H :   -0.030372
  11 H :   -0.021077
  12 H :   -0.015346
  13 H :    0.047190
  14 H :    0.049235
Sum of atomic charges:   -0.0000000

LOEWDIN ATOMIC CHARGES
----------------------
   0 C :    0.062787
   1 O :   -0.060077
   2 C :    0.017581
   3 C :   -0.099379
   4 C :   -0.026006
   5 C :   -0.075775
   6 C :   -0.045663
   7 H :    0.029238
   8 H :    0.014038
   9 H :    0.014283
  10 H :    0.023219
  11 H :    0.021659
  12 H :    0.017884
  13 H :    0.052974
  14 H :    0.053238

  Mayer bond orders larger than 0.1
B(  0-C ,  1-O ) :   0.9855 B(  0-C ,  7-H ) :   0.9749 B(  0-C ,  8-H ) :   0.9588
B(  0-C ,  9-H ) :   0.9586 B(  1-O ,  2-C ) :   1.1684 B(  2-C ,  3-C ) :   1.6459
B(  2-C ,  6-C ) :   1.0518 B(  3-C ,  4-C ) :   1.0797 B(  3-C , 10-H ) :   1.0114
B(  4-C ,  5-C ) :   1.7229 B(  4-C , 11-H ) :   0.9955 B(  5-C ,  6-C ) :   1.0259
B(  5-C , 12-H ) :   0.9932 B(  6-C , 13-H ) :   0.8863 B(  6-C , 14-H ) :   0.8874

FINAL SINGLE POINT ENERGY      -308.008347076704

DIPOLE MOMENT
-------------
                                X             Y             Z
Electronic contribution:     -1.65308       2.82459       0.66526
Nuclear contribution   :      1.93622      -3.63609      -0.63479
                        -----------------------------------------
Total Dipole Moment    :      0.28314      -0.81149       0.03047
                        -----------------------------------------
Magnitude (a.u.)       :      0.86001
Magnitude (Debye)      :      2.18598

                             ****ORCA TERMINATED NORMALLY****
TOTAL RUN TIME: 0 days 0 hours 0 minutes 7 seconds 265 msec
