                         Program Version 3.0.3 - RELEASE   -
|  1> ! RI PBE def2-SVP def2-SVP/J NBO PAL2
|  2> % maxcore 2000
|  3> % output
|  4>     # printlevel mini
|  5>     print[ P_Basis ] 0
|  6>     print[ P_SCFInfo ] 1
|  7>     print[ P_SCFIterInfo ] 1
|  8>     print[ P_OrbEn ] 0
|  9>     print[ P_Cartesian ] 0
| 10> end
| 11> *xyz 0 1
| 12>  C        2.8468830000     1.1867290000    -0.8965850000
| 13>  O        2.3387890000    -0.0316460000    -0.4077470000
| 14>  C        3.0241010000    -1.1542380000    -0.7045860000
| 15>  C        2.6639330000    -2.3905590000    -0.3097050000
| 16>  C        3.6660490000    -3.3613360000    -0.8314020000
| 17>  C        4.6390800000    -2.5076670000    -1.5729690000
| 18>  C        4.2572970000    -1.2251170000    -1.4936190000
| 19>  H        2.1634000000     1.9631330000    -0.5557150000
| 20>  H        2.8820450000     1.2008230000    -1.9913630000
| 21>  H        3.8469250000     1.3961800000    -0.5015910000
| 22>  H        1.7984520000    -2.6443970000     0.2837670000
| 23>  H        3.2176640000    -4.1153260000    -1.4924820000
| 24>  H        4.1642130000    -3.9240110000    -0.0302730000
| 25>  H        5.5110450000    -2.8871690000    -2.0877770000
| 26>  H        4.7693250000    -0.3814080000    -1.9354630000
| 27> *
| 28>
| 29>                          ****END OF INPUT****
 Total Charge           Charge          ....    0
 Multiplicity           Mult            ....    1
 Number of Electrons    NEL             ....   52
 Basis Dimension        Dim             ....  138

MULLIKEN ATOMIC CHARGES
-----------------------
   0 C :    0.143681
   1 O :   -0.263309
   2 C :    0.177636
   3 C :   -0.170641
   4 C :    0.106016
   5 C :   -0.081917
   6 C :   -0.036709
   7 H :    0.037954
   8 H :    0.027524
   9 H :    0.024231
  10 H :   -0.024939
  11 H :    0.048050
  12 H :    0.045979
  13 H :   -0.008006
  14 H :   -0.025552
Sum of atomic charges:   -0.0000000

LOEWDIN ATOMIC CHARGES
----------------------
   0 C :    0.060688
   1 O :   -0.074679
   2 C :    0.009913
   3 C :   -0.099762
   4 C :   -0.029722
   5 C :   -0.031677
   6 C :   -0.062455
   7 H :    0.027715
   8 H :    0.014237
   9 H :    0.014040
  10 H :    0.020692
  11 H :    0.054228
  12 H :    0.053978
  13 H :    0.020869
  14 H :    0.021935

  Mayer bond orders larger than 0.1
B(  0-C ,  1-O ) :   0.9890 B(  0-C ,  7-H ) :   0.9740 B(  0-C ,  8-H ) :   0.9617
B(  0-C ,  9-H ) :   0.9605 B(  1-O ,  2-C ) :   1.1532 B(  2-C ,  3-C ) :   1.6598
B(  2-C ,  6-C ) :   1.0570 B(  3-C ,  4-C ) :   1.0448 B(  3-C , 10-H ) :   1.0027
B(  4-C ,  5-C ) :   1.0667 B(  4-C , 11-H ) :   0.8877 B(  4-C , 12-H ) :   0.8871
B(  5-C ,  6-C ) :   1.7029 B(  5-C , 13-H ) :   0.9849 B(  6-C , 14-H ) :   0.9990

FINAL SINGLE POINT ENERGY      -308.007721531170

DIPOLE MOMENT
-------------
                                X             Y             Z
Electronic contribution:     -1.29325      -0.61879       0.91987
Nuclear contribution   :      1.64814       0.84976      -1.17926
                        -----------------------------------------
Total Dipole Moment    :      0.35489       0.23097      -0.25939
                        -----------------------------------------
Magnitude (a.u.)       :      0.49656
Magnitude (Debye)      :      1.26216

                             ****ORCA TERMINATED NORMALLY****
TOTAL RUN TIME: 0 days 0 hours 0 minutes 7 seconds 7 msec
