                         Program Version 3.0.3 - RELEASE   -
|  1> ! RI PBE def2-SVP def2-SVP/J NBO PAL2
|  2> % maxcore 2000
|  3> % output
|  4>     # printlevel mini
|  5>     print[ P_Basis ] 0
|  6>     print[ P_SCFInfo ] 1
|  7>     print[ P_SCFIterInfo ] 1
|  8>     print[ P_OrbEn ] 0
|  9>     print[ P_Cartesian ] 0
| 10> end
| 11> *xyz 0 1
| 12>  C        1.4437930000    -0.2293300000    -0.7038420000
| 13>  O        1.3989850000     0.2694900000     0.6061390000
| 14>  C        2.4173540000     1.1870280000     0.9309940000
| 15>  C        3.7936940000     0.5497090000     0.9128960000
| 16>  C        2.3715860000     2.5595130000     0.2104790000
| 17>  C        2.5529680000     3.2342840000     1.5839380000
| 18>  C        2.1148130000     1.9161970000     2.2494200000
| 19>  H        0.5184260000    -0.7829160000    -0.8666980000
| 20>  H        2.2876470000    -0.9112360000    -0.8655400000
| 21>  H        1.5022670000     0.5786370000    -1.4455170000
| 22>  H        4.0864910000     0.2438260000    -0.0943190000
| 23>  H        3.8087540000    -0.3280760000     1.5637820000
| 24>  H        4.5453210000     1.2564620000     1.2718380000
| 25>  H        1.3725940000     2.7397600000    -0.1921790000
| 26>  H        3.1156620000     2.7588530000    -0.5632620000
| 27>  H        1.9503920000     4.1195510000     1.7867760000
| 28>  H        3.5975760000     3.4745820000     1.7890980000
| 29>  H        1.0403070000     1.8961150000     2.4380780000
| 30>  H        2.6458920000     1.5803420000     3.1419210000
| 31> *
| 32>
| 33>                          ****END OF INPUT****
 Total Charge           Charge          ....    0
 Multiplicity           Mult            ....    1
 Number of Electrons    NEL             ....   56
 Basis Dimension        Dim             ....  158

MULLIKEN ATOMIC CHARGES
-----------------------
   0 C :    0.154542
   1 O :   -0.312669
   2 C :   -0.242386
   3 C :    0.092900
   4 C :    0.096113
   5 C :   -0.027585
   6 C :    0.111177
   7 H :    0.028295
   8 H :    0.007526
   9 H :    0.003416
  10 H :    0.013779
  11 H :    0.022950
  12 H :    0.003802
  13 H :    0.003481
  14 H :    0.008798
  15 H :    0.007842
  16 H :    0.016294
  17 H :    0.008252
  18 H :    0.003472
Sum of atomic charges:   -0.0000000

LOEWDIN ATOMIC CHARGES
----------------------
   0 C :    0.048914
   1 O :   -0.138632
   2 C :    0.015400
   3 C :   -0.062822
   4 C :   -0.043759
   5 C :   -0.030819
   6 C :   -0.028920
   7 H :    0.022712
   8 H :    0.003247
   9 H :    0.005426
  10 H :    0.023436
  11 H :    0.029900
  12 H :    0.030142
  13 H :    0.026955
  14 H :    0.014055
  15 H :    0.019389
  16 H :    0.020912
  17 H :    0.028942
  18 H :    0.015520

  Mayer bond orders larger than 0.1
B(  0-C ,  1-O ) :   1.0148 B(  0-C ,  7-H ) :   0.9758 B(  0-C ,  8-H ) :   0.9541
B(  0-C ,  9-H ) :   0.9504 B(  1-O ,  2-C ) :   1.0541 B(  2-C ,  3-C ) :   1.0389
B(  2-C ,  4-C ) :   1.0631 B(  2-C ,  6-C ) :   1.0497 B(  3-C , 10-H ) :   0.9441
B(  3-C , 11-H ) :   0.9464 B(  3-C , 12-H ) :   0.9417 B(  4-C ,  5-C ) :   1.1374
B(  4-C , 13-H ) :   0.8871 B(  4-C , 14-H ) :   0.9340 B(  5-C ,  6-C ) :   1.1186
B(  5-C , 15-H ) :   0.9207 B(  5-C , 16-H ) :   0.9359 B(  6-C , 17-H ) :   0.8964
B(  6-C , 18-H ) :   0.9312

FINAL SINGLE POINT ENERGY      -310.408280088365

DIPOLE MOMENT
-------------
                                X             Y             Z
Electronic contribution:     -2.48332      -0.65479       1.22985
Nuclear contribution   :      2.76835       0.77038      -1.52200
                        -----------------------------------------
Total Dipole Moment    :      0.28504       0.11559      -0.29215
                        -----------------------------------------
Magnitude (a.u.)       :      0.42422
Magnitude (Debye)      :      1.07828

                             ****ORCA TERMINATED NORMALLY****
TOTAL RUN TIME: 0 days 0 hours 0 minutes 8 seconds 184 msec
