                         Program Version 3.0.3 - RELEASE   -
|  1> ! RI PBE def2-SVP def2-SVP/J NBO PAL2
|  2> % maxcore 2000
|  3> % output
|  4>     # printlevel mini
|  5>     print[ P_Basis ] 0
|  6>     print[ P_SCFInfo ] 1
|  7>     print[ P_SCFIterInfo ] 1
|  8>     print[ P_OrbEn ] 0
|  9>     print[ P_Cartesian ] 0
| 10> end
| 11> *xyz 0 1
| 12>  C        2.6582760000    -1.2410010000    -0.0300230000
| 13>  O        2.2842680000     0.0957550000    -0.2288360000
| 14>  C        2.8816650000     0.9837610000     0.6766410000
| 15>  C        2.2859970000     2.3581340000     0.6078720000
| 16>  C        3.2708320000     3.2611380000     0.5736380000
| 17>  C        4.5641290000     2.5672690000     0.5349030000
| 18>  C        4.3625110000     1.2451930000     0.5418130000
| 19>  H        2.0808520000    -1.8441880000    -0.7308000000
| 20>  H        2.4339000000    -1.5718290000     0.9940200000
| 21>  H        3.7255800000    -1.4059410000    -0.2235530000
| 22>  H        2.7239990000     0.6163770000     1.7132270000
| 23>  H        1.2204380000     2.5375340000     0.6263110000
| 24>  H        3.1526390000     4.3370010000     0.5746570000
| 25>  H        5.5245820000     3.0666330000     0.5100420000
| 26>  H        5.1204320000     0.4746650000     0.5310570000
| 27> *
| 28>
| 29>                          ****END OF INPUT****
 Total Charge           Charge          ....    0
 Multiplicity           Mult            ....    1
 Number of Electrons    NEL             ....   52
 Basis Dimension        Dim             ....  138

MULLIKEN ATOMIC CHARGES
-----------------------
   0 C :    0.160477
   1 O :   -0.328128
   2 C :    0.179980
   3 C :   -0.018168
   4 C :   -0.003926
   5 C :    0.016735
   6 C :   -0.047779
   7 H :    0.033754
   8 H :   -0.000478
   9 H :    0.006452
  10 H :    0.024943
  11 H :   -0.000991
  12 H :   -0.007253
  13 H :   -0.013058
  14 H :   -0.002560
Sum of atomic charges:   -0.0000000

LOEWDIN ATOMIC CHARGES
----------------------
   0 C :    0.052233
   1 O :   -0.131615
   2 C :    0.048208
   3 C :   -0.028574
   4 C :   -0.030511
   5 C :   -0.026617
   6 C :   -0.048654
   7 H :    0.024939
   8 H :    0.004677
   9 H :    0.004813
  10 H :    0.036493
  11 H :    0.025832
  12 H :    0.024383
  13 H :    0.022977
  14 H :    0.021416

  Mayer bond orders larger than 0.1
B(  0-C ,  1-O ) :   1.0166 B(  0-C ,  7-H ) :   0.9754 B(  0-C ,  8-H ) :   0.9512
B(  0-C ,  9-H ) :   0.9571 B(  1-O ,  2-C ) :   1.0180 B(  2-C ,  3-C ) :   1.0053
B(  2-C ,  6-C ) :   0.9992 B(  2-C , 10-H ) :   0.8493 B(  3-C ,  4-C ) :   1.7425
B(  3-C , 11-H ) :   0.9961 B(  4-C ,  5-C ) :   1.0662 B(  4-C , 12-H ) :   0.9992
B(  5-C ,  6-C ) :   1.7541 B(  5-C , 13-H ) :   0.9962 B(  6-C , 14-H ) :   0.9835

FINAL SINGLE POINT ENERGY      -307.990608781534

DIPOLE MOMENT
-------------
                                X             Y             Z
Electronic contribution:     -0.45785       3.15502      -0.64904
Nuclear contribution   :      0.68752      -3.40241       0.98652
                        -----------------------------------------
Total Dipole Moment    :      0.22967      -0.24739       0.33748
                        -----------------------------------------
Magnitude (a.u.)       :      0.47733
Magnitude (Debye)      :      1.21327

                             ****ORCA TERMINATED NORMALLY****
TOTAL RUN TIME: 0 days 0 hours 0 minutes 6 seconds 739 msec
