                         Program Version 3.0.3 - RELEASE   -
|  1> ! RI PBE def2-SVP def2-SVP/J NBO PAL2
|  2> % maxcore 2000
|  3> % output
|  4>     # printlevel mini
|  5>     print[ P_Basis ] 0
|  6>     print[ P_SCFInfo ] 1
|  7>     print[ P_SCFIterInfo ] 1
|  8>     print[ P_OrbEn ] 0
|  9>     print[ P_Cartesian ] 0
| 10> end
| 11> *xyz 0 1
| 12>  C        3.0642560000    -0.1622170000     0.8968400000
| 13>  O        2.1886170000    -0.0895540000    -0.1927140000
| 14>  C        2.7865380000     0.4201510000    -1.3673310000
| 15>  C        1.8325790000     0.1287530000    -2.5343460000
| 16>  C        1.1985960000     1.4531110000    -2.8292830000
| 17>  C        1.7900930000     2.4437780000    -2.1737500000
| 18>  C        2.9275600000     1.9571600000    -1.3279580000
| 19>  H        2.5127770000    -0.6009880000     1.7289510000
| 20>  H        3.4342320000     0.8240620000     1.2074130000
| 21>  H        3.9321950000    -0.7982460000     0.6702380000
| 22>  H        3.7602850000    -0.0694780000    -1.5047800000
| 23>  H        1.1143610000    -0.6403220000    -2.2372010000
| 24>  H        2.3712140000    -0.2574100000    -3.4074440000
| 25>  H        0.3656800000     1.5687500000    -3.5129640000
| 26>  H        1.5097820000     3.4887550000    -2.2395420000
| 27>  H        2.8792980000     2.3286900000    -0.2998360000
| 28>  H        3.8918370000     2.2862040000    -1.7334750000
| 29> *
| 30>
| 31>                          ****END OF INPUT****
 Total Charge           Charge          ....    0
 Multiplicity           Mult            ....    1
 Number of Electrons    NEL             ....   54
 Basis Dimension        Dim             ....  148

MULLIKEN ATOMIC CHARGES
-----------------------
   0 C :    0.155622
   1 O :   -0.333441
   2 C :    0.022308
   3 C :    0.115986
   4 C :   -0.072716
   5 C :   -0.076113
   6 C :    0.107197
   7 H :    0.031774
   8 H :   -0.001262
   9 H :    0.000955
  10 H :   -0.019249
  11 H :    0.030326
  12 H :    0.020834
  13 H :   -0.007281
  14 H :   -0.009017
  15 H :    0.016675
  16 H :    0.017403
Sum of atomic charges:   -0.0000000

LOEWDIN ATOMIC CHARGES
----------------------
   0 C :    0.047934
   1 O :   -0.142793
   2 C :    0.063590
   3 C :   -0.044095
   4 C :   -0.037482
   5 C :   -0.040198
   6 C :   -0.052295
   7 H :    0.023377
   8 H :    0.000191
   9 H :    0.003654
  10 H :    0.002290
  11 H :    0.036310
  12 H :    0.033707
  13 H :    0.021736
  14 H :    0.020543
  15 H :    0.032114
  16 H :    0.031419

  Mayer bond orders larger than 0.1
B(  0-C ,  1-O ) :   1.0250 B(  0-C ,  7-H ) :   0.9758 B(  0-C ,  8-H ) :   0.9491
B(  0-C ,  9-H ) :   0.9526 B(  1-O ,  2-C ) :   1.0267 B(  2-C ,  3-C ) :   1.0571
B(  2-C ,  6-C ) :   1.0532 B(  2-C , 10-H ) :   0.9076 B(  3-C ,  4-C ) :   1.0310
B(  3-C , 11-H ) :   0.9113 B(  3-C , 12-H ) :   0.9103 B(  4-C ,  5-C ) :   1.8739
B(  4-C , 13-H ) :   0.9868 B(  5-C ,  6-C ) :   1.0224 B(  5-C , 14-H ) :   0.9852
B(  6-C , 15-H ) :   0.9097 B(  6-C , 16-H ) :   0.9083

FINAL SINGLE POINT ENERGY      -309.213031806572

DIPOLE MOMENT
-------------
                                X             Y             Z
Electronic contribution:     -2.30559       0.28040      -1.47596
Nuclear contribution   :      2.73221      -0.19791       1.49313
                        -----------------------------------------
Total Dipole Moment    :      0.42662       0.08249       0.01717
                        -----------------------------------------
Magnitude (a.u.)       :      0.43486
Magnitude (Debye)      :      1.10533

                             ****ORCA TERMINATED NORMALLY****
TOTAL RUN TIME: 0 days 0 hours 0 minutes 7 seconds 325 msec
