                         Program Version 3.0.3 - RELEASE   -
|  1> ! RI PBE def2-SVP def2-SVP/J NBO PAL2
|  2> % maxcore 2000
|  3> % output
|  4>     # printlevel mini
|  5>     print[ P_Basis ] 0
|  6>     print[ P_SCFInfo ] 1
|  7>     print[ P_SCFIterInfo ] 1
|  8>     print[ P_OrbEn ] 0
|  9>     print[ P_Cartesian ] 0
| 10> end
| 11> *xyz 0 1
| 12>  C        2.2428590000    -1.2982510000     0.2129610000
| 13>  O        2.2609460000     0.0977350000     0.0869610000
| 14>  C        2.8145060000     0.7318200000     1.2012420000
| 15>  C        2.8166460000     2.2578600000     1.1276340000
| 16>  C        2.4243010000     2.2988830000     2.6235540000
| 17>  C        3.5868590000     2.5256460000     3.5692300000
| 18>  C        1.9840340000     0.8205630000     2.4995330000
| 19>  H        1.8115090000    -1.7062100000    -0.7015410000
| 20>  H        1.6328110000    -1.6227020000     1.0666630000
| 21>  H        3.2571320000    -1.7033080000     0.3390610000
| 22>  H        3.8180490000     0.3272240000     1.3991900000
| 23>  H        2.0012550000     2.5948020000     0.4845300000
| 24>  H        3.7411610000     2.7540350000     0.8260840000
| 25>  H        1.6177730000     2.9952450000     2.8634170000
| 26>  H        4.4172170000     1.8459100000     3.3560440000
| 27>  H        3.2859810000     2.3641090000     4.6081180000
| 28>  H        3.9674080000     3.5475120000     3.4862710000
| 29>  H        0.9195330000     0.7338670000     2.2696060000
| 30>  H        2.2330100000     0.1497700000     3.3247410000
| 31> *
| 32>
| 33>                          ****END OF INPUT****
 Total Charge           Charge          ....    0
 Multiplicity           Mult            ....    1
 Number of Electrons    NEL             ....   56
 Basis Dimension        Dim             ....  158

MULLIKEN ATOMIC CHARGES
-----------------------
   0 C :    0.155100
   1 O :   -0.310033
   2 C :   -0.011160
   3 C :    0.118271
   4 C :   -0.223196
   5 C :    0.060500
   6 C :    0.102920
   7 H :    0.031020
   8 H :    0.006404
   9 H :    0.000483
  10 H :   -0.012937
  11 H :    0.010717
  12 H :    0.009062
  13 H :    0.006407
  14 H :    0.006503
  15 H :    0.021202
  16 H :    0.018952
  17 H :    0.003567
  18 H :    0.006218
Sum of atomic charges:   -0.0000000

LOEWDIN ATOMIC CHARGES
----------------------
   0 C :    0.050523
   1 O :   -0.137662
   2 C :    0.046570
   3 C :   -0.032988
   4 C :   -0.035410
   5 C :   -0.059686
   6 C :   -0.049938
   7 H :    0.022511
   8 H :    0.005131
   9 H :    0.004386
  10 H :    0.002046
  11 H :    0.030972
  12 H :    0.016951
  13 H :    0.018291
  14 H :    0.022225
  15 H :    0.026898
  16 H :    0.027039
  17 H :    0.028395
  18 H :    0.013746

  Mayer bond orders larger than 0.1
B(  0-C ,  1-O ) :   1.0136 B(  0-C ,  7-H ) :   0.9773 B(  0-C ,  8-H ) :   0.9550
B(  0-C ,  9-H ) :   0.9522 B(  1-O ,  2-C ) :   1.0798 B(  2-C ,  3-C ) :   1.0780
B(  2-C ,  6-C ) :   1.0867 B(  2-C , 10-H ) :   0.9009 B(  3-C ,  4-C ) :   1.0716
B(  3-C , 11-H ) :   0.8938 B(  3-C , 12-H ) :   0.9309 B(  4-C ,  5-C ) :   1.0677
B(  4-C ,  6-C ) :   1.1002 B(  4-C , 13-H ) :   0.9129 B(  5-C , 14-H ) :   0.9591
B(  5-C , 15-H ) :   0.9582 B(  5-C , 16-H ) :   0.9566 B(  6-C , 17-H ) :   0.8809
B(  6-C , 18-H ) :   0.9316

FINAL SINGLE POINT ENERGY      -310.407262048174

DIPOLE MOMENT
-------------
                                X             Y             Z
Electronic contribution:     -1.38870      -0.24431      -3.56115
Nuclear contribution   :      1.48102       0.03573       3.89269
                        -----------------------------------------
Total Dipole Moment    :      0.09232      -0.20858       0.33154
                        -----------------------------------------
Magnitude (a.u.)       :      0.40243
Magnitude (Debye)      :      1.02289

                             ****ORCA TERMINATED NORMALLY****
TOTAL RUN TIME: 0 days 0 hours 0 minutes 8 seconds 51 msec
