                         Program Version 3.0.3 - RELEASE   -
|  1> ! RI PBE def2-SVP def2-SVP/J NBO PAL2
|  2> % maxcore 2000
|  3> % output
|  4>     # printlevel mini
|  5>     print[ P_Basis ] 0
|  6>     print[ P_SCFInfo ] 1
|  7>     print[ P_SCFIterInfo ] 1
|  8>     print[ P_OrbEn ] 0
|  9>     print[ P_Cartesian ] 0
| 10> end
| 11> *xyz 0 1
| 12>  C        0.8668220000     0.0119640000     0.0919750000
| 13>  O        2.2638450000     0.1018530000     0.1091080000
| 14>  C        2.8000860000     0.8393340000    -0.9795540000
| 15>  C        4.3280090000     0.7547010000    -0.9250590000
| 16>  C        4.8126290000     2.0849360000    -0.3302770000
| 17>  C        3.6245360000     2.9818400000    -0.4944960000
| 18>  C        2.5358490000     2.3195510000    -0.8682630000
| 19>  H        0.5733550000    -0.6548650000     0.9035570000
| 20>  H        0.5027560000    -0.4064930000    -0.8578960000
| 21>  H        0.3833570000     0.9848180000     0.2492430000
| 22>  H        2.3959580000     0.4128040000    -1.9103780000
| 23>  H        4.7175590000     0.6405710000    -1.9388050000
| 24>  H        4.6349890000    -0.1192730000    -0.3498360000
| 25>  H        5.6985860000     2.4707010000    -0.8428370000
| 26>  H        5.0819830000     1.9974610000     0.7286660000
| 27>  H        3.6638240000     4.0484980000    -0.3007240000
| 28>  H        1.5619370000     2.7659190000    -1.0298250000
| 29> *
| 30>
| 31>                          ****END OF INPUT****
 Total Charge           Charge          ....    0
 Multiplicity           Mult            ....    1
 Number of Electrons    NEL             ....   54
 Basis Dimension        Dim             ....  148

MULLIKEN ATOMIC CHARGES
-----------------------
   0 C :    0.153029
   1 O :   -0.339612
   2 C :    0.109975
   3 C :    0.043586
   4 C :    0.049677
   5 C :   -0.079213
   6 C :   -0.028074
   7 H :    0.030202
   8 H :   -0.003726
   9 H :    0.004525
  10 H :   -0.015012
  11 H :    0.013687
  12 H :    0.017477
  13 H :    0.019137
  14 H :    0.033835
  15 H :   -0.002635
  16 H :   -0.006858
Sum of atomic charges:    0.0000000

LOEWDIN ATOMIC CHARGES
----------------------
   0 C :    0.046950
   1 O :   -0.148628
   2 C :    0.050591
   3 C :   -0.034079
   4 C :   -0.040904
   5 C :   -0.016475
   6 C :   -0.058634
   7 H :    0.022458
   8 H :    0.002146
   9 H :    0.002759
  10 H :    0.002684
  11 H :    0.031274
  12 H :    0.031042
  13 H :    0.029707
  14 H :    0.037289
  15 H :    0.022270
  16 H :    0.019550

  Mayer bond orders larger than 0.1
B(  0-C ,  1-O ) :   1.0241 B(  0-C ,  7-H ) :   0.9762 B(  0-C ,  8-H ) :   0.9499
B(  0-C ,  9-H ) :   0.9558 B(  1-O ,  2-C ) :   1.0047 B(  2-C ,  3-C ) :   1.0707
B(  2-C ,  6-C ) :   0.9941 B(  2-C , 10-H ) :   0.9083 B(  3-C ,  4-C ) :   1.1021
B(  3-C , 11-H ) :   0.9269 B(  3-C , 12-H ) :   0.9218 B(  4-C ,  5-C ) :   1.0464
B(  4-C , 13-H ) :   0.9297 B(  4-C , 14-H ) :   0.9122 B(  5-C ,  6-C ) :   1.8555
B(  5-C , 15-H ) :   0.9818 B(  6-C , 16-H ) :   0.9833

FINAL SINGLE POINT ENERGY      -309.212290765424

DIPOLE MOMENT
-------------
                                X             Y             Z
Electronic contribution:      0.55448       0.49619       0.41818
Nuclear contribution   :     -0.65764      -0.27727      -0.63611
                        -----------------------------------------
Total Dipole Moment    :     -0.10316       0.21892      -0.21793
                        -----------------------------------------
Magnitude (a.u.)       :      0.32567
Magnitude (Debye)      :      0.82779

                             ****ORCA TERMINATED NORMALLY****
TOTAL RUN TIME: 0 days 0 hours 0 minutes 7 seconds 307 msec
