                         Program Version 3.0.3 - RELEASE   -
|  1> ! RI PBE def2-SVP def2-SVP/J NBO PAL2
|  2> % maxcore 2000
|  3> % output
|  4>     # printlevel mini
|  5>     print[ P_Basis ] 0
|  6>     print[ P_SCFInfo ] 1
|  7>     print[ P_SCFIterInfo ] 1
|  8>     print[ P_OrbEn ] 0
|  9>     print[ P_Cartesian ] 0
| 10> end
| 11> *xyz 0 1
| 12>  C        1.0876130000    -0.0276310000     0.3769040000
| 13>  O        2.4975080000     0.1049570000     0.3172190000
| 14>  C        3.2149920000    -1.0134920000     0.2927100000
| 15>  C        4.5596150000    -1.1874790000     0.2375820000
| 16>  C        4.7499680000    -2.6044280000     0.2363930000
| 17>  C        3.5249090000    -3.1675740000     0.2900050000
| 18>  O        2.5659350000    -2.1900850000     0.3252880000
| 19>  H        0.6972640000     0.9877690000     0.3882090000
| 20>  H        0.7778910000    -0.5532380000     1.2835800000
| 21>  H        0.7034010000    -0.5620660000    -0.4954530000
| 22>  H        5.3027950000    -0.4092700000     0.2029760000
| 23>  H        5.6897400000    -3.1324690000     0.1998110000
| 24>  H        3.1607700000    -4.1797750000     0.3099570000
| 25> *
| 26>
| 27>                          ****END OF INPUT****
 Total Charge           Charge          ....    0
 Multiplicity           Mult            ....    1
 Number of Electrons    NEL             ....   52
 Basis Dimension        Dim             ....  128

MULLIKEN ATOMIC CHARGES
-----------------------
   0 C :    0.150855
   1 O :   -0.254913
   2 C :    0.246395
   3 C :   -0.107066
   4 C :   -0.009867
   5 C :    0.097211
   6 O :   -0.205179
   7 H :    0.041288
   8 H :    0.032553
   9 H :    0.033364
  10 H :   -0.015333
  11 H :   -0.006355
  12 H :   -0.002953
Sum of atomic charges:   -0.0000000

LOEWDIN ATOMIC CHARGES
----------------------
   0 C :    0.068364
   1 O :   -0.063100
   2 C :    0.045862
   3 C :   -0.128552
   4 C :   -0.068297
   5 C :   -0.009105
   6 O :    0.009200
   7 H :    0.028903
   8 H :    0.019059
   9 H :    0.019175
  10 H :    0.030632
  11 H :    0.030289
  12 H :    0.017569

  Mayer bond orders larger than 0.1
B(  0-C ,  1-O ) :   0.9538 B(  0-C ,  7-H ) :   0.9773 B(  0-C ,  8-H ) :   0.9662
B(  0-C ,  9-H ) :   0.9663 B(  1-O ,  2-C ) :   1.1859 B(  2-C ,  3-C ) :   1.4996
B(  2-C ,  6-O ) :   1.1363 B(  3-C ,  4-C ) :   1.1840 B(  3-C , 10-H ) :   1.0235
B(  4-C ,  5-C ) :   1.5575 B(  4-C , 11-H ) :   1.0009 B(  5-C ,  6-O ) :   1.0740
B(  5-C , 12-H ) :   1.0072

FINAL SINGLE POINT ENERGY      -343.888734467644

DIPOLE MOMENT
-------------
                                X             Y             Z
Electronic contribution:      1.60975      -0.57444      -0.06609
Nuclear contribution   :     -2.09818       0.52894       0.08580
                        -----------------------------------------
Total Dipole Moment    :     -0.48844      -0.04550       0.01971
                        -----------------------------------------
Magnitude (a.u.)       :      0.49095
Magnitude (Debye)      :      1.24789

                             ****ORCA TERMINATED NORMALLY****
TOTAL RUN TIME: 0 days 0 hours 0 minutes 6 seconds 285 msec
