                         Program Version 3.0.3 - RELEASE   -
|  1> ! RI PBE def2-SVP def2-SVP/J NBO PAL2
|  2> % maxcore 2000
|  3> % output
|  4>     # printlevel mini
|  5>     print[ P_Basis ] 0
|  6>     print[ P_SCFInfo ] 1
|  7>     print[ P_SCFIterInfo ] 1
|  8>     print[ P_OrbEn ] 0
|  9>     print[ P_Cartesian ] 0
| 10> end
| 11> *xyz 0 1
| 12>  C        2.8449470000     0.3028150000    -0.8345390000
| 13>  O        2.2055570000    -0.3473120000     0.2381720000
| 14>  C        3.0733620000    -1.1305720000     1.0055080000
| 15>  C        2.2782560000    -1.7036880000     2.1826760000
| 16>  C        2.3089030000    -3.2179240000     1.9559570000
| 17>  C        2.6874460000    -3.3149840000     0.4873100000
| 18>  O        3.5780090000    -2.2280350000     0.2867580000
| 19>  H        2.0920770000     0.9093090000    -1.3377400000
| 20>  H        3.2683020000    -0.4135400000    -1.5450530000
| 21>  H        3.6491300000     0.9590360000    -0.4747550000
| 22>  H        3.9455410000    -0.5292860000     1.2946920000
| 23>  H        1.2650620000    -1.3021810000     2.1407280000
| 24>  H        2.7160190000    -1.4150140000     3.1382710000
| 25>  H        1.3574130000    -3.7018430000     2.1812650000
| 26>  H        3.0816840000    -3.6868520000     2.5691340000
| 27>  H        1.8060020000    -3.2124620000    -0.1587850000
| 28>  H        3.2143020000    -4.2315560000     0.2195800000
| 29> *
| 30>
| 31>                          ****END OF INPUT****
 Total Charge           Charge          ....    0
 Multiplicity           Mult            ....    1
 Number of Electrons    NEL             ....   56
 Basis Dimension        Dim             ....  148

MULLIKEN ATOMIC CHARGES
-----------------------
   0 C :    0.150367
   1 O :   -0.329398
   2 C :    0.212949
   3 C :    0.034237
   4 C :   -0.059055
   5 C :    0.204167
   6 O :   -0.337282
   7 H :    0.029865
   8 H :    0.019316
   9 H :    0.001701
  10 H :   -0.020218
  11 H :    0.023206
  12 H :    0.012180
  13 H :    0.014178
  14 H :    0.024536
  15 H :    0.003086
  16 H :    0.016165
Sum of atomic charges:   -0.0000000

LOEWDIN ATOMIC CHARGES
----------------------
   0 C :    0.047646
   1 O :   -0.144088
   2 C :    0.102423
   3 C :   -0.053097
   4 C :   -0.053751
   5 C :    0.064010
   6 O :   -0.146008
   7 H :    0.022080
   8 H :    0.009283
   9 H :    0.006519
  10 H :   -0.002624
  11 H :    0.033468
  12 H :    0.030381
  13 H :    0.029172
  14 H :    0.027695
  15 H :    0.007635
  16 H :    0.019258

  Mayer bond orders larger than 0.1
B(  0-C ,  1-O ) :   0.9963 B(  0-C ,  7-H ) :   0.9770 B(  0-C ,  8-H ) :   0.9602
B(  0-C ,  9-H ) :   0.9540 B(  1-O ,  2-C ) :   1.0687 B(  2-C ,  3-C ) :   1.0623
B(  2-C ,  6-O ) :   1.0911 B(  2-C , 10-H ) :   0.9066 B(  3-C ,  4-C ) :   1.1338
B(  3-C , 11-H ) :   0.9142 B(  3-C , 12-H ) :   0.9228 B(  4-C ,  5-C ) :   1.1286
B(  4-C , 13-H ) :   0.9246 B(  4-C , 14-H ) :   0.9271 B(  5-C ,  6-O ) :   0.9778
B(  5-C , 15-H ) :   0.9198 B(  5-C , 16-H ) :   0.9494

FINAL SINGLE POINT ENERGY      -346.295779844604

DIPOLE MOMENT
-------------
                                X             Y             Z
Electronic contribution:      0.68148       0.15558      -0.50465
Nuclear contribution   :     -0.73088      -0.26145       0.71014
                        -----------------------------------------
Total Dipole Moment    :     -0.04940      -0.10587       0.20549
                        -----------------------------------------
Magnitude (a.u.)       :      0.23638
Magnitude (Debye)      :      0.60083

                             ****ORCA TERMINATED NORMALLY****
TOTAL RUN TIME: 0 days 0 hours 0 minutes 7 seconds 78 msec
