                         Program Version 3.0.3 - RELEASE   -
|  1> ! RI PBE def2-SVP def2-SVP/J NBO PAL2
|  2> % maxcore 2000
|  3> % output
|  4>     # printlevel mini
|  5>     print[ P_Basis ] 0
|  6>     print[ P_SCFInfo ] 1
|  7>     print[ P_SCFIterInfo ] 1
|  8>     print[ P_OrbEn ] 0
|  9>     print[ P_Cartesian ] 0
| 10> end
| 11> *xyz 0 1
| 12>  C        2.7506720000    -0.9490600000     0.3152510000
| 13>  O        2.2894650000     0.2652350000    -0.2327830000
| 14>  C        3.2221790000     1.2868440000    -0.1923300000
| 15>  C        2.6353660000     2.5230770000    -0.8772370000
| 16>  C        2.3415010000     3.4158270000     0.2907410000
| 17>  C        2.8569520000     2.8580470000     1.3764720000
| 18>  O        3.4939460000     1.6724520000     1.1647250000
| 19>  H        1.9668160000    -1.6885360000     0.1554440000
| 20>  H        2.9484250000    -0.8559570000     1.3868460000
| 21>  H        3.6674090000    -1.2839680000    -0.1880280000
| 22>  H        4.1785030000     0.9419530000    -0.6047980000
| 23>  H        1.7481770000     2.2311820000    -1.4438940000
| 24>  H        3.3472240000     2.9733090000    -1.5760800000
| 25>  H        1.8095650000     4.3533250000     0.2518490000
| 26>  H        2.8607780000     3.2010580000     2.4017220000
| 27> *
| 28>
| 29>                          ****END OF INPUT****
 Total Charge           Charge          ....    0
 Multiplicity           Mult            ....    1
 Number of Electrons    NEL             ....   54
 Basis Dimension        Dim             ....  138

MULLIKEN ATOMIC CHARGES
-----------------------
   0 C :    0.143320
   1 O :   -0.308979
   2 C :    0.226112
   3 C :    0.090431
   4 C :   -0.143309
   5 C :    0.150208
   6 O :   -0.285955
   7 H :    0.037624
   8 H :    0.027334
   9 H :    0.003028
  10 H :   -0.014439
  11 H :    0.037275
  12 H :    0.031992
  13 H :    0.000232
  14 H :    0.005127
Sum of atomic charges:    0.0000000

LOEWDIN ATOMIC CHARGES
----------------------
   0 C :    0.049886
   1 O :   -0.126380
   2 C :    0.126681
   3 C :   -0.046960
   4 C :   -0.109847
   5 C :    0.039202
   6 O :   -0.101361
   7 H :    0.024927
   8 H :    0.012618
   9 H :    0.008238
  10 H :   -0.000968
  11 H :    0.040529
  12 H :    0.035329
  13 H :    0.026904
  14 H :    0.021202

  Mayer bond orders larger than 0.1
B(  0-C ,  1-O ) :   0.9908 B(  0-C ,  7-H ) :   0.9774 B(  0-C ,  8-H ) :   0.9630
B(  0-C ,  9-H ) :   0.9520 B(  1-O ,  2-C ) :   1.1165 B(  2-C ,  3-C ) :   1.0571
B(  2-C ,  6-O ) :   0.9905 B(  2-C , 10-H ) :   0.9147 B(  3-C ,  4-C ) :   1.0499
B(  3-C , 11-H ) :   0.9049 B(  3-C , 12-H ) :   0.9114 B(  4-C ,  5-C ) :   1.7615
B(  4-C ,  6-O ) :   0.1094 B(  4-C , 13-H ) :   0.9851 B(  5-C ,  6-O ) :   1.0823
B(  5-C , 14-H ) :   0.9913

FINAL SINGLE POINT ENERGY      -345.080806684229

DIPOLE MOMENT
-------------
                                X             Y             Z
Electronic contribution:      0.08944       1.98066       1.45343
Nuclear contribution   :      0.06605      -2.04900      -1.60330
                        -----------------------------------------
Total Dipole Moment    :      0.15550      -0.06834      -0.14987
                        -----------------------------------------
Magnitude (a.u.)       :      0.22652
Magnitude (Debye)      :      0.57576

                             ****ORCA TERMINATED NORMALLY****
TOTAL RUN TIME: 0 days 0 hours 0 minutes 6 seconds 543 msec
