                         Program Version 3.0.3 - RELEASE   -
|  1> ! RI PBE def2-SVP def2-SVP/J NBO PAL2
|  2> % maxcore 2000
|  3> % output
|  4>     # printlevel mini
|  5>     print[ P_Basis ] 0
|  6>     print[ P_SCFInfo ] 1
|  7>     print[ P_SCFIterInfo ] 1
|  8>     print[ P_OrbEn ] 0
|  9>     print[ P_Cartesian ] 0
| 10> end
| 11> *xyz 0 1
| 12>  C        3.0603870000    -1.2443140000     0.5403590000
| 13>  O        2.3543550000    -0.0593490000     0.2600470000
| 14>  C        3.0985860000     1.0598360000     0.1649600000
| 15>  C        2.5955980000     2.2950400000    -0.0989880000
| 16>  O        3.6055970000     3.2011470000    -0.1270990000
| 17>  C        4.7470860000     2.5393910000     0.1189950000
| 18>  C        4.5121050000     1.2174610000     0.3086620000
| 19>  H        2.3208690000    -2.0423090000     0.5831130000
| 20>  H        3.5785400000    -1.1830060000     1.5039030000
| 21>  H        3.7888370000    -1.4716590000    -0.2459820000
| 22>  H        1.5999460000     2.6603090000    -0.2787090000
| 23>  H        5.6487870000     3.1290920000     0.1300450000
| 24>  H        5.2504180000     0.4621410000     0.5217840000
| 25> *
| 26>
| 27>                          ****END OF INPUT****
 Total Charge           Charge          ....    0
 Multiplicity           Mult            ....    1
 Number of Electrons    NEL             ....   52
 Basis Dimension        Dim             ....  128

MULLIKEN ATOMIC CHARGES
-----------------------
   0 C :    0.143435
   1 O :   -0.270183
   2 C :    0.167529
   3 C :    0.038678
   4 O :   -0.165855
   5 C :    0.117303
   6 C :   -0.109663
   7 H :    0.041144
   8 H :    0.024540
   9 H :    0.025848
  10 H :   -0.006327
  11 H :    0.006906
  12 H :   -0.013357
Sum of atomic charges:   -0.0000000

LOEWDIN ATOMIC CHARGES
----------------------
   0 C :    0.063030
   1 O :   -0.076288
   2 C :   -0.020748
   3 C :   -0.027293
   4 O :    0.038790
   5 C :    0.014646
   6 C :   -0.120106
   7 H :    0.028628
   8 H :    0.014311
   9 H :    0.014225
  10 H :    0.020315
  11 H :    0.020237
  12 H :    0.030253

  Mayer bond orders larger than 0.1
B(  0-C ,  1-O ) :   0.9879 B(  0-C ,  7-H ) :   0.9753 B(  0-C ,  8-H ) :   0.9598
B(  0-C ,  9-H ) :   0.9603 B(  1-O ,  2-C ) :   1.1458 B(  2-C ,  3-C ) :   1.4798
B(  2-C ,  6-C ) :   1.1939 B(  3-C ,  4-O ) :   1.1222 B(  3-C ,  5-C ) :   0.1150
B(  3-C , 10-H ) :   1.0109 B(  4-O ,  5-C ) :   1.1861 B(  5-C ,  6-C ) :   1.4789
B(  5-C , 11-H ) :   0.9967 B(  6-C , 12-H ) :   1.0080

FINAL SINGLE POINT ENERGY      -343.882156271703

DIPOLE MOMENT
-------------
                                X             Y             Z
Electronic contribution:     -1.22644       4.98411      -0.96713
Nuclear contribution   :      1.63343      -5.54991       1.11144
                        -----------------------------------------
Total Dipole Moment    :      0.40700      -0.56579       0.14431
                        -----------------------------------------
Magnitude (a.u.)       :      0.71175
Magnitude (Debye)      :      1.80913

                             ****ORCA TERMINATED NORMALLY****
TOTAL RUN TIME: 0 days 0 hours 0 minutes 5 seconds 927 msec
