                         Program Version 3.0.3 - RELEASE   -
|  1> ! RI PBE def2-SVP def2-SVP/J NBO PAL2
|  2> % maxcore 2000
|  3> % output
|  4>     # printlevel mini
|  5>     print[ P_Basis ] 0
|  6>     print[ P_SCFInfo ] 1
|  7>     print[ P_SCFIterInfo ] 1
|  8>     print[ P_OrbEn ] 0
|  9>     print[ P_Cartesian ] 0
| 10> end
| 11> *xyz 0 1
| 12>  C        2.3990130000     0.3514640000    -0.9973810000
| 13>  O        2.1218450000    -0.5186850000     0.0646470000
| 14>  C        3.2379210000    -1.2750250000     0.4847030000
| 15>  C        2.8669700000    -1.9701400000     1.7848810000
| 16>  C        2.1895570000    -3.2279630000     1.2752170000
| 17>  O        2.9519440000    -3.6150420000     0.1456700000
| 18>  C        3.5309710000    -2.4615380000    -0.4416400000
| 19>  H        1.4850400000     0.9065380000    -1.2098830000
| 20>  H        2.7019210000    -0.1809910000    -1.9086290000
| 21>  H        3.1943840000     1.0628420000    -0.7331020000
| 22>  H        4.1082900000    -0.6133590000     0.5892840000
| 23>  H        2.2321710000    -1.3388890000     2.4064790000
| 24>  H        3.7726240000    -2.2271860000     2.3398290000
| 25>  H        1.1501860000    -3.0206150000     0.9884170000
| 26>  H        2.1991490000    -4.0551020000     1.9875870000
| 27>  H        3.1013540000    -2.2892410000    -1.4349990000
| 28>  H        4.6065680000    -2.6323880000    -0.5564810000
| 29> *
| 30>
| 31>                          ****END OF INPUT****
 Total Charge           Charge          ....    0
 Multiplicity           Mult            ....    1
 Number of Electrons    NEL             ....   56
 Basis Dimension        Dim             ....  148

MULLIKEN ATOMIC CHARGES
-----------------------
   0 C :    0.152392
   1 O :   -0.332554
   2 C :   -0.057658
   3 C :    0.006014
   4 C :    0.189875
   5 O :   -0.371003
   6 C :    0.287410
   7 H :    0.034493
   8 H :    0.002090
   9 H :    0.004677
  10 H :   -0.000981
  11 H :    0.028452
  12 H :    0.023965
  13 H :    0.010798
  14 H :    0.017810
  15 H :   -0.001827
  16 H :    0.006048
Sum of atomic charges:   -0.0000000

LOEWDIN ATOMIC CHARGES
----------------------
   0 C :    0.048738
   1 O :   -0.144036
   2 C :    0.033433
   3 C :   -0.057645
   4 C :    0.064348
   5 O :   -0.162899
   6 C :    0.054374
   7 H :    0.024854
   8 H :    0.001160
   9 H :    0.005387
  10 H :    0.008117
  11 H :    0.034197
  12 H :    0.032888
  13 H :    0.007691
  14 H :    0.018882
  15 H :    0.015521
  16 H :    0.014988

  Mayer bond orders larger than 0.1
B(  0-C ,  1-O ) :   1.0216 B(  0-C ,  7-H ) :   0.9752 B(  0-C ,  8-H ) :   0.9490
B(  0-C ,  9-H ) :   0.9540 B(  1-O ,  2-C ) :   1.0103 B(  2-C ,  3-C ) :   1.0716
B(  2-C ,  6-C ) :   1.0341 B(  2-C , 10-H ) :   0.9138 B(  3-C ,  4-C ) :   1.0816
B(  3-C , 11-H ) :   0.9230 B(  3-C , 12-H ) :   0.9225 B(  4-C ,  5-O ) :   1.0044
B(  4-C , 13-H ) :   0.9346 B(  4-C , 14-H ) :   0.9454 B(  5-O ,  6-C ) :   1.0231
B(  6-C , 15-H ) :   0.9162 B(  6-C , 16-H ) :   0.9299

FINAL SINGLE POINT ENERGY      -346.279540618000

DIPOLE MOMENT
-------------
                                X             Y             Z
Electronic contribution:     -0.67103      -2.75845       0.58602
Nuclear contribution   :      0.98593       3.37052      -0.55100
                        -----------------------------------------
Total Dipole Moment    :      0.31490       0.61207       0.03501
                        -----------------------------------------
Magnitude (a.u.)       :      0.68922
Magnitude (Debye)      :      1.75186

                             ****ORCA TERMINATED NORMALLY****
TOTAL RUN TIME: 0 days 0 hours 0 minutes 7 seconds 61 msec
