                         Program Version 3.0.3 - RELEASE   -
|  1> ! RI PBE def2-SVP def2-SVP/J NBO PAL2
|  2> % maxcore 2000
|  3> % output
|  4>     # printlevel mini
|  5>     print[ P_Basis ] 0
|  6>     print[ P_SCFInfo ] 1
|  7>     print[ P_SCFIterInfo ] 1
|  8>     print[ P_OrbEn ] 0
|  9>     print[ P_Cartesian ] 0
| 10> end
| 11> *xyz 0 1
| 12>  C        2.6661030000     1.1210040000    -0.7341380000
| 13>  O        2.5173930000    -0.0929000000    -0.0264990000
| 14>  C        3.1680700000    -0.1961820000     1.1465850000
| 15>  C        3.4936770000    -1.3269390000     1.7610960000
| 16>  C        4.1060490000    -1.0037150000     3.0791480000
| 17>  O        4.1710200000     0.4199700000     3.1271760000
| 18>  C        3.5466850000     0.9816740000     1.9980020000
| 19>  H        2.0291210000     1.0430520000    -1.6136660000
| 20>  H        3.7020190000     1.2705640000    -1.0558980000
| 21>  H        2.3430200000     1.9809280000    -0.1391180000
| 22>  H        3.3223500000    -2.3270840000     1.3899290000
| 23>  H        5.1201080000    -1.4087900000     3.1946640000
| 24>  H        3.5083020000    -1.3701540000     3.9267010000
| 25>  H        4.2413200000     1.6678820000     1.4945120000
| 26>  H        2.6615730000     1.5671790000     2.2938970000
| 27> *
| 28>
| 29>                          ****END OF INPUT****
 Total Charge           Charge          ....    0
 Multiplicity           Mult            ....    1
 Number of Electrons    NEL             ....   54
 Basis Dimension        Dim             ....  138

MULLIKEN ATOMIC CHARGES
-----------------------
   0 C :    0.137554
   1 O :   -0.262721
   2 C :    0.023214
   3 C :   -0.184246
   4 C :    0.273995
   5 O :   -0.369117
   6 C :    0.233756
   7 H :    0.043074
   8 H :    0.029593
   9 H :    0.027100
  10 H :   -0.017203
  11 H :    0.013766
  12 H :    0.012973
  13 H :    0.017486
  14 H :    0.020775
Sum of atomic charges:   -0.0000000

LOEWDIN ATOMIC CHARGES
----------------------
   0 C :    0.064822
   1 O :   -0.072277
   2 C :   -0.005245
   3 C :   -0.112171
   4 C :    0.083222
   5 O :   -0.158086
   6 C :    0.054795
   7 H :    0.029487
   8 H :    0.016288
   9 H :    0.015197
  10 H :    0.028399
  11 H :    0.014075
  12 H :    0.011432
  13 H :    0.015232
  14 H :    0.014831

  Mayer bond orders larger than 0.1
B(  0-C ,  1-O ) :   0.9809 B(  0-C ,  7-H ) :   0.9757 B(  0-C ,  8-H ) :   0.9624
B(  0-C ,  9-H ) :   0.9574 B(  1-O ,  2-C ) :   1.1535 B(  2-C ,  3-C ) :   1.7790
B(  2-C ,  6-C ) :   1.0177 B(  3-C ,  4-C ) :   1.0230 B(  3-C , 10-H ) :   0.9973
B(  4-C ,  5-O ) :   0.9940 B(  4-C , 11-H ) :   0.9244 B(  4-C , 12-H ) :   0.9169
B(  5-O ,  6-C ) :   1.0294 B(  6-C , 13-H ) :   0.9140 B(  6-C , 14-H ) :   0.9041

FINAL SINGLE POINT ENERGY      -345.062548102016

DIPOLE MOMENT
-------------
                                X             Y             Z
Electronic contribution:     -0.06433      -1.79201       1.42254
Nuclear contribution   :     -0.08445       2.08431      -2.05790
                        -----------------------------------------
Total Dipole Moment    :     -0.14877       0.29231      -0.63536
                        -----------------------------------------
Magnitude (a.u.)       :      0.71502
Magnitude (Debye)      :      1.81743

                             ****ORCA TERMINATED NORMALLY****
TOTAL RUN TIME: 0 days 0 hours 0 minutes 6 seconds 527 msec
