                         Program Version 3.0.3 - RELEASE   -
|  1> ! RI PBE def2-SVP def2-SVP/J NBO PAL2
|  2> % maxcore 2000
|  3> % output
|  4>     # printlevel mini
|  5>     print[ P_Basis ] 0
|  6>     print[ P_SCFInfo ] 1
|  7>     print[ P_SCFIterInfo ] 1
|  8>     print[ P_OrbEn ] 0
|  9>     print[ P_Cartesian ] 0
| 10> end
| 11> *xyz 0 1
| 12>  C        1.3342770000     0.4218960000    -0.5033300000
| 13>  O        1.6067340000    -0.3826060000     0.6149350000
| 14>  C        2.5622850000     0.1373080000     1.5010050000
| 15>  C        3.9361330000     0.2880580000     0.8849910000
| 16>  C        2.1157600000     1.3340630000     2.3669710000
| 17>  O        2.4021900000     0.6063830000     3.5672620000
| 18>  C        2.5497010000    -0.6166840000     2.8327180000
| 19>  H        0.4744740000    -0.0178520000    -1.0088200000
| 20>  H        2.1730000000     0.4557530000    -1.2084370000
| 21>  H        1.0794950000     1.4500470000    -0.2128280000
| 22>  H        3.9491110000     1.0480350000     0.1003380000
| 23>  H        4.2647560000    -0.6620570000     0.4565120000
| 24>  H        4.6530610000     0.5905910000     1.6509460000
| 25>  H        1.0464330000     1.5569850000     2.2705720000
| 26>  H        2.6987760000     2.2572630000     2.2978410000
| 27>  H        1.6742230000    -1.2667070000     2.9334920000
| 28>  H        3.4579620000    -1.1590750000     3.1100510000
| 29> *
| 30>
| 31>                          ****END OF INPUT****
 Total Charge           Charge          ....    0
 Multiplicity           Mult            ....    1
 Number of Electrons    NEL             ....   56
 Basis Dimension        Dim             ....  148

MULLIKEN ATOMIC CHARGES
-----------------------
   0 C :    0.154276
   1 O :   -0.311732
   2 C :   -0.284096
   3 C :    0.067989
   4 C :    0.291600
   5 O :   -0.363953
   6 C :    0.299019
   7 H :    0.033467
   8 H :    0.016136
   9 H :    0.002265
  10 H :    0.024898
  11 H :    0.030058
  12 H :    0.023673
  13 H :   -0.001615
  14 H :    0.003583
  15 H :    0.009475
  16 H :    0.004959
Sum of atomic charges:    0.0000000

LOEWDIN ATOMIC CHARGES
----------------------
   0 C :    0.051531
   1 O :   -0.133195
   2 C :   -0.007291
   3 C :   -0.065552
   4 C :    0.073518
   5 O :   -0.180759
   6 C :    0.088553
   7 H :    0.025447
   8 H :    0.006459
   9 H :    0.005478
  10 H :    0.026806
  11 H :    0.032293
  12 H :    0.036071
  13 H :    0.009648
  14 H :    0.008106
  15 H :    0.012940
  16 H :    0.009949

  Mayer bond orders larger than 0.1
B(  0-C ,  1-O ) :   1.0081 B(  0-C ,  7-H ) :   0.9757 B(  0-C ,  8-H ) :   0.9571
B(  0-C ,  9-H ) :   0.9501 B(  1-O ,  2-C ) :   1.0503 B(  2-C ,  3-C ) :   1.0311
B(  2-C ,  4-C ) :   1.0504 B(  2-C ,  6-C ) :   1.0506 B(  3-C , 10-H ) :   0.9482
B(  3-C , 11-H ) :   0.9487 B(  3-C , 12-H ) :   0.9384 B(  4-C ,  5-O ) :   1.0428
B(  4-C , 13-H ) :   0.9031 B(  4-C , 14-H ) :   0.9311 B(  5-O ,  6-C ) :   1.0306
B(  6-C , 15-H ) :   0.9109 B(  6-C , 16-H ) :   0.9321

FINAL SINGLE POINT ENERGY      -346.254322187587

DIPOLE MOMENT
-------------
                                X             Y             Z
Electronic contribution:     -1.64987      -1.31448       4.35479
Nuclear contribution   :      1.84688       1.53668      -5.16023
                        -----------------------------------------
Total Dipole Moment    :      0.19701       0.22220      -0.80544
                        -----------------------------------------
Magnitude (a.u.)       :      0.85844
Magnitude (Debye)      :      2.18198

                             ****ORCA TERMINATED NORMALLY****
TOTAL RUN TIME: 0 days 0 hours 0 minutes 7 seconds 371 msec
