                         Program Version 3.0.3 - RELEASE   -
|  1> ! RI PBE def2-SVP def2-SVP/J NBO PAL2
|  2> % maxcore 2000
|  3> % output
|  4>     # printlevel mini
|  5>     print[ P_Basis ] 0
|  6>     print[ P_SCFInfo ] 1
|  7>     print[ P_SCFIterInfo ] 1
|  8>     print[ P_OrbEn ] 0
|  9>     print[ P_Cartesian ] 0
| 10> end
| 11> *xyz 0 1
| 12>  C        2.0203290000    -1.1020510000     0.6311170000
| 13>  O        2.1256510000     0.1248800000    -0.0432850000
| 14>  C        2.8253800000     1.0840550000     0.6847130000
| 15>  C        2.9085670000     2.4400130000    -0.0341470000
| 16>  C        2.4735770000     3.0921080000     1.2693740000
| 17>  O        2.5071380000     4.2093400000     1.6868910000
| 18>  C        2.0918670000     1.7510850000     1.8816750000
| 19>  H        1.4713580000    -1.7845030000    -0.0172740000
| 20>  H        1.4766280000    -0.9988110000     1.5794550000
| 21>  H        3.0104700000    -1.5283210000     0.8422040000
| 22>  H        3.8133400000     0.7038810000     0.9781780000
| 23>  H        2.1224640000     2.5179650000    -0.7915010000
| 24>  H        3.8586770000     2.7577850000    -0.4636100000
| 25>  H        1.0107860000     1.5911090000     1.8176510000
| 26>  H        2.4303790000     1.5595670000     2.9004590000
| 27> *
| 28>
| 29>                          ****END OF INPUT****
 Total Charge           Charge          ....    0
 Multiplicity           Mult            ....    1
 Number of Electrons    NEL             ....   54
 Basis Dimension        Dim             ....  138

MULLIKEN ATOMIC CHARGES
-----------------------
   0 C :    0.147630
   1 O :   -0.309381
   2 C :   -0.070283
   3 C :    0.109642
   4 C :   -0.096075
   5 O :   -0.116606
   6 C :    0.101537
   7 H :    0.040115
   8 H :    0.008288
   9 H :    0.009309
  10 H :   -0.000494
  11 H :    0.052179
  12 H :    0.041140
  13 H :    0.040914
  14 H :    0.042085
Sum of atomic charges:    0.0000000

LOEWDIN ATOMIC CHARGES
----------------------
   0 C :    0.051450
   1 O :   -0.134509
   2 C :    0.048436
   3 C :   -0.065354
   4 C :    0.052231
   5 O :   -0.097287
   6 C :   -0.083741
   7 H :    0.025782
   8 H :    0.005677
   9 H :    0.008317
  10 H :    0.007967
  11 H :    0.055696
  12 H :    0.038035
  13 H :    0.051960
  14 H :    0.035341

  Mayer bond orders larger than 0.1
B(  0-C ,  1-O ) :   1.0097 B(  0-C ,  7-H ) :   0.9770 B(  0-C ,  8-H ) :   0.9529
B(  0-C ,  9-H ) :   0.9544 B(  1-O ,  2-C ) :   1.0492 B(  2-C ,  3-C ) :   1.0448
B(  2-C ,  6-C ) :   1.0564 B(  2-C , 10-H ) :   0.8920 B(  3-C ,  4-C ) :   0.9748
B(  3-C ,  6-C ) :  -0.1281 B(  3-C , 11-H ) :   0.8777 B(  3-C , 12-H ) :   0.9203
B(  4-C ,  5-O ) :   2.2418 B(  4-C ,  6-C ) :   0.9976 B(  6-C , 13-H ) :   0.8628
B(  6-C , 14-H ) :   0.9225

FINAL SINGLE POINT ENERGY      -345.076548813886

DIPOLE MOMENT
-------------
                                X             Y             Z
Electronic contribution:      0.16932       6.46007       0.06602
Nuclear contribution   :     -0.09523      -7.56713      -0.05882
                        -----------------------------------------
Total Dipole Moment    :      0.07408      -1.10706       0.00720
                        -----------------------------------------
Magnitude (a.u.)       :      1.10955
Magnitude (Debye)      :      2.82026

                             ****ORCA TERMINATED NORMALLY****
TOTAL RUN TIME: 0 days 0 hours 0 minutes 6 seconds 890 msec
