                         Program Version 3.0.3 - RELEASE   -
|  1> ! RI PBE def2-SVP def2-SVP/J NBO PAL2
|  2> % maxcore 2000
|  3> % output
|  4>     # printlevel mini
|  5>     print[ P_Basis ] 0
|  6>     print[ P_SCFInfo ] 1
|  7>     print[ P_SCFIterInfo ] 1
|  8>     print[ P_OrbEn ] 0
|  9>     print[ P_Cartesian ] 0
| 10> end
| 11> *xyz 0 1
| 12>  C        2.0771080000    -1.1614320000     0.7890010000
| 13>  O        2.1741830000    -0.0349290000    -0.0409050000
| 14>  C        2.8653430000     1.0176720000     0.5601990000
| 15>  C        2.9693340000     2.2778590000    -0.2997180000
| 16>  C        2.7255550000     3.1137210000     0.9740880000
| 17>  O        3.9128580000     3.4839250000     1.6428550000
| 18>  C        2.1511680000     1.8584320000     1.6431770000
| 19>  H        1.5413050000    -1.9326570000     0.2352200000
| 20>  H        1.5249730000    -0.9408050000     1.7122890000
| 21>  H        3.0701580000    -1.5441890000     1.0631790000
| 22>  H        3.8490620000     0.6789520000     0.9114010000
| 23>  H        2.1165110000     2.3323100000    -0.9799460000
| 24>  H        3.8930860000     2.4543380000    -0.8536650000
| 25>  H        2.0522550000     3.9720110000     0.8754470000
| 26>  H        4.3692230000     4.1374170000     1.1063680000
| 27>  H        1.0682740000     1.8008760000     1.5143600000
| 28>  H        2.4150130000     1.7126090000     2.6907390000
| 29> *
| 30>
| 31>                          ****END OF INPUT****
 Total Charge           Charge          ....    0
 Multiplicity           Mult            ....    1
 Number of Electrons    NEL             ....   56
 Basis Dimension        Dim             ....  148

MULLIKEN ATOMIC CHARGES
-----------------------
   0 C :    0.151231
   1 O :   -0.312623
   2 C :    0.017044
   3 C :    0.095611
   4 C :   -0.030530
   5 O :   -0.254700
   6 C :    0.092741
   7 H :    0.032997
   8 H :    0.008076
   9 H :    0.002732
  10 H :   -0.007658
  11 H :    0.013668
  12 H :    0.005744
  13 H :   -0.001384
  14 H :    0.154357
  15 H :    0.012660
  16 H :    0.020034
Sum of atomic charges:    0.0000000

LOEWDIN ATOMIC CHARGES
----------------------
   0 C :    0.050352
   1 O :   -0.138648
   2 C :    0.049453
   3 C :   -0.053611
   4 C :    0.052047
   5 O :   -0.115728
   6 C :   -0.056077
   7 H :    0.022813
   8 H :    0.005633
   9 H :    0.005771
  10 H :    0.007046
  11 H :    0.032367
  12 H :    0.017286
  13 H :   -0.002170
  14 H :    0.069080
  15 H :    0.031682
  16 H :    0.022703

  Mayer bond orders larger than 0.1
B(  0-C ,  1-O ) :   1.0129 B(  0-C ,  7-H ) :   0.9770 B(  0-C ,  8-H ) :   0.9553
B(  0-C ,  9-H ) :   0.9523 B(  1-O ,  2-C ) :   1.0839 B(  2-C ,  3-C ) :   1.0654
B(  2-C ,  6-C ) :   1.0796 B(  2-C , 10-H ) :   0.9012 B(  3-C ,  4-C ) :   1.0486
B(  3-C , 11-H ) :   0.8989 B(  3-C , 12-H ) :   0.9168 B(  4-C ,  5-O ) :   1.0868
B(  4-C ,  6-C ) :   1.0939 B(  4-C , 13-H ) :   0.9232 B(  5-O , 14-H ) :   0.9822
B(  6-C , 15-H ) :   0.8948 B(  6-C , 16-H ) :   0.9154

FINAL SINGLE POINT ENERGY      -346.263411451222

DIPOLE MOMENT
-------------
                                X             Y             Z
Electronic contribution:      1.19320       2.35404      -0.68795
Nuclear contribution   :     -1.14519      -2.18831       0.59878
                        -----------------------------------------
Total Dipole Moment    :      0.04801       0.16573      -0.08917
                        -----------------------------------------
Magnitude (a.u.)       :      0.19423
Magnitude (Debye)      :      0.49368

                             ****ORCA TERMINATED NORMALLY****
TOTAL RUN TIME: 0 days 0 hours 0 minutes 7 seconds 553 msec
