                         Program Version 3.0.3 - RELEASE   -
|  1> ! RI PBE def2-SVP def2-SVP/J NBO PAL2
|  2> % maxcore 2000
|  3> % output
|  4>     # printlevel mini
|  5>     print[ P_Basis ] 0
|  6>     print[ P_SCFInfo ] 1
|  7>     print[ P_SCFIterInfo ] 1
|  8>     print[ P_OrbEn ] 0
|  9>     print[ P_Cartesian ] 0
| 10> end
| 11> *xyz 0 1
| 12>  C        2.6911950000     0.8404860000    -0.7732270000
| 13>  O        2.0714370000     0.0220150000     0.1843940000
| 14>  C        2.8326920000    -1.0917650000     0.5237080000
| 15>  C        2.1572830000    -2.0310940000     1.5118470000
| 16>  O        2.4320950000    -3.1640530000     0.6770520000
| 17>  C        2.8312430000    -2.3145500000    -0.4166740000
| 18>  C        4.1083440000    -2.7696310000    -1.0634210000
| 19>  H        2.0433410000     1.7019930000    -0.9342120000
| 20>  H        2.8277480000     0.3193440000    -1.7297600000
| 21>  H        3.6723530000     1.1912970000    -0.4248150000
| 22>  H        3.8499980000    -0.7947950000     0.8170620000
| 23>  H        1.0834930000    -1.8311000000     1.5995260000
| 24>  H        2.6003930000    -2.1324550000     2.5054280000
| 25>  H        2.0191760000    -2.2329200000    -1.1531900000
| 26>  H        4.9218100000    -2.7999450000    -0.3348680000
| 27>  H        4.3891620000    -2.0944050000    -1.8763320000
| 28>  H        3.9870350000    -3.7718120000    -1.4810870000
| 29> *
| 30>
| 31>                          ****END OF INPUT****
 Total Charge           Charge          ....    0
 Multiplicity           Mult            ....    1
 Number of Electrons    NEL             ....   56
 Basis Dimension        Dim             ....  148

MULLIKEN ATOMIC CHARGES
-----------------------
   0 C :    0.155251
   1 O :   -0.307714
   2 C :    0.017807
   3 C :    0.244491
   4 O :   -0.351348
   5 C :    0.051125
   6 C :    0.061285
   7 H :    0.036857
   8 H :    0.009429
   9 H :    0.002621
  10 H :   -0.016780
  11 H :    0.013934
  12 H :    0.013564
  13 H :    0.001962
  14 H :    0.015311
  15 H :    0.019183
  16 H :    0.033023
Sum of atomic charges:    0.0000000

LOEWDIN ATOMIC CHARGES
----------------------
   0 C :    0.052902
   1 O :   -0.131166
   2 C :    0.029129
   3 C :    0.080556
   4 O :   -0.179289
   5 C :    0.046211
   6 C :   -0.073218
   7 H :    0.025315
   8 H :    0.005374
   9 H :    0.006572
  10 H :    0.004104
  11 H :    0.014238
  12 H :    0.012506
  13 H :    0.011842
  14 H :    0.026990
  15 H :    0.031209
  16 H :    0.036728

  Mayer bond orders larger than 0.1
B(  0-C ,  1-O ) :   1.0103 B(  0-C ,  7-H ) :   0.9763 B(  0-C ,  8-H ) :   0.9566
B(  0-C ,  9-H ) :   0.9526 B(  1-O ,  2-C ) :   1.0841 B(  2-C ,  3-C ) :   1.0797
B(  2-C ,  5-C ) :   1.0316 B(  2-C , 10-H ) :   0.8959 B(  3-C ,  4-O ) :   1.0317
B(  3-C , 11-H ) :   0.9164 B(  3-C , 12-H ) :   0.9352 B(  4-O ,  5-C ) :   1.0413
B(  5-C ,  6-C ) :   1.0905 B(  5-C , 13-H ) :   0.8942 B(  6-C , 14-H ) :   0.9445
B(  6-C , 15-H ) :   0.9505 B(  6-C , 16-H ) :   0.9454

FINAL SINGLE POINT ENERGY      -346.259015884595

DIPOLE MOMENT
-------------
                                X             Y             Z
Electronic contribution:     -3.30138      -1.61570       3.20617
Nuclear contribution   :      3.78258       2.21950      -3.56247
                        -----------------------------------------
Total Dipole Moment    :      0.48121       0.60379      -0.35631
                        -----------------------------------------
Magnitude (a.u.)       :      0.85034
Magnitude (Debye)      :      2.16140

                             ****ORCA TERMINATED NORMALLY****
TOTAL RUN TIME: 0 days 0 hours 0 minutes 7 seconds 230 msec
