                         Program Version 3.0.3 - RELEASE   -
|  1> ! RI PBE def2-SVP def2-SVP/J NBO PAL2
|  2> % maxcore 2000
|  3> % output
|  4>     # printlevel mini
|  5>     print[ P_Basis ] 0
|  6>     print[ P_SCFInfo ] 1
|  7>     print[ P_SCFIterInfo ] 1
|  8>     print[ P_OrbEn ] 0
|  9>     print[ P_Cartesian ] 0
| 10> end
| 11> *xyz 0 1
| 12>  C        3.2310940000     1.1704450000    -0.2103070000
| 13>  O        2.4716260000     0.1772720000     0.4453490000
| 14>  C        3.1903930000    -0.8533730000     0.9522670000
| 15>  C        2.8863690000    -2.1416400000     0.8207860000
| 16>  O        3.6642700000    -2.9800430000     1.5629880000
| 17>  C        4.7531390000    -2.1787360000     2.0488860000
| 18>  C        4.3169290000    -0.7152320000     1.9427390000
| 19>  H        2.5223430000     1.9019980000    -0.5969110000
| 20>  H        3.8029330000     0.7445270000    -1.0426880000
| 21>  H        3.9197630000     1.6742680000     0.4769320000
| 22>  H        2.0893020000    -2.6029930000     0.2566850000
| 23>  H        5.6196630000    -2.3681970000     1.4059170000
| 24>  H        4.9853130000    -2.5046180000     3.0624460000
| 25>  H        5.1386350000    -0.0806510000     1.6029050000
| 26>  H        3.9496380000    -0.3022470000     2.8909160000
| 27> *
| 28>
| 29>                          ****END OF INPUT****
 Total Charge           Charge          ....    0
 Multiplicity           Mult            ....    1
 Number of Electrons    NEL             ....   54
 Basis Dimension        Dim             ....  138

MULLIKEN ATOMIC CHARGES
-----------------------
   0 C :    0.160631
   1 O :   -0.285017
   2 C :   -0.029098
   3 C :    0.106502
   4 O :   -0.296067
   5 C :    0.192523
   6 C :    0.001784
   7 H :    0.034621
   8 H :    0.011236
   9 H :    0.017604
  10 H :   -0.004612
  11 H :    0.017379
  12 H :    0.019885
  13 H :    0.023345
  14 H :    0.029284
Sum of atomic charges:    0.0000000

LOEWDIN ATOMIC CHARGES
----------------------
   0 C :    0.062053
   1 O :   -0.092586
   2 C :   -0.060554
   3 C :    0.002897
   4 O :   -0.103735
   5 C :    0.088414
   6 C :   -0.059221
   7 H :    0.025200
   8 H :    0.009625
   9 H :    0.008531
  10 H :    0.022234
  11 H :    0.016818
  12 H :    0.021539
  13 H :    0.029468
  14 H :    0.029316

  Mayer bond orders larger than 0.1
B(  0-C ,  1-O ) :   0.9841 B(  0-C ,  7-H ) :   0.9771 B(  0-C ,  8-H ) :   0.9539
B(  0-C ,  9-H ) :   0.9610 B(  1-O ,  2-C ) :   1.1151 B(  2-C ,  3-C ) :   1.7082
B(  2-C ,  4-O ) :   0.1216 B(  2-C ,  6-C ) :   1.0355 B(  3-C ,  4-O ) :   1.0868
B(  3-C , 10-H ) :   0.9926 B(  4-O ,  5-C ) :   0.9733 B(  5-C ,  6-C ) :   1.0979
B(  5-C , 11-H ) :   0.9377 B(  5-C , 12-H ) :   0.9471 B(  6-C , 13-H ) :   0.9165
B(  6-C , 14-H ) :   0.9031

FINAL SINGLE POINT ENERGY      -345.064674648228

DIPOLE MOMENT
-------------
                                X             Y             Z
Electronic contribution:     -3.10295      -3.93619       0.39949
Nuclear contribution   :      3.70712       4.54803      -0.46259
                        -----------------------------------------
Total Dipole Moment    :      0.60417       0.61184      -0.06310
                        -----------------------------------------
Magnitude (a.u.)       :      0.86218
Magnitude (Debye)      :      2.19148

                             ****ORCA TERMINATED NORMALLY****
TOTAL RUN TIME: 0 days 0 hours 0 minutes 6 seconds 718 msec
