                         Program Version 3.0.3 - RELEASE   -
|  1> ! RI PBE def2-SVP def2-SVP/J NBO PAL2
|  2> % maxcore 2000
|  3> % output
|  4>     # printlevel mini
|  5>     print[ P_Basis ] 0
|  6>     print[ P_SCFInfo ] 1
|  7>     print[ P_SCFIterInfo ] 1
|  8>     print[ P_OrbEn ] 0
|  9>     print[ P_Cartesian ] 0
| 10> end
| 11> *xyz 0 1
| 12>  C        5.1393780000     0.4182300000    -0.1504200000
| 13>  O        4.0369310000     0.6508600000    -0.9981490000
| 14>  C        3.7531500000    -0.4018810000    -1.8765500000
| 15>  C        4.7099680000    -0.4891270000    -3.0312890000
| 16>  O        4.7458460000     0.7099490000    -3.7694350000
| 17>  C        3.1220690000    -1.6367580000    -1.3174960000
| 18>  C        2.3040990000    -0.6434150000    -2.1015280000
| 19>  H        5.2000470000     1.2682390000     0.5292430000
| 20>  H        6.0816570000     0.3446440000    -0.7056460000
| 21>  H        5.0059400000    -0.4994870000     0.4337430000
| 22>  H        4.3938110000    -1.2844290000    -3.7105170000
| 23>  H        5.7154280000    -0.7514630000    -2.6689760000
| 24>  H        4.7017320000     1.4291640000    -3.1303950000
| 25>  H        2.9627880000    -1.6665160000    -0.2465770000
| 26>  H        3.3595580000    -2.5929490000    -1.7687570000
| 27>  H        1.6175150000    -0.0210210000    -1.5423390000
| 28>  H        1.9834910000    -0.9038300000    -3.1024000000
| 29> *
| 30>
| 31>                          ****END OF INPUT****
 Total Charge           Charge          ....    0
 Multiplicity           Mult            ....    1
 Number of Electrons    NEL             ....   56
 Basis Dimension        Dim             ....  148

MULLIKEN ATOMIC CHARGES
-----------------------
   0 C :    0.159803
   1 O :   -0.321041
   2 C :   -0.172539
   3 C :    0.311707
   4 O :   -0.281790
   5 C :   -0.035027
   6 C :    0.013174
   7 H :    0.037154
   8 H :    0.011965
   9 H :    0.007264
  10 H :   -0.015933
  11 H :   -0.013062
  12 H :    0.151340
  13 H :    0.040908
  14 H :    0.030821
  15 H :    0.039291
  16 H :    0.035963
Sum of atomic charges:   -0.0000000

LOEWDIN ATOMIC CHARGES
----------------------
   0 C :    0.053874
   1 O :   -0.128661
   2 C :   -0.019075
   3 C :    0.056678
   4 O :   -0.121576
   5 C :   -0.053181
   6 C :   -0.036590
   7 H :    0.024931
   8 H :    0.006695
   9 H :    0.008869
  10 H :    0.021771
  11 H :    0.002377
  12 H :    0.061154
  13 H :    0.032040
  14 H :    0.027297
  15 H :    0.033388
  16 H :    0.030009

  Mayer bond orders larger than 0.1
B(  0-C ,  1-O ) :   0.9939 B(  0-C ,  7-H ) :   0.9759 B(  0-C ,  8-H ) :   0.9581
B(  0-C ,  9-H ) :   0.9548 B(  1-O ,  2-C ) :   1.0408 B(  2-C ,  3-C ) :   1.0401
B(  2-C ,  5-C ) :   0.9729 B(  2-C ,  6-C ) :   0.9707 B(  3-C ,  4-O ) :   1.0894
B(  3-C , 10-H ) :   0.9068 B(  3-C , 11-H ) :   0.9062 B(  4-O , 12-H ) :   0.9732
B(  5-C ,  6-C ) :   1.0317 B(  5-C , 13-H ) :   0.9279 B(  5-C , 14-H ) :   0.9404
B(  6-C , 15-H ) :   0.9368 B(  6-C , 16-H ) :   0.9424

FINAL SINGLE POINT ENERGY      -346.257517072039

DIPOLE MOMENT
-------------
                                X             Y             Z
Electronic contribution:     -0.63745       2.55277      -2.19717
Nuclear contribution   :      0.79647      -2.89312       2.88998
                        -----------------------------------------
Total Dipole Moment    :      0.15902      -0.34036       0.69281
                        -----------------------------------------
Magnitude (a.u.)       :      0.78811
Magnitude (Debye)      :      2.00322

                             ****ORCA TERMINATED NORMALLY****
TOTAL RUN TIME: 0 days 0 hours 0 minutes 7 seconds 591 msec
