                         Program Version 3.0.3 - RELEASE   -
|  1> ! RI PBE def2-SVP def2-SVP/J NBO PAL2
|  2> % maxcore 2000
|  3> % output
|  4>     # printlevel mini
|  5>     print[ P_Basis ] 0
|  6>     print[ P_SCFInfo ] 1
|  7>     print[ P_SCFIterInfo ] 1
|  8>     print[ P_OrbEn ] 0
|  9>     print[ P_Cartesian ] 0
| 10> end
| 11> *xyz 0 1
| 12>  C        3.1600710000    -0.6470590000    -0.8371220000
| 13>  O        2.2868500000    -0.1264910000     0.1269960000
| 14>  C        2.9196330000     0.7560040000     1.0386890000
| 15>  C        1.8981560000     1.1819700000     2.0920310000
| 16>  O        1.5420360000     2.5453680000     1.8173700000
| 17>  C        2.4365830000     2.9936630000     0.9136720000
| 18>  C        3.2923430000     2.0875720000     0.4495500000
| 19>  H        2.5982210000    -1.3710980000    -1.4275490000
| 20>  H        4.0150570000    -1.1578870000    -0.3706430000
| 21>  H        3.5442850000     0.1300920000    -1.5098230000
| 22>  H        3.7730500000     0.2300920000     1.4905610000
| 23>  H        2.3185030000     1.1471400000     3.0999040000
| 24>  H        1.0006800000     0.5658580000     2.0408710000
| 25>  H        2.3457910000     4.0446960000     0.6722180000
| 26>  H        4.0745500000     2.2709690000    -0.2697250000
| 27> *
| 28>
| 29>                          ****END OF INPUT****
 Total Charge           Charge          ....    0
 Multiplicity           Mult            ....    1
 Number of Electrons    NEL             ....   54
 Basis Dimension        Dim             ....  138

MULLIKEN ATOMIC CHARGES
-----------------------
   0 C :    0.152705
   1 O :   -0.337233
   2 C :    0.066795
   3 C :    0.265529
   4 O :   -0.280333
   5 C :    0.134250
   6 C :   -0.104234
   7 H :    0.031665
   8 H :   -0.003080
   9 H :    0.007802
  10 H :   -0.006522
  11 H :    0.023241
  12 H :    0.035307
  13 H :    0.012584
  14 H :    0.001525
Sum of atomic charges:   -0.0000000

LOEWDIN ATOMIC CHARGES
----------------------
   0 C :    0.048375
   1 O :   -0.150386
   2 C :    0.039328
   3 C :    0.084790
   4 O :   -0.080103
   5 C :    0.055227
   6 C :   -0.141855
   7 H :    0.023447
   8 H :    0.002680
   9 H :    0.004623
  10 H :    0.008233
  11 H :    0.025396
  12 H :    0.031860
  13 H :    0.023496
  14 H :    0.024887

  Mayer bond orders larger than 0.1
B(  0-C ,  1-O ) :   1.0190 B(  0-C ,  7-H ) :   0.9766 B(  0-C ,  8-H ) :   0.9500
B(  0-C ,  9-H ) :   0.9569 B(  1-O ,  2-C ) :   1.0073 B(  2-C ,  3-C ) :   1.0627
B(  2-C ,  6-C ) :   1.0286 B(  2-C , 10-H ) :   0.8966 B(  3-C ,  4-O ) :   0.9575
B(  3-C , 11-H ) :   0.9321 B(  3-C , 12-H ) :   0.9286 B(  4-O ,  5-C ) :   1.1471
B(  4-O ,  6-C ) :   0.1222 B(  5-C ,  6-C ) :   1.7116 B(  5-C , 13-H ) :   0.9850
B(  6-C , 14-H ) :   0.9853

FINAL SINGLE POINT ENERGY      -345.068203263804

DIPOLE MOMENT
-------------
                                X             Y             Z
Electronic contribution:     -2.92158       3.45894       2.34697
Nuclear contribution   :      3.46674      -3.58403      -2.40532
                        -----------------------------------------
Total Dipole Moment    :      0.54516      -0.12509      -0.05835
                        -----------------------------------------
Magnitude (a.u.)       :      0.56237
Magnitude (Debye)      :      1.42942

                             ****ORCA TERMINATED NORMALLY****
TOTAL RUN TIME: 0 days 0 hours 0 minutes 6 seconds 543 msec
