                         Program Version 3.0.3 - RELEASE   -
|  1> ! RI PBE def2-SVP def2-SVP/J NBO PAL2
|  2> % maxcore 2000
|  3> % output
|  4>     # printlevel mini
|  5>     print[ P_Basis ] 0
|  6>     print[ P_SCFInfo ] 1
|  7>     print[ P_SCFIterInfo ] 1
|  8>     print[ P_OrbEn ] 0
|  9>     print[ P_Cartesian ] 0
| 10> end
| 11> *xyz 0 1
| 12>  C        1.8527870000     0.5154250000     1.5080650000
| 13>  O        2.0851050000    -0.2623100000     0.3650570000
| 14>  C        2.9186570000    -1.3740600000     0.6023130000
| 15>  O        3.4992050000    -1.7593160000    -0.6048100000
| 16>  C        2.9788230000    -3.0042190000    -1.0367160000
| 17>  C        2.1560110000    -3.4927250000     0.1053670000
| 18>  C        2.1456080000    -2.5783120000     1.0613170000
| 19>  H        1.2945040000     1.3960350000     1.1910360000
| 20>  H        2.7948070000     0.8407850000     1.9715320000
| 21>  H        1.2604650000    -0.0163380000     2.2650500000
| 22>  H        3.7140520000    -1.0610080000     1.2981770000
| 23>  H        3.8162560000    -3.6706770000    -1.2736000000
| 24>  H        2.3821480000    -2.8780350000    -1.9503940000
| 25>  H        1.6417400000    -4.4449890000     0.1069070000
| 26>  H        1.6260210000    -2.6296470000     2.0082980000
| 27> *
| 28>
| 29>                          ****END OF INPUT****
 Total Charge           Charge          ....    0
 Multiplicity           Mult            ....    1
 Number of Electrons    NEL             ....   54
 Basis Dimension        Dim             ....  138

MULLIKEN ATOMIC CHARGES
-----------------------
   0 C :    0.139860
   1 O :   -0.311638
   2 C :    0.274012
   3 O :   -0.316804
   4 C :    0.270485
   5 C :   -0.121251
   6 C :   -0.040986
   7 H :    0.037034
   8 H :    0.004987
   9 H :    0.004797
  10 H :   -0.011026
  11 H :    0.031499
  12 H :    0.029553
  13 H :    0.006710
  14 H :    0.002766
Sum of atomic charges:   -0.0000000

LOEWDIN ATOMIC CHARGES
----------------------
   0 C :    0.047624
   1 O :   -0.145924
   2 C :    0.108590
   3 O :   -0.125699
   4 C :    0.074747
   5 C :   -0.036627
   6 C :   -0.059250
   7 H :    0.025762
   8 H :    0.005830
   9 H :    0.002161
  10 H :   -0.004296
  11 H :    0.025424
  12 H :    0.025299
  13 H :    0.029440
  14 H :    0.026920

  Mayer bond orders larger than 0.1
B(  0-C ,  1-O ) :   1.0160 B(  0-C ,  7-H ) :   0.9771 B(  0-C ,  8-H ) :   0.9506
B(  0-C ,  9-H ) :   0.9573 B(  1-O ,  2-C ) :   1.0094 B(  2-C ,  3-O ) :   1.1067
B(  2-C ,  6-C ) :   0.9987 B(  2-C , 10-H ) :   0.8997 B(  3-O ,  4-C ) :   1.0004
B(  4-C ,  5-C ) :   1.0275 B(  4-C , 11-H ) :   0.9268 B(  4-C , 12-H ) :   0.9163
B(  5-C ,  6-C ) :   1.8620 B(  5-C , 13-H ) :   0.9786 B(  6-C , 14-H ) :   0.9815

FINAL SINGLE POINT ENERGY      -345.067279818278

DIPOLE MOMENT
-------------
                                X             Y             Z
Electronic contribution:      1.29601      -1.11054      -2.55580
Nuclear contribution   :     -1.55746       0.63656       3.10355
                        -----------------------------------------
Total Dipole Moment    :     -0.26145      -0.47398       0.54776
                        -----------------------------------------
Magnitude (a.u.)       :      0.77010
Magnitude (Debye)      :      1.95743

                             ****ORCA TERMINATED NORMALLY****
TOTAL RUN TIME: 0 days 0 hours 0 minutes 6 seconds 509 msec
