                         Program Version 3.0.3 - RELEASE   -
|  1> ! RI PBE def2-SVP def2-SVP/J NBO PAL2
|  2> % maxcore 2000
|  3> % output
|  4>     # printlevel mini
|  5>     print[ P_Basis ] 0
|  6>     print[ P_SCFInfo ] 1
|  7>     print[ P_SCFIterInfo ] 1
|  8>     print[ P_OrbEn ] 0
|  9>     print[ P_Cartesian ] 0
| 10> end
| 11> *xyz 0 1
| 12>  C        1.5234850000    -0.1397330000    -0.6309430000
| 13>  O        2.9189140000    -0.0575820000    -0.5778930000
| 14>  C        3.4719710000     0.4330430000    -1.7744160000
| 15>  C        4.9612710000     0.4467460000    -1.6718910000
| 16>  C        5.7431530000     1.4329560000    -2.4905140000
| 17>  C        5.6605380000     1.5881440000    -1.0024710000
| 18>  C        6.8662440000     1.3411890000    -0.1428040000
| 19>  H        1.1780270000    -0.5305940000     0.3266150000
| 20>  H        1.1868810000    -0.8138910000    -1.4318260000
| 21>  H        1.0649240000     0.8458750000    -0.7975100000
| 22>  H        3.1019390000     1.4526690000    -1.9736410000
| 23>  H        3.1499960000    -0.1975070000    -2.6194650000
| 24>  H        5.4107990000    -0.5325080000    -1.5362310000
| 25>  H        5.1907000000     2.1263610000    -3.1144000000
| 26>  H        6.6844230000     1.1039100000    -2.9148230000
| 27>  H        5.0050060000     2.3809100000    -0.6529400000
| 28>  H        7.4725680000     0.5270590000    -0.5490580000
| 29>  H        6.5760450000     1.0641550000     0.8740890000
| 30>  H        7.5020170000     2.2289880000    -0.0825870000
| 31> *
| 32>
| 33>                          ****END OF INPUT****
 Total Charge           Charge          ....    0
 Multiplicity           Mult            ....    1
 Number of Electrons    NEL             ....   56
 Basis Dimension        Dim             ....  158

MULLIKEN ATOMIC CHARGES
-----------------------
   0 C :    0.151508
   1 O :   -0.347003
   2 C :    0.274056
   3 C :   -0.133984
   4 C :    0.002243
   5 C :   -0.148018
   6 C :    0.069363
   7 H :    0.029376
   8 H :    0.001716
   9 H :   -0.000211
  10 H :   -0.032049
  11 H :   -0.011765
  12 H :    0.020215
  13 H :    0.026266
  14 H :    0.023513
  15 H :    0.017447
  16 H :    0.005067
  17 H :    0.028292
  18 H :    0.023965
Sum of atomic charges:   -0.0000000

LOEWDIN ATOMIC CHARGES
----------------------
   0 C :    0.048143
   1 O :   -0.151293
   2 C :    0.067186
   3 C :   -0.050495
   4 C :   -0.041790
   5 C :   -0.040021
   6 C :   -0.055471
   7 H :    0.022256
   8 H :    0.003373
   9 H :    0.002994
  10 H :    0.001442
  11 H :    0.004808
  12 H :    0.027023
  13 H :    0.024375
  14 H :    0.025634
  15 H :    0.025716
  16 H :    0.026242
  17 H :    0.031280
  18 H :    0.028596

  Mayer bond orders larger than 0.1
B(  0-C ,  1-O ) :   1.0230 B(  0-C ,  7-H ) :   0.9766 B(  0-C ,  8-H ) :   0.9544
B(  0-C ,  9-H ) :   0.9541 B(  1-O ,  2-C ) :   1.0304 B(  2-C ,  3-C ) :   1.0733
B(  2-C , 10-H ) :   0.9027 B(  2-C , 11-H ) :   0.9142 B(  3-C ,  4-C ) :   0.9791
B(  3-C ,  5-C ) :   0.9471 B(  3-C , 12-H ) :   0.9424 B(  4-C ,  5-C ) :   1.0068
B(  4-C , 13-H ) :   0.9409 B(  4-C , 14-H ) :   0.9386 B(  5-C ,  6-C ) :   1.1043
B(  5-C , 15-H ) :   0.9392 B(  6-C , 16-H ) :   0.9482 B(  6-C , 17-H ) :   0.9604
B(  6-C , 18-H ) :   0.9586

FINAL SINGLE POINT ENERGY      -310.401251252113

DIPOLE MOMENT
-------------
                                X             Y             Z
Electronic contribution:     -0.95265      -1.05937       0.22787
Nuclear contribution   :      0.77226       1.16852      -0.47666
                        -----------------------------------------
Total Dipole Moment    :     -0.18039       0.10915      -0.24879
                        -----------------------------------------
Magnitude (a.u.)       :      0.32612
Magnitude (Debye)      :      0.82893

                             ****ORCA TERMINATED NORMALLY****
TOTAL RUN TIME: 0 days 0 hours 0 minutes 7 seconds 817 msec
