                         Program Version 3.0.3 - RELEASE   -
|  1> ! RI PBE def2-SVP def2-SVP/J NBO PAL2
|  2> % maxcore 2000
|  3> % output
|  4>     # printlevel mini
|  5>     print[ P_Basis ] 0
|  6>     print[ P_SCFInfo ] 1
|  7>     print[ P_SCFIterInfo ] 1
|  8>     print[ P_OrbEn ] 0
|  9>     print[ P_Cartesian ] 0
| 10> end
| 11> *xyz 0 1
| 12>  C        1.9325100000     0.7501580000     1.7183840000
| 13>  O        3.1436340000     0.5914490000     1.0357850000
| 14>  C        3.7294310000    -0.6637720000     1.2724720000
| 15>  C        4.9895550000    -0.7848570000     0.4802920000
| 16>  C        6.2638610000    -0.1533460000     0.9734340000
| 17>  C        6.1003480000    -1.6403670000     0.9744560000
| 18>  O        6.7586530000    -2.4118870000     0.0208640000
| 19>  H        1.5460980000     1.7413570000     1.4797320000
| 20>  H        2.0678620000     0.6749390000     2.8071780000
| 21>  H        1.1925530000    -0.0030930000     1.4119130000
| 22>  H        3.0262420000    -1.4649360000     0.9932390000
| 23>  H        3.9454780000    -0.7826210000     2.3472480000
| 24>  H        4.8621380000    -0.7917340000    -0.5966860000
| 25>  H        6.2415400000     0.3712640000     1.9215580000
| 26>  H        6.9223920000     0.2706750000     0.2256850000
| 27>  H        5.9621680000    -2.1272760000     1.9387420000
| 28>  H        7.6916460000    -2.4384330000     0.2495850000
| 29> *
| 30>
| 31>                          ****END OF INPUT****
 Total Charge           Charge          ....    0
 Multiplicity           Mult            ....    1
 Number of Electrons    NEL             ....   56
 Basis Dimension        Dim             ....  148

MULLIKEN ATOMIC CHARGES
-----------------------
   0 C :    0.149129
   1 O :   -0.346522
   2 C :    0.264501
   3 C :   -0.133478
   4 C :   -0.001552
   5 C :    0.031117
   6 O :   -0.234536
   7 H :    0.029516
   8 H :    0.003812
   9 H :    0.002184
  10 H :   -0.003889
  11 H :   -0.027402
  12 H :    0.039241
  13 H :    0.026802
  14 H :    0.031327
  15 H :    0.009123
  16 H :    0.160627
Sum of atomic charges:   -0.0000000

LOEWDIN ATOMIC CHARGES
----------------------
   0 C :    0.047915
   1 O :   -0.149768
   2 C :    0.065708
   3 C :   -0.054459
   4 C :   -0.059623
   5 C :    0.034301
   6 O :   -0.098523
   7 H :    0.022666
   8 H :    0.003788
   9 H :    0.003960
  10 H :    0.007840
  11 H :    0.001314
  12 H :    0.036309
  13 H :    0.027109
  14 H :    0.031020
  15 H :    0.006031
  16 H :    0.074411

  Mayer bond orders larger than 0.1
B(  0-C ,  1-O ) :   1.0218 B(  0-C ,  7-H ) :   0.9761 B(  0-C ,  8-H ) :   0.9549
B(  0-C ,  9-H ) :   0.9538 B(  1-O ,  2-C ) :   1.0269 B(  2-C ,  3-C ) :   1.0678
B(  2-C , 10-H ) :   0.9172 B(  2-C , 11-H ) :   0.9053 B(  3-C ,  4-C ) :   0.9916
B(  3-C ,  5-C ) :   0.9192 B(  3-C , 12-H ) :   0.9385 B(  4-C ,  5-C ) :   0.9936
B(  4-C , 13-H ) :   0.9336 B(  4-C , 14-H ) :   0.9324 B(  5-C ,  6-O ) :   1.1362
B(  5-C , 15-H ) :   0.9419 B(  6-O , 16-H ) :   0.9811

FINAL SINGLE POINT ENERGY      -346.254169143287

DIPOLE MOMENT
-------------
                                X             Y             Z
Electronic contribution:      3.37792      -1.64740      -2.67462
Nuclear contribution   :     -3.19099       1.56927       3.26140
                        -----------------------------------------
Total Dipole Moment    :      0.18693      -0.07813       0.58678
                        -----------------------------------------
Magnitude (a.u.)       :      0.62078
Magnitude (Debye)      :      1.57789

                             ****ORCA TERMINATED NORMALLY****
TOTAL RUN TIME: 0 days 0 hours 0 minutes 6 seconds 825 msec
