                         Program Version 3.0.3 - RELEASE   -
|  1> ! RI PBE def2-SVP def2-SVP/J NBO PAL2
|  2> % maxcore 2000
|  3> % output
|  4>     # printlevel mini
|  5>     print[ P_Basis ] 0
|  6>     print[ P_SCFInfo ] 1
|  7>     print[ P_SCFIterInfo ] 1
|  8>     print[ P_OrbEn ] 0
|  9>     print[ P_Cartesian ] 0
| 10> end
| 11> *xyz 0 1
| 12>  C        1.1441670000     1.1613630000    -2.2609980000
| 13>  O        2.5380610000     1.1103860000    -2.1539900000
| 14>  C        2.9723940000     0.9685930000    -0.8258990000
| 15>  C        4.4726340000     0.8920470000    -0.7950830000
| 16>  C        5.1560300000     0.6301580000     0.5618750000
| 17>  C        6.1747230000    -0.2628110000    -0.1725670000
| 18>  C        5.1749070000    -0.3677550000    -1.3397100000
| 19>  H        0.8961970000     1.2732320000    -3.3170410000
| 20>  H        0.7264120000     2.0137680000    -1.7060030000
| 21>  H        0.6751830000     0.2419380000    -1.8819110000
| 22>  H        2.5417930000     0.0547620000    -0.3819550000
| 23>  H        2.6219790000     1.8198700000    -0.2177690000
| 24>  H        4.8880370000     1.7885850000    -1.2655270000
| 25>  H        4.5103100000     0.0386110000     1.2178630000
| 26>  H        5.5291060000     1.4885720000     1.1229840000
| 27>  H        6.4899640000    -1.1853760000     0.3170210000
| 28>  H        7.0658950000     0.3008170000    -0.4573820000
| 29>  H        4.5296950000    -1.2449560000    -1.2377370000
| 30>  H        5.5619060000    -0.3368120000    -2.3584800000
| 31> *
| 32>
| 33>                          ****END OF INPUT****
 Total Charge           Charge          ....    0
 Multiplicity           Mult            ....    1
 Number of Electrons    NEL             ....   56
 Basis Dimension        Dim             ....  158

MULLIKEN ATOMIC CHARGES
-----------------------
   0 C :    0.155836
   1 O :   -0.349829
   2 C :    0.264425
   3 C :   -0.209356
   4 C :    0.036446
   5 C :   -0.014751
   6 C :    0.057674
   7 H :    0.028868
   8 H :    0.000265
   9 H :    0.000636
  10 H :   -0.030674
  11 H :   -0.008975
  12 H :    0.010452
  13 H :    0.004988
  14 H :    0.014219
  15 H :    0.007680
  16 H :    0.013953
  17 H :    0.001969
  18 H :    0.016174
Sum of atomic charges:   -0.0000000

LOEWDIN ATOMIC CHARGES
----------------------
   0 C :    0.049705
   1 O :   -0.149965
   2 C :    0.058844
   3 C :   -0.045091
   4 C :   -0.029160
   5 C :   -0.033834
   6 C :   -0.026662
   7 H :    0.022047
   8 H :    0.003385
   9 H :    0.003431
  10 H :   -0.002123
  11 H :    0.003703
  12 H :    0.027644
  13 H :    0.021779
  14 H :    0.016106
  15 H :    0.015294
  16 H :    0.023856
  17 H :    0.022725
  18 H :    0.018315

  Mayer bond orders larger than 0.1
B(  0-C ,  1-O ) :   1.0230 B(  0-C ,  7-H ) :   0.9763 B(  0-C ,  8-H ) :   0.9553
B(  0-C ,  9-H ) :   0.9553 B(  1-O ,  2-C ) :   1.0362 B(  2-C ,  3-C ) :   1.0583
B(  2-C , 10-H ) :   0.9018 B(  2-C , 11-H ) :   0.9204 B(  3-C ,  4-C ) :   1.0657
B(  3-C ,  6-C ) :   1.0785 B(  3-C , 12-H ) :   0.9049 B(  4-C ,  5-C ) :   1.1230
B(  4-C , 13-H ) :   0.9196 B(  4-C , 14-H ) :   0.9336 B(  5-C ,  6-C ) :   1.1191
B(  5-C , 15-H ) :   0.9350 B(  5-C , 16-H ) :   0.9340 B(  6-C , 17-H ) :   0.9203
B(  6-C , 18-H ) :   0.9358

FINAL SINGLE POINT ENERGY      -310.401650302130

DIPOLE MOMENT
-------------
                                X             Y             Z
Electronic contribution:      0.25000       0.90508      -1.72171
Nuclear contribution   :     -0.48859      -0.91059       1.99507
                        -----------------------------------------
Total Dipole Moment    :     -0.23859      -0.00552       0.27336
                        -----------------------------------------
Magnitude (a.u.)       :      0.36288
Magnitude (Debye)      :      0.92237

                             ****ORCA TERMINATED NORMALLY****
TOTAL RUN TIME: 0 days 0 hours 0 minutes 8 seconds 186 msec
