                         Program Version 3.0.3 - RELEASE   -
|  1> ! RI PBE def2-SVP def2-SVP/J NBO PAL2
|  2> % maxcore 2000
|  3> % output
|  4>     # printlevel mini
|  5>     print[ P_Basis ] 0
|  6>     print[ P_SCFInfo ] 1
|  7>     print[ P_SCFIterInfo ] 1
|  8>     print[ P_OrbEn ] 0
|  9>     print[ P_Cartesian ] 0
| 10> end
| 11> *xyz 0 1
| 12>  C        1.2400050000     1.7694200000    -1.7317310000
| 13>  O        2.6329580000     1.6617500000    -1.8040610000
| 14>  C        3.1909330000     1.1339230000    -0.6313160000
| 15>  C        4.6895050000     1.0310800000    -0.7401330000
| 16>  C        5.3265630000     0.4677000000     0.5017000000
| 17>  C        5.2939660000     0.6930820000    -2.0671120000
| 18>  C        5.4300550000     2.0818970000    -1.5068470000
| 19>  H        0.8908800000     2.1852780000    -2.6772530000
| 20>  H        0.9283330000     2.4343250000    -0.9137470000
| 21>  H        0.7666830000     0.7893510000    -1.5775570000
| 22>  H        2.7691030000     0.1339870000    -0.4313300000
| 23>  H        2.9294550000     1.7725340000     0.2298490000
| 24>  H        4.9583010000    -0.5407420000     0.7159210000
| 25>  H        5.1185950000     1.0938580000     1.3752760000
| 26>  H        6.4108430000     0.4076040000     0.3870730000
| 27>  H        4.6247390000     0.5670880000    -2.9085420000
| 28>  H        6.1686080000     0.0530450000    -2.0726500000
| 29>  H        4.8496550000     2.8618630000    -1.9828090000
| 30>  H        6.3977000000     2.3914680000    -1.1293330000
| 31> *
| 32>
| 33>                          ****END OF INPUT****
 Total Charge           Charge          ....    0
 Multiplicity           Mult            ....    1
 Number of Electrons    NEL             ....   56
 Basis Dimension        Dim             ....  158

MULLIKEN ATOMIC CHARGES
-----------------------
   0 C :    0.151577
   1 O :   -0.344429
   2 C :    0.278559
   3 C :   -0.335671
   4 C :    0.086601
   5 C :   -0.001433
   6 C :    0.003307
   7 H :    0.031691
   8 H :    0.005154
   9 H :    0.004214
  10 H :   -0.014037
  11 H :   -0.012868
  12 H :    0.014405
  13 H :    0.017612
  14 H :    0.011514
  15 H :    0.032173
  16 H :    0.021255
  17 H :    0.032220
  18 H :    0.018158
Sum of atomic charges:   -0.0000000

LOEWDIN ATOMIC CHARGES
----------------------
   0 C :    0.051694
   1 O :   -0.140968
   2 C :    0.073003
   3 C :   -0.078107
   4 C :   -0.045021
   5 C :   -0.041075
   6 C :   -0.039279
   7 H :    0.023099
   8 H :    0.005411
   9 H :    0.005279
  10 H :    0.004493
  11 H :    0.004618
  12 H :    0.026176
  13 H :    0.026293
  14 H :    0.029237
  15 H :    0.026236
  16 H :    0.021593
  17 H :    0.026170
  18 H :    0.021147

  Mayer bond orders larger than 0.1
B(  0-C ,  1-O ) :   1.0175 B(  0-C ,  7-H ) :   0.9764 B(  0-C ,  8-H ) :   0.9555
B(  0-C ,  9-H ) :   0.9550 B(  1-O ,  2-C ) :   1.0264 B(  2-C ,  3-C ) :   1.0360
B(  2-C , 10-H ) :   0.9152 B(  2-C , 11-H ) :   0.9169 B(  3-C ,  4-C ) :   1.0858
B(  3-C ,  5-C ) :   0.9861 B(  3-C ,  6-C ) :   0.9866 B(  4-C , 12-H ) :   0.9533
B(  4-C , 13-H ) :   0.9565 B(  4-C , 14-H ) :   0.9427 B(  5-C ,  6-C ) :   1.0224
B(  5-C , 15-H ) :   0.9356 B(  5-C , 16-H ) :   0.9469 B(  6-C , 17-H ) :   0.9368
B(  6-C , 18-H ) :   0.9473

FINAL SINGLE POINT ENERGY      -310.402091391775

DIPOLE MOMENT
-------------
                                X             Y             Z
Electronic contribution:     -0.20458       0.90648      -2.18802
Nuclear contribution   :     -0.12070      -1.00013       2.51012
                        -----------------------------------------
Total Dipole Moment    :     -0.32528      -0.09365       0.32210
                        -----------------------------------------
Magnitude (a.u.)       :      0.46725
Magnitude (Debye)      :      1.18765

                             ****ORCA TERMINATED NORMALLY****
TOTAL RUN TIME: 0 days 0 hours 0 minutes 8 seconds 250 msec
