                         Program Version 3.0.3 - RELEASE   -
|  1> ! RI PBE def2-SVP def2-SVP/J NBO PAL2
|  2> % maxcore 2000
|  3> % output
|  4>     # printlevel mini
|  5>     print[ P_Basis ] 0
|  6>     print[ P_SCFInfo ] 1
|  7>     print[ P_SCFIterInfo ] 1
|  8>     print[ P_OrbEn ] 0
|  9>     print[ P_Cartesian ] 0
| 10> end
| 11> *xyz 0 1
| 12>  C        1.7512640000     1.0440810000    -1.2213050000
| 13>  O        3.0835480000     0.6891240000    -1.4673850000
| 14>  C        3.5188790000    -0.3669920000    -0.6560930000
| 15>  C        4.9538700000    -0.6704560000    -1.0030340000
| 16>  C        6.0359570000     0.2791660000    -0.4798020000
| 17>  C        6.5641190000    -0.9589670000     0.2477440000
| 18>  O        5.4596280000    -1.7556060000    -0.2097590000
| 19>  H        1.4994970000     1.8661210000    -1.8917920000
| 20>  H        1.6071150000     1.3742500000    -0.1830580000
| 21>  H        1.0689360000     0.2046710000    -1.4145910000
| 22>  H        2.9095630000    -1.2700370000    -0.8186490000
| 23>  H        3.4420140000    -0.1038930000     0.4109000000
| 24>  H        5.0290720000    -0.8883530000    -2.0753320000
| 25>  H        5.6563810000     1.0698000000     0.1675790000
| 26>  H        6.6940920000     0.7128780000    -1.2303590000
| 27>  H        6.6022250000    -0.9073230000     1.3398420000
| 28>  H        7.5186270000    -1.3455430000    -0.1245960000
| 29> *
| 30>
| 31>                          ****END OF INPUT****
 Total Charge           Charge          ....    0
 Multiplicity           Mult            ....    1
 Number of Electrons    NEL             ....   56
 Basis Dimension        Dim             ....  148

MULLIKEN ATOMIC CHARGES
-----------------------
   0 C :    0.154513
   1 O :   -0.354684
   2 C :    0.248496
   3 C :    0.042692
   4 C :   -0.033035
   5 C :    0.193658
   6 O :   -0.359147
   7 H :    0.031906
   8 H :    0.003316
   9 H :    0.005894
  10 H :    0.003813
  11 H :   -0.022703
  12 H :    0.010743
  13 H :    0.017386
  14 H :    0.029839
  15 H :    0.018770
  16 H :    0.008542
Sum of atomic charges:   -0.0000000

LOEWDIN ATOMIC CHARGES
----------------------
   0 C :    0.051686
   1 O :   -0.149201
   2 C :    0.049797
   3 C :    0.060186
   4 C :   -0.050102
   5 C :    0.085676
   6 O :   -0.180210
   7 H :    0.023085
   8 H :    0.005147
   9 H :    0.005996
  10 H :    0.009619
  11 H :    0.001411
  12 H :    0.012319
  13 H :    0.027484
  14 H :    0.028205
  15 H :    0.010285
  16 H :    0.008618

  Mayer bond orders larger than 0.1
B(  0-C ,  1-O ) :   1.0176 B(  0-C ,  7-H ) :   0.9761 B(  0-C ,  8-H ) :   0.9566
B(  0-C ,  9-H ) :   0.9562 B(  1-O ,  2-C ) :   1.0279 B(  2-C ,  3-C ) :   1.0288
B(  2-C , 10-H ) :   0.9181 B(  2-C , 11-H ) :   0.9035 B(  3-C ,  4-C ) :   1.0973
B(  3-C ,  6-O ) :   1.0360 B(  3-C , 12-H ) :   0.9071 B(  4-C ,  5-C ) :   1.1164
B(  4-C , 13-H ) :   0.9276 B(  4-C , 14-H ) :   0.9398 B(  5-C ,  6-O ) :   1.0252
B(  5-C , 15-H ) :   0.9411 B(  5-C , 16-H ) :   0.9368

FINAL SINGLE POINT ENERGY      -346.252321136965

DIPOLE MOMENT
-------------
                                X             Y             Z
Electronic contribution:      2.09734      -2.40853      -0.80632
Nuclear contribution   :     -2.20458       2.90390       0.97299
                        -----------------------------------------
Total Dipole Moment    :     -0.10724       0.49536       0.16668
                        -----------------------------------------
Magnitude (a.u.)       :      0.53354
Magnitude (Debye)      :      1.35615

                             ****ORCA TERMINATED NORMALLY****
TOTAL RUN TIME: 0 days 0 hours 0 minutes 7 seconds 383 msec
