                         Program Version 3.0.3 - RELEASE   -
|  1> ! RI PBE def2-SVP def2-SVP/J NBO PAL2
|  2> % maxcore 2000
|  3> % output
|  4>     # printlevel mini
|  5>     print[ P_Basis ] 0
|  6>     print[ P_SCFInfo ] 1
|  7>     print[ P_SCFIterInfo ] 1
|  8>     print[ P_OrbEn ] 0
|  9>     print[ P_Cartesian ] 0
| 10> end
| 11> *xyz 0 1
| 12>  C        1.1398890000    -1.4189760000     0.1025880000
| 13>  O        2.2947540000    -1.7873560000    -0.5975140000
| 14>  C        3.2225340000    -0.7407640000    -0.6875800000
| 15>  C        4.4225110000    -1.1948290000    -1.4691220000
| 16>  C        5.0654680000    -2.4754780000    -1.0250240000
| 17>  C        5.1987720000    -0.1755620000    -2.1711020000
| 18>  O        4.3150060000    -1.0248390000    -2.8807790000
| 19>  H        0.4805700000    -2.2866600000     0.1303390000
| 20>  H        0.6154940000    -0.5898280000    -0.3925070000
| 21>  H        1.3720350000    -1.1149770000     1.1334350000
| 22>  H        3.5397970000    -0.4260050000     0.3211050000
| 23>  H        2.7780270000     0.1310870000    -1.1893310000
| 24>  H        4.3486370000    -3.2955450000    -1.0866160000
| 25>  H        5.4026720000    -2.3982530000     0.0120170000
| 26>  H        5.9229540000    -2.7067710000    -1.6578160000
| 27>  H        6.2584730000    -0.3476010000    -2.3473710000
| 28>  H        4.8996070000     0.8698560000    -2.1194230000
| 29> *
| 30>
| 31>                          ****END OF INPUT****
 Total Charge           Charge          ....    0
 Multiplicity           Mult            ....    1
 Number of Electrons    NEL             ....   56
 Basis Dimension        Dim             ....  148

MULLIKEN ATOMIC CHARGES
-----------------------
   0 C :    0.145335
   1 O :   -0.344064
   2 C :    0.294412
   3 C :   -0.224414
   4 C :    0.115258
   5 C :    0.164661
   6 O :   -0.284275
   7 H :    0.038531
   8 H :    0.007508
   9 H :    0.003193
  10 H :   -0.009693
  11 H :   -0.017437
  12 H :    0.040533
  13 H :    0.016119
  14 H :    0.011118
  15 H :    0.021927
  16 H :    0.021288
Sum of atomic charges:   -0.0000000

LOEWDIN ATOMIC CHARGES
----------------------
   0 C :    0.049830
   1 O :   -0.142784
   2 C :    0.060673
   3 C :   -0.001828
   4 C :   -0.056440
   5 C :    0.056097
   6 O :   -0.149444
   7 H :    0.024951
   8 H :    0.006699
   9 H :    0.004907
  10 H :    0.006927
  11 H :    0.010565
  12 H :    0.038162
  13 H :    0.033692
  14 H :    0.031785
  15 H :    0.014038
  16 H :    0.012172

  Mayer bond orders larger than 0.1
B(  0-C ,  1-O ) :   1.0175 B(  0-C ,  7-H ) :   0.9765 B(  0-C ,  8-H ) :   0.9564
B(  0-C ,  9-H ) :   0.9532 B(  1-O ,  2-C ) :   1.0388 B(  2-C ,  3-C ) :   1.0234
B(  2-C , 10-H ) :   0.9089 B(  2-C , 11-H ) :   0.8976 B(  3-C ,  4-C ) :   1.0751
B(  3-C ,  5-C ) :   1.0841 B(  3-C ,  6-O ) :   0.9631 B(  4-C , 12-H ) :   0.9436
B(  4-C , 13-H ) :   0.9458 B(  4-C , 14-H ) :   0.9377 B(  5-C ,  6-O ) :   1.0059
B(  5-C , 15-H ) :   0.9241 B(  5-C , 16-H ) :   0.9261

FINAL SINGLE POINT ENERGY      -346.255863922428

DIPOLE MOMENT
-------------
                                X             Y             Z
Electronic contribution:      0.72057      -0.02129      -3.99714
Nuclear contribution   :     -0.62244       0.46858       4.80456
                        -----------------------------------------
Total Dipole Moment    :      0.09813       0.44729       0.80742
                        -----------------------------------------
Magnitude (a.u.)       :      0.92824
Magnitude (Debye)      :      2.35940

                             ****ORCA TERMINATED NORMALLY****
TOTAL RUN TIME: 0 days 0 hours 0 minutes 7 seconds 373 msec
