                         Program Version 3.0.3 - RELEASE   -
|  1> ! RI PBE def2-SVP def2-SVP/J NBO PAL2
|  2> % maxcore 2000
|  3> % output
|  4>     # printlevel mini
|  5>     print[ P_Basis ] 0
|  6>     print[ P_SCFInfo ] 1
|  7>     print[ P_SCFIterInfo ] 1
|  8>     print[ P_OrbEn ] 0
|  9>     print[ P_Cartesian ] 0
| 10> end
| 11> *xyz 0 1
| 12>  C        1.4507000000     1.2332390000    -0.1110240000
| 13>  O        2.7535150000     1.1818540000    -0.6230320000
| 14>  C        3.7304530000     1.3297980000     0.3722800000
| 15>  C        5.0918690000     1.2326640000    -0.2604630000
| 16>  C        6.2555290000     1.1296550000     0.7317420000
| 17>  O        6.5135590000    -0.2303510000     0.3641420000
| 18>  C        5.5295040000    -0.1743880000    -0.6805480000
| 19>  H        0.7623220000     1.1096170000    -0.9472350000
| 20>  H        1.2475240000     2.1965070000     0.3776760000
| 21>  H        1.2721940000     0.4313570000     0.6189590000
| 22>  H        3.6182250000     0.5456360000     1.1397150000
| 23>  H        3.6163340000     2.3016820000     0.8806640000
| 24>  H        5.1991170000     1.9974110000    -1.0306650000
| 25>  H        5.9919980000     1.2257560000     1.7914790000
| 26>  H        7.1103770000     1.7797150000     0.5164240000
| 27>  H        4.7724810000    -0.9581910000    -0.5784240000
| 28>  H        5.9887880000    -0.2432510000    -1.6719990000
| 29> *
| 30>
| 31>                          ****END OF INPUT****
 Total Charge           Charge          ....    0
 Multiplicity           Mult            ....    1
 Number of Electrons    NEL             ....   56
 Basis Dimension        Dim             ....  148

MULLIKEN ATOMIC CHARGES
-----------------------
   0 C :    0.149213
   1 O :   -0.348733
   2 C :    0.245401
   3 C :   -0.287512
   4 C :    0.251548
   5 O :   -0.367965
   6 C :    0.269754
   7 H :    0.034308
   8 H :    0.003473
   9 H :    0.007174
  10 H :   -0.006618
  11 H :   -0.008766
  12 H :    0.026111
  13 H :    0.005032
  14 H :    0.010494
  15 H :    0.010865
  16 H :    0.006222
Sum of atomic charges:    0.0000000

LOEWDIN ATOMIC CHARGES
----------------------
   0 C :    0.050715
   1 O :   -0.148423
   2 C :    0.061952
   3 C :   -0.067876
   4 C :    0.089863
   5 O :   -0.188704
   6 C :    0.092385
   7 H :    0.024102
   8 H :    0.005146
   9 H :    0.006097
  10 H :    0.004930
  11 H :    0.004057
  12 H :    0.027805
  13 H :    0.007762
  14 H :    0.009744
  15 H :    0.010471
  16 H :    0.009973

  Mayer bond orders larger than 0.1
B(  0-C ,  1-O ) :   1.0180 B(  0-C ,  7-H ) :   0.9759 B(  0-C ,  8-H ) :   0.9556
B(  0-C ,  9-H ) :   0.9566 B(  1-O ,  2-C ) :   1.0321 B(  2-C ,  3-C ) :   1.0228
B(  2-C , 10-H ) :   0.9160 B(  2-C , 11-H ) :   0.9157 B(  3-C ,  4-C ) :   1.0628
B(  3-C ,  6-C ) :   1.0830 B(  3-C , 12-H ) :   0.9230 B(  4-C ,  5-O ) :   1.0438
B(  4-C , 13-H ) :   0.9309 B(  4-C , 14-H ) :   0.9279 B(  5-O ,  6-C ) :   1.0324
B(  6-C , 15-H ) :   0.9315 B(  6-C , 16-H ) :   0.9283

FINAL SINGLE POINT ENERGY      -346.249017010839

DIPOLE MOMENT
-------------
                                X             Y             Z
Electronic contribution:      3.87579      -1.59680      -1.09874
Nuclear contribution   :     -4.48267       2.13238       1.24725
                        -----------------------------------------
Total Dipole Moment    :     -0.60688       0.53557       0.14851
                        -----------------------------------------
Magnitude (a.u.)       :      0.82292
Magnitude (Debye)      :      2.09170

                             ****ORCA TERMINATED NORMALLY****
TOTAL RUN TIME: 0 days 0 hours 0 minutes 7 seconds 241 msec
