                         Program Version 3.0.3 - RELEASE   -
|  1> ! RI PBE def2-SVP def2-SVP/J NBO PAL2
|  2> % maxcore 2000
|  3> % output
|  4>     # printlevel mini
|  5>     print[ P_Basis ] 0
|  6>     print[ P_SCFInfo ] 1
|  7>     print[ P_SCFIterInfo ] 1
|  8>     print[ P_OrbEn ] 0
|  9>     print[ P_Cartesian ] 0
| 10> end
| 11> *xyz 0 1
| 12>  C        1.0823010000     0.8891810000    -0.2710570000
| 13>  O        2.4738940000     0.9906570000    -0.3949410000
| 14>  C        2.9847980000     0.1523460000    -1.3960570000
| 15>  C        4.4784610000     0.2674160000    -1.3961020000
| 16>  O        5.1279550000    -0.2703810000    -2.5369880000
| 17>  C        5.1893100000     1.1378120000    -2.3258770000
| 18>  C        6.5345990000     1.7139860000    -2.0212040000
| 19>  H        0.7730250000     1.5624440000     0.5285930000
| 20>  H        0.7744550000    -0.1342420000    -0.0148850000
| 21>  H        0.5719870000     1.1812470000    -1.1994910000
| 22>  H        2.5947190000     0.4278550000    -2.3876030000
| 23>  H        2.6953730000    -0.8940850000    -1.2077490000
| 24>  H        4.9584970000     0.0357330000    -0.4455800000
| 25>  H        4.5783790000     1.7049150000    -3.0287230000
| 26>  H        7.0650790000     1.0922800000    -1.2979590000
| 27>  H        6.4321050000     2.7209990000    -1.6088660000
| 28>  H        7.1407530000     1.7793160000    -2.9281320000
| 29> *
| 30>
| 31>                          ****END OF INPUT****
 Total Charge           Charge          ....    0
 Multiplicity           Mult            ....    1
 Number of Electrons    NEL             ....   56
 Basis Dimension        Dim             ....  148

MULLIKEN ATOMIC CHARGES
-----------------------
   0 C :    0.153248
   1 O :   -0.355134
   2 C :    0.272984
   3 C :    0.016244
   4 O :   -0.284871
   5 C :   -0.007166
   6 C :    0.066294
   7 H :    0.033342
   8 H :    0.004297
   9 H :    0.004524
  10 H :   -0.016703
  11 H :   -0.001902
  12 H :    0.013653
  13 H :    0.014857
  14 H :    0.018595
  15 H :    0.033364
  16 H :    0.034374
Sum of atomic charges:    0.0000000

LOEWDIN ATOMIC CHARGES
----------------------
   0 C :    0.051147
   1 O :   -0.149774
   2 C :    0.054900
   3 C :    0.034557
   4 O :   -0.153378
   5 C :    0.041117
   6 C :   -0.069067
   7 H :    0.023572
   8 H :    0.005557
   9 H :    0.005327
  10 H :    0.007511
  11 H :    0.009434
  12 H :    0.015558
  13 H :    0.014959
  14 H :    0.034471
  15 H :    0.038125
  16 H :    0.035984

  Mayer bond orders larger than 0.1
B(  0-C ,  1-O ) :   1.0175 B(  0-C ,  7-H ) :   0.9768 B(  0-C ,  8-H ) :   0.9557
B(  0-C ,  9-H ) :   0.9562 B(  1-O ,  2-C ) :   1.0230 B(  2-C ,  3-C ) :   1.0278
B(  2-C , 10-H ) :   0.9051 B(  2-C , 11-H ) :   0.9103 B(  3-C ,  4-O ) :   0.9849
B(  3-C ,  5-C ) :   1.0615 B(  3-C , 12-H ) :   0.9226 B(  4-O ,  5-C ) :   0.9831
B(  5-C ,  6-C ) :   1.0940 B(  5-C , 13-H ) :   0.9214 B(  6-C , 14-H ) :   0.9439
B(  6-C , 15-H ) :   0.9502 B(  6-C , 16-H ) :   0.9487

FINAL SINGLE POINT ENERGY      -346.256352227284

DIPOLE MOMENT
-------------
                                X             Y             Z
Electronic contribution:      1.38384      -2.00820      -0.84029
Nuclear contribution   :     -1.75906       2.35408       0.99290
                        -----------------------------------------
Total Dipole Moment    :     -0.37522       0.34588       0.15261
                        -----------------------------------------
Magnitude (a.u.)       :      0.53264
Magnitude (Debye)      :      1.35387

                             ****ORCA TERMINATED NORMALLY****
TOTAL RUN TIME: 0 days 0 hours 0 minutes 7 seconds 230 msec
