                         Program Version 3.0.3 - RELEASE   -
|  1> ! RI PBE def2-SVP def2-SVP/J NBO PAL2
|  2> % maxcore 2000
|  3> % output
|  4>     # printlevel mini
|  5>     print[ P_Basis ] 0
|  6>     print[ P_SCFInfo ] 1
|  7>     print[ P_SCFIterInfo ] 1
|  8>     print[ P_OrbEn ] 0
|  9>     print[ P_Cartesian ] 0
| 10> end
| 11> *xyz 0 1
| 12>  C        1.1433000000     0.9396230000    -0.5161430000
| 13>  O        2.5344310000     0.8999480000    -0.6762100000
| 14>  C        2.9501940000    -0.0863930000    -1.5914220000
| 15>  C        4.4444660000    -0.1476720000    -1.5589220000
| 16>  O        4.9589470000    -0.4878360000    -0.3086120000
| 17>  C        5.1838660000    -0.6960060000    -2.7234210000
| 18>  C        5.2445930000     0.7797610000    -2.4222560000
| 19>  H        0.9165640000     1.7177440000     0.2130540000
| 20>  H        0.7527380000    -0.0193530000    -0.1487630000
| 21>  H        0.6364180000     1.1805180000    -1.4608050000
| 22>  H        2.5962980000     0.1500680000    -2.6057750000
| 23>  H        2.5354710000    -1.0643040000    -1.3021040000
| 24>  H        4.6066540000     0.1568020000     0.3147760000
| 25>  H        4.6212570000    -1.0290500000    -3.5874230000
| 26>  H        6.0605440000    -1.2866210000    -2.4904640000
| 27>  H        4.7182610000     1.4649450000    -3.0755970000
| 28>  H        6.1656070000     1.1584470000    -1.9984120000
| 29> *
| 30>
| 31>                          ****END OF INPUT****
 Total Charge           Charge          ....    0
 Multiplicity           Mult            ....    1
 Number of Electrons    NEL             ....   56
 Basis Dimension        Dim             ....  148

MULLIKEN ATOMIC CHARGES
-----------------------
   0 C :    0.151331
   1 O :   -0.364635
   2 C :    0.280482
   3 C :   -0.086642
   4 O :   -0.238163
   5 C :   -0.031910
   6 C :   -0.015079
   7 H :    0.033913
   8 H :    0.007658
   9 H :    0.005382
  10 H :   -0.025243
  11 H :   -0.006263
  12 H :    0.158604
  13 H :    0.029675
  14 H :    0.042878
  15 H :    0.028964
  16 H :    0.029049
Sum of atomic charges:    0.0000000

LOEWDIN ATOMIC CHARGES
----------------------
   0 C :    0.050992
   1 O :   -0.154567
   2 C :    0.059705
   3 C :   -0.005422
   4 O :   -0.089844
   5 C :   -0.044292
   6 C :   -0.052940
   7 H :    0.023521
   8 H :    0.006375
   9 H :    0.006110
  10 H :    0.006400
  11 H :    0.007674
  12 H :    0.069840
  13 H :    0.025959
  14 H :    0.035626
  15 H :    0.025146
  16 H :    0.029716

  Mayer bond orders larger than 0.1
B(  0-C ,  1-O ) :   1.0145 B(  0-C ,  7-H ) :   0.9767 B(  0-C ,  8-H ) :   0.9562
B(  0-C ,  9-H ) :   0.9569 B(  1-O ,  2-C ) :   1.0126 B(  2-C ,  3-C ) :   1.0440
B(  2-C , 10-H ) :   0.8999 B(  2-C , 11-H ) :   0.9096 B(  3-C ,  4-O ) :   1.1128
B(  3-C ,  5-C ) :   0.9702 B(  3-C ,  6-C ) :   0.9603 B(  4-O , 12-H ) :   0.9706
B(  5-C ,  6-C ) :   1.0348 B(  5-C , 13-H ) :   0.9437 B(  5-C , 14-H ) :   0.9325
B(  6-C , 15-H ) :   0.9388 B(  6-C , 16-H ) :   0.9371

FINAL SINGLE POINT ENERGY      -346.260676038553

DIPOLE MOMENT
-------------
                                X             Y             Z
Electronic contribution:      2.86106      -0.36983       2.28183
Nuclear contribution   :     -3.51821       0.57830      -2.45375
                        -----------------------------------------
Total Dipole Moment    :     -0.65715       0.20847      -0.17191
                        -----------------------------------------
Magnitude (a.u.)       :      0.71054
Magnitude (Debye)      :      1.80604

                             ****ORCA TERMINATED NORMALLY****
TOTAL RUN TIME: 0 days 0 hours 0 minutes 7 seconds 423 msec
