                         Program Version 3.0.3 - RELEASE   -
|  1> ! RI PBE def2-SVP def2-SVP/J NBO PAL2
|  2> % maxcore 2000
|  3> % output
|  4>     # printlevel mini
|  5>     print[ P_Basis ] 0
|  6>     print[ P_SCFInfo ] 1
|  7>     print[ P_SCFIterInfo ] 1
|  8>     print[ P_OrbEn ] 0
|  9>     print[ P_Cartesian ] 0
| 10> end
| 11> *xyz 0 1
| 12>  C        1.4586680000    -1.3261030000    -1.8037370000
| 13>  O        2.7095370000    -0.7317790000    -1.9991380000
| 14>  C        2.9492980000     0.3266520000    -1.1057020000
| 15>  C        4.2986510000     0.9375690000    -1.4127280000
| 16>  C        4.3662800000     1.5745280000    -2.7735480000
| 17>  C        3.8978430000     2.9856070000    -2.9601300000
| 18>  C        5.3599050000     2.6589750000    -3.0452780000
| 19>  H        1.3578380000    -2.1334530000    -2.5298540000
| 20>  H        0.6407230000    -0.6073880000    -1.9559000000
| 21>  H        1.3634180000    -1.7454120000    -0.7916910000
| 22>  H        2.9246320000    -0.0452170000    -0.0690570000
| 23>  H        2.1573150000     1.0868480000    -1.2019260000
| 24>  H        5.0637830000     0.1586640000    -1.3227350000
| 25>  H        4.5188050000     1.6889560000    -0.6459710000
| 26>  H        4.1634330000     0.8946770000    -3.5936890000
| 27>  H        3.5527180000     3.5218800000    -2.0830790000
| 28>  H        3.3754720000     3.2428680000    -3.8731650000
| 29>  H        5.9951910000     2.9760250000    -2.2259480000
| 30>  H        5.8368700000     2.6930120000    -4.0169140000
| 31> *
| 32>
| 33>                          ****END OF INPUT****
 Total Charge           Charge          ....    0
 Multiplicity           Mult            ....    1
 Number of Electrons    NEL             ....   56
 Basis Dimension        Dim             ....  158

MULLIKEN ATOMIC CHARGES
-----------------------
   0 C :    0.152343
   1 O :   -0.352808
   2 C :    0.176384
   3 C :    0.078625
   4 C :   -0.164332
   5 C :   -0.037951
   6 C :   -0.019124
   7 H :    0.031425
   8 H :    0.001718
   9 H :   -0.000679
  10 H :   -0.008398
  11 H :   -0.010001
  12 H :    0.022206
  13 H :   -0.010586
  14 H :    0.030066
  15 H :    0.024726
  16 H :    0.030757
  17 H :    0.025353
  18 H :    0.030277
Sum of atomic charges:   -0.0000000

LOEWDIN ATOMIC CHARGES
----------------------
   0 C :    0.048859
   1 O :   -0.150295
   2 C :    0.061818
   3 C :   -0.043541
   4 C :   -0.043708
   5 C :   -0.049679
   6 C :   -0.046370
   7 H :    0.022622
   8 H :    0.004166
   9 H :    0.003359
  10 H :    0.002666
  11 H :    0.003220
  12 H :    0.031841
  13 H :    0.028961
  14 H :    0.028561
  15 H :    0.021786
  16 H :    0.025923
  17 H :    0.023797
  18 H :    0.026013

  Mayer bond orders larger than 0.1
B(  0-C ,  1-O ) :   1.0260 B(  0-C ,  7-H ) :   0.9759 B(  0-C ,  8-H ) :   0.9545
B(  0-C ,  9-H ) :   0.9543 B(  1-O ,  2-C ) :   1.0138 B(  2-C ,  3-C ) :   1.0894
B(  2-C , 10-H ) :   0.9225 B(  2-C , 11-H ) :   0.9213 B(  3-C ,  4-C ) :   1.0857
B(  3-C , 12-H ) :   0.9203 B(  3-C , 13-H ) :   0.9036 B(  4-C ,  5-C ) :   0.9956
B(  4-C ,  6-C ) :   0.9948 B(  4-C , 14-H ) :   0.9457 B(  5-C ,  6-C ) :   1.0479
B(  5-C , 15-H ) :   0.9460 B(  5-C , 16-H ) :   0.9481 B(  6-C , 17-H ) :   0.9437
B(  6-C , 18-H ) :   0.9465

FINAL SINGLE POINT ENERGY      -310.398943883880

DIPOLE MOMENT
-------------
                                X             Y             Z
Electronic contribution:      0.96991      -1.25720      -0.96900
Nuclear contribution   :     -1.25292       1.30689       1.23137
                        -----------------------------------------
Total Dipole Moment    :     -0.28301       0.04969       0.26237
                        -----------------------------------------
Magnitude (a.u.)       :      0.38910
Magnitude (Debye)      :      0.98902

                             ****ORCA TERMINATED NORMALLY****
TOTAL RUN TIME: 0 days 0 hours 0 minutes 8 seconds 98 msec
