                         Program Version 3.0.3 - RELEASE   -
|  1> ! RI PBE def2-SVP def2-SVP/J NBO PAL2
|  2> % maxcore 2000
|  3> % output
|  4>     # printlevel mini
|  5>     print[ P_Basis ] 0
|  6>     print[ P_SCFInfo ] 1
|  7>     print[ P_SCFIterInfo ] 1
|  8>     print[ P_OrbEn ] 0
|  9>     print[ P_Cartesian ] 0
| 10> end
| 11> *xyz 0 1
| 12>  C        3.3973580000    -0.2897540000    -1.2163820000
| 13>  O        2.6395450000    -0.3867020000    -0.0371560000
| 14>  C        3.2714920000    -0.0758820000     1.1140810000
| 15>  C        4.5343970000     0.3151480000     1.2802130000
| 16>  C        5.1007320000     0.6251130000     2.6030170000
| 17>  C        6.5380230000     0.2986860000     2.9059270000
| 18>  C        6.1166960000     1.7249830000     2.7520840000
| 19>  H        2.7379140000    -0.5726730000    -2.0353210000
| 20>  H        4.2588500000    -0.9672090000    -1.1903670000
| 21>  H        3.7563060000     0.7340990000    -1.3734440000
| 22>  H        2.5954890000    -0.1848100000     1.9562800000
| 23>  H        5.1989210000     0.4195680000     0.4279090000
| 24>  H        4.4081350000     0.5098180000     3.4307940000
| 25>  H        7.1234840000    -0.1469970000     2.1105760000
| 26>  H        6.7808320000    -0.0635540000     3.8972890000
| 27>  H        6.4156930000     2.2490760000     1.8521360000
| 28>  H        6.0687350000     2.3471910000     3.6372560000
| 29> *
| 30>
| 31>                          ****END OF INPUT****
 Total Charge           Charge          ....    0
 Multiplicity           Mult            ....    1
 Number of Electrons    NEL             ....   54
 Basis Dimension        Dim             ....  148

MULLIKEN ATOMIC CHARGES
-----------------------
   0 C :    0.133452
   1 O :   -0.267585
   2 C :    0.112725
   3 C :   -0.011266
   4 C :   -0.106519
   5 C :   -0.030880
   6 C :   -0.029387
   7 H :    0.036314
   8 H :    0.027278
   9 H :    0.024069
  10 H :   -0.000773
  11 H :   -0.023887
  12 H :    0.010162
  13 H :    0.030702
  14 H :    0.031121
  15 H :    0.028576
  16 H :    0.035899
Sum of atomic charges:   -0.0000000

LOEWDIN ATOMIC CHARGES
----------------------
   0 C :    0.058536
   1 O :   -0.071702
   2 C :    0.015894
   3 C :   -0.109884
   4 C :   -0.035269
   5 C :   -0.043288
   6 C :   -0.043557
   7 H :    0.026559
   8 H :    0.014503
   9 H :    0.013958
  10 H :    0.020246
  11 H :    0.021726
  12 H :    0.029349
  13 H :    0.024663
  14 H :    0.026490
  15 H :    0.024172
  16 H :    0.027601

  Mayer bond orders larger than 0.1
B(  0-C ,  1-O ) :   0.9973 B(  0-C ,  7-H ) :   0.9722 B(  0-C ,  8-H ) :   0.9571
B(  0-C ,  9-H ) :   0.9569 B(  1-O ,  2-C ) :   1.1471 B(  2-C ,  3-C ) :   1.7367
B(  2-C , 10-H ) :   0.9756 B(  3-C ,  4-C ) :   1.0848 B(  3-C , 11-H ) :   0.9404
B(  4-C ,  5-C ) :   0.9620 B(  4-C ,  6-C ) :   0.9635 B(  4-C , 12-H ) :   0.9470
B(  5-C ,  6-C ) :   1.0335 B(  5-C , 13-H ) :   0.9528 B(  5-C , 14-H ) :   0.9469
B(  6-C , 15-H ) :   0.9522 B(  6-C , 16-H ) :   0.9457

FINAL SINGLE POINT ENERGY      -309.188261708525

DIPOLE MOMENT
-------------
                                X             Y             Z
Electronic contribution:     -3.96860      -1.19042      -0.14548
Nuclear contribution   :      4.22638       1.23851      -0.09773
                        -----------------------------------------
Total Dipole Moment    :      0.25778       0.04809      -0.24321
                        -----------------------------------------
Magnitude (a.u.)       :      0.35765
Magnitude (Debye)      :      0.90908

                             ****ORCA TERMINATED NORMALLY****
TOTAL RUN TIME: 0 days 0 hours 0 minutes 7 seconds 775 msec
