                         Program Version 3.0.3 - RELEASE   -
|  1> ! RI PBE def2-SVP def2-SVP/J NBO PAL2
|  2> % maxcore 2000
|  3> % output
|  4>     # printlevel mini
|  5>     print[ P_Basis ] 0
|  6>     print[ P_SCFInfo ] 1
|  7>     print[ P_SCFIterInfo ] 1
|  8>     print[ P_OrbEn ] 0
|  9>     print[ P_Cartesian ] 0
| 10> end
| 11> *xyz 0 1
| 12>  C        1.2574010000    -0.0888030000    -0.1998410000
| 13>  O        2.6586650000    -0.2005650000    -0.2210660000
| 14>  C        3.1818570000    -1.4180230000    -0.5003070000
| 15>  C        2.4723270000    -2.5125180000    -0.7819970000
| 16>  C        4.6583290000    -1.3466420000    -0.4443440000
| 17>  C        5.5325150000    -2.3696460000    -1.0902660000
| 18>  C        5.4366110000    -1.0004170000    -1.6854450000
| 19>  H        1.0338790000     0.9433420000     0.0657620000
| 20>  H        0.8176380000    -0.7623530000     0.5439110000
| 21>  H        0.8257560000    -0.3132920000    -1.1814580000
| 22>  H        1.3934930000    -2.5161870000    -0.8412610000
| 23>  H        2.9838480000    -3.4473240000    -0.9561210000
| 24>  H        5.0280470000    -0.8996350000     0.4732490000
| 25>  H        5.0590860000    -3.1808330000    -1.6277550000
| 26>  H        6.4430370000    -2.6455340000    -0.5736180000
| 27>  H        4.8730530000    -0.8951010000    -2.6040480000
| 28>  H        6.2775770000    -0.3257580000    -1.5857040000
| 29> *
| 30>
| 31>                          ****END OF INPUT****
 Total Charge           Charge          ....    0
 Multiplicity           Mult            ....    1
 Number of Electrons    NEL             ....   54
 Basis Dimension        Dim             ....  148

MULLIKEN ATOMIC CHARGES
-----------------------
   0 C :    0.139789
   1 O :   -0.275845
   2 C :    0.116503
   3 C :   -0.124360
   4 C :   -0.078616
   5 C :   -0.025023
   6 C :   -0.023466
   7 H :    0.032914
   8 H :    0.028332
   9 H :    0.025881
  10 H :    0.010826
  11 H :    0.007013
  12 H :    0.028125
  13 H :    0.035377
  14 H :    0.029920
  15 H :    0.035291
  16 H :    0.037340
Sum of atomic charges:   -0.0000000

LOEWDIN ATOMIC CHARGES
----------------------
   0 C :    0.060287
   1 O :   -0.069427
   2 C :    0.032345
   3 C :   -0.161158
   4 C :   -0.043750
   5 C :   -0.036623
   6 C :   -0.030801
   7 H :    0.025771
   8 H :    0.015860
   9 H :    0.014611
  10 H :    0.019905
  11 H :    0.025444
  12 H :    0.034834
  13 H :    0.027644
  14 H :    0.028861
  15 H :    0.028696
  16 H :    0.027502

  Mayer bond orders larger than 0.1
B(  0-C ,  1-O ) :   0.9866 B(  0-C ,  7-H ) :   0.9723 B(  0-C ,  8-H ) :   0.9577
B(  0-C ,  9-H ) :   0.9594 B(  1-O ,  2-C ) :   1.1365 B(  2-C ,  3-C ) :   1.8477
B(  2-C ,  4-C ) :   1.0375 B(  3-C , 10-H ) :   0.9378 B(  3-C , 11-H ) :   0.9153
B(  4-C ,  5-C ) :   1.0044 B(  4-C ,  6-C ) :   0.9828 B(  4-C , 12-H ) :   0.9217
B(  5-C ,  6-C ) :   1.0536 B(  5-C , 13-H ) :   0.9422 B(  5-C , 14-H ) :   0.9364
B(  6-C , 15-H ) :   0.9481 B(  6-C , 16-H ) :   0.9471

FINAL SINGLE POINT ENERGY      -309.189870600067

DIPOLE MOMENT
-------------
                                X             Y             Z
Electronic contribution:      0.52624       1.56451       1.23256
Nuclear contribution   :     -0.71623      -1.46900      -1.23229
                        -----------------------------------------
Total Dipole Moment    :     -0.18998       0.09551       0.00027
                        -----------------------------------------
Magnitude (a.u.)       :      0.21264
Magnitude (Debye)      :      0.54049

                             ****ORCA TERMINATED NORMALLY****
TOTAL RUN TIME: 0 days 0 hours 0 minutes 7 seconds 446 msec
