                         Program Version 3.0.3 - RELEASE   -
|  1> ! RI PBE def2-SVP def2-SVP/J NBO PAL2
|  2> % maxcore 2000
|  3> % output
|  4>     # printlevel mini
|  5>     print[ P_Basis ] 0
|  6>     print[ P_SCFInfo ] 1
|  7>     print[ P_SCFIterInfo ] 1
|  8>     print[ P_OrbEn ] 0
|  9>     print[ P_Cartesian ] 0
| 10> end
| 11> *xyz 0 1
| 12>  C        3.3195740000     1.3055070000     1.3259610000
| 13>  O        2.9214300000     1.7107600000     0.0451380000
| 14>  C        3.1664010000     0.7694450000    -0.9806680000
| 15>  C        2.4486370000     1.2868790000    -2.2091460000
| 16>  C        4.6366820000     0.5577030000    -1.2396660000
| 17>  C        5.4117090000    -0.5009450000    -0.5141440000
| 18>  C        5.0808610000    -0.6771760000    -1.9620560000
| 19>  H        2.9495110000     2.0540070000     2.0278740000
| 20>  H        4.4088330000     1.2375820000     1.4236690000
| 21>  H        2.8862500000     0.3301850000     1.5918030000
| 22>  H        2.7305330000    -0.2018860000    -0.6846550000
| 23>  H        2.8653470000     2.2517980000    -2.5076060000
| 24>  H        1.3864760000     1.4235700000    -2.0000040000
| 25>  H        2.5595060000     0.5896060000    -3.0410840000
| 26>  H        5.1717610000     1.4731500000    -1.4763340000
| 27>  H        4.8771060000    -1.1175490000     0.1993340000
| 28>  H        6.4383000000    -0.2893980000    -0.2415170000
| 29>  H        4.3220700000    -1.4083900000    -2.2179120000
| 30>  H        5.8770220000    -0.5882490000    -2.6900980000
| 31> *
| 32>
| 33>                          ****END OF INPUT****
 Total Charge           Charge          ....    0
 Multiplicity           Mult            ....    1
 Number of Electrons    NEL             ....   56
 Basis Dimension        Dim             ....  158

MULLIKEN ATOMIC CHARGES
-----------------------
   0 C :    0.149800
   1 O :   -0.335943
   2 C :    0.129272
   3 C :    0.047264
   4 C :   -0.156821
   5 C :   -0.020444
   6 C :   -0.025441
   7 H :    0.027276
   8 H :    0.018433
   9 H :   -0.004819
  10 H :   -0.033112
  11 H :    0.013721
  12 H :    0.027276
  13 H :    0.017222
  14 H :    0.018194
  15 H :    0.029521
  16 H :    0.031590
  17 H :    0.030595
  18 H :    0.036417
Sum of atomic charges:   -0.0000000

LOEWDIN ATOMIC CHARGES
----------------------
   0 C :    0.048851
   1 O :   -0.143908
   2 C :    0.049884
   3 C :   -0.063899
   4 C :   -0.056104
   5 C :   -0.046492
   6 C :   -0.043832
   7 H :    0.021739
   8 H :    0.006451
   9 H :    0.002688
  10 H :    0.003371
  11 H :    0.028912
  12 H :    0.029554
  13 H :    0.029976
  14 H :    0.027848
  15 H :    0.023845
  16 H :    0.027574
  17 H :    0.024709
  18 H :    0.028834

  Mayer bond orders larger than 0.1
B(  0-C ,  1-O ) :   1.0214 B(  0-C ,  7-H ) :   0.9739 B(  0-C ,  8-H ) :   0.9582
B(  0-C ,  9-H ) :   0.9504 B(  1-O ,  2-C ) :   1.0288 B(  2-C ,  3-C ) :   1.0821
B(  2-C ,  4-C ) :   1.0434 B(  2-C , 10-H ) :   0.8973 B(  3-C , 11-H ) :   0.9488
B(  3-C , 12-H ) :   0.9535 B(  3-C , 13-H ) :   0.9559 B(  4-C ,  5-C ) :   0.9802
B(  4-C ,  6-C ) :   0.9706 B(  4-C , 14-H ) :   0.9353 B(  5-C ,  6-C ) :   1.0532
B(  5-C , 15-H ) :   0.9442 B(  5-C , 16-H ) :   0.9434 B(  6-C , 17-H ) :   0.9432
B(  6-C , 18-H ) :   0.9427

FINAL SINGLE POINT ENERGY      -310.401639881635

DIPOLE MOMENT
-------------
                                X             Y             Z
Electronic contribution:     -0.33865       1.67634       0.51844
Nuclear contribution   :      0.58025      -2.01522      -0.46890
                        -----------------------------------------
Total Dipole Moment    :      0.24160      -0.33888       0.04954
                        -----------------------------------------
Magnitude (a.u.)       :      0.41913
Magnitude (Debye)      :      1.06534

                             ****ORCA TERMINATED NORMALLY****
TOTAL RUN TIME: 0 days 0 hours 0 minutes 8 seconds 219 msec
