                         Program Version 3.0.3 - RELEASE   -
|  1> ! RI PBE def2-SVP def2-SVP/J NBO PAL2
|  2> % maxcore 2000
|  3> % output
|  4>     # printlevel mini
|  5>     print[ P_Basis ] 0
|  6>     print[ P_SCFInfo ] 1
|  7>     print[ P_SCFIterInfo ] 1
|  8>     print[ P_OrbEn ] 0
|  9>     print[ P_Cartesian ] 0
| 10> end
| 11> *xyz 0 1
| 12>  C        0.7998650000     1.3146920000    -0.9399770000
| 13>  O        2.0812120000     1.8737800000    -1.0143060000
| 14>  C        3.0869490000     0.9004730000    -1.1421070000
| 15>  C        4.4242840000     1.5946940000    -1.2844640000
| 16>  C        4.5266240000     2.3890900000    -2.5517240000
| 17>  C        5.7826060000     2.5220890000    -3.2799290000
| 18>  O        4.7687100000     1.6442440000    -3.7406660000
| 19>  H        0.0865910000     2.1338190000    -0.8446620000
| 20>  H        0.6985540000     0.6525420000    -0.0683200000
| 21>  H        0.5594270000     0.7359720000    -1.8425860000
| 22>  H        2.8966870000     0.2686990000    -2.0231050000
| 23>  H        3.0922120000     0.2432450000    -0.2589030000
| 24>  H        5.2184200000     0.8425220000    -1.2682780000
| 25>  H        4.5744430000     2.2579510000    -0.4260570000
| 26>  H        3.7825120000     3.1737070000    -2.6727070000
| 27>  H        6.6753210000     2.0363090000    -2.8911990000
| 28>  H        5.9599930000     3.3963530000    -3.9016110000
| 29> *
| 30>
| 31>                          ****END OF INPUT****
 Total Charge           Charge          ....    0
 Multiplicity           Mult            ....    1
 Number of Electrons    NEL             ....   56
 Basis Dimension        Dim             ....  148

MULLIKEN ATOMIC CHARGES
-----------------------
   0 C :    0.147123
   1 O :   -0.355030
   2 C :    0.149255
   3 C :    0.093172
   4 C :   -0.032013
   5 C :    0.145943
   6 O :   -0.299936
   7 H :    0.032398
   8 H :    0.003019
   9 H :    0.008382
  10 H :    0.006351
  11 H :    0.000327
  12 H :    0.000813
  13 H :    0.023618
  14 H :    0.029429
  15 H :    0.019368
  16 H :    0.027780
Sum of atomic charges:   -0.0000000

LOEWDIN ATOMIC CHARGES
----------------------
   0 C :    0.049793
   1 O :   -0.151972
   2 C :    0.062518
   3 C :   -0.057465
   4 C :    0.041656
   5 C :    0.053894
   6 O :   -0.163563
   7 H :    0.023237
   8 H :    0.004454
   9 H :    0.006791
  10 H :    0.008483
  11 H :    0.004721
  12 H :    0.036229
  13 H :    0.036032
  14 H :    0.018112
  15 H :    0.011949
  16 H :    0.015130

  Mayer bond orders larger than 0.1
B(  0-C ,  1-O ) :   1.0214 B(  0-C ,  7-H ) :   0.9757 B(  0-C ,  8-H ) :   0.9556
B(  0-C ,  9-H ) :   0.9565 B(  1-O ,  2-C ) :   1.0168 B(  2-C ,  3-C ) :   1.0817
B(  2-C , 10-H ) :   0.9234 B(  2-C , 11-H ) :   0.9298 B(  3-C ,  4-C ) :   1.0553
B(  3-C , 12-H ) :   0.8986 B(  3-C , 13-H ) :   0.9171 B(  4-C ,  5-C ) :   1.0904
B(  4-C ,  6-O ) :   0.9610 B(  4-C , 14-H ) :   0.9380 B(  5-C ,  6-O ) :   1.0054
B(  5-C , 15-H ) :   0.9295 B(  5-C , 16-H ) :   0.9373

FINAL SINGLE POINT ENERGY      -346.251793435432

DIPOLE MOMENT
-------------
                                X             Y             Z
Electronic contribution:      2.28476       1.46986      -2.91940
Nuclear contribution   :     -2.25154      -1.48102       3.42873
                        -----------------------------------------
Total Dipole Moment    :      0.03322      -0.01116       0.50933
                        -----------------------------------------
Magnitude (a.u.)       :      0.51054
Magnitude (Debye)      :      1.29768

                             ****ORCA TERMINATED NORMALLY****
TOTAL RUN TIME: 0 days 0 hours 0 minutes 7 seconds 366 msec
