                         Program Version 3.0.3 - RELEASE   -
|  1> ! RI PBE def2-SVP def2-SVP/J NBO PAL2
|  2> % maxcore 2000
|  3> % output
|  4>     # printlevel mini
|  5>     print[ P_Basis ] 0
|  6>     print[ P_SCFInfo ] 1
|  7>     print[ P_SCFIterInfo ] 1
|  8>     print[ P_OrbEn ] 0
|  9>     print[ P_Cartesian ] 0
| 10> end
| 11> *xyz 0 1
| 12>  C        3.9924820000     0.5719660000    -0.8427650000
| 13>  O        2.9771340000     0.3954580000     0.1180440000
| 14>  C        3.2327970000    -0.4659430000     1.1138670000
| 15>  C        4.3287920000    -1.2006330000     1.3090370000
| 16>  C        4.4340560000    -2.1068140000     2.4577130000
| 17>  C        5.3332300000    -3.2602470000     2.4656470000
| 18>  O        5.6628370000    -2.0900410000     3.1897800000
| 19>  H        3.6156220000     1.2967490000    -1.5619260000
| 20>  H        4.2169310000    -0.3703060000    -1.3543600000
| 21>  H        4.9082370000     0.9552850000    -0.3803780000
| 22>  H        2.3913350000    -0.5163610000     1.7983620000
| 23>  H        5.1815110000    -1.1501830000     0.6418090000
| 24>  H        3.5500470000    -2.1613810000     3.0921500000
| 25>  H        5.9496680000    -3.4561310000     1.5904930000
| 26>  H        5.0877190000    -4.1326950000     3.0675260000
| 27> *
| 28>
| 29>                          ****END OF INPUT****
 Total Charge           Charge          ....    0
 Multiplicity           Mult            ....    1
 Number of Electrons    NEL             ....   54
 Basis Dimension        Dim             ....  138

MULLIKEN ATOMIC CHARGES
-----------------------
   0 C :    0.121707
   1 O :   -0.254491
   2 C :    0.117671
   3 C :   -0.016923
   4 C :    0.010728
   5 C :    0.149116
   6 O :   -0.292569
   7 H :    0.044899
   8 H :    0.031718
   9 H :    0.036476
  10 H :    0.010856
  11 H :   -0.012461
  12 H :    0.006975
  13 H :    0.019487
  14 H :    0.026811
Sum of atomic charges:    0.0000000

LOEWDIN ATOMIC CHARGES
----------------------
   0 C :    0.060459
   1 O :   -0.059242
   2 C :    0.030483
   3 C :   -0.128794
   4 C :    0.042566
   5 C :    0.053522
   6 O :   -0.160604
   7 H :    0.029332
   8 H :    0.017450
   9 H :    0.019386
  10 H :    0.023852
  11 H :    0.027903
  12 H :    0.017708
  13 H :    0.011772
  14 H :    0.014206

  Mayer bond orders larger than 0.1
B(  0-C ,  1-O ) :   0.9846 B(  0-C ,  7-H ) :   0.9730 B(  0-C ,  8-H ) :   0.9579
B(  0-C ,  9-H ) :   0.9598 B(  1-O ,  2-C ) :   1.1704 B(  1-O ,  3-C ) :   0.1020
B(  2-C ,  3-C ) :   1.6970 B(  2-C , 10-H ) :   0.9735 B(  3-C ,  4-C ) :   1.0662
B(  3-C , 11-H ) :   0.9394 B(  4-C ,  5-C ) :   1.0654 B(  4-C ,  6-O ) :   0.9431
B(  4-C , 12-H ) :   0.9413 B(  5-C ,  6-O ) :   1.0020 B(  5-C , 13-H ) :   0.9296
B(  5-C , 14-H ) :   0.9334

FINAL SINGLE POINT ENERGY      -345.041593754653

DIPOLE MOMENT
-------------
                                X             Y             Z
Electronic contribution:     -0.73696       0.22711       3.08764
Nuclear contribution   :      0.54603      -0.36560      -3.86854
                        -----------------------------------------
Total Dipole Moment    :     -0.19093      -0.13850      -0.78090
                        -----------------------------------------
Magnitude (a.u.)       :      0.81575
Magnitude (Debye)      :      2.07347

                             ****ORCA TERMINATED NORMALLY****
TOTAL RUN TIME: 0 days 0 hours 0 minutes 6 seconds 520 msec
