                         Program Version 3.0.3 - RELEASE   -
|  1> ! RI PBE def2-SVP def2-SVP/J NBO PAL2
|  2> % maxcore 2000
|  3> % output
|  4>     # printlevel mini
|  5>     print[ P_Basis ] 0
|  6>     print[ P_SCFInfo ] 1
|  7>     print[ P_SCFIterInfo ] 1
|  8>     print[ P_OrbEn ] 0
|  9>     print[ P_Cartesian ] 0
| 10> end
| 11> *xyz 0 1
| 12>  C        1.7941640000    -0.5505830000     0.1969600000
| 13>  O        3.1084510000    -0.5518500000    -0.3066050000
| 14>  C        3.4823190000    -1.6279640000    -1.0320380000
| 15>  C        2.7442650000    -2.6973860000    -1.3205400000
| 16>  C        4.8843810000    -1.4500360000    -1.4878720000
| 17>  C        5.9696380000    -2.2863390000    -0.9708950000
| 18>  O        5.4443560000    -2.4771490000    -2.2727950000
| 19>  H        1.6704720000     0.3865790000     0.7369110000
| 20>  H        1.6329050000    -1.3913830000     0.8799400000
| 21>  H        1.0624480000    -0.6059990000    -0.6160240000
| 22>  H        1.7285860000    -2.8242730000    -0.9751960000
| 23>  H        3.1825540000    -3.4716940000    -1.9337610000
| 24>  H        5.1259070000    -0.4369530000    -1.8059750000
| 25>  H        5.7261400000    -3.0674550000    -0.2556680000
| 26>  H        6.9811130000    -1.8897050000    -0.9293510000
| 27> *
| 28>
| 29>                          ****END OF INPUT****
 Total Charge           Charge          ....    0
 Multiplicity           Mult            ....    1
 Number of Electrons    NEL             ....   54
 Basis Dimension        Dim             ....  138

MULLIKEN ATOMIC CHARGES
-----------------------
   0 C :    0.139149
   1 O :   -0.277174
   2 C :    0.087980
   3 C :   -0.110037
   4 C :    0.053751
   5 C :    0.145811
   6 O :   -0.275284
   7 H :    0.036902
   8 H :    0.029755
   9 H :    0.032216
  10 H :    0.013737
  11 H :    0.027879
  12 H :    0.027110
  13 H :    0.034233
  14 H :    0.033974
Sum of atomic charges:   -0.0000000

LOEWDIN ATOMIC CHARGES
----------------------
   0 C :    0.062956
   1 O :   -0.068650
   2 C :    0.007420
   3 C :   -0.147417
   4 C :    0.039576
   5 C :    0.068186
   6 O :   -0.136298
   7 H :    0.027066
   8 H :    0.016639
   9 H :    0.018354
  10 H :    0.022039
  11 H :    0.032771
  12 H :    0.022763
  13 H :    0.017788
  14 H :    0.016807

  Mayer bond orders larger than 0.1
B(  0-C ,  1-O ) :   0.9813 B(  0-C ,  7-H ) :   0.9729 B(  0-C ,  8-H ) :   0.9603
B(  0-C ,  9-H ) :   0.9587 B(  1-O ,  2-C ) :   1.1353 B(  2-C ,  3-C ) :   1.8560
B(  2-C ,  4-C ) :   0.9935 B(  3-C , 10-H ) :   0.9365 B(  3-C , 11-H ) :   0.9086
B(  4-C ,  5-C ) :   1.0834 B(  4-C ,  6-O ) :   1.0060 B(  4-C , 12-H ) :   0.9235
B(  5-C ,  6-O ) :   0.9949 B(  5-C , 13-H ) :   0.9311 B(  5-C , 14-H ) :   0.9419

FINAL SINGLE POINT ENERGY      -345.041847758326

DIPOLE MOMENT
-------------
                                X             Y             Z
Electronic contribution:      3.55502       0.41040      -2.31840
Nuclear contribution   :     -3.85689      -0.08179       3.01443
                        -----------------------------------------
Total Dipole Moment    :     -0.30187       0.32861       0.69604
                        -----------------------------------------
Magnitude (a.u.)       :      0.82679
Magnitude (Debye)      :      2.10153

                             ****ORCA TERMINATED NORMALLY****
TOTAL RUN TIME: 0 days 0 hours 0 minutes 6 seconds 660 msec
