                         Program Version 3.0.3 - RELEASE   -
|  1> ! RI PBE def2-SVP def2-SVP/J NBO PAL2
|  2> % maxcore 2000
|  3> % output
|  4>     # printlevel mini
|  5>     print[ P_Basis ] 0
|  6>     print[ P_SCFInfo ] 1
|  7>     print[ P_SCFIterInfo ] 1
|  8>     print[ P_OrbEn ] 0
|  9>     print[ P_Cartesian ] 0
| 10> end
| 11> *xyz 0 1
| 12>  C        1.7445280000     0.2995270000     1.5723110000
| 13>  O        3.0439810000     0.7166380000     1.2532530000
| 14>  C        3.1736780000     1.2929520000    -0.0285810000
| 15>  C        2.5236810000     2.6611590000    -0.1367110000
| 16>  C        4.6521280000     1.3791860000    -0.2927380000
| 17>  C        5.3611930000     0.3396470000    -1.0240720000
| 18>  O        5.0236140000     1.5725970000    -1.6458320000
| 19>  H        1.8019820000    -0.2318200000     2.5226340000
| 20>  H        1.3443360000    -0.3830920000     0.8094430000
| 21>  H        1.0491460000     1.1399820000     1.6858070000
| 22>  H        2.7343520000     0.6207190000    -0.7833370000
| 23>  H        2.9186810000     3.3291630000     0.6329250000
| 24>  H        1.4395180000     2.6062520000    -0.0247210000
| 25>  H        2.7380490000     3.0911140000    -1.1171920000
| 26>  H        5.2088880000     1.9822310000     0.4244550000
| 27>  H        4.8092990000    -0.5261240000    -1.3821600000
| 28>  H        6.4224660000     0.1845800000    -0.8490820000
| 29> *
| 30>
| 31>                          ****END OF INPUT****
 Total Charge           Charge          ....    0
 Multiplicity           Mult            ....    1
 Number of Electrons    NEL             ....   56
 Basis Dimension        Dim             ....  148

MULLIKEN ATOMIC CHARGES
-----------------------
   0 C :    0.151813
   1 O :   -0.344268
   2 C :    0.148568
   3 C :   -0.004349
   4 C :    0.011093
   5 C :    0.147468
   6 O :   -0.291357
   7 H :    0.031733
   8 H :    0.004013
   9 H :    0.009395
  10 H :   -0.026061
  11 H :    0.024097
  12 H :    0.027814
  13 H :    0.036181
  14 H :    0.018991
  15 H :    0.023896
  16 H :    0.030974
Sum of atomic charges:   -0.0000000

LOEWDIN ATOMIC CHARGES
----------------------
   0 C :    0.050214
   1 O :   -0.145198
   2 C :    0.036847
   3 C :   -0.074984
   4 C :    0.039302
   5 C :    0.060120
   6 O :   -0.154610
   7 H :    0.024479
   8 H :    0.005711
   9 H :    0.004739
  10 H :    0.008921
  11 H :    0.030064
  12 H :    0.026751
  13 H :    0.037961
  14 H :    0.017306
  15 H :    0.014865
  16 H :    0.017512

  Mayer bond orders larger than 0.1
B(  0-C ,  1-O ) :   1.0170 B(  0-C ,  7-H ) :   0.9752 B(  0-C ,  8-H ) :   0.9529
B(  0-C ,  9-H ) :   0.9565 B(  1-O ,  2-C ) :   1.0162 B(  2-C ,  3-C ) :   1.0723
B(  2-C ,  4-C ) :   1.0028 B(  2-C , 10-H ) :   0.8904 B(  3-C , 11-H ) :   0.9490
B(  3-C , 12-H ) :   0.9515 B(  3-C , 13-H ) :   0.9500 B(  4-C ,  5-C ) :   1.1002
B(  4-C ,  6-O ) :   0.9709 B(  4-C , 14-H ) :   0.9323 B(  5-C ,  6-O ) :   1.0032
B(  5-C , 15-H ) :   0.9247 B(  5-C , 16-H ) :   0.9377

FINAL SINGLE POINT ENERGY      -346.251680622858

DIPOLE MOMENT
-------------
                                X             Y             Z
Electronic contribution:      4.91458      -0.35044      -1.80191
Nuclear contribution   :     -5.34051       0.03406       2.09504
                        -----------------------------------------
Total Dipole Moment    :     -0.42593      -0.31638       0.29314
                        -----------------------------------------
Magnitude (a.u.)       :      0.60617
Magnitude (Debye)      :      1.54075

                             ****ORCA TERMINATED NORMALLY****
TOTAL RUN TIME: 0 days 0 hours 0 minutes 7 seconds 453 msec
