                         Program Version 3.0.3 - RELEASE   -
|  1> ! RI PBE def2-SVP def2-SVP/J NBO PAL2
|  2> % maxcore 2000
|  3> % output
|  4>     # printlevel mini
|  5>     print[ P_Basis ] 0
|  6>     print[ P_SCFInfo ] 1
|  7>     print[ P_SCFIterInfo ] 1
|  8>     print[ P_OrbEn ] 0
|  9>     print[ P_Cartesian ] 0
| 10> end
| 11> *xyz 0 1
| 12>  C        2.4165040000     0.8382680000    -0.2074420000
| 13>  O        3.7424850000     0.3725440000    -0.0961520000
| 14>  C        3.8969240000    -0.7508530000     0.6315750000
| 15>  C        5.0888810000    -1.3298890000     0.8397340000
| 16>  C        6.3534700000    -0.7695290000     0.2755290000
| 17>  C        5.1233300000    -2.5374040000     1.6415410000
| 18>  C        6.2135250000    -3.2430420000     1.9495220000
| 19>  H        2.4475020000     1.7407430000    -0.8158530000
| 20>  H        1.9983520000     1.0826360000     0.7752220000
| 21>  H        1.7758670000     0.0971670000    -0.6979040000
| 22>  H        2.9859960000    -1.1742270000     1.0511870000
| 23>  H        6.1618710000     0.1346950000    -0.2999510000
| 24>  H        6.8440360000    -1.4976140000    -0.3778360000
| 25>  H        7.0618620000    -0.5275750000     1.0738320000
| 26>  H        4.1608240000    -2.8817400000     2.0160820000
| 27>  H        7.2015060000    -2.9548790000     1.6086760000
| 28>  H        6.1464660000    -4.1368920000     2.5569380000
| 29> *
| 30>
| 31>                          ****END OF INPUT****
 Total Charge           Charge          ....    0
 Multiplicity           Mult            ....    1
 Number of Electrons    NEL             ....   54
 Basis Dimension        Dim             ....  148

MULLIKEN ATOMIC CHARGES
-----------------------
   0 C :    0.141674
   1 O :   -0.259554
   2 C :    0.072989
   3 C :   -0.120317
   4 C :    0.067704
   5 C :   -0.001431
   6 C :   -0.058664
   7 H :    0.042136
   8 H :    0.025499
   9 H :    0.028867
  10 H :   -0.019405
  11 H :    0.019719
  12 H :    0.031585
  13 H :    0.032736
  14 H :   -0.028841
  15 H :    0.006848
  16 H :    0.018456
Sum of atomic charges:   -0.0000000

LOEWDIN ATOMIC CHARGES
----------------------
   0 C :    0.060484
   1 O :   -0.068035
   2 C :    0.026328
   3 C :   -0.086346
   4 C :   -0.055579
   5 C :   -0.029311
   6 C :   -0.087343
   7 H :    0.029142
   8 H :    0.015847
   9 H :    0.016305
  10 H :    0.010299
  11 H :    0.031336
  12 H :    0.036340
  13 H :    0.037024
  14 H :    0.023401
  15 H :    0.017784
  16 H :    0.022323

  Mayer bond orders larger than 0.1
B(  0-C ,  1-O ) :   0.9766 B(  0-C ,  7-H ) :   0.9765 B(  0-C ,  8-H ) :   0.9616
B(  0-C ,  9-H ) :   0.9626 B(  1-O ,  2-C ) :   1.1417 B(  2-C ,  3-C ) :   1.6724
B(  2-C ,  6-C ) :   0.1238 B(  2-C , 10-H ) :   0.9376 B(  3-C ,  4-C ) :   1.1210
B(  3-C ,  5-C ) :   1.1473 B(  4-C , 11-H ) :   0.9406 B(  4-C , 12-H ) :   0.9356
B(  4-C , 13-H ) :   0.9332 B(  5-C ,  6-C ) :   1.8798 B(  5-C , 14-H ) :   0.9523
B(  6-C , 15-H ) :   0.9354 B(  6-C , 16-H ) :   0.9416

FINAL SINGLE POINT ENERGY      -309.201984205888

DIPOLE MOMENT
-------------
                                X             Y             Z
Electronic contribution:     -1.02123       0.51822      -0.19835
Nuclear contribution   :      0.24448      -0.11994       0.04551
                        -----------------------------------------
Total Dipole Moment    :     -0.77674       0.39828      -0.15284
                        -----------------------------------------
Magnitude (a.u.)       :      0.88618
Magnitude (Debye)      :      2.25250

                             ****ORCA TERMINATED NORMALLY****
TOTAL RUN TIME: 0 days 0 hours 0 minutes 8 seconds 236 msec
