                         Program Version 3.0.3 - RELEASE   -
|  1> ! RI PBE def2-SVP def2-SVP/J NBO PAL2
|  2> % maxcore 2000
|  3> % output
|  4>     # printlevel mini
|  5>     print[ P_Basis ] 0
|  6>     print[ P_SCFInfo ] 1
|  7>     print[ P_SCFIterInfo ] 1
|  8>     print[ P_OrbEn ] 0
|  9>     print[ P_Cartesian ] 0
| 10> end
| 11> *xyz 0 1
| 12>  C        0.8667240000    -0.6354070000    -0.2663190000
| 13>  O        2.2445770000    -0.3761390000    -0.0993440000
| 14>  C        2.9877220000    -0.4944870000    -1.2131940000
| 15>  C        4.3118910000    -0.2815550000    -1.2184340000
| 16>  C        5.0857490000     0.1057400000     0.0064160000
| 17>  C        5.0172870000    -0.4290960000    -2.4406080000
| 18>  C        5.6625780000    -0.5412300000    -3.4519350000
| 19>  H        0.4009290000    -0.5025620000     0.7085880000
| 20>  H        0.6969000000    -1.6613160000    -0.6093630000
| 21>  H        0.4169110000     0.0644070000    -0.9783180000
| 22>  H        2.4603140000    -0.7742060000    -2.1216690000
| 23>  H        4.4286900000     0.1836360000     0.8715070000
| 24>  H        5.5860060000     1.0661790000    -0.1427550000
| 25>  H        5.8622910000    -0.6333630000     0.2200500000
| 26>  H        6.2230100000    -0.6428920000    -4.3504040000
| 27> *
| 28>
| 29>                          ****END OF INPUT****
 Total Charge           Charge          ....    0
 Multiplicity           Mult            ....    1
 Number of Electrons    NEL             ....   52
 Basis Dimension        Dim             ....  138

MULLIKEN ATOMIC CHARGES
-----------------------
   0 C :    0.143407
   1 O :   -0.261416
   2 C :    0.115193
   3 C :   -0.193152
   4 C :    0.089946
   5 C :    0.390741
   6 C :   -0.465219
   7 H :    0.043035
   8 H :    0.027238
   9 H :    0.030982
  10 H :   -0.005697
  11 H :    0.020703
  12 H :    0.033202
  13 H :    0.035434
  14 H :   -0.004395
Sum of atomic charges:   -0.0000000

LOEWDIN ATOMIC CHARGES
----------------------
   0 C :    0.063249
   1 O :   -0.066204
   2 C :    0.041856
   3 C :   -0.107926
   4 C :   -0.044619
   5 C :   -0.014545
   6 C :   -0.096517
   7 H :    0.029799
   8 H :    0.017144
   9 H :    0.017800
  10 H :    0.018202
  11 H :    0.031443
  12 H :    0.039250
  13 H :    0.039147
  14 H :    0.031921

  Mayer bond orders larger than 0.1
B(  0-C ,  1-O ) :   0.9701 B(  0-C ,  7-H ) :   0.9769 B(  0-C ,  8-H ) :   0.9629
B(  0-C ,  9-H ) :   0.9636 B(  1-O ,  2-C ) :   1.1544 B(  2-C ,  3-C ) :   1.7006
B(  2-C ,  6-C ) :   0.1102 B(  2-C , 10-H ) :   0.9379 B(  3-C ,  4-C ) :   1.0873
B(  3-C ,  5-C ) :   1.0500 B(  4-C , 11-H ) :   0.9424 B(  4-C , 12-H ) :   0.9454
B(  4-C , 13-H ) :   0.9473 B(  5-C ,  6-C ) :   2.2586 B(  5-C , 14-H ) :  -0.1041
B(  6-C , 14-H ) :   1.0948

FINAL SINGLE POINT ENERGY      -307.955722615907

DIPOLE MOMENT
-------------
                                X             Y             Z
Electronic contribution:      1.99672      -0.21868      -2.53981
Nuclear contribution   :     -2.85635       0.11170       2.68699
                        -----------------------------------------
Total Dipole Moment    :     -0.85963      -0.10697       0.14719
                        -----------------------------------------
Magnitude (a.u.)       :      0.87868
Magnitude (Debye)      :      2.23342

                             ****ORCA TERMINATED NORMALLY****
TOTAL RUN TIME: 0 days 0 hours 0 minutes 7 seconds 19 msec
