                         Program Version 3.0.3 - RELEASE   -
|  1> ! RI PBE def2-SVP def2-SVP/J NBO PAL2
|  2> % maxcore 2000
|  3> % output
|  4>     # printlevel mini
|  5>     print[ P_Basis ] 0
|  6>     print[ P_SCFInfo ] 1
|  7>     print[ P_SCFIterInfo ] 1
|  8>     print[ P_OrbEn ] 0
|  9>     print[ P_Cartesian ] 0
| 10> end
| 11> *xyz 0 1
| 12>  C        3.3124770000    -0.7702230000     1.1722760000
| 13>  O        2.4825880000    -0.3055190000     0.1342840000
| 14>  C        3.0188400000    -0.2566100000    -1.0963270000
| 15>  C        4.2584140000    -0.5968570000    -1.4726000000
| 16>  C        4.6958440000    -0.4891160000    -2.8458700000
| 17>  C        5.9137730000    -0.8097780000    -3.2898830000
| 18>  C        6.3620650000    -0.6979460000    -4.7049460000
| 19>  H        2.7162120000    -0.7405130000     2.0825240000
| 20>  H        4.1928690000    -0.1289830000     1.2896360000
| 21>  H        3.6417990000    -1.7977540000     0.9831220000
| 22>  H        2.2928380000     0.1147190000    -1.8127990000
| 23>  H        4.9758450000    -0.9669020000    -0.7476840000
| 24>  H        3.9627420000    -0.1157490000    -3.5606760000
| 25>  H        6.6455520000    -1.1828060000    -2.5745520000
| 26>  H        5.5649120000    -0.3168400000    -5.3467840000
| 27>  H        6.6807520000    -1.6683080000    -5.1010250000
| 28>  H        7.2227700000    -0.0269240000    -4.7995950000
| 29> *
| 30>
| 31>                          ****END OF INPUT****
 Total Charge           Charge          ....    0
 Multiplicity           Mult            ....    1
 Number of Electrons    NEL             ....   54
 Basis Dimension        Dim             ....  148

MULLIKEN ATOMIC CHARGES
-----------------------
   0 C :    0.129280
   1 O :   -0.255425
   2 C :    0.118848
   3 C :   -0.057184
   4 C :    0.019683
   5 C :   -0.125843
   6 C :    0.039563
   7 H :    0.040177
   8 H :    0.032025
   9 H :    0.031388
  10 H :    0.006708
  11 H :   -0.017344
  12 H :   -0.025160
  13 H :   -0.013589
  14 H :    0.015766
  15 H :    0.029191
  16 H :    0.031917
Sum of atomic charges:   -0.0000000

LOEWDIN ATOMIC CHARGES
----------------------
   0 C :    0.060607
   1 O :   -0.059994
   2 C :    0.027812
   3 C :   -0.114503
   4 C :   -0.042553
   5 C :   -0.056687
   6 C :   -0.067006
   7 H :    0.027950
   8 H :    0.017328
   9 H :    0.017540
  10 H :    0.022320
  11 H :    0.025824
  12 H :    0.023138
  13 H :    0.019095
  14 H :    0.029746
  15 H :    0.034455
  16 H :    0.034929

  Mayer bond orders larger than 0.1
B(  0-C ,  1-O ) :   0.9858 B(  0-C ,  7-H ) :   0.9725 B(  0-C ,  8-H ) :   0.9592
B(  0-C ,  9-H ) :   0.9583 B(  1-O ,  2-C ) :   1.1683 B(  2-C ,  3-C ) :   1.6468
B(  2-C ,  5-C ) :   0.1111 B(  2-C , 10-H ) :   0.9673 B(  3-C ,  4-C ) :   1.1361
B(  3-C , 11-H ) :   0.9565 B(  4-C ,  5-C ) :   1.8075 B(  4-C , 12-H ) :   0.9538
B(  5-C ,  6-C ) :   1.0921 B(  5-C , 13-H ) :   0.9526 B(  6-C , 14-H ) :   0.9579
B(  6-C , 15-H ) :   0.9447 B(  6-C , 16-H ) :   0.9453

FINAL SINGLE POINT ENERGY      -309.205507199147

DIPOLE MOMENT
-------------
                                X             Y             Z
Electronic contribution:     -4.65754       0.99080       2.97936
Nuclear contribution   :      4.85249      -1.12175      -2.61782
                        -----------------------------------------
Total Dipole Moment    :      0.19495      -0.13095       0.36154
                        -----------------------------------------
Magnitude (a.u.)       :      0.43112
Magnitude (Debye)      :      1.09583

                             ****ORCA TERMINATED NORMALLY****
TOTAL RUN TIME: 0 days 0 hours 0 minutes 7 seconds 307 msec
