                         Program Version 3.0.3 - RELEASE   -
|  1> ! RI PBE def2-SVP def2-SVP/J NBO PAL2
|  2> % maxcore 2000
|  3> % output
|  4>     # printlevel mini
|  5>     print[ P_Basis ] 0
|  6>     print[ P_SCFInfo ] 1
|  7>     print[ P_SCFIterInfo ] 1
|  8>     print[ P_OrbEn ] 0
|  9>     print[ P_Cartesian ] 0
| 10> end
| 11> *xyz 0 1
| 12>  C        3.8801860000    -0.4109980000    -1.5141380000
| 13>  O        3.4350920000     0.1446850000    -0.3019370000
| 14>  C        3.9669450000    -0.3668160000     0.8273870000
| 15>  C        4.8676920000    -1.3388950000     0.9505620000
| 16>  C        5.3758630000    -1.8128700000     2.2790440000
| 17>  C        5.0345230000    -3.2839560000     2.5053070000
| 18>  C        6.8806720000    -1.5859190000     2.4049380000
| 19>  H        3.3539240000     0.1140760000    -2.3097250000
| 20>  H        3.6494590000    -1.4811150000    -1.5668310000
| 21>  H        4.9606100000    -0.2751700000    -1.6382230000
| 22>  H        3.5526540000     0.1350360000     1.6967880000
| 23>  H        5.2742430000    -1.8328650000     0.0720930000
| 24>  H        4.8771370000    -1.2245270000     3.0592210000
| 25>  H        5.4987910000    -3.9105650000     1.7371940000
| 26>  H        3.9560740000    -3.4500540000     2.4641180000
| 27>  H        5.3993290000    -3.6271590000     3.4774690000
| 28>  H        7.4209910000    -2.1425580000     1.6326750000
| 29>  H        7.2495020000    -1.9254450000     3.3768720000
| 30>  H        7.1316140000    -0.5292760000     2.2914940000
| 31> *
| 32>
| 33>                          ****END OF INPUT****
 Total Charge           Charge          ....    0
 Multiplicity           Mult            ....    1
 Number of Electrons    NEL             ....   56
 Basis Dimension        Dim             ....  158

MULLIKEN ATOMIC CHARGES
-----------------------
   0 C :    0.135792
   1 O :   -0.269329
   2 C :    0.134561
   3 C :   -0.108963
   4 C :   -0.096852
   5 C :    0.028075
   6 C :    0.033744
   7 H :    0.033499
   8 H :    0.027240
   9 H :    0.026664
  10 H :   -0.002941
  11 H :   -0.011375
  12 H :   -0.002314
  13 H :    0.008488
  14 H :    0.019408
  15 H :    0.009721
  16 H :    0.007774
  17 H :    0.010089
  18 H :    0.016720
Sum of atomic charges:   -0.0000000

LOEWDIN ATOMIC CHARGES
----------------------
   0 C :    0.059604
   1 O :   -0.072468
   2 C :    0.019829
   3 C :   -0.113049
   4 C :   -0.041145
   5 C :   -0.056353
   6 C :   -0.055232
   7 H :    0.026041
   8 H :    0.014900
   9 H :    0.014673
  10 H :    0.019392
  11 H :    0.019655
  12 H :    0.026069
  13 H :    0.021886
  14 H :    0.025026
  15 H :    0.022463
  16 H :    0.021705
  17 H :    0.022433
  18 H :    0.024571

  Mayer bond orders larger than 0.1
B(  0-C ,  1-O ) :   0.9946 B(  0-C ,  7-H ) :   0.9717 B(  0-C ,  8-H ) :   0.9584
B(  0-C ,  9-H ) :   0.9584 B(  1-O ,  2-C ) :   1.1553 B(  2-C ,  3-C ) :   1.7677
B(  2-C , 10-H ) :   0.9678 B(  3-C ,  4-C ) :   1.0241 B(  3-C , 11-H ) :   0.9508
B(  4-C ,  5-C ) :   1.0682 B(  4-C ,  6-C ) :   1.0664 B(  4-C , 12-H ) :   0.9109
B(  5-C , 13-H ) :   0.9610 B(  5-C , 14-H ) :   0.9635 B(  5-C , 15-H ) :   0.9582
B(  6-C , 16-H ) :   0.9616 B(  6-C , 17-H ) :   0.9588 B(  6-C , 18-H ) :   0.9639

FINAL SINGLE POINT ENERGY      -310.414167572793

DIPOLE MOMENT
-------------
                                X             Y             Z
Electronic contribution:     -4.56347       4.81211      -2.53255
Nuclear contribution   :      4.70370      -4.98114       2.25199
                        -----------------------------------------
Total Dipole Moment    :      0.14023      -0.16902      -0.28056
                        -----------------------------------------
Magnitude (a.u.)       :      0.35630
Magnitude (Debye)      :      0.90564

                             ****ORCA TERMINATED NORMALLY****
TOTAL RUN TIME: 0 days 0 hours 0 minutes 8 seconds 350 msec
