                         Program Version 3.0.3 - RELEASE   -
|  1> ! RI PBE def2-SVP def2-SVP/J NBO PAL2
|  2> % maxcore 2000
|  3> % output
|  4>     # printlevel mini
|  5>     print[ P_Basis ] 0
|  6>     print[ P_SCFInfo ] 1
|  7>     print[ P_SCFIterInfo ] 1
|  8>     print[ P_OrbEn ] 0
|  9>     print[ P_Cartesian ] 0
| 10> end
| 11> *xyz 0 1
| 12>  C        4.4298860000     0.5744390000    -0.9653810000
| 13>  O        3.3574940000     0.0470380000    -0.2203990000
| 14>  C        3.3838650000     0.2343380000     1.1095430000
| 15>  C        4.3172990000     0.8702810000     1.8288430000
| 16>  C        4.2598370000     1.0238040000     3.2746940000
| 17>  C        3.0956590000     0.4428330000     4.0185620000
| 18>  C        5.2324560000     1.6735370000     3.9243770000
| 19>  H        4.2336040000     0.3255700000    -2.0067540000
| 20>  H        5.3819190000     0.1299590000    -0.6557120000
| 21>  H        4.4905510000     1.6624290000    -0.8539340000
| 22>  H        2.5095890000    -0.2151300000     1.5662720000
| 23>  H        5.1786900000     1.3076160000     1.3361810000
| 24>  H        3.0303640000    -0.6393460000     3.8696980000
| 25>  H        2.1504370000     0.8734580000     3.6741010000
| 26>  H        3.1861050000     0.6336930000     5.0878370000
| 27>  H        6.0793340000     2.0978350000     3.3961690000
| 28>  H        5.2073210000     1.7980480000     5.0004220000
| 29> *
| 30>
| 31>                          ****END OF INPUT****
 Total Charge           Charge          ....    0
 Multiplicity           Mult            ....    1
 Number of Electrons    NEL             ....   54
 Basis Dimension        Dim             ....  148

MULLIKEN ATOMIC CHARGES
-----------------------
   0 C :    0.129229
   1 O :   -0.256355
   2 C :    0.123091
   3 C :   -0.052568
   4 C :   -0.112763
   5 C :    0.060109
   6 C :   -0.063997
   7 H :    0.042166
   8 H :    0.030021
   9 H :    0.034657
  10 H :    0.003268
  11 H :   -0.027641
  12 H :    0.035627
  13 H :    0.029502
  14 H :    0.016401
  15 H :    0.002066
  16 H :    0.007186
Sum of atomic charges:   -0.0000000

LOEWDIN ATOMIC CHARGES
----------------------
   0 C :    0.060474
   1 O :   -0.058763
   2 C :    0.030742
   3 C :   -0.113152
   4 C :   -0.027631
   5 C :   -0.057494
   6 C :   -0.083091
   7 H :    0.028389
   8 H :    0.017781
   9 H :    0.018247
  10 H :    0.020989
  11 H :    0.026090
  12 H :    0.035452
  13 H :    0.034421
  14 H :    0.032537
  15 H :    0.016836
  16 H :    0.018175

  Mayer bond orders larger than 0.1
B(  0-C ,  1-O ) :   0.9835 B(  0-C ,  7-H ) :   0.9722 B(  0-C ,  8-H ) :   0.9588
B(  0-C ,  9-H ) :   0.9597 B(  1-O ,  2-C ) :   1.1708 B(  2-C ,  3-C ) :   1.6433
B(  2-C ,  6-C ) :   0.1134 B(  2-C , 10-H ) :   0.9551 B(  3-C ,  4-C ) :   1.1251
B(  3-C , 11-H ) :   0.9558 B(  4-C ,  5-C ) :   1.1065 B(  4-C ,  6-C ) :   1.8811
B(  5-C , 12-H ) :   0.9335 B(  5-C , 13-H ) :   0.9326 B(  5-C , 14-H ) :   0.9460
B(  6-C , 15-H ) :   0.9390 B(  6-C , 16-H ) :   0.9319

FINAL SINGLE POINT ENERGY      -309.203320241787

DIPOLE MOMENT
-------------
                                X             Y             Z
Electronic contribution:     -1.24726      -1.07965      -2.74096
Nuclear contribution   :      1.36652       1.09834       2.34781
                        -----------------------------------------
Total Dipole Moment    :      0.11926       0.01869      -0.39315
                        -----------------------------------------
Magnitude (a.u.)       :      0.41126
Magnitude (Debye)      :      1.04534

                             ****ORCA TERMINATED NORMALLY****
TOTAL RUN TIME: 0 days 0 hours 0 minutes 7 seconds 544 msec
