                         Program Version 3.0.3 - RELEASE   -
|  1> ! RI PBE def2-SVP def2-SVP/J NBO PAL2
|  2> % maxcore 2000
|  3> % output
|  4>     # printlevel mini
|  5>     print[ P_Basis ] 0
|  6>     print[ P_SCFInfo ] 1
|  7>     print[ P_SCFIterInfo ] 1
|  8>     print[ P_OrbEn ] 0
|  9>     print[ P_Cartesian ] 0
| 10> end
| 11> *xyz 0 1
| 12>  C        1.0949430000     0.4729920000    -0.2678640000
| 13>  O        2.4826640000     0.2243880000    -0.2074730000
| 14>  C        3.1314700000     0.8300870000     0.8010130000
| 15>  C        4.4468090000     0.6757890000     0.9860320000
| 16>  C        5.1516090000     1.3037800000     2.0372200000
| 17>  C        5.7881630000     1.8220790000     2.9214330000
| 18>  C        6.5484000000     2.4473150000     3.9857280000
| 19>  H        0.7144290000    -0.0729870000    -1.1294120000
| 20>  H        0.8893800000     1.5405640000    -0.4001660000
| 21>  H        0.5890730000     0.1158290000     0.6354570000
| 22>  H        2.5314980000     1.4544400000     1.4598460000
| 23>  H        4.9991810000     0.0406780000     0.2991180000
| 24>  H        6.3815770000     3.5277790000     4.0103690000
| 25>  H        7.6198400000     2.2796170000     3.8480630000
| 26>  H        6.2712820000     2.0437420000     4.9637270000
| 27> *
| 28>
| 29>                          ****END OF INPUT****
 Total Charge           Charge          ....    0
 Multiplicity           Mult            ....    1
 Number of Electrons    NEL             ....   52
 Basis Dimension        Dim             ....  138

MULLIKEN ATOMIC CHARGES
-----------------------
   0 C :    0.136270
   1 O :   -0.260541
   2 C :    0.114743
   3 C :   -0.088927
   4 C :   -0.030763
   5 C :   -0.178494
   6 C :    0.046063
   7 H :    0.042811
   8 H :    0.027905
   9 H :    0.029926
  10 H :   -0.002486
  11 H :    0.023268
  12 H :    0.048346
  13 H :    0.050131
  14 H :    0.041748
Sum of atomic charges:   -0.0000000

LOEWDIN ATOMIC CHARGES
----------------------
   0 C :    0.061557
   1 O :   -0.067342
   2 C :    0.045290
   3 C :   -0.104713
   4 C :   -0.064469
   5 C :   -0.069255
   6 C :   -0.070536
   7 H :    0.029811
   8 H :    0.016436
   9 H :    0.016901
  10 H :    0.015456
  11 H :    0.043220
  12 H :    0.049000
  13 H :    0.051039
  14 H :    0.047606

  Mayer bond orders larger than 0.1
B(  0-C ,  1-O ) :   0.9741 B(  0-C ,  7-H ) :   0.9773 B(  0-C ,  8-H ) :   0.9632
B(  0-C ,  9-H ) :   0.9634 B(  1-O ,  2-C ) :   1.1478 B(  2-C ,  3-C ) :   1.7185
B(  2-C ,  5-C ) :   0.1109 B(  2-C , 10-H ) :   0.9499 B(  3-C ,  4-C ) :   1.0524
B(  3-C , 11-H ) :   0.9478 B(  4-C ,  5-C ) :   2.4457 B(  5-C ,  6-C ) :   1.1355
B(  6-C , 12-H ) :   0.9319 B(  6-C , 13-H ) :   0.9343 B(  6-C , 14-H ) :   0.9293

FINAL SINGLE POINT ENERGY      -307.963272044454

DIPOLE MOMENT
-------------
                                X             Y             Z
Electronic contribution:      1.16215      -1.79705      -2.09462
Nuclear contribution   :     -1.87608       2.01847       2.18631
                        -----------------------------------------
Total Dipole Moment    :     -0.71394       0.22142       0.09169
                        -----------------------------------------
Magnitude (a.u.)       :      0.75309
Magnitude (Debye)      :      1.91420

                             ****ORCA TERMINATED NORMALLY****
TOTAL RUN TIME: 0 days 0 hours 0 minutes 6 seconds 812 msec
