                         Program Version 3.0.3 - RELEASE   -
|  1> ! RI PBE def2-SVP def2-SVP/J NBO PAL2
|  2> % maxcore 2000
|  3> % output
|  4>     # printlevel mini
|  5>     print[ P_Basis ] 0
|  6>     print[ P_SCFInfo ] 1
|  7>     print[ P_SCFIterInfo ] 1
|  8>     print[ P_OrbEn ] 0
|  9>     print[ P_Cartesian ] 0
| 10> end
| 11> *xyz 0 1
| 12>  C        3.5325570000     1.0260870000    -0.7385630000
| 13>  O        2.6456400000     0.1581580000    -0.0754630000
| 14>  C        3.1908240000    -0.9095290000     0.5377960000
| 15>  C        4.4749730000    -1.2553780000     0.6073900000
| 16>  C        4.9356250000    -2.4898940000     1.3226290000
| 17>  C        5.6066050000    -3.4644410000     0.4034850000
| 18>  C        6.8611710000    -3.8769850000     0.5177080000
| 19>  H        2.9253980000     1.8181190000    -1.1736860000
| 20>  H        4.0767220000     0.5029060000    -1.5327830000
| 21>  H        4.2557410000     1.4611380000    -0.0396940000
| 22>  H        2.4170900000    -1.5071360000     1.0108910000
| 23>  H        5.2405290000    -0.6560180000     0.1265460000
| 24>  H        4.0704510000    -2.9719090000     1.7935550000
| 25>  H        5.6292040000    -2.2282100000     2.1300370000
| 26>  H        4.9966060000    -3.8299460000    -0.4206760000
| 27>  H        7.5003800000    -3.5265680000     1.3228270000
| 28>  H        7.2950050000    -4.5800040000    -0.1840080000
| 29> *
| 30>
| 31>                          ****END OF INPUT****
 Total Charge           Charge          ....    0
 Multiplicity           Mult            ....    1
 Number of Electrons    NEL             ....   54
 Basis Dimension        Dim             ....  148

MULLIKEN ATOMIC CHARGES
-----------------------
   0 C :    0.132686
   1 O :   -0.265055
   2 C :    0.135694
   3 C :   -0.166559
   4 C :    0.124051
   5 C :   -0.086944
   6 C :   -0.039219
   7 H :    0.037008
   8 H :    0.027268
   9 H :    0.029743
  10 H :    0.001572
  11 H :    0.002907
  12 H :    0.012515
  13 H :    0.011561
  14 H :    0.003427
  15 H :    0.015261
  16 H :    0.024086
Sum of atomic charges:   -0.0000000

LOEWDIN ATOMIC CHARGES
----------------------
   0 C :    0.060674
   1 O :   -0.068755
   2 C :    0.020653
   3 C :   -0.121208
   4 C :   -0.033068
   5 C :   -0.026954
   6 C :   -0.071733
   7 H :    0.026832
   8 H :    0.015609
   9 H :    0.016141
  10 H :    0.020185
  11 H :    0.023360
  12 H :    0.036479
  13 H :    0.032709
  14 H :    0.024858
  15 H :    0.020244
  16 H :    0.023975

  Mayer bond orders larger than 0.1
B(  0-C ,  1-O ) :   0.9901 B(  0-C ,  7-H ) :   0.9726 B(  0-C ,  8-H ) :   0.9584
B(  0-C ,  9-H ) :   0.9589 B(  1-O ,  2-C ) :   1.1614 B(  2-C ,  3-C ) :   1.7626
B(  2-C , 10-H ) :   0.9662 B(  3-C ,  4-C ) :   1.0415 B(  3-C , 11-H ) :   0.9562
B(  4-C ,  5-C ) :   1.0481 B(  4-C , 12-H ) :   0.9107 B(  4-C , 13-H ) :   0.9115
B(  5-C ,  6-C ) :   2.0057 B(  5-C , 14-H ) :   0.9569 B(  6-C , 15-H ) :   0.9461
B(  6-C , 16-H ) :   0.9458

FINAL SINGLE POINT ENERGY      -309.189489891835

DIPOLE MOMENT
-------------
                                X             Y             Z
Electronic contribution:     -3.69437       0.99707       0.22926
Nuclear contribution   :      3.83876      -0.68550      -0.38062
                        -----------------------------------------
Total Dipole Moment    :      0.14439       0.31157      -0.15136
                        -----------------------------------------
Magnitude (a.u.)       :      0.37528
Magnitude (Debye)      :      0.95389

                             ****ORCA TERMINATED NORMALLY****
TOTAL RUN TIME: 0 days 0 hours 0 minutes 7 seconds 666 msec
