                         Program Version 3.0.3 - RELEASE   -
|  1> ! RI PBE def2-SVP def2-SVP/J NBO PAL2
|  2> % maxcore 2000
|  3> % output
|  4>     # printlevel mini
|  5>     print[ P_Basis ] 0
|  6>     print[ P_SCFInfo ] 1
|  7>     print[ P_SCFIterInfo ] 1
|  8>     print[ P_OrbEn ] 0
|  9>     print[ P_Cartesian ] 0
| 10> end
| 11> *xyz 0 1
| 12>  C        3.4127700000     0.2248430000     1.2784240000
| 13>  O        2.6072190000     0.2086540000     0.1238410000
| 14>  C        3.2221460000     0.4638770000    -1.0442650000
| 15>  C        4.5065590000     0.7412390000    -1.2539080000
| 16>  C        5.0392390000     1.0125710000    -2.6312860000
| 17>  C        6.0990720000     0.0925040000    -3.0255180000
| 18>  C        6.9778540000    -0.6646260000    -3.3348320000
| 19>  H        2.7573240000    -0.0027040000     2.1172020000
| 20>  H        3.8688930000     1.2100110000     1.4266260000
| 21>  H        4.2048130000    -0.5293430000     1.2166770000
| 22>  H        2.5108090000     0.4181790000    -1.8635930000
| 23>  H        5.2201910000     0.7731030000    -0.4394050000
| 24>  H        5.4338800000     2.0346530000    -2.6916110000
| 25>  H        4.2256570000     0.9572210000    -3.3622330000
| 26>  H        7.7534740000    -1.3381910000    -3.6123310000
| 27> *
| 28>
| 29>                          ****END OF INPUT****
 Total Charge           Charge          ....    0
 Multiplicity           Mult            ....    1
 Number of Electrons    NEL             ....   52
 Basis Dimension        Dim             ....  138

MULLIKEN ATOMIC CHARGES
-----------------------
   0 C :    0.129079
   1 O :   -0.264111
   2 C :    0.132158
   3 C :   -0.146777
   4 C :    0.126848
   5 C :    0.307906
   6 C :   -0.475396
   7 H :    0.038734
   8 H :    0.027473
   9 H :    0.035934
  10 H :    0.006240
  11 H :    0.008320
  12 H :    0.042922
  13 H :    0.035100
  14 H :   -0.004431
Sum of atomic charges:   -0.0000000

LOEWDIN ATOMIC CHARGES
----------------------
   0 C :    0.061386
   1 O :   -0.066234
   2 C :    0.024690
   3 C :   -0.114452
   4 C :   -0.038980
   5 C :   -0.020156
   6 C :   -0.093719
   7 H :    0.027779
   8 H :    0.015961
   9 H :    0.018301
  10 H :    0.021990
  11 H :    0.025976
  12 H :    0.053027
  13 H :    0.051620
  14 H :    0.032813

  Mayer bond orders larger than 0.1
B(  0-C ,  1-O ) :   0.9872 B(  0-C ,  7-H ) :   0.9725 B(  0-C ,  8-H ) :   0.9585
B(  0-C ,  9-H ) :   0.9598 B(  1-O ,  2-C ) :   1.1702 B(  1-O ,  3-C ) :   0.1018
B(  2-C ,  3-C ) :   1.7674 B(  2-C , 10-H ) :   0.9681 B(  3-C ,  4-C ) :   1.0434
B(  3-C , 11-H ) :   0.9581 B(  4-C ,  5-C ) :   1.0450 B(  4-C , 12-H ) :   0.8904
B(  4-C , 13-H ) :   0.8981 B(  5-C ,  6-C ) :   2.3779 B(  5-C , 14-H ) :  -0.1092
B(  6-C , 14-H ) :   1.1005

FINAL SINGLE POINT ENERGY      -307.944928242999

DIPOLE MOMENT
-------------
                                X             Y             Z
Electronic contribution:     -0.18819      -0.83873      -2.61935
Nuclear contribution   :      0.19824       1.01178       3.05922
                        -----------------------------------------
Total Dipole Moment    :      0.01005       0.17304       0.43986
                        -----------------------------------------
Magnitude (a.u.)       :      0.47278
Magnitude (Debye)      :      1.20172

                             ****ORCA TERMINATED NORMALLY****
TOTAL RUN TIME: 0 days 0 hours 0 minutes 6 seconds 891 msec
