                         Program Version 3.0.3 - RELEASE   -
|  1> ! RI PBE def2-SVP def2-SVP/J NBO PAL2
|  2> % maxcore 2000
|  3> % output
|  4>     # printlevel mini
|  5>     print[ P_Basis ] 0
|  6>     print[ P_SCFInfo ] 1
|  7>     print[ P_SCFIterInfo ] 1
|  8>     print[ P_OrbEn ] 0
|  9>     print[ P_Cartesian ] 0
| 10> end
| 11> *xyz 0 1
| 12>  C        1.0580450000     0.2819770000     0.1176470000
| 13>  O        2.4575030000     0.2194410000     0.2268290000
| 14>  C        2.9692390000    -0.3142380000     1.3579970000
| 15>  C        2.2432820000    -0.7871430000     2.3810530000
| 16>  C        4.4270470000    -0.3329490000     1.3723900000
| 17>  C        5.2081350000     0.1191180000     0.3928690000
| 18>  C        6.6950610000     0.0940920000     0.4202580000
| 19>  H        0.8440970000     0.7360140000    -0.8487540000
| 20>  H        0.6245990000     0.8978550000     0.9132330000
| 21>  H        0.6114010000    -0.7175640000     0.1571960000
| 22>  H        1.1634590000    -0.7857160000     2.3969690000
| 23>  H        2.7559720000    -1.1939140000     3.2410780000
| 24>  H        4.8707880000    -0.7562920000     2.2690610000
| 25>  H        4.7362270000     0.5371890000    -0.4920380000
| 26>  H        7.0756830000    -0.3422250000     1.3457650000
| 27>  H        7.1065510000     1.1042740000     0.3230300000
| 28>  H        7.0935120000    -0.4838100000    -0.4202850000
| 29> *
| 30>
| 31>                          ****END OF INPUT****
 Total Charge           Charge          ....    0
 Multiplicity           Mult            ....    1
 Number of Electrons    NEL             ....   54
 Basis Dimension        Dim             ....  148

MULLIKEN ATOMIC CHARGES
-----------------------
   0 C :    0.140205
   1 O :   -0.269203
   2 C :    0.129121
   3 C :   -0.124077
   4 C :   -0.018157
   5 C :   -0.085775
   6 C :    0.042788
   7 H :    0.033576
   8 H :    0.029693
   9 H :    0.027894
  10 H :    0.013708
  11 H :    0.010058
  12 H :   -0.019816
  13 H :    0.003808
  14 H :    0.017865
  15 H :    0.033244
  16 H :    0.035068
Sum of atomic charges:    0.0000000

LOEWDIN ATOMIC CHARGES
----------------------
   0 C :    0.062511
   1 O :   -0.065330
   2 C :    0.026949
   3 C :   -0.145293
   4 C :   -0.057823
   5 C :   -0.024080
   6 C :   -0.063577
   7 H :    0.026079
   8 H :    0.016083
   9 H :    0.015872
  10 H :    0.020227
  11 H :    0.027814
  12 H :    0.029018
  13 H :    0.025016
  14 H :    0.030142
  15 H :    0.037987
  16 H :    0.038404

  Mayer bond orders larger than 0.1
B(  0-C ,  1-O ) :   0.9840 B(  0-C ,  7-H ) :   0.9727 B(  0-C ,  8-H ) :   0.9588
B(  0-C ,  9-H ) :   0.9582 B(  1-O ,  2-C ) :   1.1702 B(  2-C ,  3-C ) :   1.7602
B(  2-C ,  4-C ) :   1.1071 B(  3-C ,  5-C ) :   0.1236 B(  3-C , 10-H ) :   0.9369
B(  3-C , 11-H ) :   0.9242 B(  4-C ,  5-C ) :   1.8207 B(  4-C , 12-H ) :   0.9484
B(  5-C ,  6-C ) :   1.0847 B(  5-C , 13-H ) :   0.9459 B(  6-C , 14-H ) :   0.9607
B(  6-C , 15-H ) :   0.9446 B(  6-C , 16-H ) :   0.9448

FINAL SINGLE POINT ENERGY      -309.205306387608

DIPOLE MOMENT
-------------
                                X             Y             Z
Electronic contribution:     -1.51403       0.17315      -0.33903
Nuclear contribution   :      1.32486      -0.09811       0.18609
                        -----------------------------------------
Total Dipole Moment    :     -0.18917       0.07503      -0.15294
                        -----------------------------------------
Magnitude (a.u.)       :      0.25457
Magnitude (Debye)      :      0.64706

                             ****ORCA TERMINATED NORMALLY****
TOTAL RUN TIME: 0 days 0 hours 0 minutes 6 seconds 989 msec
