                         Program Version 3.0.3 - RELEASE   -
|  1> ! RI PBE def2-SVP def2-SVP/J NBO PAL2
|  2> % maxcore 2000
|  3> % output
|  4>     # printlevel mini
|  5>     print[ P_Basis ] 0
|  6>     print[ P_SCFInfo ] 1
|  7>     print[ P_SCFIterInfo ] 1
|  8>     print[ P_OrbEn ] 0
|  9>     print[ P_Cartesian ] 0
| 10> end
| 11> *xyz 0 1
| 12>  C        3.2635370000    -1.0340370000    -4.1507370000
| 13>  O        4.2141790000    -0.6555900000    -3.1872790000
| 14>  C        3.7534680000    -0.1608680000    -2.0159710000
| 15>  C        2.4664270000    -0.0033300000    -1.7015640000
| 16>  C        4.8898120000     0.1951260000    -1.0975800000
| 17>  C        5.7169880000    -1.0366430000    -0.7379500000
| 18>  C        5.7666870000     1.2895090000    -1.7010900000
| 19>  H        3.8224490000    -1.4014780000    -5.0100950000
| 20>  H        2.6455560000    -0.1816950000    -4.4539260000
| 21>  H        2.6105780000    -1.8283740000    -3.7725960000
| 22>  H        1.6543750000    -0.2613640000    -2.3664790000
| 23>  H        2.2084410000     0.4028820000    -0.7336210000
| 24>  H        4.4317660000     0.5835790000    -0.1830470000
| 25>  H        6.1829850000    -1.4637050000    -1.6284000000
| 26>  H        5.0976260000    -1.8081740000    -0.2751010000
| 27>  H        6.5104520000    -0.7690410000    -0.0357640000
| 28>  H        6.2345520000     0.9450410000    -2.6256870000
| 29>  H        6.5602960000     1.5677500000    -1.0032160000
| 30>  H        5.1829060000     2.1843120000    -1.9283080000
| 31> *
| 32>
| 33>                          ****END OF INPUT****
 Total Charge           Charge          ....    0
 Multiplicity           Mult            ....    1
 Number of Electrons    NEL             ....   56
 Basis Dimension        Dim             ....  158

MULLIKEN ATOMIC CHARGES
-----------------------
   0 C :    0.135042
   1 O :   -0.272288
   2 C :    0.061507
   3 C :   -0.120698
   4 C :   -0.056321
   5 C :    0.010414
   6 C :    0.018127
   7 H :    0.034440
   8 H :    0.029902
   9 H :    0.029528
  10 H :    0.009684
  11 H :    0.010212
  12 H :   -0.009148
  13 H :    0.025396
  14 H :    0.019589
  15 H :    0.017767
  16 H :    0.022943
  17 H :    0.016912
  18 H :    0.016991
Sum of atomic charges:   -0.0000000

LOEWDIN ATOMIC CHARGES
----------------------
   0 C :    0.060751
   1 O :   -0.065163
   2 C :    0.034597
   3 C :   -0.164308
   4 C :   -0.045710
   5 C :   -0.055854
   6 C :   -0.054224
   7 H :    0.025815
   8 H :    0.016465
   9 H :    0.016108
  10 H :    0.018891
  11 H :    0.026732
  12 H :    0.030934
  13 H :    0.025855
  14 H :    0.027220
  15 H :    0.025039
  16 H :    0.025295
  17 H :    0.024846
  18 H :    0.026714

  Mayer bond orders larger than 0.1
B(  0-C ,  1-O ) :   0.9874 B(  0-C ,  7-H ) :   0.9722 B(  0-C ,  8-H ) :   0.9589
B(  0-C ,  9-H ) :   0.9591 B(  1-O ,  2-C ) :   1.1427 B(  2-C ,  3-C ) :   1.8457
B(  2-C ,  4-C ) :   1.0161 B(  3-C , 10-H ) :   0.9394 B(  3-C , 11-H ) :   0.9199
B(  4-C ,  5-C ) :   1.0721 B(  4-C ,  6-C ) :   1.0708 B(  4-C , 12-H ) :   0.8974
B(  5-C , 13-H ) :   0.9603 B(  5-C , 14-H ) :   0.9611 B(  5-C , 15-H ) :   0.9619
B(  6-C , 16-H ) :   0.9609 B(  6-C , 17-H ) :   0.9624 B(  6-C , 18-H ) :   0.9605

FINAL SINGLE POINT ENERGY      -310.418353329912

DIPOLE MOMENT
-------------
                                X             Y             Z
Electronic contribution:     -1.46768      -0.60811      -1.54769
Nuclear contribution   :      1.34804       0.51056       1.30245
                        -----------------------------------------
Total Dipole Moment    :     -0.11964      -0.09755      -0.24524
                        -----------------------------------------
Magnitude (a.u.)       :      0.28978
Magnitude (Debye)      :      0.73657

                             ****ORCA TERMINATED NORMALLY****
TOTAL RUN TIME: 0 days 0 hours 0 minutes 8 seconds 818 msec
