                         Program Version 3.0.3 - RELEASE   -
|  1> ! RI PBE def2-SVP def2-SVP/J NBO PAL2
|  2> % maxcore 2000
|  3> % output
|  4>     # printlevel mini
|  5>     print[ P_Basis ] 0
|  6>     print[ P_SCFInfo ] 1
|  7>     print[ P_SCFIterInfo ] 1
|  8>     print[ P_OrbEn ] 0
|  9>     print[ P_Cartesian ] 0
| 10> end
| 11> *xyz 0 1
| 12>  C        1.6893020000    -0.8548490000    -0.2074660000
| 13>  O        3.0484530000    -0.5014710000    -0.2675450000
| 14>  C        3.5018460000     0.0276720000    -1.4288210000
| 15>  C        2.7602870000     0.2285560000    -2.5225380000
| 16>  C        4.9313150000     0.3947530000    -1.3238060000
| 17>  C        5.3795430000     0.9847660000    -0.0225440000
| 18>  C        5.7621700000     0.1955850000    -2.3444340000
| 19>  H        1.5123100000    -1.2320560000     0.7985470000
| 20>  H        1.4497560000    -1.6363680000    -0.9366000000
| 21>  H        1.0474610000     0.0135280000    -0.3927000000
| 22>  H        1.7199380000    -0.0555310000    -2.5898590000
| 23>  H        3.2084060000     0.7064580000    -3.3809230000
| 24>  H        4.7943560000     1.8752830000     0.2252310000
| 25>  H        6.4339860000     1.2589120000    -0.0651920000
| 26>  H        5.2335450000     0.2749910000     0.7947760000
| 27>  H        5.4306150000    -0.2776300000    -3.2606190000
| 28>  H        6.8023220000     0.4955920000    -2.2833980000
| 29> *
| 30>
| 31>                          ****END OF INPUT****
 Total Charge           Charge          ....    0
 Multiplicity           Mult            ....    1
 Number of Electrons    NEL             ....   54
 Basis Dimension        Dim             ....  148

MULLIKEN ATOMIC CHARGES
-----------------------
   0 C :    0.139963
   1 O :   -0.272152
   2 C :    0.103295
   3 C :   -0.112254
   4 C :   -0.146433
   5 C :    0.078208
   6 C :   -0.019025
   7 H :    0.034131
   8 H :    0.028695
   9 H :    0.030753
  10 H :    0.012655
  11 H :    0.017765
  12 H :    0.027177
  13 H :    0.008833
  14 H :    0.042806
  15 H :    0.015119
  16 H :    0.010465
Sum of atomic charges:    0.0000000

LOEWDIN ATOMIC CHARGES
----------------------
   0 C :    0.061993
   1 O :   -0.066850
   2 C :    0.030149
   3 C :   -0.142946
   4 C :   -0.035930
   5 C :   -0.052928
   6 C :   -0.053617
   7 H :    0.026247
   8 H :    0.016208
   9 H :    0.017133
  10 H :    0.020360
  11 H :    0.029670
  12 H :    0.036968
  13 H :    0.029572
  14 H :    0.039861
  15 H :    0.022831
  16 H :    0.021278

  Mayer bond orders larger than 0.1
B(  0-C ,  1-O ) :   0.9844 B(  0-C ,  7-H ) :   0.9721 B(  0-C ,  8-H ) :   0.9601
B(  0-C ,  9-H ) :   0.9574 B(  1-O ,  2-C ) :   1.1564 B(  2-C ,  3-C ) :   1.8255
B(  2-C ,  4-C ) :   0.9975 B(  3-C , 10-H ) :   0.9343 B(  3-C , 11-H ) :   0.9224
B(  4-C ,  5-C ) :   1.0822 B(  4-C ,  6-C ) :   1.9770 B(  5-C , 12-H ) :   0.9438
B(  5-C , 13-H ) :   0.9462 B(  5-C , 14-H ) :   0.9379 B(  6-C , 15-H ) :   0.9326
B(  6-C , 16-H ) :   0.9287

FINAL SINGLE POINT ENERGY      -309.198614488541

DIPOLE MOMENT
-------------
                                X             Y             Z
Electronic contribution:      0.20508      -0.89222       0.09715
Nuclear contribution   :     -0.57714       0.83566       0.09780
                        -----------------------------------------
Total Dipole Moment    :     -0.37206      -0.05657       0.19495
                        -----------------------------------------
Magnitude (a.u.)       :      0.42384
Magnitude (Debye)      :      1.07731

                             ****ORCA TERMINATED NORMALLY****
TOTAL RUN TIME: 0 days 0 hours 0 minutes 7 seconds 680 msec
