                         Program Version 3.0.3 - RELEASE   -
|  1> ! RI PBE def2-SVP def2-SVP/J NBO PAL2
|  2> % maxcore 2000
|  3> % output
|  4>     # printlevel mini
|  5>     print[ P_Basis ] 0
|  6>     print[ P_SCFInfo ] 1
|  7>     print[ P_SCFIterInfo ] 1
|  8>     print[ P_OrbEn ] 0
|  9>     print[ P_Cartesian ] 0
| 10> end
| 11> *xyz 0 1
| 12>  C        2.9907720000     0.8181550000     0.8767100000
| 13>  O        2.2686660000     0.1034530000    -0.1025200000
| 14>  C        2.9635430000    -0.6276360000    -1.0144600000
| 15>  C        2.2936710000    -1.3419820000    -1.9238310000
| 16>  C        4.3891490000    -0.6011040000    -0.9692480000
| 17>  C        5.5935090000    -0.5831840000    -0.9357310000
| 18>  C        7.0414360000    -0.5699680000    -0.9064760000
| 19>  H        2.2426930000     1.3210840000     1.4880460000
| 20>  H        3.6520420000     1.5639130000     0.4263650000
| 21>  H        3.5846310000     0.1501680000     1.5073270000
| 22>  H        1.2115900000    -1.3419040000    -1.9317800000
| 23>  H        2.8319040000    -1.9221110000    -2.6576430000
| 24>  H        7.4483690000    -0.2088260000    -1.8546100000
| 25>  H        7.4384570000    -1.5731120000    -0.7301520000
| 26>  H        7.4101880000     0.0827260000    -0.1113860000
| 27> *
| 28>
| 29>                          ****END OF INPUT****
 Total Charge           Charge          ....    0
 Multiplicity           Mult            ....    1
 Number of Electrons    NEL             ....   52
 Basis Dimension        Dim             ....  138

MULLIKEN ATOMIC CHARGES
-----------------------
   0 C :    0.148922
   1 O :   -0.277446
   2 C :    0.075389
   3 C :   -0.049049
   4 C :   -0.052639
   5 C :   -0.191120
   6 C :    0.057013
   7 H :    0.036278
   8 H :    0.027933
   9 H :    0.028151
  10 H :    0.022867
  11 H :    0.016528
  12 H :    0.053443
  13 H :    0.052814
  14 H :    0.050916
Sum of atomic charges:   -0.0000000

LOEWDIN ATOMIC CHARGES
----------------------
   0 C :    0.061635
   1 O :   -0.077979
   2 C :    0.010426
   3 C :   -0.098450
   4 C :   -0.073717
   5 C :   -0.037501
   6 C :   -0.066048
   7 H :    0.026657
   8 H :    0.016415
   9 H :    0.016746
  10 H :    0.028433
  11 H :    0.031766
  12 H :    0.054241
  13 H :    0.053994
  14 H :    0.053380

  Mayer bond orders larger than 0.1
B(  0-C ,  1-O ) :   0.9764 B(  0-C ,  7-H ) :   0.9742 B(  0-C ,  8-H ) :   0.9628
B(  0-C ,  9-H ) :   0.9633 B(  1-O ,  2-C ) :   1.1479 B(  2-C ,  3-C ) :   1.8524
B(  2-C ,  4-C ) :   0.9142 B(  3-C ,  5-C ) :   0.1196 B(  3-C , 10-H ) :   0.9254
B(  3-C , 11-H ) :   0.9342 B(  4-C ,  5-C ) :   2.5028 B(  5-C ,  6-C ) :   1.1395
B(  6-C , 12-H ) :   0.9289 B(  6-C , 13-H ) :   0.9288 B(  6-C , 14-H ) :   0.9307

FINAL SINGLE POINT ENERGY      -307.958602587401

DIPOLE MOMENT
-------------
                                X             Y             Z
Electronic contribution:     -3.31755      -0.69753      -1.03524
Nuclear contribution   :      4.22856       0.94551       1.38535
                        -----------------------------------------
Total Dipole Moment    :      0.91101       0.24797       0.35011
                        -----------------------------------------
Magnitude (a.u.)       :      1.00698
Magnitude (Debye)      :      2.55954

                             ****ORCA TERMINATED NORMALLY****
TOTAL RUN TIME: 0 days 0 hours 0 minutes 7 seconds 63 msec
