                         Program Version 3.0.3 - RELEASE   -
|  1> ! RI PBE def2-SVP def2-SVP/J NBO PAL2
|  2> % maxcore 2000
|  3> % output
|  4>     # printlevel mini
|  5>     print[ P_Basis ] 0
|  6>     print[ P_SCFInfo ] 1
|  7>     print[ P_SCFIterInfo ] 1
|  8>     print[ P_OrbEn ] 0
|  9>     print[ P_Cartesian ] 0
| 10> end
| 11> *xyz 0 1
| 12>  C        1.5507440000    -0.1191950000    -0.1179060000
| 13>  O        2.8666060000    -0.2721130000     0.3561430000
| 14>  C        3.1031160000    -1.2898290000     1.2138250000
| 15>  C        2.1914740000    -2.1489940000     1.6693730000
| 16>  C        4.5537910000    -1.3258830000     1.5931400000
| 17>  C        5.4544650000    -1.6172050000     0.4322890000
| 18>  C        6.3467900000    -2.5959530000     0.4039140000
| 19>  H        1.5629690000     0.7332220000    -0.7952040000
| 20>  H        0.8552630000     0.0779280000     0.7049790000
| 21>  H        1.2201040000    -1.0126080000    -0.6582530000
| 22>  H        1.1485310000    -2.1111290000     1.3888220000
| 23>  H        2.4972910000    -2.9295850000     2.3511980000
| 24>  H        4.7020910000    -2.0650030000     2.3815460000
| 25>  H        4.8119080000    -0.3417290000     2.0058100000
| 26>  H        5.3456950000    -0.9617690000    -0.4278740000
| 27>  H        6.4781530000    -3.2702180000     1.2449330000
| 28>  H        6.9804090000    -2.7592470000    -0.4601360000
| 29> *
| 30>
| 31>                          ****END OF INPUT****
 Total Charge           Charge          ....    0
 Multiplicity           Mult            ....    1
 Number of Electrons    NEL             ....   54
 Basis Dimension        Dim             ....  148

MULLIKEN ATOMIC CHARGES
-----------------------
   0 C :    0.129054
   1 O :   -0.273653
   2 C :    0.013941
   3 C :   -0.106850
   4 C :    0.140098
   5 C :   -0.077742
   6 C :   -0.045278
   7 H :    0.038918
   8 H :    0.032169
   9 H :    0.031916
  10 H :    0.010896
  11 H :    0.012163
  12 H :    0.005215
  13 H :    0.032308
  14 H :    0.014496
  15 H :    0.016929
  16 H :    0.025420
Sum of atomic charges:   -0.0000000

LOEWDIN ATOMIC CHARGES
----------------------
   0 C :    0.060704
   1 O :   -0.070018
   2 C :    0.030789
   3 C :   -0.159185
   4 C :   -0.038455
   5 C :   -0.020642
   6 C :   -0.068701
   7 H :    0.027108
   8 H :    0.017054
   9 H :    0.017352
  10 H :    0.020358
  11 H :    0.028083
  12 H :    0.037257
  13 H :    0.045763
  14 H :    0.026743
  15 H :    0.020889
  16 H :    0.024903

  Mayer bond orders larger than 0.1
B(  0-C ,  1-O ) :   0.9839 B(  0-C ,  7-H ) :   0.9727 B(  0-C ,  8-H ) :   0.9598
B(  0-C ,  9-H ) :   0.9591 B(  1-O ,  2-C ) :   1.1463 B(  2-C ,  3-C ) :   1.8588
B(  2-C ,  4-C ) :   1.0293 B(  3-C , 10-H ) :   0.9387 B(  3-C , 11-H ) :   0.9198
B(  4-C ,  5-C ) :   1.0463 B(  4-C , 12-H ) :   0.9216 B(  4-C , 13-H ) :   0.8904
B(  5-C ,  6-C ) :   2.0215 B(  5-C , 14-H ) :   0.9547 B(  6-C , 15-H ) :   0.9463
B(  6-C , 16-H ) :   0.9468

FINAL SINGLE POINT ENERGY      -309.192597714640

DIPOLE MOMENT
-------------
                                X             Y             Z
Electronic contribution:      0.71219       1.61345      -0.11034
Nuclear contribution   :     -1.06245      -1.44818      -0.00284
                        -----------------------------------------
Total Dipole Moment    :     -0.35026       0.16527      -0.11318
                        -----------------------------------------
Magnitude (a.u.)       :      0.40349
Magnitude (Debye)      :      1.02559

                             ****ORCA TERMINATED NORMALLY****
TOTAL RUN TIME: 0 days 0 hours 0 minutes 7 seconds 664 msec
