                         Program Version 3.0.3 - RELEASE   -
|  1> ! RI PBE def2-SVP def2-SVP/J NBO PAL2
|  2> % maxcore 2000
|  3> % output
|  4>     # printlevel mini
|  5>     print[ P_Basis ] 0
|  6>     print[ P_SCFInfo ] 1
|  7>     print[ P_SCFIterInfo ] 1
|  8>     print[ P_OrbEn ] 0
|  9>     print[ P_Cartesian ] 0
| 10> end
| 11> *xyz 0 1
| 12>  C        1.5282490000    -0.3431330000     0.1682510000
| 13>  O        2.8840040000    -0.4953750000    -0.1784390000
| 14>  C        3.1555400000    -1.0279350000    -1.3845700000
| 15>  C        2.2635920000    -1.3852130000    -2.3075180000
| 16>  C        4.6414530000    -1.1582150000    -1.5786270000
| 17>  C        5.2609550000    -2.1063710000    -0.6638400000
| 18>  C        5.7767830000    -2.8937490000     0.0797770000
| 19>  H        1.5130170000     0.0743170000     1.1733790000
| 20>  H        1.0115980000    -1.3084820000     0.1631820000
| 21>  H        1.0190930000     0.3401960000    -0.5198790000
| 22>  H        1.1972600000    -1.2793970000    -2.1686540000
| 23>  H        2.6065910000    -1.8081690000    -3.2407910000
| 24>  H        5.1004500000    -0.1732840000    -1.4345110000
| 25>  H        4.8388940000    -1.4600280000    -2.6092870000
| 26>  H        6.2317110000    -3.5905520000     0.7429270000
| 27> *
| 28>
| 29>                          ****END OF INPUT****
 Total Charge           Charge          ....    0
 Multiplicity           Mult            ....    1
 Number of Electrons    NEL             ....   52
 Basis Dimension        Dim             ....  138

MULLIKEN ATOMIC CHARGES
-----------------------
   0 C :    0.136227
   1 O :   -0.262365
   2 C :    0.017053
   3 C :   -0.108023
   4 C :    0.169274
   5 C :    0.314435
   6 C :   -0.476637
   7 H :    0.038412
   8 H :    0.032513
   9 H :    0.031036
  10 H :    0.017616
  11 H :    0.012452
  12 H :    0.047558
  13 H :    0.033551
  14 H :   -0.003104
Sum of atomic charges:   -0.0000000

LOEWDIN ATOMIC CHARGES
----------------------
   0 C :    0.064038
   1 O :   -0.060941
   2 C :    0.031757
   3 C :   -0.153671
   4 C :   -0.041457
   5 C :   -0.017024
   6 C :   -0.085715
   7 H :    0.028136
   8 H :    0.018653
   9 H :    0.016461
  10 H :    0.022358
  11 H :    0.028605
  12 H :    0.058879
  13 H :    0.056360
  14 H :    0.033562

  Mayer bond orders larger than 0.1
B(  0-C ,  1-O ) :   0.9834 B(  0-C ,  7-H ) :   0.9723 B(  0-C ,  8-H ) :   0.9587
B(  0-C ,  9-H ) :   0.9598 B(  1-O ,  2-C ) :   1.1688 B(  2-C ,  3-C ) :   1.8464
B(  2-C ,  4-C ) :   1.0233 B(  3-C , 10-H ) :   0.9434 B(  3-C , 11-H ) :   0.9182
B(  4-C ,  5-C ) :   1.0480 B(  4-C , 12-H ) :   0.8798 B(  4-C , 13-H ) :   0.8964
B(  5-C ,  6-C ) :   2.3797 B(  5-C , 14-H ) :  -0.1079 B(  6-C , 14-H ) :   1.0993

FINAL SINGLE POINT ENERGY      -307.947462762765

DIPOLE MOMENT
-------------
                                X             Y             Z
Electronic contribution:      4.17885      -0.85961       1.21585
Nuclear contribution   :     -4.61744       1.07869      -1.21927
                        -----------------------------------------
Total Dipole Moment    :     -0.43858       0.21908      -0.00341
                        -----------------------------------------
Magnitude (a.u.)       :      0.49027
Magnitude (Debye)      :      1.24616

                             ****ORCA TERMINATED NORMALLY****
TOTAL RUN TIME: 0 days 0 hours 0 minutes 6 seconds 919 msec
