                         Program Version 3.0.3 - RELEASE   -
|  1> ! RI PBE def2-SVP def2-SVP/J NBO PAL2
|  2> % maxcore 2000
|  3> % output
|  4>     # printlevel mini
|  5>     print[ P_Basis ] 0
|  6>     print[ P_SCFInfo ] 1
|  7>     print[ P_SCFIterInfo ] 1
|  8>     print[ P_OrbEn ] 0
|  9>     print[ P_Cartesian ] 0
| 10> end
| 11> *xyz 0 1
| 12>  C        2.5037500000    -0.5896410000    -0.3487780000
| 13>  O        2.1614500000    -0.1098240000     0.9232750000
| 14>  C        3.1623460000     0.1566830000     1.8028130000
| 15>  C        2.6448880000     0.6458410000     3.0749440000
| 16>  C        1.3543970000     0.8149050000     3.3528760000
| 17>  C        4.4662210000    -0.0126460000     1.5259380000
| 18>  C        5.6179460000     0.2561790000     2.4337770000
| 19>  H        1.5659520000    -0.7342980000    -0.8836320000
| 20>  H        3.0361010000    -1.5460610000    -0.2889650000
| 21>  H        3.1244900000     0.1286740000    -0.8968830000
| 22>  H        3.3843140000     0.8809690000     3.8302290000
| 23>  H        0.5855100000     0.5910030000     2.6242480000
| 24>  H        1.0401020000     1.1832420000     4.3217610000
| 25>  H        4.7361240000    -0.3835760000     0.5435010000
| 26>  H        5.3211080000     0.6275840000     3.4134670000
| 27>  H        6.2957930000     0.9953330000     1.9937920000
| 28>  H        6.2088070000    -0.6522550000     2.5920350000
| 29> *
| 30>
| 31>                          ****END OF INPUT****
 Total Charge           Charge          ....    0
 Multiplicity           Mult            ....    1
 Number of Electrons    NEL             ....   54
 Basis Dimension        Dim             ....  148

MULLIKEN ATOMIC CHARGES
-----------------------
   0 C :    0.134438
   1 O :   -0.275655
   2 C :    0.183184
   3 C :   -0.058593
   4 C :   -0.008655
   5 C :   -0.217022
   6 C :    0.054874
   7 H :    0.036930
   8 H :    0.027192
   9 H :    0.028161
  10 H :   -0.015135
  11 H :    0.026463
  12 H :    0.016397
  13 H :   -0.014555
  14 H :    0.018552
  15 H :    0.031672
  16 H :    0.031752
Sum of atomic charges:   -0.0000000

LOEWDIN ATOMIC CHARGES
----------------------
   0 C :    0.057414
   1 O :   -0.070301
   2 C :    0.015701
   3 C :   -0.044218
   4 C :   -0.046056
   5 C :   -0.106224
   6 C :   -0.061542
   7 H :    0.027096
   8 H :    0.014265
   9 H :    0.014163
  10 H :    0.029027
  11 H :    0.024239
  12 H :    0.023939
  13 H :    0.022550
  14 H :    0.028259
  15 H :    0.035814
  16 H :    0.035873

  Mayer bond orders larger than 0.1
B(  0-C ,  1-O ) :   0.9945 B(  0-C ,  7-H ) :   0.9705 B(  0-C ,  8-H ) :   0.9559
B(  0-C ,  9-H ) :   0.9565 B(  1-O ,  2-C ) :   1.1461 B(  2-C ,  3-C ) :   1.1295
B(  2-C ,  5-C ) :   1.6632 B(  3-C ,  4-C ) :   1.9238 B(  3-C , 10-H ) :   0.9454
B(  4-C ,  5-C ) :   0.1242 B(  4-C , 11-H ) :   0.9393 B(  4-C , 12-H ) :   0.9326
B(  5-C ,  6-C ) :   1.1074 B(  5-C , 13-H ) :   0.9348 B(  6-C , 14-H ) :   0.9492
B(  6-C , 15-H ) :   0.9423 B(  6-C , 16-H ) :   0.9421

FINAL SINGLE POINT ENERGY      -309.199898825780

DIPOLE MOMENT
-------------
                                X             Y             Z
Electronic contribution:     -3.40331       0.23049       0.14741
Nuclear contribution   :      3.71958      -0.37742      -0.49941
                        -----------------------------------------
Total Dipole Moment    :      0.31627      -0.14693      -0.35200
                        -----------------------------------------
Magnitude (a.u.)       :      0.49550
Magnitude (Debye)      :      1.25947

                             ****ORCA TERMINATED NORMALLY****
TOTAL RUN TIME: 0 days 0 hours 0 minutes 7 seconds 899 msec
