                         Program Version 3.0.3 - RELEASE   -
|  1> ! RI PBE def2-SVP def2-SVP/J NBO PAL2
|  2> % maxcore 2000
|  3> % output
|  4>     # printlevel mini
|  5>     print[ P_Basis ] 0
|  6>     print[ P_SCFInfo ] 1
|  7>     print[ P_SCFIterInfo ] 1
|  8>     print[ P_OrbEn ] 0
|  9>     print[ P_Cartesian ] 0
| 10> end
| 11> *xyz 0 1
| 12>  C        2.9302470000    -1.1582220000     0.3760210000
| 13>  O        2.2121980000     0.0456560000     0.2115620000
| 14>  C        2.9154340000     1.2018460000     0.0541150000
| 15>  C        2.2666230000     2.3635550000    -0.1040010000
| 16>  C        0.7884340000     2.5164060000    -0.1246400000
| 17>  C        4.3397170000     1.1462740000     0.0614970000
| 18>  C        5.5421320000     1.0995160000     0.0677560000
| 19>  H        2.1789490000    -1.9395870000     0.4823450000
| 20>  H        3.5578090000    -1.1343810000     1.2714750000
| 21>  H        3.5584150000    -1.3750180000    -0.4926770000
| 22>  H        2.8832680000     3.2460120000    -0.2242760000
| 23>  H        0.2849130000     1.5594830000     0.0058090000
| 24>  H        0.4542860000     2.9557700000    -1.0704480000
| 25>  H        0.4545130000     3.1928130000     0.6692230000
| 26>  H        6.6060210000     1.0682670000     0.0719080000
| 27> *
| 28>
| 29>                          ****END OF INPUT****
 Total Charge           Charge          ....    0
 Multiplicity           Mult            ....    1
 Number of Electrons    NEL             ....   52
 Basis Dimension        Dim             ....  138

MULLIKEN ATOMIC CHARGES
-----------------------
   0 C :    0.147434
   1 O :   -0.286403
   2 C :    0.105539
   3 C :   -0.137633
   4 C :    0.049172
   5 C :    0.362072
   6 C :   -0.442672
   7 H :    0.036776
   8 H :    0.030948
   9 H :    0.032080
  10 H :   -0.001393
  11 H :    0.031685
  12 H :    0.032571
  13 H :    0.034997
  14 H :    0.004829
Sum of atomic charges:   -0.0000000

LOEWDIN ATOMIC CHARGES
----------------------
   0 C :    0.062732
   1 O :   -0.080691
   2 C :   -0.004426
   3 C :   -0.063809
   4 C :   -0.063679
   5 C :   -0.030087
   6 C :   -0.063829
   7 H :    0.026950
   8 H :    0.018101
   9 H :    0.018108
  10 H :    0.033712
  11 H :    0.033613
  12 H :    0.038321
  13 H :    0.038714
  14 H :    0.036270

  Mayer bond orders larger than 0.1
B(  0-C ,  1-O ) :   0.9730 B(  0-C ,  7-H ) :   0.9737 B(  0-C ,  8-H ) :   0.9630
B(  0-C ,  9-H ) :   0.9633 B(  1-O ,  2-C ) :   1.1383 B(  2-C ,  3-C ) :   1.7612
B(  2-C ,  5-C ) :   0.9491 B(  3-C ,  4-C ) :   1.0832 B(  3-C ,  6-C ) :   0.1258
B(  3-C , 10-H ) :   0.9404 B(  4-C , 11-H ) :   0.9554 B(  4-C , 12-H ) :   0.9455
B(  4-C , 13-H ) :   0.9460 B(  5-C ,  6-C ) :   2.2576 B(  5-C , 14-H ) :  -0.1062
B(  6-C , 14-H ) :   1.0966

FINAL SINGLE POINT ENERGY      -307.951360856571

DIPOLE MOMENT
-------------
                                X             Y             Z
Electronic contribution:      3.43790      -0.00634      -0.00206
Nuclear contribution   :     -3.21701      -0.28505       0.04056
                        -----------------------------------------
Total Dipole Moment    :      0.22089      -0.29138       0.03850
                        -----------------------------------------
Magnitude (a.u.)       :      0.36767
Magnitude (Debye)      :      0.93454

                             ****ORCA TERMINATED NORMALLY****
TOTAL RUN TIME: 0 days 0 hours 0 minutes 7 seconds 210 msec
