                         Program Version 3.0.3 - RELEASE   -
|  1> ! RI PBE def2-SVP def2-SVP/J NBO PAL2
|  2> % maxcore 2000
|  3> % output
|  4>     # printlevel mini
|  5>     print[ P_Basis ] 0
|  6>     print[ P_SCFInfo ] 1
|  7>     print[ P_SCFIterInfo ] 1
|  8>     print[ P_OrbEn ] 0
|  9>     print[ P_Cartesian ] 0
| 10> end
| 11> *xyz 0 1
| 12>  C        3.3758380000     0.7432780000    -0.7705430000
| 13>  O        3.0523070000    -0.6209190000    -0.8464730000
| 14>  C        3.1718180000    -1.3016620000     0.3909890000
| 15>  C        2.5333220000    -2.6428110000     0.2088480000
| 16>  C        1.6046940000    -3.1438480000     1.0079520000
| 17>  C        4.6123900000    -1.4499580000     0.7909700000
| 18>  C        5.1292690000    -0.9875550000     1.9196390000
| 19>  H        3.2318690000     1.1609420000    -1.7671300000
| 20>  H        4.4147510000     0.9061770000    -0.4601010000
| 21>  H        2.7169840000     1.2703170000    -0.0663160000
| 22>  H        2.6374420000    -0.7463220000     1.1773730000
| 23>  H        2.8945230000    -3.2122910000    -0.6443650000
| 24>  H        1.2290150000    -2.5869200000     1.8606700000
| 25>  H        1.1877480000    -4.1304640000     0.8433020000
| 26>  H        5.2392550000    -1.9785100000     0.0753890000
| 27>  H        4.5196200000    -0.4544130000     2.6432070000
| 28>  H        6.1743540000    -1.1309310000     2.1691810000
| 29> *
| 30>
| 31>                          ****END OF INPUT****
 Total Charge           Charge          ....    0
 Multiplicity           Mult            ....    1
 Number of Electrons    NEL             ....   54
 Basis Dimension        Dim             ....  148

MULLIKEN ATOMIC CHARGES
-----------------------
   0 C :    0.157483
   1 O :   -0.339987
   2 C :    0.171696
   3 C :   -0.025829
   4 C :   -0.027795
   5 C :   -0.047314
   6 C :   -0.021729
   7 H :    0.030490
   8 H :    0.007873
   9 H :    0.001186
  10 H :   -0.023194
  11 H :    0.013271
  12 H :    0.019565
  13 H :    0.027708
  14 H :    0.007551
  15 H :    0.020974
  16 H :    0.028051
Sum of atomic charges:   -0.0000000

LOEWDIN ATOMIC CHARGES
----------------------
   0 C :    0.049488
   1 O :   -0.141998
   2 C :    0.045496
   3 C :   -0.020590
   4 C :   -0.049660
   5 C :   -0.033487
   6 C :   -0.053461
   7 H :    0.023279
   8 H :    0.005289
   9 H :    0.005245
  10 H :    0.011718
  11 H :    0.030362
  12 H :    0.022944
  13 H :    0.027138
  14 H :    0.028480
  15 H :    0.022716
  16 H :    0.027042

  Mayer bond orders larger than 0.1
B(  0-C ,  1-O ) :   1.0126 B(  0-C ,  7-H ) :   0.9766 B(  0-C ,  8-H ) :   0.9530
B(  0-C ,  9-H ) :   0.9542 B(  1-O ,  2-C ) :   0.9948 B(  2-C ,  3-C ) :   0.9989
B(  2-C ,  5-C ) :   1.0163 B(  2-C , 10-H ) :   0.9154 B(  3-C ,  4-C ) :   2.0179
B(  3-C , 11-H ) :   0.9500 B(  4-C , 12-H ) :   0.9451 B(  4-C , 13-H ) :   0.9432
B(  5-C ,  6-C ) :   1.9757 B(  5-C , 14-H ) :   0.9477 B(  6-C , 15-H ) :   0.9470
B(  6-C , 16-H ) :   0.9406

FINAL SINGLE POINT ENERGY      -309.175658007218

DIPOLE MOMENT
-------------
                                X             Y             Z
Electronic contribution:     -0.53750      -1.67548      -1.80239
Nuclear contribution   :      0.70269       1.86521       2.11217
                        -----------------------------------------
Total Dipole Moment    :      0.16519       0.18973       0.30978
                        -----------------------------------------
Magnitude (a.u.)       :      0.39906
Magnitude (Debye)      :      1.01433

                             ****ORCA TERMINATED NORMALLY****
TOTAL RUN TIME: 0 days 0 hours 0 minutes 7 seconds 91 msec
