                         Program Version 3.0.3 - RELEASE   -
|  1> ! RI PBE def2-SVP def2-SVP/J NBO PAL2
|  2> % maxcore 2000
|  3> % output
|  4>     # printlevel mini
|  5>     print[ P_Basis ] 0
|  6>     print[ P_SCFInfo ] 1
|  7>     print[ P_SCFIterInfo ] 1
|  8>     print[ P_OrbEn ] 0
|  9>     print[ P_Cartesian ] 0
| 10> end
| 11> *xyz 0 1
| 12>  C        2.3252490000     0.9904520000     0.3364190000
| 13>  O        2.1148620000     0.4267500000    -0.9343950000
| 14>  C        2.6802340000    -0.8568120000    -1.0822200000
| 15>  C        2.2451630000    -1.3959840000    -2.4125470000
| 16>  C        1.5950080000    -2.5379520000    -2.5623930000
| 17>  C        4.1465900000    -0.8273250000    -0.9962090000
| 18>  C        5.3453520000    -0.8062750000    -0.9350680000
| 19>  H        1.8182890000     1.9549160000     0.3422520000
| 20>  H        3.3913520000     1.1419850000     0.5412220000
| 21>  H        1.8999690000     0.3584230000     1.1280460000
| 22>  H        2.3070460000    -1.5225570000    -0.2874280000
| 23>  H        2.5081880000    -0.7787930000    -3.2665150000
| 24>  H        1.3311350000    -3.1572480000    -1.7109470000
| 25>  H        1.3059400000    -2.8988470000    -3.5422700000
| 26>  H        6.4086130000    -0.7892330000    -0.8848270000
| 27> *
| 28>
| 29>                          ****END OF INPUT****
 Total Charge           Charge          ....    0
 Multiplicity           Mult            ....    1
 Number of Electrons    NEL             ....   52
 Basis Dimension        Dim             ....  138

MULLIKEN ATOMIC CHARGES
-----------------------
   0 C :    0.154403
   1 O :   -0.330758
   2 C :    0.218279
   3 C :   -0.025960
   4 C :   -0.021140
   5 C :    0.371926
   6 C :   -0.508107
   7 H :    0.033230
   8 H :    0.019949
   9 H :    0.001213
  10 H :    0.009145
  11 H :    0.018754
  12 H :    0.025689
  13 H :    0.031343
  14 H :    0.002034
Sum of atomic charges:    0.0000000

LOEWDIN ATOMIC CHARGES
----------------------
   0 C :    0.052688
   1 O :   -0.134185
   2 C :    0.040876
   3 C :   -0.014188
   4 C :   -0.042102
   5 C :   -0.028882
   6 C :   -0.068857
   7 H :    0.025333
   8 H :    0.010775
   9 H :    0.006095
  10 H :    0.027445
  11 H :    0.034353
  12 H :    0.025042
  13 H :    0.029274
  14 H :    0.036333

  Mayer bond orders larger than 0.1
B(  0-C ,  1-O ) :   1.0070 B(  0-C ,  7-H ) :   0.9756 B(  0-C ,  8-H ) :   0.9554
B(  0-C ,  9-H ) :   0.9504 B(  1-O ,  2-C ) :   1.0343 B(  2-C ,  3-C ) :   1.0018
B(  2-C ,  5-C ) :   0.9252 B(  2-C , 10-H ) :   0.9015 B(  3-C ,  4-C ) :   2.0144
B(  3-C , 11-H ) :   0.9542 B(  4-C , 12-H ) :   0.9429 B(  4-C , 13-H ) :   0.9452
B(  5-C ,  6-C ) :   2.3500 B(  5-C , 14-H ) :  -0.1179 B(  6-C , 14-H ) :   1.1081

FINAL SINGLE POINT ENERGY      -307.928745646529

DIPOLE MOMENT
-------------
                                X             Y             Z
Electronic contribution:      1.94052       0.14671      -1.43340
Nuclear contribution   :     -1.82574      -0.31269       1.74572
                        -----------------------------------------
Total Dipole Moment    :      0.11477      -0.16598       0.31232
                        -----------------------------------------
Magnitude (a.u.)       :      0.37184
Magnitude (Debye)      :      0.94515

                             ****ORCA TERMINATED NORMALLY****
TOTAL RUN TIME: 0 days 0 hours 0 minutes 6 seconds 905 msec
