                         Program Version 3.0.3 - RELEASE   -
|  1> ! RI PBE def2-SVP def2-SVP/J NBO PAL2
|  2> % maxcore 2000
|  3> % output
|  4>     # printlevel mini
|  5>     print[ P_Basis ] 0
|  6>     print[ P_SCFInfo ] 1
|  7>     print[ P_SCFIterInfo ] 1
|  8>     print[ P_OrbEn ] 0
|  9>     print[ P_Cartesian ] 0
| 10> end
| 11> *xyz 0 1
| 12>  C        2.2909420000     0.2821110000     1.1041650000
| 13>  O        3.2202510000    -0.3608320000     0.2642470000
| 14>  C        3.5696490000     0.2995330000    -0.8923080000
| 15>  C        2.4179240000     0.8008350000    -1.7015310000
| 16>  C        4.8668060000     0.3561240000    -1.2177630000
| 17>  C        5.9269160000    -0.2030920000    -0.3202530000
| 18>  C        5.3860390000     0.9371860000    -2.4947670000
| 19>  H        1.2935590000     0.3429070000     0.6550750000
| 20>  H        2.6230990000     1.2927190000     1.3713110000
| 21>  H        2.2256940000    -0.3190420000     2.0110930000
| 22>  H        1.6782330000     0.0043680000    -1.8312250000
| 23>  H        2.7281920000     1.1375180000    -2.6870960000
| 24>  H        1.9099580000     1.6385730000    -1.2138140000
| 25>  H        5.5179360000    -0.5650000000     0.6202930000
| 26>  H        6.6877260000     0.5558950000    -0.1063960000
| 27>  H        6.4475930000    -1.0341290000    -0.8100800000
| 28>  H        4.6122060000     1.3311050000    -3.1508690000
| 29>  H        5.9495660000     0.1838360000    -3.0574160000
| 30>  H        6.0880890000     1.7519540000    -2.2847650000
| 31> *
| 32>
| 33>                          ****END OF INPUT****
 Total Charge           Charge          ....    0
 Multiplicity           Mult            ....    1
 Number of Electrons    NEL             ....   56
 Basis Dimension        Dim             ....  158

MULLIKEN ATOMIC CHARGES
-----------------------
   0 C :    0.141956
   1 O :   -0.297505
   2 C :   -0.025231
   3 C :    0.052041
   4 C :   -0.231226
   5 C :    0.065887
   6 C :    0.052562
   7 H :    0.017822
   8 H :    0.014743
   9 H :    0.034526
  10 H :    0.035707
  11 H :    0.011964
  12 H :    0.028921
  13 H :    0.016310
  14 H :    0.014179
  15 H :    0.019404
  16 H :    0.003034
  17 H :    0.022074
  18 H :    0.022832
Sum of atomic charges:   -0.0000000

LOEWDIN ATOMIC CHARGES
----------------------
   0 C :    0.056512
   1 O :   -0.101438
   2 C :   -0.001292
   3 C :   -0.072403
   4 C :   -0.089124
   5 C :   -0.056472
   6 C :   -0.057067
   7 H :    0.007140
   8 H :    0.010126
   9 H :    0.024888
  10 H :    0.037534
  11 H :    0.033729
  12 H :    0.033288
  13 H :    0.026749
  14 H :    0.028759
  15 H :    0.031231
  16 H :    0.023359
  17 H :    0.032032
  18 H :    0.032449

  Mayer bond orders larger than 0.1
B(  0-C ,  1-O ) :   0.9914 B(  0-C ,  7-H ) :   0.9572 B(  0-C ,  8-H ) :   0.9552
B(  0-C ,  9-H ) :   0.9762 B(  1-O ,  2-C ) :   1.0941 B(  2-C ,  3-C ) :   1.1058
B(  2-C ,  4-C ) :   1.7976 B(  3-C , 10-H ) :   0.9326 B(  3-C , 11-H ) :   0.9353
B(  3-C , 12-H ) :   0.9315 B(  4-C ,  5-C ) :   1.1015 B(  4-C ,  6-C ) :   1.1153
B(  5-C , 13-H ) :   0.9411 B(  5-C , 14-H ) :   0.9443 B(  5-C , 15-H ) :   0.9476
B(  6-C , 16-H ) :   0.9434 B(  6-C , 17-H ) :   0.9390 B(  6-C , 18-H ) :   0.9421

FINAL SINGLE POINT ENERGY      -310.416249110668

DIPOLE MOMENT
-------------
                                X             Y             Z
Electronic contribution:     -0.91866      -2.14599       1.66546
Nuclear contribution   :      0.57661       2.51464      -1.65294
                        -----------------------------------------
Total Dipole Moment    :     -0.34205       0.36865       0.01252
                        -----------------------------------------
Magnitude (a.u.)       :      0.50305
Magnitude (Debye)      :      1.27864

                             ****ORCA TERMINATED NORMALLY****
TOTAL RUN TIME: 0 days 0 hours 0 minutes 8 seconds 683 msec
