                         Program Version 3.0.3 - RELEASE   -
|  1> ! RI PBE def2-SVP def2-SVP/J NBO PAL2
|  2> % maxcore 2000
|  3> % output
|  4>     # printlevel mini
|  5>     print[ P_Basis ] 0
|  6>     print[ P_SCFInfo ] 1
|  7>     print[ P_SCFIterInfo ] 1
|  8>     print[ P_OrbEn ] 0
|  9>     print[ P_Cartesian ] 0
| 10> end
| 11> *xyz 0 1
| 12>  C        3.3837340000    -0.3125740000     0.0871560000
| 13>  O        2.3860250000     0.3458030000    -0.6538200000
| 14>  C        2.7633250000     1.1739610000    -1.6548910000
| 15>  C        1.5517580000     1.7554570000    -2.2952690000
| 16>  C        4.0440930000     1.4121140000    -1.9924310000
| 17>  C        4.4872960000     2.2871520000    -3.0520560000
| 18>  C        5.7670480000     2.5045690000    -3.3649230000
| 19>  H        2.8628140000    -0.9168590000     0.8281120000
| 20>  H        4.0396130000     0.4016980000     0.5963970000
| 21>  H        3.9910030000    -0.9633980000    -0.5510760000
| 22>  H        0.9171120000     0.9541300000    -2.6830430000
| 23>  H        1.7977400000     2.4314300000    -3.1097820000
| 24>  H        0.9650640000     2.3006430000    -1.5510690000
| 25>  H        4.8322060000     0.9164040000    -1.4361890000
| 26>  H        3.7272140000     2.8022520000    -3.6325180000
| 27>  H        6.5738180000     2.0206150000    -2.8234760000
| 28>  H        6.0452490000     3.1720150000    -4.1706210000
| 29> *
| 30>
| 31>                          ****END OF INPUT****
 Total Charge           Charge          ....    0
 Multiplicity           Mult            ....    1
 Number of Electrons    NEL             ....   54
 Basis Dimension        Dim             ....  148

MULLIKEN ATOMIC CHARGES
-----------------------
   0 C :    0.135203
   1 O :   -0.271931
   2 C :    0.013712
   3 C :    0.070559
   4 C :   -0.060801
   5 C :   -0.012597
   6 C :   -0.052375
   7 H :    0.036589
   8 H :    0.033768
   9 H :    0.031910
  10 H :    0.039772
  11 H :    0.021842
  12 H :    0.040463
  13 H :   -0.031461
  14 H :   -0.016371
  15 H :    0.005111
  16 H :    0.016608
Sum of atomic charges:   -0.0000000

LOEWDIN ATOMIC CHARGES
----------------------
   0 C :    0.059377
   1 O :   -0.064554
   2 C :    0.031996
   3 C :   -0.063027
   4 C :   -0.122345
   5 C :   -0.031924
   6 C :   -0.081627
   7 H :    0.027539
   8 H :    0.017680
   9 H :    0.017089
  10 H :    0.043003
  11 H :    0.034405
  12 H :    0.042878
  13 H :    0.026792
  14 H :    0.024138
  15 H :    0.017296
  16 H :    0.021283

  Mayer bond orders larger than 0.1
B(  0-C ,  1-O ) :   0.9837 B(  0-C ,  7-H ) :   0.9706 B(  0-C ,  8-H ) :   0.9598
B(  0-C ,  9-H ) :   0.9597 B(  1-O ,  2-C ) :   1.1399 B(  2-C ,  3-C ) :   1.1192
B(  2-C ,  4-C ) :   1.6138 B(  2-C ,  6-C ) :   0.1099 B(  3-C , 10-H ) :   0.9341
B(  3-C , 11-H ) :   0.9439 B(  3-C , 12-H ) :   0.9357 B(  4-C ,  5-C ) :   1.1366
B(  4-C , 13-H ) :   0.9452 B(  5-C ,  6-C ) :   1.8915 B(  5-C , 14-H ) :   0.9535
B(  6-C , 15-H ) :   0.9473 B(  6-C , 16-H ) :   0.9427

FINAL SINGLE POINT ENERGY      -309.206024300359

DIPOLE MOMENT
-------------
                                X             Y             Z
Electronic contribution:     -1.31605      -0.65877       0.83760
Nuclear contribution   :      1.17588       0.37387      -0.49436
                        -----------------------------------------
Total Dipole Moment    :     -0.14017      -0.28490       0.34324
                        -----------------------------------------
Magnitude (a.u.)       :      0.46758
Magnitude (Debye)      :      1.18850

                             ****ORCA TERMINATED NORMALLY****
TOTAL RUN TIME: 0 days 0 hours 0 minutes 7 seconds 556 msec
