                         Program Version 3.0.3 - RELEASE   -
|  1> ! RI PBE def2-SVP def2-SVP/J NBO PAL2
|  2> % maxcore 2000
|  3> % output
|  4>     # printlevel mini
|  5>     print[ P_Basis ] 0
|  6>     print[ P_SCFInfo ] 1
|  7>     print[ P_SCFIterInfo ] 1
|  8>     print[ P_OrbEn ] 0
|  9>     print[ P_Cartesian ] 0
| 10> end
| 11> *xyz 0 1
| 12>  C        3.0306060000     0.0050690000     1.3795680000
| 13>  O        2.3051970000    -0.0596730000     0.1733070000
| 14>  C        2.9887670000    -0.0960890000    -0.9838400000
| 15>  C        2.0663360000    -0.1611370000    -2.1459160000
| 16>  C        4.3340360000    -0.0756100000    -1.0670480000
| 17>  C        5.0357510000    -0.1144380000    -2.2920460000
| 18>  C        5.6723630000    -0.1459800000    -3.3148770000
| 19>  H        2.2915990000     0.0264980000     2.1784190000
| 20>  H        3.6431910000     0.9114430000     1.4242240000
| 21>  H        3.6745530000    -0.8720520000     1.5011280000
| 22>  H        1.4334180000    -1.0492180000    -2.0700730000
| 23>  H        2.6227440000    -0.1932830000    -3.0800620000
| 24>  H        1.4063150000     0.7103370000    -2.1471140000
| 25>  H        4.9377210000    -0.0271980000    -0.1688130000
| 26>  H        6.2295140000    -0.1740570000    -4.2205670000
| 27> *
| 28>
| 29>                          ****END OF INPUT****
 Total Charge           Charge          ....    0
 Multiplicity           Mult            ....    1
 Number of Electrons    NEL             ....   52
 Basis Dimension        Dim             ....  138

MULLIKEN ATOMIC CHARGES
-----------------------
   0 C :    0.138790
   1 O :   -0.264265
   2 C :    0.001571
   3 C :    0.086430
   4 C :   -0.120823
   5 C :    0.385393
   6 C :   -0.459110
   7 H :    0.042080
   8 H :    0.032882
   9 H :    0.033853
  10 H :    0.039722
  11 H :    0.035468
  12 H :    0.040474
  13 H :    0.012088
  14 H :   -0.004557
Sum of atomic charges:   -0.0000000

LOEWDIN ATOMIC CHARGES
----------------------
   0 C :    0.062273
   1 O :   -0.054912
   2 C :    0.046655
   3 C :   -0.058422
   4 C :   -0.144990
   5 C :   -0.020783
   6 C :   -0.100204
   7 H :    0.029708
   8 H :    0.019037
   9 H :    0.019121
  10 H :    0.043775
  11 H :    0.043699
  12 H :    0.043881
  13 H :    0.039657
  14 H :    0.031504

  Mayer bond orders larger than 0.1
B(  0-C ,  1-O ) :   0.9807 B(  0-C ,  7-H ) :   0.9705 B(  0-C ,  8-H ) :   0.9593
B(  0-C ,  9-H ) :   0.9596 B(  1-O ,  2-C ) :   1.1610 B(  2-C ,  3-C ) :   1.1166
B(  2-C ,  4-C ) :   1.6227 B(  2-C ,  6-C ) :   0.1057 B(  3-C , 10-H ) :   0.9374
B(  3-C , 11-H ) :   0.9354 B(  3-C , 12-H ) :   0.9378 B(  4-C ,  5-C ) :   1.0073
B(  4-C , 13-H ) :   0.9445 B(  5-C ,  6-C ) :   2.2313 B(  5-C , 14-H ) :  -0.1008
B(  6-C , 14-H ) :   1.0919

FINAL SINGLE POINT ENERGY      -307.963290162607

DIPOLE MOMENT
-------------
                                X             Y             Z
Electronic contribution:      1.76164      -0.03127      -1.45623
Nuclear contribution   :     -2.03485       0.05286       2.04441
                        -----------------------------------------
Total Dipole Moment    :     -0.27321       0.02158       0.58818
                        -----------------------------------------
Magnitude (a.u.)       :      0.64889
Magnitude (Debye)      :      1.64936

                             ****ORCA TERMINATED NORMALLY****
TOTAL RUN TIME: 0 days 0 hours 0 minutes 6 seconds 609 msec
