                         Program Version 3.0.3 - RELEASE   -
|  1> ! RI PBE def2-SVP def2-SVP/J NBO PAL2
|  2> % maxcore 2000
|  3> % output
|  4>     # printlevel mini
|  5>     print[ P_Basis ] 0
|  6>     print[ P_SCFInfo ] 1
|  7>     print[ P_SCFIterInfo ] 1
|  8>     print[ P_OrbEn ] 0
|  9>     print[ P_Cartesian ] 0
| 10> end
| 11> *xyz 0 1
| 12>  C        2.8192870000    -0.0880670000    -1.1942290000
| 13>  O        2.4823250000    -0.5090340000     0.1023060000
| 14>  C        2.9162140000    -1.8209350000     0.4711690000
| 15>  C        2.3721250000    -2.0051240000     1.8819970000
| 16>  C        2.3331300000    -2.8768700000    -0.4560320000
| 17>  C        4.4233010000    -1.8348670000     0.5274550000
| 18>  C        5.2410370000    -2.7089330000    -0.0405130000
| 19>  H        2.5812870000     0.9749450000    -1.2491430000
| 20>  H        2.2401690000    -0.6114440000    -1.9647460000
| 21>  H        3.8866630000    -0.2215750000    -1.4087200000
| 22>  H        1.2825600000    -1.9318030000     1.8691780000
| 23>  H        2.7602110000    -1.2254830000     2.5399830000
| 24>  H        2.6608090000    -2.9785770000     2.2815660000
| 25>  H        1.2503040000    -2.7489350000    -0.5125560000
| 26>  H        2.5385350000    -3.8781300000    -0.0732220000
| 27>  H        2.7431070000    -2.8125860000    -1.4653920000
| 28>  H        4.8389060000    -1.0219270000     1.1207790000
| 29>  H        4.8784340000    -3.5345040000    -0.6431960000
| 30>  H        6.3152970000    -2.6331490000     0.0844050000
| 31> *
| 32>
| 33>                          ****END OF INPUT****
 Total Charge           Charge          ....    0
 Multiplicity           Mult            ....    1
 Number of Electrons    NEL             ....   56
 Basis Dimension        Dim             ....  158

MULLIKEN ATOMIC CHARGES
-----------------------
   0 C :    0.155860
   1 O :   -0.338254
   2 C :   -0.092515
   3 C :    0.058907
   4 C :    0.042624
   5 C :   -0.018220
   6 C :   -0.024633
   7 H :    0.028841
   8 H :    0.002273
   9 H :    0.005356
  10 H :    0.023469
  11 H :    0.020696
  12 H :    0.017681
  13 H :    0.028385
  14 H :    0.020937
  15 H :    0.023919
  16 H :    0.001499
  17 H :    0.017404
  18 H :    0.025772
Sum of atomic charges:   -0.0000000

LOEWDIN ATOMIC CHARGES
----------------------
   0 C :    0.047344
   1 O :   -0.143370
   2 C :    0.017126
   3 C :   -0.050879
   4 C :   -0.063470
   5 C :   -0.028059
   6 C :   -0.063457
   7 H :    0.022975
   8 H :    0.002720
   9 H :    0.004995
  10 H :    0.029572
  11 H :    0.028637
  12 H :    0.029360
  13 H :    0.033000
  14 H :    0.031258
  15 H :    0.025232
  16 H :    0.028030
  17 H :    0.021752
  18 H :    0.027234

  Mayer bond orders larger than 0.1
B(  0-C ,  1-O ) :   1.0183 B(  0-C ,  7-H ) :   0.9748 B(  0-C ,  8-H ) :   0.9535
B(  0-C ,  9-H ) :   0.9490 B(  1-O ,  2-C ) :   0.9903 B(  2-C ,  3-C ) :   1.0377
B(  2-C ,  4-C ) :   1.0841 B(  2-C ,  5-C ) :   0.9941 B(  3-C , 10-H ) :   0.9490
B(  3-C , 11-H ) :   0.9506 B(  3-C , 12-H ) :   0.9568 B(  4-C , 13-H ) :   0.9469
B(  4-C , 14-H ) :   0.9422 B(  4-C , 15-H ) :   0.9395 B(  5-C ,  6-C ) :   1.9884
B(  5-C , 16-H ) :   0.9488 B(  6-C , 17-H ) :   0.9280 B(  6-C , 18-H ) :   0.9359

FINAL SINGLE POINT ENERGY      -310.403596221326

DIPOLE MOMENT
-------------
                                X             Y             Z
Electronic contribution:      0.43874       2.17149       1.08215
Nuclear contribution   :     -0.29130      -2.42638      -1.31369
                        -----------------------------------------
Total Dipole Moment    :      0.14744      -0.25489      -0.23154
                        -----------------------------------------
Magnitude (a.u.)       :      0.37459
Magnitude (Debye)      :      0.95213

                             ****ORCA TERMINATED NORMALLY****
TOTAL RUN TIME: 0 days 0 hours 0 minutes 8 seconds 444 msec
