                         Program Version 3.0.3 - RELEASE   -
|  1> ! RI PBE def2-SVP def2-SVP/J NBO PAL2
|  2> % maxcore 2000
|  3> % output
|  4>     # printlevel mini
|  5>     print[ P_Basis ] 0
|  6>     print[ P_SCFInfo ] 1
|  7>     print[ P_SCFIterInfo ] 1
|  8>     print[ P_OrbEn ] 0
|  9>     print[ P_Cartesian ] 0
| 10> end
| 11> *xyz 0 1
| 12>  C        2.5992830000    -0.3664750000    -1.1707420000
| 13>  O        2.2729640000    -0.0527990000     0.1599720000
| 14>  C        2.8082040000    -0.9076240000     1.1610980000
| 15>  C        2.3571540000    -0.2911770000     2.4793130000
| 16>  C        2.2745130000    -2.3340000000     1.0275620000
| 17>  C        4.2797510000    -0.9211820000     1.1016460000
| 18>  C        5.4797280000    -0.9393820000     1.0619930000
| 19>  H        2.2236980000     0.4547490000    -1.7813630000
| 20>  H        2.1245290000    -1.2954130000    -1.5078370000
| 21>  H        3.6830330000    -0.4480910000    -1.3134070000
| 22>  H        1.2661390000    -0.2821340000     2.5140570000
| 23>  H        2.7210220000     0.7335660000     2.5541520000
| 24>  H        2.7394220000    -0.8666140000     3.3230230000
| 25>  H        1.1826010000    -2.3090600000     1.0279750000
| 26>  H        2.6156780000    -2.9408600000     1.8674240000
| 27>  H        2.6211240000    -2.8104540000     0.1101180000
| 28>  H        6.5437080000    -0.9500990000     1.0295270000
| 29> *
| 30>
| 31>                          ****END OF INPUT****
 Total Charge           Charge          ....    0
 Multiplicity           Mult            ....    1
 Number of Electrons    NEL             ....   54
 Basis Dimension        Dim             ....  148

MULLIKEN ATOMIC CHARGES
-----------------------
   0 C :    0.156517
   1 O :   -0.327246
   2 C :   -0.085910
   3 C :    0.064662
   4 C :    0.056292
   5 C :    0.474417
   6 C :   -0.547006
   7 H :    0.031978
   8 H :    0.001407
   9 H :    0.017468
  10 H :    0.026060
  11 H :    0.030884
  12 H :    0.021636
  13 H :    0.029885
  14 H :    0.027390
  15 H :    0.025332
  16 H :   -0.003767
Sum of atomic charges:    0.0000000

LOEWDIN ATOMIC CHARGES
----------------------
   0 C :    0.049973
   1 O :   -0.132523
   2 C :    0.010940
   3 C :   -0.042781
   4 C :   -0.053651
   5 C :   -0.017854
   6 C :   -0.081690
   7 H :    0.024906
   8 H :    0.003391
   9 H :    0.011006
  10 H :    0.030992
  11 H :    0.033981
  12 H :    0.032058
  13 H :    0.032002
  14 H :    0.035391
  15 H :    0.028764
  16 H :    0.035094

  Mayer bond orders larger than 0.1
B(  0-C ,  1-O ) :   1.0080 B(  0-C ,  7-H ) :   0.9748 B(  0-C ,  8-H ) :   0.9509
B(  0-C ,  9-H ) :   0.9523 B(  1-O ,  2-C ) :   1.0237 B(  2-C ,  3-C ) :   1.0420
B(  2-C ,  4-C ) :   1.0627 B(  2-C ,  5-C ) :   0.9072 B(  3-C , 10-H ) :   0.9526
B(  3-C , 11-H ) :   0.9521 B(  3-C , 12-H ) :   0.9526 B(  4-C , 13-H ) :   0.9488
B(  4-C , 14-H ) :   0.9501 B(  4-C , 15-H ) :   0.9476 B(  5-C ,  6-C ) :   2.2776
B(  5-C , 16-H ) :  -0.1308 B(  6-C , 16-H ) :   1.1201

FINAL SINGLE POINT ENERGY      -309.158870003351

DIPOLE MOMENT
-------------
                                X             Y             Z
Electronic contribution:      2.96520       1.95656       0.08149
Nuclear contribution   :     -2.88364      -2.31435      -0.16746
                        -----------------------------------------
Total Dipole Moment    :      0.08155      -0.35779      -0.08597
                        -----------------------------------------
Magnitude (a.u.)       :      0.37690
Magnitude (Debye)      :      0.95801

                             ****ORCA TERMINATED NORMALLY****
TOTAL RUN TIME: 0 days 0 hours 0 minutes 7 seconds 504 msec
