                         Program Version 3.0.3 - RELEASE   -
|  1> ! RI PBE def2-SVP def2-SVP/J NBO PAL2
|  2> % maxcore 2000
|  3> % output
|  4>     # printlevel mini
|  5>     print[ P_Basis ] 0
|  6>     print[ P_SCFInfo ] 1
|  7>     print[ P_SCFIterInfo ] 1
|  8>     print[ P_OrbEn ] 0
|  9>     print[ P_Cartesian ] 0
| 10> end
| 11> *xyz 0 1
| 12>  C        3.2559610000     0.2418780000     1.4798170000
| 13>  O        2.8212000000     1.3436610000     0.7297900000
| 14>  C        3.1431510000     1.2593200000    -0.6485990000
| 15>  C        2.3594380000     2.3570450000    -1.3390140000
| 16>  C        4.6170390000     1.3974840000    -0.8798920000
| 17>  C        5.3776550000     0.4888740000    -1.4775460000
| 18>  C        6.8382800000     0.6220440000    -1.7395400000
| 19>  H        2.9327170000     0.4048470000     2.5084280000
| 20>  H        4.3471170000     0.1323030000     1.4610430000
| 21>  H        2.8094950000    -0.6933190000     1.1121870000
| 22>  H        2.8181020000     0.2786240000    -1.0333040000
| 23>  H        2.6705160000     3.3347360000    -0.9636010000
| 24>  H        1.2921160000     2.2384540000    -1.1431870000
| 25>  H        2.5295170000     2.3285440000    -2.4166050000
| 26>  H        5.0604550000     2.3275300000    -0.5237010000
| 27>  H        4.9081270000    -0.4345270000    -1.8171670000
| 28>  H        7.2283750000     1.5683840000    -1.3604730000
| 29>  H        7.0520680000     0.5693770000    -2.8119230000
| 30>  H        7.3981620000    -0.1930400000    -1.2701150000
| 31> *
| 32>
| 33>                          ****END OF INPUT****
 Total Charge           Charge          ....    0
 Multiplicity           Mult            ....    1
 Number of Electrons    NEL             ....   56
 Basis Dimension        Dim             ....  158

MULLIKEN ATOMIC CHARGES
-----------------------
   0 C :    0.154789
   1 O :   -0.341336
   2 C :    0.115749
   3 C :    0.016062
   4 C :   -0.044864
   5 C :   -0.100996
   6 C :    0.043806
   7 H :    0.028728
   8 H :    0.010633
   9 H :   -0.006029
  10 H :   -0.022454
  11 H :    0.020556
  12 H :    0.029602
  13 H :    0.026153
  14 H :   -0.011512
  15 H :   -0.005535
  16 H :    0.019314
  17 H :    0.034648
  18 H :    0.032686
Sum of atomic charges:   -0.0000000

LOEWDIN ATOMIC CHARGES
----------------------
   0 C :    0.046728
   1 O :   -0.145656
   2 C :    0.045849
   3 C :   -0.063932
   4 C :   -0.054333
   5 C :   -0.041098
   6 C :   -0.064327
   7 H :    0.021911
   8 H :    0.004312
   9 H :    0.002919
  10 H :    0.006048
  11 H :    0.028577
  12 H :    0.030549
  13 H :    0.031948
  14 H :    0.022982
  15 H :    0.021222
  16 H :    0.031250
  17 H :    0.037706
  18 H :    0.037346

  Mayer bond orders larger than 0.1
B(  0-C ,  1-O ) :   1.0196 B(  0-C ,  7-H ) :   0.9765 B(  0-C ,  8-H ) :   0.9539
B(  0-C ,  9-H ) :   0.9517 B(  1-O ,  2-C ) :   1.0056 B(  2-C ,  3-C ) :   1.0634
B(  2-C ,  4-C ) :   1.0253 B(  2-C , 10-H ) :   0.9146 B(  3-C , 11-H ) :   0.9569
B(  3-C , 12-H ) :   0.9524 B(  3-C , 13-H ) :   0.9581 B(  4-C ,  5-C ) :   1.8849
B(  4-C , 14-H ) :   0.9493 B(  5-C ,  6-C ) :   1.0839 B(  5-C , 15-H ) :   0.9511
B(  6-C , 16-H ) :   0.9613 B(  6-C , 17-H ) :   0.9468 B(  6-C , 18-H ) :   0.9465

FINAL SINGLE POINT ENERGY      -310.409885636533

DIPOLE MOMENT
-------------
                                X             Y             Z
Electronic contribution:     -2.11077       0.87427       1.65369
Nuclear contribution   :      2.46649      -1.22325      -1.88947
                        -----------------------------------------
Total Dipole Moment    :      0.35572      -0.34898      -0.23577
                        -----------------------------------------
Magnitude (a.u.)       :      0.55128
Magnitude (Debye)      :      1.40125

                             ****ORCA TERMINATED NORMALLY****
TOTAL RUN TIME: 0 days 0 hours 0 minutes 7 seconds 240 msec
