                         Program Version 3.0.3 - RELEASE   -
|  1> ! RI PBE def2-SVP def2-SVP/J NBO PAL2
|  2> % maxcore 2000
|  3> % output
|  4>     # printlevel mini
|  5>     print[ P_Basis ] 0
|  6>     print[ P_SCFInfo ] 1
|  7>     print[ P_SCFIterInfo ] 1
|  8>     print[ P_OrbEn ] 0
|  9>     print[ P_Cartesian ] 0
| 10> end
| 11> *xyz 0 1
| 12>  C        2.8123930000     1.6187680000    -1.8311490000
| 13>  O        3.9057960000     0.7896510000    -2.1035150000
| 14>  C        3.6715930000    -0.5883800000    -1.8816180000
| 15>  C        2.7709800000    -1.1888750000    -2.9490860000
| 16>  C        5.0329540000    -1.2791670000    -1.7767380000
| 17>  C        5.8709800000    -1.1287210000    -3.0400460000
| 18>  C        5.7974210000    -0.7805810000    -0.5578140000
| 19>  H        3.1584690000     2.6499970000    -1.9132770000
| 20>  H        2.4282620000     1.4561010000    -0.8138220000
| 21>  H        1.9864830000     1.4748410000    -2.5394020000
| 22>  H        3.1721160000    -0.7005430000    -0.9039620000
| 23>  H        3.1848970000    -1.0254460000    -3.9459740000
| 24>  H        1.7716440000    -0.7500230000    -2.9222180000
| 25>  H        2.6601910000    -2.2645210000    -2.7912520000
| 26>  H        4.8159820000    -2.3451400000    -1.6311980000
| 27>  H        6.0680500000    -0.0745790000    -3.2464190000
| 28>  H        5.3799420000    -1.5591400000    -3.9153090000
| 29>  H        6.8318890000    -1.6350000000    -2.9195710000
| 30>  H        6.0212710000     0.2839030000    -0.6546900000
| 31>  H        6.7426930000    -1.3169370000    -0.4437560000
| 32>  H        5.2198830000    -0.9211200000     0.3603240000
| 33> *
| 34>
| 35>                          ****END OF INPUT****
 Total Charge           Charge          ....    0
 Multiplicity           Mult            ....    1
 Number of Electrons    NEL             ....   58
 Basis Dimension        Dim             ....  168

MULLIKEN ATOMIC CHARGES
-----------------------
   0 C :    0.153400
   1 O :   -0.341322
   2 C :    0.057645
   3 C :    0.040924
   4 C :   -0.115943
   5 C :    0.030586
   6 C :    0.032254
   7 H :    0.029681
   8 H :   -0.002087
   9 H :    0.009173
  10 H :   -0.020439
  11 H :    0.021375
  12 H :    0.013083
  13 H :    0.014327
  14 H :    0.002441
  15 H :    0.025267
  16 H :    0.006090
  17 H :    0.007656
  18 H :    0.021129
  19 H :    0.010368
  20 H :    0.004393
Sum of atomic charges:   -0.0000000

LOEWDIN ATOMIC CHARGES
----------------------
   0 C :    0.049697
   1 O :   -0.141503
   2 C :    0.050200
   3 C :   -0.074015
   4 C :   -0.052786
   5 C :   -0.057341
   6 C :   -0.059104
   7 H :    0.022617
   8 H :    0.004052
   9 H :    0.003231
  10 H :    0.003134
  11 H :    0.027320
  12 H :    0.024243
  13 H :    0.030857
  14 H :    0.025826
  15 H :    0.027466
  16 H :    0.021374
  17 H :    0.024076
  18 H :    0.025885
  19 H :    0.023114
  20 H :    0.021657

  Mayer bond orders larger than 0.1
B(  0-C ,  1-O ) :   1.0207 B(  0-C ,  7-H ) :   0.9757 B(  0-C ,  8-H ) :   0.9515
B(  0-C ,  9-H ) :   0.9563 B(  1-O ,  2-C ) :   0.9975 B(  2-C ,  3-C ) :   1.0898
B(  2-C ,  4-C ) :   1.0248 B(  2-C , 10-H ) :   0.9061 B(  3-C , 11-H ) :   0.9467
B(  3-C , 12-H ) :   0.9474 B(  3-C , 13-H ) :   0.9470 B(  4-C ,  5-C ) :   1.0801
B(  4-C ,  6-C ) :   1.0865 B(  4-C , 14-H ) :   0.9020 B(  5-C , 15-H ) :   0.9614
B(  5-C , 16-H ) :   0.9556 B(  5-C , 17-H ) :   0.9568 B(  6-C , 18-H ) :   0.9589
B(  6-C , 19-H ) :   0.9593 B(  6-C , 20-H ) :   0.9559

FINAL SINGLE POINT ENERGY      -311.628062811643

DIPOLE MOMENT
-------------
                                X             Y             Z
Electronic contribution:     -0.35074       1.76720       0.05657
Nuclear contribution   :     -0.04881      -1.87971       0.04115
                        -----------------------------------------
Total Dipole Moment    :     -0.39955      -0.11251       0.09772
                        -----------------------------------------
Magnitude (a.u.)       :      0.42644
Magnitude (Debye)      :      1.08392

                             ****ORCA TERMINATED NORMALLY****
TOTAL RUN TIME: 0 days 0 hours 0 minutes 9 seconds 272 msec
