                         Program Version 3.0.3 - RELEASE   -
|  1> ! RI PBE def2-SVP def2-SVP/J NBO PAL2
|  2> % maxcore 2000
|  3> % output
|  4>     # printlevel mini
|  5>     print[ P_Basis ] 0
|  6>     print[ P_SCFInfo ] 1
|  7>     print[ P_SCFIterInfo ] 1
|  8>     print[ P_OrbEn ] 0
|  9>     print[ P_Cartesian ] 0
| 10> end
| 11> *xyz 0 1
| 12>  C        4.5783920000     2.5651550000     0.2938680000
| 13>  O        3.6655500000     2.3688310000    -0.7531020000
| 14>  C        3.8971690000     1.1849500000    -1.4948040000
| 15>  C        2.6721730000     0.9715430000    -2.3618770000
| 16>  C        5.1768350000     1.2671510000    -2.2984200000
| 17>  C        5.3077130000     2.4164650000    -3.2464320000
| 18>  C        6.1264180000     0.3498260000    -2.1480170000
| 19>  H        4.2794850000     3.4750210000     0.8151320000
| 20>  H        5.6073820000     2.6813200000    -0.0686250000
| 21>  H        4.5585700000     1.7261460000     1.0035490000
| 22>  H        3.9943380000     0.3394940000    -0.7957590000
| 23>  H        2.5147260000     1.8248390000    -3.0240100000
| 24>  H        1.7874230000     0.8645450000    -1.7321000000
| 25>  H        2.7854810000     0.0716860000    -2.9691510000
| 26>  H        5.1197850000     3.3631220000    -2.7327140000
| 27>  H        4.5738550000     2.3484070000    -4.0551480000
| 28>  H        6.3021100000     2.4485760000    -3.6928110000
| 29>  H        6.0130710000    -0.4682170000    -1.4438290000
| 30>  H        7.0439250000     0.3782410000    -2.7264520000
| 31> *
| 32>
| 33>                          ****END OF INPUT****
 Total Charge           Charge          ....    0
 Multiplicity           Mult            ....    1
 Number of Electrons    NEL             ....   56
 Basis Dimension        Dim             ....  158

MULLIKEN ATOMIC CHARGES
-----------------------
   0 C :    0.153080
   1 O :   -0.342064
   2 C :    0.131304
   3 C :    0.023397
   4 C :   -0.205931
   5 C :    0.082578
   6 C :   -0.025174
   7 H :    0.028291
   8 H :    0.011654
   9 H :    0.003333
  10 H :   -0.023776
  11 H :    0.028140
  12 H :    0.025381
  13 H :    0.022256
  14 H :    0.028066
  15 H :    0.033501
  16 H :    0.010073
  17 H :    0.010269
  18 H :    0.005621
Sum of atomic charges:   -0.0000000

LOEWDIN ATOMIC CHARGES
----------------------
   0 C :    0.049070
   1 O :   -0.143189
   2 C :    0.053047
   3 C :   -0.062413
   4 C :   -0.044857
   5 C :   -0.056019
   6 C :   -0.071486
   7 H :    0.022113
   8 H :    0.005327
   9 H :    0.005410
  10 H :    0.007613
  11 H :    0.028456
  12 H :    0.031259
  13 H :    0.032732
  14 H :    0.036066
  15 H :    0.037753
  16 H :    0.030591
  17 H :    0.018969
  18 H :    0.019559

  Mayer bond orders larger than 0.1
B(  0-C ,  1-O ) :   1.0127 B(  0-C ,  7-H ) :   0.9767 B(  0-C ,  8-H ) :   0.9526
B(  0-C ,  9-H ) :   0.9545 B(  1-O ,  2-C ) :   1.0155 B(  2-C ,  3-C ) :   1.0733
B(  2-C ,  4-C ) :   1.0036 B(  2-C , 10-H ) :   0.9008 B(  3-C , 11-H ) :   0.9531
B(  3-C , 12-H ) :   0.9520 B(  3-C , 13-H ) :   0.9563 B(  4-C ,  5-C ) :   1.0741
B(  4-C ,  6-C ) :   1.9752 B(  5-C , 14-H ) :   0.9370 B(  5-C , 15-H ) :   0.9414
B(  5-C , 16-H ) :   0.9474 B(  6-C , 17-H ) :   0.9350 B(  6-C , 18-H ) :   0.9276

FINAL SINGLE POINT ENERGY      -310.409255897479

DIPOLE MOMENT
-------------
                                X             Y             Z
Electronic contribution:     -0.73936       0.23484       1.12902
Nuclear contribution   :      0.94306      -0.35195      -1.10675
                        -----------------------------------------
Total Dipole Moment    :      0.20370      -0.11711       0.02226
                        -----------------------------------------
Magnitude (a.u.)       :      0.23602
Magnitude (Debye)      :      0.59992

                             ****ORCA TERMINATED NORMALLY****
TOTAL RUN TIME: 0 days 0 hours 0 minutes 8 seconds 319 msec
