                         Program Version 3.0.3 - RELEASE   -
|  1> ! RI PBE def2-SVP def2-SVP/J NBO PAL2
|  2> % maxcore 2000
|  3> % output
|  4>     # printlevel mini
|  5>     print[ P_Basis ] 0
|  6>     print[ P_SCFInfo ] 1
|  7>     print[ P_SCFIterInfo ] 1
|  8>     print[ P_OrbEn ] 0
|  9>     print[ P_Cartesian ] 0
| 10> end
| 11> *xyz 0 1
| 12>  C        2.3917890000    -0.3899790000    -0.9357220000
| 13>  O        2.1659460000     0.1650750000     0.3332020000
| 14>  C        2.7529050000     1.4376380000     0.5073670000
| 15>  C        2.2649360000     1.9776470000     1.8384720000
| 16>  C        4.2179350000     1.3909580000     0.4446290000
| 17>  C        5.4195640000     1.3583170000     0.3994740000
| 18>  C        6.8687580000     1.3154690000     0.3508910000
| 19>  H        1.8678360000    -1.3453840000    -0.9652900000
| 20>  H        3.4595080000    -0.5585870000    -1.1196200000
| 21>  H        1.9973700000     0.2575200000    -1.7317220000
| 22>  H        2.4033870000     2.1023540000    -0.3004900000
| 23>  H        2.5942560000     1.3239500000     2.6471940000
| 24>  H        1.1746320000     2.0194040000     1.8387400000
| 25>  H        2.6629850000     2.9782170000     2.0114750000
| 26>  H        7.2431180000     1.6651860000    -0.6144290000
| 27>  H        7.2325220000     0.2963600000     0.5040640000
| 28>  H        7.3046140000     1.9456960000     1.1300970000
| 29> *
| 30>
| 31>                          ****END OF INPUT****
 Total Charge           Charge          ....    0
 Multiplicity           Mult            ....    1
 Number of Electrons    NEL             ....   54
 Basis Dimension        Dim             ....  148

MULLIKEN ATOMIC CHARGES
-----------------------
   0 C :    0.159227
   1 O :   -0.332045
   2 C :    0.130909
   3 C :    0.023207
   4 C :   -0.043473
   5 C :   -0.273373
   6 C :    0.057412
   7 H :    0.027978
   8 H :    0.014662
   9 H :   -0.004300
  10 H :    0.011061
  11 H :    0.031977
  12 H :    0.029172
  13 H :    0.024764
  14 H :    0.045553
  15 H :    0.047838
  16 H :    0.049431
Sum of atomic charges:   -0.0000000

LOEWDIN ATOMIC CHARGES
----------------------
   0 C :    0.050830
   1 O :   -0.139212
   2 C :    0.039373
   3 C :   -0.054276
   4 C :   -0.076752
   5 C :   -0.060840
   6 C :   -0.067320
   7 H :    0.022591
   8 H :    0.008165
   9 H :    0.003876
  10 H :    0.021933
  11 H :    0.033407
  12 H :    0.030961
  13 H :    0.033814
  14 H :    0.049490
  15 H :    0.052190
  16 H :    0.051770

  Mayer bond orders larger than 0.1
B(  0-C ,  1-O ) :   1.0152 B(  0-C ,  7-H ) :   0.9757 B(  0-C ,  8-H ) :   0.9560
B(  0-C ,  9-H ) :   0.9487 B(  1-O ,  2-C ) :   1.0489 B(  2-C ,  3-C ) :   1.0742
B(  2-C ,  4-C ) :   0.9442 B(  2-C , 10-H ) :   0.9026 B(  3-C , 11-H ) :   0.9575
B(  3-C , 12-H ) :   0.9527 B(  3-C , 13-H ) :   0.9549 B(  4-C ,  5-C ) :   2.6575
B(  5-C ,  6-C ) :   1.1356 B(  6-C , 14-H ) :   0.9332 B(  6-C , 15-H ) :   0.9300
B(  6-C , 16-H ) :   0.9325

FINAL SINGLE POINT ENERGY      -309.170234201907

DIPOLE MOMENT
-------------
                                X             Y             Z
Electronic contribution:     -0.68705      -0.40129       0.35054
Nuclear contribution   :      1.14530       0.58936      -0.63952
                        -----------------------------------------
Total Dipole Moment    :      0.45826       0.18808      -0.28898
                        -----------------------------------------
Magnitude (a.u.)       :      0.57348
Magnitude (Debye)      :      1.45767

                             ****ORCA TERMINATED NORMALLY****
TOTAL RUN TIME: 0 days 0 hours 0 minutes 7 seconds 54 msec
