                         Program Version 3.0.3 - RELEASE   -
|  1> ! RI PBE def2-SVP def2-SVP/J NBO PAL2
|  2> % maxcore 2000
|  3> % output
|  4>     # printlevel mini
|  5>     print[ P_Basis ] 0
|  6>     print[ P_SCFInfo ] 1
|  7>     print[ P_SCFIterInfo ] 1
|  8>     print[ P_OrbEn ] 0
|  9>     print[ P_Cartesian ] 0
| 10> end
| 11> *xyz 0 1
| 12>  C        2.6606830000    -0.5107110000    -1.1573670000
| 13>  O        2.4798040000    -0.0647320000     0.1576570000
| 14>  C        2.8212480000     1.2916780000     0.3722110000
| 15>  C        2.1647580000     1.7111660000     1.6680770000
| 16>  C        4.3396080000     1.5108870000     0.3819810000
| 17>  C        5.0527470000     0.7415310000     1.4431520000
| 18>  C        5.8838510000     1.2645760000     2.3339980000
| 19>  H        2.2489620000    -1.5189110000    -1.2161920000
| 20>  H        3.7178290000    -0.5525740000    -1.4502180000
| 21>  H        2.1286230000     0.1299670000    -1.8749650000
| 22>  H        2.4051060000     1.8916060000    -0.4534350000
| 23>  H        2.5402120000     1.1108890000     2.4989960000
| 24>  H        1.0839050000     1.5770160000     1.6041160000
| 25>  H        2.3764450000     2.7608430000     1.8834260000
| 26>  H        4.5377220000     2.5814710000     0.4936640000
| 27>  H        4.7363570000     1.2258730000    -0.5999820000
| 28>  H        4.8578860000    -0.3285240000     1.4631390000
| 29>  H        6.1013820000     2.3286050000     2.3519770000
| 30>  H        6.3810820000     0.6500540000     3.0757660000
| 31> *
| 32>
| 33>                          ****END OF INPUT****
 Total Charge           Charge          ....    0
 Multiplicity           Mult            ....    1
 Number of Electrons    NEL             ....   56
 Basis Dimension        Dim             ....  158

MULLIKEN ATOMIC CHARGES
-----------------------
   0 C :    0.152976
   1 O :   -0.337543
   2 C :    0.031968
   3 C :    0.032014
   4 C :    0.069000
   5 C :   -0.077199
   6 C :   -0.039112
   7 H :    0.028768
   8 H :    0.006150
   9 H :    0.002857
  10 H :   -0.010412
  11 H :    0.027890
  12 H :    0.030430
  13 H :    0.014636
  14 H :    0.003526
  15 H :    0.015783
  16 H :    0.011020
  17 H :    0.013591
  18 H :    0.023658
Sum of atomic charges:   -0.0000000

LOEWDIN ATOMIC CHARGES
----------------------
   0 C :    0.049199
   1 O :   -0.144984
   2 C :    0.049831
   3 C :   -0.066915
   4 C :   -0.054010
   5 C :   -0.026098
   6 C :   -0.068683
   7 H :    0.023827
   8 H :    0.001556
   9 H :    0.005527
  10 H :    0.005653
  11 H :    0.031288
  12 H :    0.030341
  13 H :    0.030277
  14 H :    0.031225
  15 H :    0.032027
  16 H :    0.026638
  17 H :    0.019375
  18 H :    0.023926

  Mayer bond orders larger than 0.1
B(  0-C ,  1-O ) :   1.0219 B(  0-C ,  7-H ) :   0.9742 B(  0-C ,  8-H ) :   0.9531
B(  0-C ,  9-H ) :   0.9527 B(  1-O ,  2-C ) :   1.0147 B(  2-C ,  3-C ) :   1.0835
B(  2-C ,  4-C ) :   1.0406 B(  2-C , 10-H ) :   0.9089 B(  3-C , 11-H ) :   0.9480
B(  3-C , 12-H ) :   0.9564 B(  3-C , 13-H ) :   0.9535 B(  4-C ,  5-C ) :   1.0515
B(  4-C , 14-H ) :   0.9185 B(  4-C , 15-H ) :   0.9053 B(  5-C ,  6-C ) :   2.0007
B(  5-C , 16-H ) :   0.9557 B(  6-C , 17-H ) :   0.9467 B(  6-C , 18-H ) :   0.9458

FINAL SINGLE POINT ENERGY      -310.403722762727

DIPOLE MOMENT
-------------
                                X             Y             Z
Electronic contribution:     -0.11103      -1.56464       0.26271
Nuclear contribution   :      0.14253       1.77063      -0.68414
                        -----------------------------------------
Total Dipole Moment    :      0.03150       0.20598      -0.42143
                        -----------------------------------------
Magnitude (a.u.)       :      0.47013
Magnitude (Debye)      :      1.19498

                             ****ORCA TERMINATED NORMALLY****
TOTAL RUN TIME: 0 days 0 hours 0 minutes 8 seconds 284 msec
