                         Program Version 3.0.3 - RELEASE   -
|  1> ! RI PBE def2-SVP def2-SVP/J NBO PAL2
|  2> % maxcore 2000
|  3> % output
|  4>     # printlevel mini
|  5>     print[ P_Basis ] 0
|  6>     print[ P_SCFInfo ] 1
|  7>     print[ P_SCFIterInfo ] 1
|  8>     print[ P_OrbEn ] 0
|  9>     print[ P_Cartesian ] 0
| 10> end
| 11> *xyz 0 1
| 12>  C        1.6736340000     0.0619420000     1.1883630000
| 13>  O        2.9247170000     0.6801260000     1.0594990000
| 14>  C        2.9294420000     1.8229230000     0.2301160000
| 15>  C        2.2298980000     3.0093480000     0.8651990000
| 16>  C        4.4057450000     2.1036240000    -0.0500420000
| 17>  C        4.6190450000     3.1681540000    -1.0129800000
| 18>  C        4.7834360000     4.0446980000    -1.8169010000
| 19>  H        1.8298880000    -0.8686650000     1.7346630000
| 20>  H        1.2399690000    -0.1736130000     0.2063430000
| 21>  H        0.9569170000     0.6760790000     1.7470280000
| 22>  H        2.4366110000     1.5768640000    -0.7237130000
| 23>  H        2.6813240000     3.2357320000     1.8347700000
| 24>  H        1.1662110000     2.8167140000     1.0147390000
| 25>  H        2.3237000000     3.8873560000     0.2235250000
| 26>  H        4.8654830000     1.1799050000    -0.4132560000
| 27>  H        4.8995960000     2.3512360000     0.8959540000
| 28>  H        4.9370950000     4.8210680000    -2.5283060000
| 29> *
| 30>
| 31>                          ****END OF INPUT****
 Total Charge           Charge          ....    0
 Multiplicity           Mult            ....    1
 Number of Electrons    NEL             ....   54
 Basis Dimension        Dim             ....  148

MULLIKEN ATOMIC CHARGES
-----------------------
   0 C :    0.150897
   1 O :   -0.334386
   2 C :    0.021776
   3 C :    0.013408
   4 C :    0.124260
   5 C :    0.323561
   6 C :   -0.499627
   7 H :    0.032270
   8 H :    0.002191
   9 H :    0.009855
  10 H :    0.002698
  11 H :    0.017199
  12 H :    0.025832
  13 H :    0.035157
  14 H :    0.040268
  15 H :    0.037729
  16 H :   -0.003088
Sum of atomic charges:    0.0000000

LOEWDIN ATOMIC CHARGES
----------------------
   0 C :    0.051096
   1 O :   -0.144428
   2 C :    0.054041
   3 C :   -0.075359
   4 C :   -0.047615
   5 C :   -0.019524
   6 C :   -0.092753
   7 H :    0.024337
   8 H :    0.006149
   9 H :    0.004121
  10 H :    0.009953
  11 H :    0.029710
  12 H :    0.026826
  13 H :    0.037576
  14 H :    0.051786
  15 H :    0.050367
  16 H :    0.033719

  Mayer bond orders larger than 0.1
B(  0-C ,  1-O ) :   1.0165 B(  0-C ,  7-H ) :   0.9753 B(  0-C ,  8-H ) :   0.9530
B(  0-C ,  9-H ) :   0.9570 B(  1-O ,  2-C ) :   1.0307 B(  2-C ,  3-C ) :   1.0842
B(  2-C ,  4-C ) :   1.0322 B(  2-C , 10-H ) :   0.9162 B(  3-C , 11-H ) :   0.9454
B(  3-C , 12-H ) :   0.9516 B(  3-C , 13-H ) :   0.9467 B(  4-C ,  5-C ) :   1.0362
B(  4-C , 14-H ) :   0.8924 B(  4-C , 15-H ) :   0.8902 B(  5-C ,  6-C ) :   2.3350
B(  5-C , 16-H ) :  -0.1133 B(  6-C , 16-H ) :   1.1044

FINAL SINGLE POINT ENERGY      -309.161576529582

DIPOLE MOMENT
-------------
                                X             Y             Z
Electronic contribution:      4.70188       0.89933      -2.42612
Nuclear contribution   :     -5.16459      -0.95855       2.43814
                        -----------------------------------------
Total Dipole Moment    :     -0.46271      -0.05922       0.01203
                        -----------------------------------------
Magnitude (a.u.)       :      0.46664
Magnitude (Debye)      :      1.18610

                             ****ORCA TERMINATED NORMALLY****
TOTAL RUN TIME: 0 days 0 hours 0 minutes 7 seconds 51 msec
