                         Program Version 3.0.3 - RELEASE   -
|  1> ! RI PBE def2-SVP def2-SVP/J NBO PAL2
|  2> % maxcore 2000
|  3> % output
|  4>     # printlevel mini
|  5>     print[ P_Basis ] 0
|  6>     print[ P_SCFInfo ] 1
|  7>     print[ P_SCFIterInfo ] 1
|  8>     print[ P_OrbEn ] 0
|  9>     print[ P_Cartesian ] 0
| 10> end
| 11> *xyz 0 1
| 12>  C        2.4120250000    -1.2439360000    -0.2509050000
| 13>  O        2.2494010000     0.1434230000    -0.0741730000
| 14>  C        2.8321320000     0.8989880000    -1.1099270000
| 15>  C        2.4067490000     2.2901790000    -0.9734070000
| 16>  C        2.0545690000     3.4321720000    -0.8920320000
| 17>  C        4.2988170000     0.7978100000    -1.1310660000
| 18>  C        5.4927680000     0.6900120000    -1.1561120000
| 19>  H        1.8938680000    -1.7262000000     0.5767600000
| 20>  H        3.4687710000    -1.5333900000    -0.2337290000
| 21>  H        1.9667540000    -1.5791680000    -1.1974940000
| 22>  H        2.4635810000     0.5291670000    -2.0827770000
| 23>  H        1.7430190000     4.4466430000    -0.8091460000
| 24>  H        6.5540460000     0.6064310000    -1.1723110000
| 25> *
| 26>
| 27>                          ****END OF INPUT****
 Total Charge           Charge          ....    0
 Multiplicity           Mult            ....    1
 Number of Electrons    NEL             ....   50
 Basis Dimension        Dim             ....  128

MULLIKEN ATOMIC CHARGES
-----------------------
   0 C :    0.153934
   1 O :   -0.317686
   2 C :    0.255427
   3 C :    0.386582
   4 C :   -0.465210
   5 C :    0.353663
   6 C :   -0.489788
   7 H :    0.041395
   8 H :    0.020245
   9 H :    0.003247
  10 H :    0.043379
  11 H :    0.008645
  12 H :    0.006167
Sum of atomic charges:    0.0000000

LOEWDIN ATOMIC CHARGES
----------------------
   0 C :    0.054439
   1 O :   -0.125221
   2 C :    0.037665
   3 C :   -0.009998
   4 C :   -0.047933
   5 C :   -0.025444
   6 C :   -0.054732
   7 H :    0.028303
   8 H :    0.011850
   9 H :    0.007642
  10 H :    0.045966
  11 H :    0.038986
  12 H :    0.038478

  Mayer bond orders larger than 0.1
B(  0-C ,  1-O ) :   0.9982 B(  0-C ,  7-H ) :   0.9769 B(  0-C ,  8-H ) :   0.9569
B(  0-C ,  9-H ) :   0.9503 B(  1-O ,  2-C ) :   1.0952 B(  2-C ,  3-C ) :   0.9294
B(  2-C ,  5-C ) :   0.9293 B(  2-C , 10-H ) :   0.8942 B(  3-C ,  4-C ) :   2.3971
B(  3-C , 11-H ) :  -0.1059 B(  4-C , 11-H ) :   1.0958 B(  5-C ,  6-C ) :   2.3772
B(  5-C , 12-H ) :  -0.1163 B(  6-C , 12-H ) :   1.1064

FINAL SINGLE POINT ENERGY      -306.677763711145

DIPOLE MOMENT
-------------
                                X             Y             Z
Electronic contribution:      0.46193       4.09960      -0.06804
Nuclear contribution   :     -0.29023      -4.42783      -0.27595
                        -----------------------------------------
Total Dipole Moment    :      0.17171      -0.32823      -0.34400
                        -----------------------------------------
Magnitude (a.u.)       :      0.50552
Magnitude (Debye)      :      1.28493

                             ****ORCA TERMINATED NORMALLY****
TOTAL RUN TIME: 0 days 0 hours 0 minutes 6 seconds 81 msec
