                         Program Version 3.0.3 - RELEASE   -
|  1> ! RI PBE def2-SVP def2-SVP/J NBO PAL2
|  2> % maxcore 2000
|  3> % output
|  4>     # printlevel mini
|  5>     print[ P_Basis ] 0
|  6>     print[ P_SCFInfo ] 1
|  7>     print[ P_SCFIterInfo ] 1
|  8>     print[ P_OrbEn ] 0
|  9>     print[ P_Cartesian ] 0
| 10> end
| 11> *xyz 0 1
| 12>  C        0.9973050000    -1.2514120000    -1.5886690000
| 13>  O        2.3947720000    -1.2448130000    -1.5252380000
| 14>  C        2.9494710000    -0.0939380000    -2.1221180000
| 15>  C        4.4232090000    -0.1101230000    -1.9214260000
| 16>  C        5.3770050000     0.0667990000    -2.8357910000
| 17>  C        5.1362690000     0.3067730000    -4.2934060000
| 18>  C        6.8219470000     0.0465040000    -2.4423540000
| 19>  H        0.6489470000    -2.1633630000    -1.1029520000
| 20>  H        0.6373750000    -1.2438580000    -2.6277790000
| 21>  H        0.5639580000    -0.3840190000    -1.0696560000
| 22>  H        2.5174550000     0.8037440000    -1.6458820000
| 23>  H        2.6763660000    -0.0511790000    -3.1851870000
| 24>  H        4.7251240000    -0.2801490000    -0.8902260000
| 25>  H        4.0892530000     0.2207690000    -4.5798780000
| 26>  H        5.7141510000    -0.4033000000    -4.8938680000
| 27>  H        5.4813390000     1.3064960000    -4.5788910000
| 28>  H        6.9485550000    -0.1280780000    -1.3732450000
| 29>  H        7.3100440000     0.9938450000    -2.6964750000
| 30>  H        7.3610640000    -0.7366260000    -2.9864370000
| 31> *
| 32>
| 33>                          ****END OF INPUT****
 Total Charge           Charge          ....    0
 Multiplicity           Mult            ....    1
 Number of Electrons    NEL             ....   56
 Basis Dimension        Dim             ....  158

MULLIKEN ATOMIC CHARGES
-----------------------
   0 C :    0.151193
   1 O :   -0.353373
   2 C :    0.249118
   3 C :   -0.083299
   4 C :   -0.191633
   5 C :    0.074143
   6 C :    0.041421
   7 H :    0.030399
   8 H :   -0.001481
   9 H :   -0.000586
  10 H :   -0.007000
  11 H :   -0.016892
  12 H :   -0.016046
  13 H :    0.005951
  14 H :    0.023635
  15 H :    0.023562
  16 H :    0.018057
  17 H :    0.025372
  18 H :    0.027459
Sum of atomic charges:   -0.0000000

LOEWDIN ATOMIC CHARGES
----------------------
   0 C :    0.047080
   1 O :   -0.151358
   2 C :    0.059927
   3 C :   -0.068969
   4 C :   -0.035232
   5 C :   -0.056955
   6 C :   -0.055143
   7 H :    0.022571
   8 H :    0.002387
   9 H :    0.002831
  10 H :    0.009935
  11 H :    0.004523
  12 H :    0.024489
  13 H :    0.024869
  14 H :    0.035356
  15 H :    0.036220
  16 H :    0.030220
  17 H :    0.032969
  18 H :    0.034280

  Mayer bond orders larger than 0.1
B(  0-C ,  1-O ) :   1.0264 B(  0-C ,  7-H ) :   0.9765 B(  0-C ,  8-H ) :   0.9542
B(  0-C ,  9-H ) :   0.9530 B(  1-O ,  2-C ) :   0.9970 B(  2-C ,  3-C ) :   1.0440
B(  2-C , 10-H ) :   0.8981 B(  2-C , 11-H ) :   0.9181 B(  3-C ,  4-C ) :   1.8936
B(  3-C , 12-H ) :   0.9408 B(  4-C ,  5-C ) :   1.0984 B(  4-C ,  6-C ) :   1.0818
B(  5-C , 13-H ) :   0.9437 B(  5-C , 14-H ) :   0.9407 B(  5-C , 15-H ) :   0.9414
B(  6-C , 16-H ) :   0.9537 B(  6-C , 17-H ) :   0.9489 B(  6-C , 18-H ) :   0.9451

FINAL SINGLE POINT ENERGY      -310.407001493071

DIPOLE MOMENT
-------------
                                X             Y             Z
Electronic contribution:     -1.19260      -1.57784       2.48749
Nuclear contribution   :      1.11716       1.91907      -2.81004
                        -----------------------------------------
Total Dipole Moment    :     -0.07543       0.34124      -0.32255
                        -----------------------------------------
Magnitude (a.u.)       :      0.47558
Magnitude (Debye)      :      1.20882

                             ****ORCA TERMINATED NORMALLY****
TOTAL RUN TIME: 0 days 0 hours 0 minutes 6 seconds 999 msec
