                         Program Version 3.0.3 - RELEASE   -
|  1> ! RI PBE def2-SVP def2-SVP/J NBO PAL2
|  2> % maxcore 2000
|  3> % output
|  4>     # printlevel mini
|  5>     print[ P_Basis ] 0
|  6>     print[ P_SCFInfo ] 1
|  7>     print[ P_SCFIterInfo ] 1
|  8>     print[ P_OrbEn ] 0
|  9>     print[ P_Cartesian ] 0
| 10> end
| 11> *xyz 0 1
| 12>  C        1.0375460000     2.7851810000    -0.2563710000
| 13>  O        2.4092460000     2.5653420000    -0.4316180000
| 14>  C        3.0067380000     1.9919940000     0.7060370000
| 15>  C        4.4345060000     1.6978210000     0.4188210000
| 16>  C        5.4501120000     2.0683640000     1.1996460000
| 17>  C        6.8363220000     1.7420610000     0.9391740000
| 18>  C        7.8508690000     2.1048810000     1.7233440000
| 19>  H        0.6533450000     3.2187490000    -1.1798460000
| 20>  H        0.8411150000     3.4815220000     0.5712080000
| 21>  H        0.5008610000     1.8475530000    -0.0522850000
| 22>  H        2.4771620000     1.0580910000     0.9648700000
| 23>  H        2.9191840000     2.6641270000     1.5734440000
| 24>  H        4.6280450000     1.1266960000    -0.4866820000
| 25>  H        5.2461610000     2.6519720000     2.0962560000
| 26>  H        7.0364080000     1.1652060000     0.0387340000
| 27>  H        7.6854710000     2.6795430000     2.6291390000
| 28>  H        8.8742300000     1.8410180000     1.4867180000
| 29> *
| 30>
| 31>                          ****END OF INPUT****
 Total Charge           Charge          ....    0
 Multiplicity           Mult            ....    1
 Number of Electrons    NEL             ....   54
 Basis Dimension        Dim             ....  148

MULLIKEN ATOMIC CHARGES
-----------------------
   0 C :    0.145616
   1 O :   -0.349300
   2 C :    0.236825
   3 C :   -0.071290
   4 C :    0.011131
   5 C :   -0.009187
   6 C :   -0.029419
   7 H :    0.033660
   8 H :    0.004881
   9 H :    0.002482
  10 H :    0.003227
  11 H :   -0.008212
  12 H :    0.002392
  13 H :   -0.013884
  14 H :   -0.004799
  15 H :    0.019136
  16 H :    0.026741
Sum of atomic charges:   -0.0000000

LOEWDIN ATOMIC CHARGES
----------------------
   0 C :    0.048161
   1 O :   -0.150885
   2 C :    0.059045
   3 C :   -0.030890
   4 C :   -0.032895
   5 C :   -0.030241
   6 C :   -0.050983
   7 H :    0.023855
   8 H :    0.004776
   9 H :    0.004201
  10 H :    0.013333
  11 H :    0.008175
  12 H :    0.028144
  13 H :    0.026524
  14 H :    0.030361
  15 H :    0.023222
  16 H :    0.026096

  Mayer bond orders larger than 0.1
B(  0-C ,  1-O ) :   1.0203 B(  0-C ,  7-H ) :   0.9765 B(  0-C ,  8-H ) :   0.9558
B(  0-C ,  9-H ) :   0.9537 B(  1-O ,  2-C ) :   1.0036 B(  2-C ,  3-C ) :   1.0363
B(  2-C , 10-H ) :   0.8989 B(  2-C , 11-H ) :   0.9228 B(  3-C ,  4-C ) :   1.7912
B(  3-C ,  6-C ) :   0.1372 B(  3-C , 12-H ) :   0.9616 B(  4-C ,  5-C ) :   1.1355
B(  4-C , 13-H ) :   0.9566 B(  5-C ,  6-C ) :   1.8882 B(  5-C , 14-H ) :   0.9627
B(  6-C , 15-H ) :   0.9466 B(  6-C , 16-H ) :   0.9429

FINAL SINGLE POINT ENERGY      -309.187759719857

DIPOLE MOMENT
-------------
                                X             Y             Z
Electronic contribution:      1.86241      -0.26837      -1.33498
Nuclear contribution   :     -2.16964       0.15341       1.64640
                        -----------------------------------------
Total Dipole Moment    :     -0.30723      -0.11496       0.31141
                        -----------------------------------------
Magnitude (a.u.)       :      0.45231
Magnitude (Debye)      :      1.14967

                             ****ORCA TERMINATED NORMALLY****
TOTAL RUN TIME: 0 days 0 hours 0 minutes 7 seconds 451 msec
