                         Program Version 3.0.3 - RELEASE   -
|  1> ! RI PBE def2-SVP def2-SVP/J NBO PAL2
|  2> % maxcore 2000
|  3> % output
|  4>     # printlevel mini
|  5>     print[ P_Basis ] 0
|  6>     print[ P_SCFInfo ] 1
|  7>     print[ P_SCFIterInfo ] 1
|  8>     print[ P_OrbEn ] 0
|  9>     print[ P_Cartesian ] 0
| 10> end
| 11> *xyz 0 1
| 12>  C        1.7674020000     0.3698180000    -0.6202870000
| 13>  O        3.0727400000     0.2306590000    -0.1303600000
| 14>  C        3.1068880000    -0.4049190000     1.1221150000
| 15>  C        4.5057030000    -0.4249400000     1.6229550000
| 16>  C        5.1074420000    -1.5221630000     2.0843810000
| 17>  C        6.4220460000    -1.5496720000     2.6119060000
| 18>  C        7.5352550000    -1.6091770000     3.0649500000
| 19>  H        1.8312100000     0.8761840000    -1.5833190000
| 20>  H        1.1439590000     0.9694230000     0.0580300000
| 21>  H        1.2827850000    -0.6061530000    -0.7632060000
| 22>  H        2.7057210000    -1.4279200000     1.0553240000
| 23>  H        2.4691400000     0.1478520000     1.8342920000
| 24>  H        5.0342410000     0.5237770000     1.6174020000
| 25>  H        4.5753010000    -2.4712240000     2.0702020000
| 26>  H        8.5215670000    -1.6515450000     3.4622160000
| 27> *
| 28>
| 29>                          ****END OF INPUT****
 Total Charge           Charge          ....    0
 Multiplicity           Mult            ....    1
 Number of Electrons    NEL             ....   52
 Basis Dimension        Dim             ....  138

MULLIKEN ATOMIC CHARGES
-----------------------
   0 C :    0.143468
   1 O :   -0.347975
   2 C :    0.230262
   3 C :   -0.041269
   4 C :   -0.072103
   5 C :    0.390748
   6 C :   -0.408422
   7 H :    0.035384
   8 H :    0.006927
   9 H :    0.005314
  10 H :   -0.006883
  11 H :    0.009088
  12 H :    0.019972
  13 H :    0.028157
  14 H :    0.007332
Sum of atomic charges:   -0.0000000

LOEWDIN ATOMIC CHARGES
----------------------
   0 C :    0.049235
   1 O :   -0.148768
   2 C :    0.059102
   3 C :   -0.003927
   4 C :   -0.050304
   5 C :   -0.017512
   6 C :   -0.063634
   7 H :    0.024898
   8 H :    0.005435
   9 H :    0.005614
  10 H :    0.008975
  11 H :    0.016152
  12 H :    0.036077
  13 H :    0.042240
  14 H :    0.036418

  Mayer bond orders larger than 0.1
B(  0-C ,  1-O ) :   1.0203 B(  0-C ,  7-H ) :   0.9755 B(  0-C ,  8-H ) :   0.9547
B(  0-C ,  9-H ) :   0.9555 B(  1-O ,  2-C ) :   1.0051 B(  2-C ,  3-C ) :   1.0426
B(  2-C , 10-H ) :   0.9213 B(  2-C , 11-H ) :   0.8999 B(  3-C ,  4-C ) :   1.8178
B(  3-C ,  6-C ) :   0.1313 B(  3-C , 12-H ) :   0.9633 B(  4-C ,  5-C ) :   1.0473
B(  4-C , 13-H ) :   0.9378 B(  5-C ,  6-C ) :   2.2829 B(  6-C , 14-H ) :   1.0851

FINAL SINGLE POINT ENERGY      -307.940657979659

DIPOLE MOMENT
-------------
                                X             Y             Z
Electronic contribution:      6.25869      -1.44657       2.55397
Nuclear contribution   :     -6.84154       1.41779      -2.46737
                        -----------------------------------------
Total Dipole Moment    :     -0.58285      -0.02879       0.08660
                        -----------------------------------------
Magnitude (a.u.)       :      0.58995
Magnitude (Debye)      :      1.49953

                             ****ORCA TERMINATED NORMALLY****
TOTAL RUN TIME: 0 days 0 hours 0 minutes 6 seconds 809 msec
