                         Program Version 3.0.3 - RELEASE   -
|  1> ! RI PBE def2-SVP def2-SVP/J NBO PAL2
|  2> % maxcore 2000
|  3> % output
|  4>     # printlevel mini
|  5>     print[ P_Basis ] 0
|  6>     print[ P_SCFInfo ] 1
|  7>     print[ P_SCFIterInfo ] 1
|  8>     print[ P_OrbEn ] 0
|  9>     print[ P_Cartesian ] 0
| 10> end
| 11> *xyz 0 1
| 12>  C        1.7804620000    -2.5169630000     1.1531240000
| 13>  O        3.1379580000    -2.3704840000     0.8436820000
| 14>  C        3.5596130000    -1.0317520000     0.9441030000
| 15>  C        5.0197710000    -0.9143580000     0.6208310000
| 16>  C        5.4152180000    -0.2025800000    -0.4376820000
| 17>  C        6.0025310000    -1.5397290000     1.4994980000
| 18>  C        5.7347360000    -2.2728280000     2.5778970000
| 19>  H        1.5319270000    -3.5735320000     1.0514260000
| 20>  H        1.1451700000    -1.9347120000     0.4704360000
| 21>  H        1.5621060000    -2.1965000000     2.1821710000
| 22>  H        3.3758750000    -0.6587470000     1.9656150000
| 23>  H        2.9803740000    -0.3993260000     0.2561910000
| 24>  H        4.7021770000     0.2747500000    -1.0997930000
| 25>  H        6.4673210000    -0.0774220000    -0.6699860000
| 26>  H        7.0408520000    -1.3674900000     1.2249530000
| 27>  H        4.7191580000    -2.5006090000     2.8780750000
| 28>  H        6.5337500000    -2.6854090000     3.1820810000
| 29> *
| 30>
| 31>                          ****END OF INPUT****
 Total Charge           Charge          ....    0
 Multiplicity           Mult            ....    1
 Number of Electrons    NEL             ....   54
 Basis Dimension        Dim             ....  148

MULLIKEN ATOMIC CHARGES
-----------------------
   0 C :    0.155955
   1 O :   -0.345265
   2 C :    0.241465
   3 C :   -0.080623
   4 C :   -0.036511
   5 C :   -0.002349
   6 C :   -0.014455
   7 H :    0.032974
   8 H :    0.003032
   9 H :   -0.001202
  10 H :   -0.003614
  11 H :   -0.016261
  12 H :    0.019349
  13 H :    0.016623
  14 H :   -0.016441
  15 H :    0.022366
  16 H :    0.024959
Sum of atomic charges:   -0.0000000

LOEWDIN ATOMIC CHARGES
----------------------
   0 C :    0.049504
   1 O :   -0.144692
   2 C :    0.069317
   3 C :   -0.040214
   4 C :   -0.037039
   5 C :   -0.026498
   6 C :   -0.043550
   7 H :    0.023910
   8 H :    0.004603
   9 H :    0.003332
  10 H :    0.009275
  11 H :    0.008270
  12 H :    0.023115
  13 H :    0.023009
  14 H :    0.028656
  15 H :    0.022620
  16 H :    0.026382

  Mayer bond orders larger than 0.1
B(  0-C ,  1-O ) :   1.0213 B(  0-C ,  7-H ) :   0.9761 B(  0-C ,  8-H ) :   0.9548
B(  0-C ,  9-H ) :   0.9526 B(  1-O ,  2-C ) :   1.0084 B(  2-C ,  3-C ) :   1.0427
B(  2-C , 10-H ) :   0.8978 B(  2-C , 11-H ) :   0.9083 B(  3-C ,  4-C ) :   1.8931
B(  3-C ,  5-C ) :   1.1202 B(  4-C ,  6-C ) :   0.1375 B(  4-C , 12-H ) :   0.9319
B(  4-C , 13-H ) :   0.9428 B(  5-C ,  6-C ) :   1.9113 B(  5-C , 14-H ) :   0.9566
B(  6-C , 15-H ) :   0.9282 B(  6-C , 16-H ) :   0.9404

FINAL SINGLE POINT ENERGY      -309.184527335613

DIPOLE MOMENT
-------------
                                X             Y             Z
Electronic contribution:      2.36521      -0.35042      -0.92983
Nuclear contribution   :     -2.68190       0.62032       1.03870
                        -----------------------------------------
Total Dipole Moment    :     -0.31669       0.26990       0.10887
                        -----------------------------------------
Magnitude (a.u.)       :      0.43011
Magnitude (Debye)      :      1.09324

                             ****ORCA TERMINATED NORMALLY****
TOTAL RUN TIME: 0 days 0 hours 0 minutes 7 seconds 858 msec
