                         Program Version 3.0.3 - RELEASE   -
|  1> ! RI PBE def2-SVP def2-SVP/J NBO PAL2
|  2> % maxcore 2000
|  3> % output
|  4>     # printlevel mini
|  5>     print[ P_Basis ] 0
|  6>     print[ P_SCFInfo ] 1
|  7>     print[ P_SCFIterInfo ] 1
|  8>     print[ P_OrbEn ] 0
|  9>     print[ P_Cartesian ] 0
| 10> end
| 11> *xyz 0 1
| 12>  C        0.9700230000     0.2712320000     0.0174390000
| 13>  O        2.3662680000     0.3061460000    -0.1000470000
| 14>  C        2.9737660000     0.9410690000     0.9832580000
| 15>  C        4.4677920000     0.9602010000     0.8218510000
| 16>  C        5.0934320000     0.4312800000    -0.2294170000
| 17>  C        5.1722640000     1.5914480000     1.8862190000
| 18>  C        5.7230760000     2.1339920000     2.8080460000
| 19>  H        0.5804900000    -0.2376140000    -0.8640870000
| 20>  H        0.5442130000     1.2829330000     0.0625840000
| 21>  H        0.6549590000    -0.2784560000     0.9149160000
| 22>  H        2.7239610000     0.4306920000     1.9278050000
| 23>  H        2.6128510000     1.9777870000     1.0832470000
| 24>  H        4.5263970000    -0.0411170000    -1.0202230000
| 25>  H        6.1722810000     0.4658000000    -0.3075210000
| 26>  H        6.2267480000     2.6107270000     3.6153290000
| 27> *
| 28>
| 29>                          ****END OF INPUT****
 Total Charge           Charge          ....    0
 Multiplicity           Mult            ....    1
 Number of Electrons    NEL             ....   52
 Basis Dimension        Dim             ....  138

MULLIKEN ATOMIC CHARGES
-----------------------
   0 C :    0.149864
   1 O :   -0.340832
   2 C :    0.263272
   3 C :   -0.184714
   4 C :    0.024337
   5 C :    0.399872
   6 C :   -0.445078
   7 H :    0.036154
   8 H :    0.008355
   9 H :    0.008944
  10 H :    0.008952
  11 H :    0.011200
  12 H :    0.030836
  13 H :    0.023785
  14 H :    0.005052
Sum of atomic charges:   -0.0000000

LOEWDIN ATOMIC CHARGES
----------------------
   0 C :    0.054154
   1 O :   -0.137402
   2 C :    0.073662
   3 C :   -0.064792
   4 C :   -0.022463
   5 C :   -0.010209
   6 C :   -0.066986
   7 H :    0.025175
   8 H :    0.007284
   9 H :    0.007371
  10 H :    0.019110
  11 H :    0.019419
  12 H :    0.028730
  13 H :    0.030487
  14 H :    0.036461

  Mayer bond orders larger than 0.1
B(  0-C ,  1-O ) :   1.0083 B(  0-C ,  7-H ) :   0.9769 B(  0-C ,  8-H ) :   0.9564
B(  0-C ,  9-H ) :   0.9567 B(  1-O ,  2-C ) :   1.0465 B(  2-C ,  3-C ) :   0.9918
B(  2-C , 10-H ) :   0.9088 B(  2-C , 11-H ) :   0.9103 B(  3-C ,  4-C ) :   1.9290
B(  3-C ,  5-C ) :   1.0157 B(  4-C ,  6-C ) :   0.1242 B(  4-C , 12-H ) :   0.9209
B(  4-C , 13-H ) :   0.9344 B(  5-C ,  6-C ) :   2.2821 B(  5-C , 14-H ) :  -0.1021
B(  6-C , 14-H ) :   1.0925

FINAL SINGLE POINT ENERGY      -307.940947542183

DIPOLE MOMENT
-------------
                                X             Y             Z
Electronic contribution:      4.70733       1.06601       1.33465
Nuclear contribution   :     -5.19411      -0.98871      -1.13336
                        -----------------------------------------
Total Dipole Moment    :     -0.48678       0.07729       0.20129
                        -----------------------------------------
Magnitude (a.u.)       :      0.53239
Magnitude (Debye)      :      1.35324

                             ****ORCA TERMINATED NORMALLY****
TOTAL RUN TIME: 0 days 0 hours 0 minutes 6 seconds 511 msec
