                         Program Version 3.0.3 - RELEASE   -
|  1> ! RI PBE def2-SVP def2-SVP/J NBO PAL2
|  2> % maxcore 2000
|  3> % output
|  4>     # printlevel mini
|  5>     print[ P_Basis ] 0
|  6>     print[ P_SCFInfo ] 1
|  7>     print[ P_SCFIterInfo ] 1
|  8>     print[ P_OrbEn ] 0
|  9>     print[ P_Cartesian ] 0
| 10> end
| 11> *xyz 0 1
| 12>  C        2.1545400000    -0.6101190000     1.0414750000
| 13>  O        3.5251160000    -0.3762630000     1.1948580000
| 14>  C        3.9108220000     0.8853150000     0.6986610000
| 15>  C        5.3960800000     1.0450740000     0.8053250000
| 16>  C        6.1933190000    -0.0048800000     0.1004500000
| 17>  C        5.8967360000     2.0833250000     1.4754440000
| 18>  C        7.3277060000     2.4548910000     1.6614920000
| 19>  H        1.9414740000    -1.6025330000     1.4399010000
| 20>  H        1.8545970000    -0.5790140000    -0.0160990000
| 21>  H        1.5530520000     0.1287480000     1.5903640000
| 22>  H        3.3993920000     1.6865020000     1.2516830000
| 23>  H        3.6021520000     0.9656240000    -0.3590530000
| 24>  H        5.9464180000    -0.0209010000    -0.9669660000
| 25>  H        5.9417060000    -0.9928630000     0.4941090000
| 26>  H        7.2679280000     0.1412410000     0.1971270000
| 27>  H        5.1820960000     2.7543340000     1.9495610000
| 28>  H        8.0150800000     1.7702290000     1.1655730000
| 29>  H        7.5853080000     2.4768220000     2.7254250000
| 30>  H        7.5193770000     3.4613690000     1.2752680000
| 31> *
| 32>
| 33>                          ****END OF INPUT****
 Total Charge           Charge          ....    0
 Multiplicity           Mult            ....    1
 Number of Electrons    NEL             ....   56
 Basis Dimension        Dim             ....  158

MULLIKEN ATOMIC CHARGES
-----------------------
   0 C :    0.156228
   1 O :   -0.349811
   2 C :    0.238286
   3 C :   -0.163954
   4 C :    0.071628
   5 C :   -0.125321
   6 C :    0.047531
   7 H :    0.028069
   8 H :   -0.001201
   9 H :    0.001608
  10 H :   -0.020766
  11 H :   -0.011728
  12 H :    0.018814
  13 H :    0.036068
  14 H :    0.013109
  15 H :   -0.013768
  16 H :    0.014849
  17 H :    0.032644
  18 H :    0.027717
Sum of atomic charges:    0.0000000

LOEWDIN ATOMIC CHARGES
----------------------
   0 C :    0.049323
   1 O :   -0.150428
   2 C :    0.069556
   3 C :   -0.055461
   4 C :   -0.059438
   5 C :   -0.049747
   6 C :   -0.067769
   7 H :    0.022228
   8 H :    0.003035
   9 H :    0.003725
  10 H :    0.004491
  11 H :    0.005520
  12 H :    0.035393
  13 H :    0.039429
  14 H :    0.026107
  15 H :    0.021128
  16 H :    0.027884
  17 H :    0.038163
  18 H :    0.036860

  Mayer bond orders larger than 0.1
B(  0-C ,  1-O ) :   1.0235 B(  0-C ,  7-H ) :   0.9758 B(  0-C ,  8-H ) :   0.9531
B(  0-C ,  9-H ) :   0.9549 B(  1-O ,  2-C ) :   1.0106 B(  2-C ,  3-C ) :   1.0460
B(  2-C , 10-H ) :   0.9150 B(  2-C , 11-H ) :   0.9027 B(  3-C ,  4-C ) :   1.0956
B(  3-C ,  5-C ) :   1.9044 B(  4-C , 12-H ) :   0.9354 B(  4-C , 13-H ) :   0.9338
B(  4-C , 14-H ) :   0.9477 B(  5-C ,  6-C ) :   1.1010 B(  5-C , 15-H ) :   0.9307
B(  6-C , 16-H ) :   0.9535 B(  6-C , 17-H ) :   0.9435 B(  6-C , 18-H ) :   0.9416

FINAL SINGLE POINT ENERGY      -310.408594097077

DIPOLE MOMENT
-------------
                                X             Y             Z
Electronic contribution:     -1.45314      -0.93840       0.91683
Nuclear contribution   :      1.28756       1.16259      -1.08791
                        -----------------------------------------
Total Dipole Moment    :     -0.16559       0.22419      -0.17109
                        -----------------------------------------
Magnitude (a.u.)       :      0.32703
Magnitude (Debye)      :      0.83125

                             ****ORCA TERMINATED NORMALLY****
TOTAL RUN TIME: 0 days 0 hours 0 minutes 7 seconds 998 msec
