                         Program Version 3.0.3 - RELEASE   -
|  1> ! RI PBE def2-SVP def2-SVP/J NBO PAL2
|  2> % maxcore 2000
|  3> % output
|  4>     # printlevel mini
|  5>     print[ P_Basis ] 0
|  6>     print[ P_SCFInfo ] 1
|  7>     print[ P_SCFIterInfo ] 1
|  8>     print[ P_OrbEn ] 0
|  9>     print[ P_Cartesian ] 0
| 10> end
| 11> *xyz 0 1
| 12>  C        1.8966460000    -0.5323330000     2.4581810000
| 13>  O        3.2892570000    -0.5623140000     2.3308740000
| 14>  C        3.7040980000    -0.9754320000     1.0549820000
| 15>  C        5.2256490000    -0.9911340000     0.9637260000
| 16>  C        5.5999300000    -1.4471730000    -0.4435480000
| 17>  C        5.7730390000     0.4114570000     1.2148140000
| 18>  C        5.7950710000    -1.9659580000     1.9910620000
| 19>  H        1.6636640000    -0.2038880000     3.4714710000
| 20>  H        1.4543480000    -1.5255800000     2.2954120000
| 21>  H        1.4403560000     0.1673550000     1.7434140000
| 22>  H        3.2953370000    -0.2953160000     0.2890880000
| 23>  H        3.3109870000    -1.9833030000     0.8407220000
| 24>  H        5.2016780000    -0.7671020000    -1.2021650000
| 25>  H        5.2170200000    -2.4503130000    -0.6525600000
| 26>  H        6.6864030000    -1.4751910000    -0.5596860000
| 27>  H        5.3873370000     1.1207680000     0.4764050000
| 28>  H        6.8642360000     0.4156230000     1.1452490000
| 29>  H        5.4911920000     0.7694820000     2.2063490000
| 30>  H        5.4255360000    -2.9807150000     1.8154380000
| 31>  H        5.5136570000    -1.6747170000     3.0043460000
| 32>  H        6.8865620000    -1.9919170000     1.9315440000
| 33> *
| 34>
| 35>                          ****END OF INPUT****
 Total Charge           Charge          ....    0
 Multiplicity           Mult            ....    1
 Number of Electrons    NEL             ....   58
 Basis Dimension        Dim             ....  168

MULLIKEN ATOMIC CHARGES
-----------------------
   0 C :    0.154137
   1 O :   -0.342077
   2 C :    0.249374
   3 C :   -0.341381
   4 C :    0.051235
   5 C :    0.054063
   6 C :    0.056742
   7 H :    0.028992
   8 H :    0.002206
   9 H :    0.004058
  10 H :   -0.018844
  11 H :   -0.021678
  12 H :    0.010785
  13 H :    0.009103
  14 H :    0.017425
  15 H :    0.004413
  16 H :    0.013854
  17 H :    0.024499
  18 H :    0.003432
  19 H :    0.026234
  20 H :    0.013425
Sum of atomic charges:   -0.0000000

LOEWDIN ATOMIC CHARGES
----------------------
   0 C :    0.051100
   1 O :   -0.142684
   2 C :    0.070369
   3 C :   -0.077784
   4 C :   -0.048020
   5 C :   -0.050372
   6 C :   -0.049887
   7 H :    0.022293
   8 H :    0.004272
   9 H :    0.004704
  10 H :    0.000465
  11 H :   -0.000118
  12 H :    0.022621
  13 H :    0.022533
  14 H :    0.026731
  15 H :    0.022142
  16 H :    0.023249
  17 H :    0.026581
  18 H :    0.021959
  19 H :    0.026720
  20 H :    0.023123

  Mayer bond orders larger than 0.1
B(  0-C ,  1-O ) :   1.0196 B(  0-C ,  7-H ) :   0.9761 B(  0-C ,  8-H ) :   0.9546
B(  0-C ,  9-H ) :   0.9554 B(  1-O ,  2-C ) :   1.0325 B(  2-C ,  3-C ) :   1.0121
B(  2-C , 10-H ) :   0.9202 B(  2-C , 11-H ) :   0.9200 B(  3-C ,  4-C ) :   1.0414
B(  3-C ,  5-C ) :   1.0486 B(  3-C ,  6-C ) :   1.0458 B(  4-C , 12-H ) :   0.9558
B(  4-C , 13-H ) :   0.9549 B(  4-C , 14-H ) :   0.9589 B(  5-C , 15-H ) :   0.9549
B(  5-C , 16-H ) :   0.9613 B(  5-C , 17-H ) :   0.9562 B(  6-C , 18-H ) :   0.9567
B(  6-C , 19-H ) :   0.9574 B(  6-C , 20-H ) :   0.9617

FINAL SINGLE POINT ENERGY      -311.627809177458

DIPOLE MOMENT
-------------
                                X             Y             Z
Electronic contribution:     -1.91835       0.68227       2.14361
Nuclear contribution   :      1.61556      -0.75700      -2.36822
                        -----------------------------------------
Total Dipole Moment    :     -0.30279      -0.07472      -0.22460
                        -----------------------------------------
Magnitude (a.u.)       :      0.38433
Magnitude (Debye)      :      0.97689

                             ****ORCA TERMINATED NORMALLY****
TOTAL RUN TIME: 0 days 0 hours 0 minutes 9 seconds 241 msec
