                         Program Version 3.0.3 - RELEASE   -
|  1> ! RI PBE def2-SVP def2-SVP/J NBO PAL2
|  2> % maxcore 2000
|  3> % output
|  4>     # printlevel mini
|  5>     print[ P_Basis ] 0
|  6>     print[ P_SCFInfo ] 1
|  7>     print[ P_SCFIterInfo ] 1
|  8>     print[ P_OrbEn ] 0
|  9>     print[ P_Cartesian ] 0
| 10> end
| 11> *xyz 0 1
| 12>  C        1.4921390000    -2.0291210000     1.7095200000
| 13>  O        2.8748240000    -1.8816540000     1.5557830000
| 14>  C        3.2364270000    -1.5317130000     0.2451140000
| 15>  C        4.7511630000    -1.4046860000     0.1440860000
| 16>  C        5.2765440000    -0.3144750000     1.0755410000
| 17>  C        5.4230960000    -2.7162640000     0.4129900000
| 18>  C        6.1951570000    -3.3622290000    -0.4493710000
| 19>  H        1.3006600000    -2.2938300000     2.7498320000
| 20>  H        1.0958700000    -2.8238040000     1.0616640000
| 21>  H        0.9583770000    -1.0967560000     1.4760620000
| 22>  H        2.7666590000    -0.5735060000    -0.0318810000
| 23>  H        2.8778190000    -2.2948320000    -0.4626490000
| 24>  H        4.9651190000    -1.1183390000    -0.8927800000
| 25>  H        5.0784460000    -0.5686150000     2.1184020000
| 26>  H        4.7917180000     0.6429550000     0.8653880000
| 27>  H        6.3537150000    -0.1876880000     0.9524400000
| 28>  H        5.2465450000    -3.1399070000     1.3992420000
| 29>  H        6.3915820000    -2.9667420000    -1.4419180000
| 30>  H        6.6611410000    -4.3081930000    -0.1979660000
| 31> *
| 32>
| 33>                          ****END OF INPUT****
 Total Charge           Charge          ....    0
 Multiplicity           Mult            ....    1
 Number of Electrons    NEL             ....   56
 Basis Dimension        Dim             ....  158

MULLIKEN ATOMIC CHARGES
-----------------------
   0 C :    0.149692
   1 O :   -0.349402
   2 C :    0.200351
   3 C :   -0.069488
   4 C :    0.019454
   5 C :   -0.046426
   6 C :   -0.032234
   7 H :    0.030632
   8 H :    0.005812
   9 H :    0.004112
  10 H :   -0.013669
  11 H :   -0.001767
  12 H :   -0.007634
  13 H :    0.032477
  14 H :    0.009749
  15 H :    0.024800
  16 H :    0.010216
  17 H :    0.012095
  18 H :    0.021228
Sum of atomic charges:   -0.0000000

LOEWDIN ATOMIC CHARGES
----------------------
   0 C :    0.050628
   1 O :   -0.146566
   2 C :    0.070026
   3 C :   -0.054559
   4 C :   -0.053915
   5 C :   -0.017405
   6 C :   -0.068721
   7 H :    0.022903
   8 H :    0.005618
   9 H :    0.004847
  10 H :    0.001530
  11 H :    0.005101
  12 H :    0.030480
  13 H :    0.028494
  14 H :    0.024800
  15 H :    0.027371
  16 H :    0.026947
  17 H :    0.019130
  18 H :    0.023291

  Mayer bond orders larger than 0.1
B(  0-C ,  1-O ) :   1.0209 B(  0-C ,  7-H ) :   0.9761 B(  0-C ,  8-H ) :   0.9562
B(  0-C ,  9-H ) :   0.9551 B(  1-O ,  2-C ) :   1.0249 B(  2-C ,  3-C ) :   1.0429
B(  2-C , 10-H ) :   0.9194 B(  2-C , 11-H ) :   0.9250 B(  3-C ,  4-C ) :   1.0602
B(  3-C ,  5-C ) :   1.0205 B(  3-C , 12-H ) :   0.8974 B(  4-C , 13-H ) :   0.9634
B(  4-C , 14-H ) :   0.9558 B(  4-C , 15-H ) :   0.9643 B(  5-C ,  6-C ) :   2.0143
B(  5-C , 16-H ) :   0.9556 B(  6-C , 17-H ) :   0.9440 B(  6-C , 18-H ) :   0.9435

FINAL SINGLE POINT ENERGY      -310.401523223117

DIPOLE MOMENT
-------------
                                X             Y             Z
Electronic contribution:      0.38946      -1.49169       0.56449
Nuclear contribution   :     -0.79832       1.61892      -0.75574
                        -----------------------------------------
Total Dipole Moment    :     -0.40886       0.12723      -0.19125
                        -----------------------------------------
Magnitude (a.u.)       :      0.46897
Magnitude (Debye)      :      1.19203

                             ****ORCA TERMINATED NORMALLY****
TOTAL RUN TIME: 0 days 0 hours 0 minutes 8 seconds 162 msec
