                         Program Version 3.0.3 - RELEASE   -
|  1> ! RI PBE def2-SVP def2-SVP/J NBO PAL2
|  2> % maxcore 2000
|  3> % output
|  4>     # printlevel mini
|  5>     print[ P_Basis ] 0
|  6>     print[ P_SCFInfo ] 1
|  7>     print[ P_SCFIterInfo ] 1
|  8>     print[ P_OrbEn ] 0
|  9>     print[ P_Cartesian ] 0
| 10> end
| 11> *xyz 0 1
| 12>  C        0.9938810000     0.2246730000     0.3283070000
| 13>  O        2.3703800000     0.0237870000     0.1642090000
| 14>  C        2.8308590000    -1.1117940000     0.8442840000
| 15>  C        4.3345210000    -1.2375400000     0.6179720000
| 16>  C        5.0981440000    -0.0381350000     1.1774440000
| 17>  C        4.8102910000    -2.4905420000     1.1889530000
| 18>  C        5.1941450000    -3.5170710000     1.6797940000
| 19>  H        0.7225900000     1.1186180000    -0.2335270000
| 20>  H        0.7312930000     0.3742530000     1.3847880000
| 21>  H        0.4136790000    -0.6264010000    -0.0546550000
| 22>  H        2.3223950000    -2.0149110000     0.4768670000
| 23>  H        2.6245730000    -1.0298430000     1.9230250000
| 24>  H        4.4905740000    -1.2775950000    -0.4671280000
| 25>  H        4.9729380000     0.0216290000     2.2610600000
| 26>  H        4.7205450000     0.8817320000     0.7305110000
| 27>  H        6.1641060000    -0.1253900000     0.9633230000
| 28>  H        5.5404850000    -4.4275690000     2.1082710000
| 29> *
| 30>
| 31>                          ****END OF INPUT****
 Total Charge           Charge          ....    0
 Multiplicity           Mult            ....    1
 Number of Electrons    NEL             ....   54
 Basis Dimension        Dim             ....  148

MULLIKEN ATOMIC CHARGES
-----------------------
   0 C :    0.149667
   1 O :   -0.344546
   2 C :    0.196674
   3 C :   -0.073350
   4 C :    0.017078
   5 C :    0.396510
   6 C :   -0.519518
   7 H :    0.032683
   8 H :    0.006818
   9 H :    0.006790
  10 H :    0.005291
  11 H :   -0.001071
  12 H :    0.040636
  13 H :    0.025218
  14 H :    0.031809
  15 H :    0.033877
  16 H :   -0.004566
Sum of atomic charges:    0.0000000

LOEWDIN ATOMIC CHARGES
----------------------
   0 C :    0.052443
   1 O :   -0.146540
   2 C :    0.073592
   3 C :   -0.059579
   4 C :   -0.046682
   5 C :   -0.012370
   6 C :   -0.090030
   7 H :    0.023829
   8 H :    0.006452
   9 H :    0.006171
  10 H :    0.009270
  11 H :    0.006993
  12 H :    0.051009
  13 H :    0.029371
  14 H :    0.030059
  15 H :    0.031743
  16 H :    0.034269

  Mayer bond orders larger than 0.1
B(  0-C ,  1-O ) :   1.0138 B(  0-C ,  7-H ) :   0.9765 B(  0-C ,  8-H ) :   0.9567
B(  0-C ,  9-H ) :   0.9561 B(  1-O ,  2-C ) :   1.0371 B(  2-C ,  3-C ) :   1.0302
B(  2-C , 10-H ) :   0.9303 B(  2-C , 11-H ) :   0.9211 B(  3-C ,  4-C ) :   1.0694
B(  3-C ,  5-C ) :   0.9772 B(  3-C , 12-H ) :   0.8749 B(  4-C , 13-H ) :   0.9617
B(  4-C , 14-H ) :   0.9524 B(  4-C , 15-H ) :   0.9643 B(  5-C ,  6-C ) :   2.3164
B(  5-C , 16-H ) :  -0.1175 B(  6-C , 16-H ) :   1.1074

FINAL SINGLE POINT ENERGY      -309.158852582405

DIPOLE MOMENT
-------------
                                X             Y             Z
Electronic contribution:      2.42239      -3.34415      -0.59259
Nuclear contribution   :     -2.82056       3.37903       0.69182
                        -----------------------------------------
Total Dipole Moment    :     -0.39817       0.03488       0.09923
                        -----------------------------------------
Magnitude (a.u.)       :      0.41183
Magnitude (Debye)      :      1.04678

                             ****ORCA TERMINATED NORMALLY****
TOTAL RUN TIME: 0 days 0 hours 0 minutes 7 seconds 318 msec
