                         Program Version 3.0.3 - RELEASE   -
|  1> ! RI PBE def2-SVP def2-SVP/J NBO PAL2
|  2> % maxcore 2000
|  3> % output
|  4>     # printlevel mini
|  5>     print[ P_Basis ] 0
|  6>     print[ P_SCFInfo ] 1
|  7>     print[ P_SCFIterInfo ] 1
|  8>     print[ P_OrbEn ] 0
|  9>     print[ P_Cartesian ] 0
| 10> end
| 11> *xyz 0 1
| 12>  C        1.1039530000    -0.0623950000    -0.1446300000
| 13>  O        2.4868950000     0.0308370000    -0.3549550000
| 14>  C        2.9805580000     1.2964630000     0.0028710000
| 15>  C        4.4116110000     1.3701050000    -0.2228690000
| 16>  C        5.6003010000     1.4481040000    -0.4044350000
| 17>  C        6.9972270000     1.5689250000    -0.6075340000
| 18>  C        7.7790870000     0.6009150000    -1.0848400000
| 19>  H        0.7975790000    -1.0645730000    -0.4429340000
| 20>  H        0.5522630000     0.6731510000    -0.7469460000
| 21>  H        0.8439290000     0.0900750000     0.9124000000
| 22>  H        2.7672290000     1.5059710000     1.0640800000
| 23>  H        2.4777900000     2.0842640000    -0.5820790000
| 24>  H        7.4326210000     2.5305620000    -0.3463830000
| 25>  H        7.3783490000    -0.3686540000    -1.3548600000
| 26>  H        8.8418260000     0.7626900000    -1.2147960000
| 27> *
| 28>
| 29>                          ****END OF INPUT****
 Total Charge           Charge          ....    0
 Multiplicity           Mult            ....    1
 Number of Electrons    NEL             ....   52
 Basis Dimension        Dim             ....  138

MULLIKEN ATOMIC CHARGES
-----------------------
   0 C :    0.154734
   1 O :   -0.337921
   2 C :    0.232737
   3 C :   -0.064700
   4 C :   -0.056519
   5 C :   -0.095580
   6 C :   -0.011725
   7 H :    0.035738
   8 H :    0.004649
   9 H :    0.002130
  10 H :    0.015206
  11 H :    0.019643
  12 H :    0.031076
  13 H :    0.035808
  14 H :    0.034723
Sum of atomic charges:    0.0000000

LOEWDIN ATOMIC CHARGES
----------------------
   0 C :    0.051011
   1 O :   -0.143128
   2 C :    0.053945
   3 C :   -0.044973
   4 C :   -0.035226
   5 C :   -0.048307
   6 C :   -0.027700
   7 H :    0.026037
   8 H :    0.005668
   9 H :    0.005030
  10 H :    0.026144
  11 H :    0.026963
  12 H :    0.044480
  13 H :    0.031448
  14 H :    0.028606

  Mayer bond orders larger than 0.1
B(  0-C ,  1-O ) :   1.0163 B(  0-C ,  7-H ) :   0.9769 B(  0-C ,  8-H ) :   0.9547
B(  0-C ,  9-H ) :   0.9539 B(  1-O ,  2-C ) :   1.0579 B(  2-C ,  3-C ) :   1.0129
B(  2-C , 10-H ) :   0.8967 B(  2-C , 11-H ) :   0.8995 B(  3-C ,  4-C ) :   2.5156
B(  3-C ,  6-C ) :   0.1292 B(  4-C ,  5-C ) :   1.0577 B(  5-C ,  6-C ) :   1.9207
B(  5-C , 12-H ) :   0.9449 B(  6-C , 13-H ) :   0.9522 B(  6-C , 14-H ) :   0.9427

FINAL SINGLE POINT ENERGY      -307.942913396962

DIPOLE MOMENT
-------------
                                X             Y             Z
Electronic contribution:      3.12680       0.85800      -0.25535
Nuclear contribution   :     -3.48773      -0.54522       0.42178
                        -----------------------------------------
Total Dipole Moment    :     -0.36092       0.31278       0.16643
                        -----------------------------------------
Magnitude (a.u.)       :      0.50576
Magnitude (Debye)      :      1.28555

                             ****ORCA TERMINATED NORMALLY****
TOTAL RUN TIME: 0 days 0 hours 0 minutes 6 seconds 231 msec
