                         Program Version 3.0.3 - RELEASE   -
|  1> ! RI PBE def2-SVP def2-SVP/J NBO PAL2
|  2> % maxcore 2000
|  3> % output
|  4>     # printlevel mini
|  5>     print[ P_Basis ] 0
|  6>     print[ P_SCFInfo ] 1
|  7>     print[ P_SCFIterInfo ] 1
|  8>     print[ P_OrbEn ] 0
|  9>     print[ P_Cartesian ] 0
| 10> end
| 11> *xyz 0 1
| 12>  C        0.9005760000    -0.0104660000    -0.0199230000
| 13>  O        2.3038540000    -0.0111300000    -0.0112060000
| 14>  C        2.8211780000    -1.3116620000    -0.1076550000
| 15>  C        4.2706800000    -1.2845410000    -0.0964310000
| 16>  C        5.4774450000    -1.2938840000    -0.0893260000
| 17>  C        6.8404740000    -1.3011240000    -0.0812950000
| 18>  C        8.0457970000    -1.3079020000    -0.0749460000
| 19>  H        0.5783660000     1.0272430000     0.0577620000
| 20>  H        0.4910960000    -0.5761000000     0.8284720000
| 21>  H        0.5022030000    -0.4395350000    -0.9497540000
| 22>  H        2.4771870000    -1.7992690000    -1.0347050000
| 23>  H        2.4660660000    -1.9345400000     0.7298480000
| 24>  H        9.1099780000    -1.3130810000    -0.0695290000
| 25> *
| 26>
| 27>                          ****END OF INPUT****
 Total Charge           Charge          ....    0
 Multiplicity           Mult            ....    1
 Number of Electrons    NEL             ....   50
 Basis Dimension        Dim             ....  128

MULLIKEN ATOMIC CHARGES
-----------------------
   0 C :    0.150903
   1 O :   -0.336442
   2 C :    0.220852
   3 C :   -0.080643
   4 C :   -0.020927
   5 C :    0.356817
   6 C :   -0.412578
   7 H :    0.039281
   8 H :    0.007469
   9 H :    0.005790
  10 H :    0.025712
  11 H :    0.029504
  12 H :    0.014263
Sum of atomic charges:   -0.0000000

LOEWDIN ATOMIC CHARGES
----------------------
   0 C :    0.052587
   1 O :   -0.140605
   2 C :    0.052985
   3 C :   -0.004446
   4 C :   -0.049030
   5 C :   -0.029067
   6 C :   -0.024230
   7 H :    0.027409
   8 H :    0.006807
   9 H :    0.006421
  10 H :    0.030147
  11 H :    0.030855
  12 H :    0.040166

  Mayer bond orders larger than 0.1
B(  0-C ,  1-O ) :   1.0108 B(  0-C ,  7-H ) :   0.9770 B(  0-C ,  8-H ) :   0.9562
B(  0-C ,  9-H ) :   0.9555 B(  1-O ,  2-C ) :   1.0623 B(  2-C ,  3-C ) :   1.0100
B(  2-C , 10-H ) :   0.8992 B(  2-C , 11-H ) :   0.9007 B(  3-C ,  4-C ) :   2.4110
B(  3-C ,  6-C ) :   0.2607 B(  4-C ,  5-C ) :   0.9478 B(  5-C ,  6-C ) :   2.1524
B(  5-C , 12-H ) :  -0.1049 B(  6-C , 12-H ) :   1.0944

FINAL SINGLE POINT ENERGY      -306.704119116119

DIPOLE MOMENT
-------------
                                X             Y             Z
Electronic contribution:      8.32050      -0.62830       0.00634
Nuclear contribution   :     -8.88647       0.27966      -0.03555
                        -----------------------------------------
Total Dipole Moment    :     -0.56596      -0.34864      -0.02921
                        -----------------------------------------
Magnitude (a.u.)       :      0.66537
Magnitude (Debye)      :      1.69124

                             ****ORCA TERMINATED NORMALLY****
TOTAL RUN TIME: 0 days 0 hours 0 minutes 6 seconds 176 msec
