                         Program Version 3.0.3 - RELEASE   -
|  1> ! RI PBE def2-SVP def2-SVP/J NBO PAL2
|  2> % maxcore 2000
|  3> % output
|  4>     # printlevel mini
|  5>     print[ P_Basis ] 0
|  6>     print[ P_SCFInfo ] 1
|  7>     print[ P_SCFIterInfo ] 1
|  8>     print[ P_OrbEn ] 0
|  9>     print[ P_Cartesian ] 0
| 10> end
| 11> *xyz 0 1
| 12>  C        1.0662570000     0.5226990000     2.5161600000
| 13>  O        2.4594930000     0.4057230000     2.4686580000
| 14>  C        2.9969100000     0.8668530000     1.2552070000
| 15>  C        4.5083120000     0.7443400000     1.3015110000
| 16>  C        5.1400470000     1.6113660000     2.3400840000
| 17>  C        6.0543990000     2.5425780000     2.0954410000
| 18>  C        6.6891780000     3.4134550000     3.1251880000
| 19>  H        0.7344270000     0.1415620000     3.4824530000
| 20>  H        0.5839170000    -0.0619690000     1.7195970000
| 21>  H        0.7446290000     1.5692020000     2.4173110000
| 22>  H        2.7066730000     1.9160450000     1.0876560000
| 23>  H        2.5960570000     0.2744330000     0.4173580000
| 24>  H        4.9074100000     0.9922180000     0.3131240000
| 25>  H        4.7500610000    -0.3079940000     1.4938220000
| 26>  H        4.8037540000     1.4523220000     3.3628190000
| 27>  H        6.3821220000     2.6933550000     1.0666810000
| 28>  H        6.3013010000     3.1977610000     4.1226860000
| 29>  H        6.5124420000     4.4727730000     2.9121380000
| 30>  H        7.7753020000     3.2761890000     3.1449160000
| 31> *
| 32>
| 33>                          ****END OF INPUT****
 Total Charge           Charge          ....    0
 Multiplicity           Mult            ....    1
 Number of Electrons    NEL             ....   56
 Basis Dimension        Dim             ....  158

MULLIKEN ATOMIC CHARGES
-----------------------
   0 C :    0.152929
   1 O :   -0.350676
   2 C :    0.162341
   3 C :    0.071210
   4 C :   -0.067874
   5 C :   -0.107304
   6 C :    0.031778
   7 H :    0.029227
   8 H :    0.002116
   9 H :    0.001998
  10 H :   -0.010743
  11 H :   -0.007195
  12 H :   -0.001435
  13 H :    0.023556
  14 H :   -0.002562
  15 H :   -0.012367
  16 H :    0.016823
  17 H :    0.032287
  18 H :    0.035892
Sum of atomic charges:   -0.0000000

LOEWDIN ATOMIC CHARGES
----------------------
   0 C :    0.050430
   1 O :   -0.151334
   2 C :    0.064110
   3 C :   -0.048723
   4 C :   -0.043620
   5 C :   -0.049892
   6 C :   -0.067775
   7 H :    0.022354
   8 H :    0.003949
   9 H :    0.004450
  10 H :    0.002485
  11 H :    0.002903
  12 H :    0.031455
  13 H :    0.036032
  14 H :    0.023013
  15 H :    0.018371
  16 H :    0.030338
  17 H :    0.035303
  18 H :    0.036151

  Mayer bond orders larger than 0.1
B(  0-C ,  1-O ) :   1.0224 B(  0-C ,  7-H ) :   0.9766 B(  0-C ,  8-H ) :   0.9553
B(  0-C ,  9-H ) :   0.9555 B(  1-O ,  2-C ) :   1.0226 B(  2-C ,  3-C ) :   1.0724
B(  2-C , 10-H ) :   0.9209 B(  2-C , 11-H ) :   0.9255 B(  3-C ,  4-C ) :   1.0594
B(  3-C , 12-H ) :   0.9180 B(  3-C , 13-H ) :   0.9113 B(  4-C ,  5-C ) :   1.9275
B(  4-C , 14-H ) :   0.9559 B(  5-C ,  6-C ) :   1.0848 B(  5-C , 15-H ) :   0.9503
B(  6-C , 16-H ) :   0.9602 B(  6-C , 17-H ) :   0.9492 B(  6-C , 18-H ) :   0.9482

FINAL SINGLE POINT ENERGY      -310.406837027883

DIPOLE MOMENT
-------------
                                X             Y             Z
Electronic contribution:     -0.33338      -2.18231       0.15389
Nuclear contribution   :      0.09051       2.33889      -0.42291
                        -----------------------------------------
Total Dipole Moment    :     -0.24287       0.15658      -0.26902
                        -----------------------------------------
Magnitude (a.u.)       :      0.39481
Magnitude (Debye)      :      1.00352

                             ****ORCA TERMINATED NORMALLY****
TOTAL RUN TIME: 0 days 0 hours 0 minutes 8 seconds 392 msec
