                         Program Version 3.0.3 - RELEASE   -
|  1> ! RI PBE def2-SVP def2-SVP/J NBO PAL2
|  2> % maxcore 2000
|  3> % output
|  4>     # printlevel mini
|  5>     print[ P_Basis ] 0
|  6>     print[ P_SCFInfo ] 1
|  7>     print[ P_SCFIterInfo ] 1
|  8>     print[ P_OrbEn ] 0
|  9>     print[ P_Cartesian ] 0
| 10> end
| 11> *xyz 0 1
| 12>  C        1.7485290000     0.2149200000    -0.8429800000
| 13>  O        3.0250130000     0.2918490000    -0.2764450000
| 14>  C        2.9859680000     0.4045770000     1.1238460000
| 15>  C        4.4031520000     0.4602180000     1.6477570000
| 16>  C        4.5156410000     0.7344820000     3.1452640000
| 17>  C        3.8760350000    -0.3618020000     3.9888840000
| 18>  C        5.9749220000     0.9239300000     3.5360730000
| 19>  H        1.8698120000     0.1311580000    -1.9234750000
| 20>  H        1.1521270000     1.1119040000    -0.6216060000
| 21>  H        1.1956250000    -0.6630350000    -0.4788130000
| 22>  H        2.4378660000    -0.4498830000     1.5491360000
| 23>  H        2.4373700000     1.3168890000     1.4133610000
| 24>  H        4.9310650000     1.2443960000     1.0950810000
| 25>  H        4.9081330000    -0.4830520000     1.4081890000
| 26>  H        3.9870400000     1.6745840000     3.3546230000
| 27>  H        4.3451970000    -1.3296900000     3.7835430000
| 28>  H        2.8060990000    -0.4625010000     3.7947460000
| 29>  H        3.9984200000    -0.1549360000     5.0552690000
| 30>  H        6.5480410000     0.0108280000     3.3458340000
| 31>  H        6.0730450000     1.1612750000     4.5985310000
| 32>  H        6.4393900000     1.7321890000     2.9654720000
| 33> *
| 34>
| 35>                          ****END OF INPUT****
 Total Charge           Charge          ....    0
 Multiplicity           Mult            ....    1
 Number of Electrons    NEL             ....   58
 Basis Dimension        Dim             ....  168

MULLIKEN ATOMIC CHARGES
-----------------------
   0 C :    0.143679
   1 O :   -0.344284
   2 C :    0.179244
   3 C :    0.019418
   4 C :   -0.166903
   5 C :    0.000006
   6 C :    0.030699
   7 H :    0.033865
   8 H :    0.003357
   9 H :    0.001908
  10 H :   -0.009660
  11 H :   -0.014905
  12 H :    0.010096
  13 H :    0.007534
  14 H :    0.004453
  15 H :    0.014646
  16 H :    0.026263
  17 H :    0.018556
  18 H :    0.013071
  19 H :    0.014809
  20 H :    0.014149
Sum of atomic charges:   -0.0000000

LOEWDIN ATOMIC CHARGES
----------------------
   0 C :    0.047026
   1 O :   -0.147833
   2 C :    0.058847
   3 C :   -0.044434
   4 C :   -0.046448
   5 C :   -0.063074
   6 C :   -0.057651
   7 H :    0.022753
   8 H :    0.003798
   9 H :    0.003353
  10 H :    0.001327
  11 H :    0.001294
  12 H :    0.027113
  13 H :    0.024550
  14 H :    0.022005
  15 H :    0.024903
  16 H :    0.023165
  17 H :    0.026254
  18 H :    0.024143
  19 H :    0.024254
  20 H :    0.024654

  Mayer bond orders larger than 0.1
B(  0-C ,  1-O ) :   1.0235 B(  0-C ,  7-H ) :   0.9762 B(  0-C ,  8-H ) :   0.9547
B(  0-C ,  9-H ) :   0.9548 B(  1-O ,  2-C ) :   1.0318 B(  2-C ,  3-C ) :   1.0753
B(  2-C , 10-H ) :   0.9205 B(  2-C , 11-H ) :   0.9224 B(  3-C ,  4-C ) :   1.0493
B(  3-C , 12-H ) :   0.9275 B(  3-C , 13-H ) :   0.9286 B(  4-C ,  5-C ) :   1.0741
B(  4-C ,  6-C ) :   1.0913 B(  4-C , 14-H ) :   0.9129 B(  5-C , 15-H ) :   0.9624
B(  5-C , 16-H ) :   0.9588 B(  5-C , 17-H ) :   0.9586 B(  6-C , 18-H ) :   0.9605
B(  6-C , 19-H ) :   0.9596 B(  6-C , 20-H ) :   0.9572

FINAL SINGLE POINT ENERGY      -311.624527795781

DIPOLE MOMENT
-------------
                                X             Y             Z
Electronic contribution:     -0.77218       0.38353      -4.57705
Nuclear contribution   :      0.43841      -0.35665       4.81097
                        -----------------------------------------
Total Dipole Moment    :     -0.33378       0.02688       0.23393
                        -----------------------------------------
Magnitude (a.u.)       :      0.40848
Magnitude (Debye)      :      1.03826

                             ****ORCA TERMINATED NORMALLY****
TOTAL RUN TIME: 0 days 0 hours 0 minutes 8 seconds 898 msec
