                         Program Version 3.0.3 - RELEASE   -
|  1> ! RI PBE def2-SVP def2-SVP/J NBO PAL2
|  2> % maxcore 2000
|  3> % output
|  4>     # printlevel mini
|  5>     print[ P_Basis ] 0
|  6>     print[ P_SCFInfo ] 1
|  7>     print[ P_SCFIterInfo ] 1
|  8>     print[ P_OrbEn ] 0
|  9>     print[ P_Cartesian ] 0
| 10> end
| 11> *xyz 0 1
| 12>  C        1.8979210000     0.4338780000    -0.1348930000
| 13>  O        3.1062300000    -0.1178840000     0.3059240000
| 14>  C        2.9470840000    -1.4122240000     0.8260580000
| 15>  C        4.3073130000    -1.9256390000     1.2620340000
| 16>  C        4.2630240000    -3.3054340000     1.8542060000
| 17>  C        3.5924070000    -3.4503810000     3.1856590000
| 18>  C        4.8063090000    -4.3445910000     1.2274630000
| 19>  H        2.1116870000     1.4301390000    -0.5230360000
| 20>  H        1.1699060000     0.5205440000     0.6844540000
| 21>  H        1.4454630000    -0.1696330000    -0.9345350000
| 22>  H        2.5197350000    -2.0816500000     0.0631190000
| 23>  H        2.2436420000    -1.3912330000     1.6727430000
| 24>  H        4.7140310000    -1.2187110000     1.9947640000
| 25>  H        4.9727330000    -1.9111460000     0.3957540000
| 26>  H        2.5366330000    -3.1664620000     3.1382770000
| 27>  H        4.0591600000    -2.7933900000     3.9272910000
| 28>  H        3.6491600000    -4.4763430000     3.5512230000
| 29>  H        5.3003750000    -4.2313590000     0.2684930000
| 30>  H        4.7801750000    -5.3413490000     1.6547010000
| 31> *
| 32>
| 33>                          ****END OF INPUT****
 Total Charge           Charge          ....    0
 Multiplicity           Mult            ....    1
 Number of Electrons    NEL             ....   56
 Basis Dimension        Dim             ....  158

MULLIKEN ATOMIC CHARGES
-----------------------
   0 C :    0.143456
   1 O :   -0.342752
   2 C :    0.157895
   3 C :    0.073731
   4 C :   -0.215533
   5 C :    0.066329
   6 C :   -0.028955
   7 H :    0.030830
   8 H :    0.006666
   9 H :    0.004450
  10 H :   -0.005701
  11 H :   -0.007807
  12 H :    0.019814
  13 H :    0.010588
  14 H :    0.031379
  15 H :    0.026213
  16 H :    0.013735
  17 H :    0.007482
  18 H :    0.008181
Sum of atomic charges:   -0.0000000

LOEWDIN ATOMIC CHARGES
----------------------
   0 C :    0.048380
   1 O :   -0.148705
   2 C :    0.062784
   3 C :   -0.040474
   4 C :   -0.030919
   5 C :   -0.057755
   6 C :   -0.076465
   7 H :    0.023004
   8 H :    0.004650
   9 H :    0.004810
  10 H :    0.005040
  11 H :    0.001152
  12 H :    0.033117
  13 H :    0.032105
  14 H :    0.032987
  15 H :    0.036405
  16 H :    0.031152
  17 H :    0.019628
  18 H :    0.019105

  Mayer bond orders larger than 0.1
B(  0-C ,  1-O ) :   1.0211 B(  0-C ,  7-H ) :   0.9754 B(  0-C ,  8-H ) :   0.9557
B(  0-C ,  9-H ) :   0.9547 B(  1-O ,  2-C ) :   1.0305 B(  2-C ,  3-C ) :   1.0691
B(  2-C , 10-H ) :   0.9230 B(  2-C , 11-H ) :   0.9254 B(  3-C ,  4-C ) :   1.0408
B(  3-C , 12-H ) :   0.9133 B(  3-C , 13-H ) :   0.9162 B(  4-C ,  5-C ) :   1.0833
B(  4-C ,  6-C ) :   1.9912 B(  5-C , 14-H ) :   0.9421 B(  5-C , 15-H ) :   0.9398
B(  5-C , 16-H ) :   0.9485 B(  6-C , 17-H ) :   0.9341 B(  6-C , 18-H ) :   0.9349

FINAL SINGLE POINT ENERGY      -310.404953340699

DIPOLE MOMENT
-------------
                                X             Y             Z
Electronic contribution:      1.99994       1.30733      -1.33295
Nuclear contribution   :     -2.45683      -1.33666       1.44866
                        -----------------------------------------
Total Dipole Moment    :     -0.45689      -0.02932       0.11571
                        -----------------------------------------
Magnitude (a.u.)       :      0.47222
Magnitude (Debye)      :      1.20030

                             ****ORCA TERMINATED NORMALLY****
TOTAL RUN TIME: 0 days 0 hours 0 minutes 8 seconds 54 msec
