                         Program Version 3.0.3 - RELEASE   -
|  1> ! RI PBE def2-SVP def2-SVP/J NBO PAL2
|  2> % maxcore 2000
|  3> % output
|  4>     # printlevel mini
|  5>     print[ P_Basis ] 0
|  6>     print[ P_SCFInfo ] 1
|  7>     print[ P_SCFIterInfo ] 1
|  8>     print[ P_OrbEn ] 0
|  9>     print[ P_Cartesian ] 0
| 10> end
| 11> *xyz 0 1
| 12>  C        1.0502390000     0.3035070000    -0.0765970000
| 13>  O        2.4415160000     0.1462620000    -0.0826780000
| 14>  C        2.8317200000    -1.1658690000    -0.3861480000
| 15>  C        4.3501150000    -1.2239540000    -0.3650900000
| 16>  C        4.8533970000    -2.5530150000    -0.6700980000
| 17>  C        5.2494710000    -3.6594920000    -0.9245310000
| 18>  C        5.7383550000    -4.9912240000    -1.2305410000
| 19>  H        0.8372900000     1.3449560000     0.1655150000
| 20>  H        0.5741160000    -0.3411530000     0.6755970000
| 21>  H        0.6129680000     0.0697320000    -1.0575230000
| 22>  H        2.4577070000    -1.4629980000    -1.3772210000
| 23>  H        2.4180920000    -1.8736870000     0.3475490000
| 24>  H        4.7000640000    -0.9045920000     0.6218180000
| 25>  H        4.7393010000    -0.4978020000    -1.0859760000
| 26>  H        6.4185340000    -5.3483840000    -0.4531140000
| 27>  H        6.2788050000    -5.0034810000    -2.1804550000
| 28>  H        4.9134010000    -5.7042060000    -1.3060090000
| 29> *
| 30>
| 31>                          ****END OF INPUT****
 Total Charge           Charge          ....    0
 Multiplicity           Mult            ....    1
 Number of Electrons    NEL             ....   54
 Basis Dimension        Dim             ....  148

MULLIKEN ATOMIC CHARGES
-----------------------
   0 C :    0.148843
   1 O :   -0.346380
   2 C :    0.153464
   3 C :    0.094916
   4 C :   -0.111447
   5 C :   -0.237876
   6 C :    0.047880
   7 H :    0.031062
   8 H :    0.005719
   9 H :    0.004053
  10 H :   -0.004328
  11 H :    0.004392
  12 H :    0.031251
  13 H :    0.037932
  14 H :    0.048033
  15 H :    0.045225
  16 H :    0.047262
Sum of atomic charges:   -0.0000000

LOEWDIN ATOMIC CHARGES
----------------------
   0 C :    0.051382
   1 O :   -0.150693
   2 C :    0.069044
   3 C :   -0.051493
   4 C :   -0.067783
   5 C :   -0.071247
   6 C :   -0.070508
   7 H :    0.023180
   8 H :    0.005374
   9 H :    0.004913
  10 H :    0.005664
  11 H :    0.007251
  12 H :    0.047004
  13 H :    0.048150
  14 H :    0.049798
  15 H :    0.049560
  16 H :    0.050405

  Mayer bond orders larger than 0.1
B(  0-C ,  1-O ) :   1.0170 B(  0-C ,  7-H ) :   0.9767 B(  0-C ,  8-H ) :   0.9570
B(  0-C ,  9-H ) :   0.9563 B(  1-O ,  2-C ) :   1.0355 B(  2-C ,  3-C ) :   1.0651
B(  2-C , 10-H ) :   0.9288 B(  2-C , 11-H ) :   0.9320 B(  3-C ,  4-C ) :   1.0262
B(  3-C , 12-H ) :   0.8955 B(  3-C , 13-H ) :   0.8981 B(  4-C ,  5-C ) :   2.6244
B(  5-C ,  6-C ) :   1.1453 B(  6-C , 14-H ) :   0.9341 B(  6-C , 15-H ) :   0.9301
B(  6-C , 16-H ) :   0.9287

FINAL SINGLE POINT ENERGY      -309.169821103505

DIPOLE MOMENT
-------------
                                X             Y             Z
Electronic contribution:      2.52242       1.18804       0.34204
Nuclear contribution   :     -2.81196      -1.53804      -0.42908
                        -----------------------------------------
Total Dipole Moment    :     -0.28954      -0.35000      -0.08704
                        -----------------------------------------
Magnitude (a.u.)       :      0.46250
Magnitude (Debye)      :      1.17558

                             ****ORCA TERMINATED NORMALLY****
TOTAL RUN TIME: 0 days 0 hours 0 minutes 7 seconds 201 msec
