                         Program Version 3.0.3 - RELEASE   -
|  1> ! RI PBE def2-SVP def2-SVP/J NBO PAL2
|  2> % maxcore 2000
|  3> % output
|  4>     # printlevel mini
|  5>     print[ P_Basis ] 0
|  6>     print[ P_SCFInfo ] 1
|  7>     print[ P_SCFIterInfo ] 1
|  8>     print[ P_OrbEn ] 0
|  9>     print[ P_Cartesian ] 0
| 10> end
| 11> *xyz 0 1
| 12>  C        1.2046490000     0.0225320000     0.3132790000
| 13>  O        2.5675890000     0.3377950000     0.3428560000
| 14>  C        2.9271640000     1.2643600000    -0.6479340000
| 15>  C        4.4065630000     1.5525640000    -0.5446850000
| 16>  C        4.8776440000     2.5465030000    -1.6017870000
| 17>  C        6.3486250000     2.7924570000    -1.5434090000
| 18>  C        6.9201680000     3.9719670000    -1.3462190000
| 19>  H        1.0142960000    -0.6978890000     1.1092980000
| 20>  H        0.9134270000    -0.4250570000    -0.6478420000
| 21>  H        0.5799140000     0.9114350000     0.4817310000
| 22>  H        2.3465040000     2.1937710000    -0.5257090000
| 23>  H        2.6851410000     0.8641120000    -1.6466410000
| 24>  H        4.9551470000     0.6103110000    -0.6449290000
| 25>  H        4.6267690000     1.9395170000     0.4545190000
| 26>  H        4.3439420000     3.4963920000    -1.4916670000
| 27>  H        4.6200800000     2.1546150000    -2.5948470000
| 28>  H        6.9818880000     1.9145920000    -1.6661590000
| 29>  H        6.3286090000     4.8732070000    -1.2150680000
| 30>  H        7.9977810000     4.0822450000    -1.3098890000
| 31> *
| 32>
| 33>                          ****END OF INPUT****
 Total Charge           Charge          ....    0
 Multiplicity           Mult            ....    1
 Number of Electrons    NEL             ....   56
 Basis Dimension        Dim             ....  158

MULLIKEN ATOMIC CHARGES
-----------------------
   0 C :    0.150810
   1 O :   -0.343594
   2 C :    0.187010
   3 C :   -0.036626
   4 C :    0.037788
   5 C :   -0.069140
   6 C :   -0.039516
   7 H :    0.032669
   8 H :    0.000660
   9 H :    0.002252
  10 H :   -0.013222
  11 H :   -0.016405
  12 H :    0.019463
  13 H :    0.022866
  14 H :    0.003909
  15 H :    0.017648
  16 H :    0.002917
  17 H :    0.014849
  18 H :    0.025662
Sum of atomic charges:   -0.0000000

LOEWDIN ATOMIC CHARGES
----------------------
   0 C :    0.049298
   1 O :   -0.148923
   2 C :    0.059446
   3 C :   -0.044811
   4 C :   -0.039370
   5 C :   -0.026543
   6 C :   -0.068466
   7 H :    0.022889
   8 H :    0.003402
   9 H :    0.003996
  10 H :    0.001724
  11 H :    0.000851
  12 H :    0.027638
  13 H :    0.029255
  14 H :    0.026830
  15 H :    0.032407
  16 H :    0.024959
  17 H :    0.020783
  18 H :    0.024635

  Mayer bond orders larger than 0.1
B(  0-C ,  1-O ) :   1.0216 B(  0-C ,  7-H ) :   0.9767 B(  0-C ,  8-H ) :   0.9548
B(  0-C ,  9-H ) :   0.9550 B(  1-O ,  2-C ) :   1.0389 B(  2-C ,  3-C ) :   1.0794
B(  2-C , 10-H ) :   0.9227 B(  2-C , 11-H ) :   0.9235 B(  3-C ,  4-C ) :   1.0582
B(  3-C , 12-H ) :   0.9329 B(  3-C , 13-H ) :   0.9375 B(  4-C ,  5-C ) :   1.0661
B(  4-C , 14-H ) :   0.9295 B(  4-C , 15-H ) :   0.9134 B(  5-C ,  6-C ) :   2.0166
B(  5-C , 16-H ) :   0.9524 B(  6-C , 17-H ) :   0.9483 B(  6-C , 18-H ) :   0.9455

FINAL SINGLE POINT ENERGY      -310.400258877987

DIPOLE MOMENT
-------------
                                X             Y             Z
Electronic contribution:      1.21085      -0.99030       1.08941
Nuclear contribution   :     -1.57147       1.04748      -1.34960
                        -----------------------------------------
Total Dipole Moment    :     -0.36063       0.05718      -0.26019
                        -----------------------------------------
Magnitude (a.u.)       :      0.44835
Magnitude (Debye)      :      1.13962

                             ****ORCA TERMINATED NORMALLY****
TOTAL RUN TIME: 0 days 0 hours 0 minutes 7 seconds 857 msec
