                         Program Version 3.0.3 - RELEASE   -
|  1> ! RI PBE def2-SVP def2-SVP/J NBO PAL2
|  2> % maxcore 2000
|  3> % output
|  4>     # printlevel mini
|  5>     print[ P_Basis ] 0
|  6>     print[ P_SCFInfo ] 1
|  7>     print[ P_SCFIterInfo ] 1
|  8>     print[ P_OrbEn ] 0
|  9>     print[ P_Cartesian ] 0
| 10> end
| 11> *xyz 0 1
| 12>  C        1.1020160000    -0.4931240000    -0.3434540000
| 13>  O        2.4931790000    -0.4674140000    -0.1915760000
| 14>  C        3.0622460000    -1.7494940000    -0.2420790000
| 15>  C        4.5544600000    -1.6249730000    -0.0404530000
| 16>  C        5.2753320000    -2.9722950000    -0.1035800000
| 17>  C        4.8930840000    -3.8923520000     0.9564660000
| 18>  C        4.5771110000    -4.6419500000     1.8397050000
| 19>  H        0.7443220000     0.5354060000    -0.2884670000
| 20>  H        0.6195620000    -1.0805790000     0.4503990000
| 21>  H        0.8089000000    -0.9196530000    -1.3134720000
| 22>  H        2.8478220000    -2.2220390000    -1.2155570000
| 23>  H        2.6251370000    -2.3946680000     0.5347400000
| 24>  H        4.7453710000    -1.1473920000     0.9239710000
| 25>  H        4.9629230000    -0.9688510000    -0.8140170000
| 26>  H        6.3557220000    -2.8062270000    -0.0498470000
| 27>  H        5.0875690000    -3.4490960000    -1.0725820000
| 28>  H        4.3000250000    -5.3092000000     2.6210240000
| 29> *
| 30>
| 31>                          ****END OF INPUT****
 Total Charge           Charge          ....    0
 Multiplicity           Mult            ....    1
 Number of Electrons    NEL             ....   54
 Basis Dimension        Dim             ....  148

MULLIKEN ATOMIC CHARGES
-----------------------
   0 C :    0.153376
   1 O :   -0.348293
   2 C :    0.173861
   3 C :   -0.023774
   4 C :    0.057582
   5 C :    0.311549
   6 C :   -0.483286
   7 H :    0.028870
   8 H :    0.005266
   9 H :   -0.001014
  10 H :   -0.017458
  11 H :    0.008328
  12 H :    0.032615
  13 H :    0.023054
  14 H :    0.046268
  15 H :    0.035850
  16 H :   -0.002796
Sum of atomic charges:   -0.0000000

LOEWDIN ATOMIC CHARGES
----------------------
   0 C :    0.050960
   1 O :   -0.149813
   2 C :    0.059605
   3 C :   -0.038409
   4 C :   -0.045371
   5 C :   -0.024382
   6 C :   -0.091629
   7 H :    0.022169
   8 H :    0.004977
   9 H :    0.003200
  10 H :    0.001398
  11 H :    0.009186
  12 H :    0.032899
  13 H :    0.030712
  14 H :    0.053430
  15 H :    0.047225
  16 H :    0.033845

  Mayer bond orders larger than 0.1
B(  0-C ,  1-O ) :   1.0204 B(  0-C ,  7-H ) :   0.9766 B(  0-C ,  8-H ) :   0.9565
B(  0-C ,  9-H ) :   0.9553 B(  1-O ,  2-C ) :   1.0283 B(  2-C ,  3-C ) :   1.0763
B(  2-C , 10-H ) :   0.9217 B(  2-C , 11-H ) :   0.9276 B(  3-C ,  4-C ) :   1.0694
B(  3-C , 12-H ) :   0.9357 B(  3-C , 13-H ) :   0.9262 B(  4-C ,  5-C ) :   1.0704
B(  4-C , 14-H ) :   0.8960 B(  4-C , 15-H ) :   0.8996 B(  5-C ,  6-C ) :   2.3409
B(  5-C , 16-H ) :  -0.1116 B(  6-C , 16-H ) :   1.1030

FINAL SINGLE POINT ENERGY      -309.157736734904

DIPOLE MOMENT
-------------
                                X             Y             Z
Electronic contribution:      2.73889      -1.89867       2.05240
Nuclear contribution   :     -2.90784       1.75532      -2.27425
                        -----------------------------------------
Total Dipole Moment    :     -0.16895      -0.14335      -0.22185
                        -----------------------------------------
Magnitude (a.u.)       :      0.31355
Magnitude (Debye)      :      0.79697

                             ****ORCA TERMINATED NORMALLY****
TOTAL RUN TIME: 0 days 0 hours 0 minutes 7 seconds 210 msec
