                         Program Version 3.0.3 - RELEASE   -
|  1> ! RI PBE def2-SVP def2-SVP/J NBO PAL2
|  2> % maxcore 2000
|  3> % output
|  4>     # printlevel mini
|  5>     print[ P_Basis ] 0
|  6>     print[ P_SCFInfo ] 1
|  7>     print[ P_SCFIterInfo ] 1
|  8>     print[ P_OrbEn ] 0
|  9>     print[ P_Cartesian ] 0
| 10> end
| 11> *xyz 0 1
| 12>  C        0.9079940000     0.0860220000    -1.1397790000
| 13>  O        2.1418220000     0.0600270000    -1.8118410000
| 14>  C        3.0474510000    -0.8684060000    -1.2479390000
| 15>  C        4.3709650000    -0.8485310000    -1.9830120000
| 16>  C        4.4135630000    -1.5012140000    -3.3640220000
| 17>  C        3.7430430000    -0.7396710000    -4.4975230000
| 18>  O        2.3391320000    -0.7442040000    -4.4473890000
| 19>  H        0.2778560000     0.8239550000    -1.6360190000
| 20>  H        1.0390560000     0.3754770000    -0.0893460000
| 21>  H        0.4116800000    -0.8923300000    -1.1749550000
| 22>  H        2.6073200000    -1.8770330000    -1.2736790000
| 23>  H        3.2079140000    -0.6045660000    -0.1927930000
| 24>  H        5.0859410000    -1.3679520000    -1.3361340000
| 25>  H        4.7161980000     0.1900130000    -2.0468420000
| 26>  H        3.9782550000    -2.5062140000    -3.3134740000
| 27>  H        5.4669600000    -1.6321710000    -3.6375510000
| 28>  H        4.0153170000    -1.2089550000    -5.4470090000
| 29>  H        4.1362010000     0.2895140000    -4.5244730000
| 30>  H        2.0852200000    -0.3426730000    -3.6020310000
| 31> *
| 32>
| 33>                          ****END OF INPUT****
 Total Charge           Charge          ....    0
 Multiplicity           Mult            ....    1
 Number of Electrons    NEL             ....   58
 Basis Dimension        Dim             ....  158

MULLIKEN ATOMIC CHARGES
-----------------------
   0 C :    0.144384
   1 O :   -0.370790
   2 C :    0.153877
   3 C :   -0.015745
   4 C :   -0.052894
   5 C :    0.190530
   6 O :   -0.307894
   7 H :    0.042673
   8 H :    0.016608
   9 H :    0.019678
  10 H :    0.003831
  11 H :    0.003581
  12 H :    0.016164
  13 H :    0.016183
  14 H :    0.007372
  15 H :    0.005774
  16 H :   -0.000756
  17 H :   -0.018295
  18 H :    0.145718
Sum of atomic charges:    0.0000000

LOEWDIN ATOMIC CHARGES
----------------------
   0 C :    0.053517
   1 O :   -0.134396
   2 C :    0.058597
   3 C :   -0.056512
   4 C :   -0.066016
   5 C :    0.052067
   6 O :   -0.139550
   7 H :    0.027035
   8 H :    0.011335
   9 H :    0.011252
  10 H :    0.008032
  11 H :    0.011271
  12 H :    0.036238
  13 H :    0.028875
  14 H :    0.023380
  15 H :    0.029259
  16 H :    0.016781
  17 H :   -0.001277
  18 H :    0.030111

  Mayer bond orders larger than 0.1
B(  0-C ,  1-O ) :   0.9848 B(  0-C ,  7-H ) :   0.9755 B(  0-C ,  8-H ) :   0.9599
B(  0-C ,  9-H ) :   0.9591 B(  1-O ,  2-C ) :   0.9738 B(  1-O , 18-H ) :   0.1148
B(  2-C ,  3-C ) :   1.0925 B(  2-C , 10-H ) :   0.9271 B(  2-C , 11-H ) :   0.9257
B(  3-C ,  4-C ) :   1.1063 B(  3-C , 12-H ) :   0.9176 B(  3-C , 13-H ) :   0.9245
B(  4-C ,  5-C ) :   1.0755 B(  4-C , 14-H ) :   0.9245 B(  4-C , 15-H ) :   0.9163
B(  5-C ,  6-O ) :   1.0977 B(  5-C , 16-H ) :   0.9381 B(  5-C , 17-H ) :   0.9269
B(  6-O , 18-H ) :   0.9447

FINAL SINGLE POINT ENERGY      -347.486556324655

DIPOLE MOMENT
-------------
                                X             Y             Z
Electronic contribution:     -1.38820       1.02100      -2.13691
Nuclear contribution   :      1.53307      -1.03920       3.24682
                        -----------------------------------------
Total Dipole Moment    :      0.14487      -0.01820       1.10990
                        -----------------------------------------
Magnitude (a.u.)       :      1.11947
Magnitude (Debye)      :      2.84546

                             ****ORCA TERMINATED NORMALLY****
TOTAL RUN TIME: 0 days 0 hours 0 minutes 8 seconds 246 msec
