                         Program Version 3.0.3 - RELEASE   -
|  1> ! RI PBE def2-SVP def2-SVP/J NBO PAL2
|  2> % maxcore 2000
|  3> % output
|  4>     # printlevel mini
|  5>     print[ P_Basis ] 0
|  6>     print[ P_SCFInfo ] 1
|  7>     print[ P_SCFIterInfo ] 1
|  8>     print[ P_OrbEn ] 0
|  9>     print[ P_Cartesian ] 0
| 10> end
| 11> *xyz 0 1
| 12>  C        4.2021040000    -1.1211200000    -0.2843000000
| 13>  O        3.0775450000    -0.3064890000    -0.0592820000
| 14>  C        3.3087250000     0.9010960000     0.4924780000
| 15>  C        4.4738860000     1.4261730000     0.8653940000
| 16>  C        4.5836640000     2.7957840000     1.4507100000
| 17>  C        5.5580850000     3.6920250000     0.6982420000
| 18>  O        6.8807450000     3.1933110000     0.7037090000
| 19>  H        3.8343490000    -2.0405270000    -0.7369690000
| 20>  H        4.7148060000    -1.3554320000     0.6554230000
| 21>  H        4.9119510000    -0.6357930000    -0.9633380000
| 22>  H        2.3749180000     1.4429750000     0.6116490000
| 23>  H        5.4001930000     0.8782470000     0.7354900000
| 24>  H        4.9141830000     2.7396490000     2.4984840000
| 25>  H        3.6012250000     3.2804610000     1.4669650000
| 26>  H        5.5229300000     4.7087940000     1.1137900000
| 27>  H        5.2696090000     3.7536920000    -0.3537430000
| 28>  H        7.1982900000     3.1971430000     1.6104870000
| 29> *
| 30>
| 31>                          ****END OF INPUT****
 Total Charge           Charge          ....    0
 Multiplicity           Mult            ....    1
 Number of Electrons    NEL             ....   56
 Basis Dimension        Dim             ....  148

MULLIKEN ATOMIC CHARGES
-----------------------
   0 C :    0.128665
   1 O :   -0.265867
   2 C :    0.131157
   3 C :   -0.143654
   4 C :    0.008135
   5 C :    0.169494
   6 O :   -0.289559
   7 H :    0.036081
   8 H :    0.026485
   9 H :    0.032689
  10 H :    0.000852
  11 H :   -0.004293
  12 H :    0.009949
  13 H :    0.000598
  14 H :   -0.002445
  15 H :    0.010918
  16 H :    0.150795
Sum of atomic charges:    0.0000000

LOEWDIN ATOMIC CHARGES
----------------------
   0 C :    0.059228
   1 O :   -0.070162
   2 C :    0.019468
   3 C :   -0.124446
   4 C :   -0.057862
   5 C :    0.057128
   6 O :   -0.124671
   7 H :    0.026117
   8 H :    0.015136
   9 H :    0.016909
  10 H :    0.018737
  11 H :    0.020164
  12 H :    0.023826
  13 H :    0.030441
  14 H :    0.003252
  15 H :    0.020446
  16 H :    0.066292

  Mayer bond orders larger than 0.1
B(  0-C ,  1-O ) :   0.9908 B(  0-C ,  7-H ) :   0.9721 B(  0-C ,  8-H ) :   0.9579
B(  0-C ,  9-H ) :   0.9590 B(  1-O ,  2-C ) :   1.1578 B(  2-C ,  3-C ) :   1.7631
B(  2-C , 10-H ) :   0.9682 B(  3-C ,  4-C ) :   1.0582 B(  3-C , 11-H ) :   0.9540
B(  4-C ,  5-C ) :   1.0673 B(  4-C , 12-H ) :   0.9136 B(  4-C , 13-H ) :   0.9156
B(  5-C ,  6-O ) :   1.0532 B(  5-C , 14-H ) :   0.9379 B(  5-C , 15-H ) :   0.9370
B(  6-O , 16-H ) :   0.9853

FINAL SINGLE POINT ENERGY      -346.267571351622

DIPOLE MOMENT
-------------
                                X             Y             Z
Electronic contribution:     -1.22426      -0.79843      -0.64236
Nuclear contribution   :      1.33299       0.76978       1.10406
                        -----------------------------------------
Total Dipole Moment    :      0.10873      -0.02865       0.46170
                        -----------------------------------------
Magnitude (a.u.)       :      0.47520
Magnitude (Debye)      :      1.20785

                             ****ORCA TERMINATED NORMALLY****
TOTAL RUN TIME: 0 days 0 hours 0 minutes 7 seconds 269 msec
