                         Program Version 3.0.3 - RELEASE   -
|  1> ! RI PBE def2-SVP def2-SVP/J NBO PAL2
|  2> % maxcore 2000
|  3> % output
|  4>     # printlevel mini
|  5>     print[ P_Basis ] 0
|  6>     print[ P_SCFInfo ] 1
|  7>     print[ P_SCFIterInfo ] 1
|  8>     print[ P_OrbEn ] 0
|  9>     print[ P_Cartesian ] 0
| 10> end
| 11> *xyz 0 1
| 12>  C        4.1020540000    -1.9473140000    -0.8187590000
| 13>  O        4.4098490000    -0.7972430000    -0.0654020000
| 14>  C        4.4430500000     0.3563100000    -0.7715560000
| 15>  C        4.5617850000     1.5541590000    -0.2023450000
| 16>  C        4.6649120000     1.7429420000     1.2762840000
| 17>  C        4.5995420000     2.7715610000    -1.0697420000
| 18>  O        5.8403160000     3.4623720000    -1.0401330000
| 19>  H        4.1583520000    -2.7967870000    -0.1395940000
| 20>  H        4.8210450000    -2.0931150000    -1.6329130000
| 21>  H        3.0913100000    -1.8905970000    -1.2381600000
| 22>  H        4.3765160000     0.2490670000    -1.8530480000
| 23>  H        5.6631660000     2.0893100000     1.5674640000
| 24>  H        4.4752290000     0.8128670000     1.8110150000
| 25>  H        3.9473140000     2.4944940000     1.6241090000
| 26>  H        3.7865880000     3.4565030000    -0.7833530000
| 27>  H        4.4406330000     2.4964740000    -2.1144810000
| 28>  H        5.9722200000     3.8080970000    -0.1541880000
| 29> *
| 30>
| 31>                          ****END OF INPUT****
 Total Charge           Charge          ....    0
 Multiplicity           Mult            ....    1
 Number of Electrons    NEL             ....   56
 Basis Dimension        Dim             ....  148

MULLIKEN ATOMIC CHARGES
-----------------------
   0 C :    0.146045
   1 O :   -0.272673
   2 C :    0.078734
   3 C :   -0.222894
   4 C :    0.069862
   5 C :    0.232155
   6 O :   -0.292803
   7 H :    0.038080
   8 H :    0.024693
   9 H :    0.020714
  10 H :   -0.020956
  11 H :    0.018541
  12 H :    0.026102
  13 H :    0.016690
  14 H :   -0.005665
  15 H :   -0.006726
  16 H :    0.150102
Sum of atomic charges:   -0.0000000

LOEWDIN ATOMIC CHARGES
----------------------
   0 C :    0.059608
   1 O :   -0.082169
   2 C :    0.015158
   3 C :   -0.115072
   4 C :   -0.060327
   5 C :    0.063889
   6 O :   -0.127194
   7 H :    0.027509
   8 H :    0.014466
   9 H :    0.013346
  10 H :    0.009273
  11 H :    0.028886
  12 H :    0.034360
  13 H :    0.030224
  14 H :    0.005364
  15 H :    0.019769
  16 H :    0.062910

  Mayer bond orders larger than 0.1
B(  0-C ,  1-O ) :   0.9823 B(  0-C ,  7-H ) :   0.9769 B(  0-C ,  8-H ) :   0.9606
B(  0-C ,  9-H ) :   0.9623 B(  1-O ,  2-C ) :   1.1320 B(  2-C ,  3-C ) :   1.7962
B(  2-C , 10-H ) :   0.9329 B(  3-C ,  4-C ) :   1.0859 B(  3-C ,  5-C ) :   1.0572
B(  4-C , 11-H ) :   0.9412 B(  4-C , 12-H ) :   0.9449 B(  4-C , 13-H ) :   0.9447
B(  5-C ,  6-O ) :   1.0455 B(  5-C , 14-H ) :   0.9189 B(  5-C , 15-H ) :   0.9269
B(  6-O , 16-H ) :   0.9868

FINAL SINGLE POINT ENERGY      -346.267611871334

DIPOLE MOMENT
-------------
                                X             Y             Z
Electronic contribution:      1.47473       1.04768      -0.78271
Nuclear contribution   :     -1.90842      -1.55379       0.90655
                        -----------------------------------------
Total Dipole Moment    :     -0.43370      -0.50611       0.12384
                        -----------------------------------------
Magnitude (a.u.)       :      0.67792
Magnitude (Debye)      :      1.72313

                             ****ORCA TERMINATED NORMALLY****
TOTAL RUN TIME: 0 days 0 hours 0 minutes 7 seconds 294 msec
