                         Program Version 3.0.3 - RELEASE   -
|  1> ! RI PBE def2-SVP def2-SVP/J NBO PAL2
|  2> % maxcore 2000
|  3> % output
|  4>     # printlevel mini
|  5>     print[ P_Basis ] 0
|  6>     print[ P_SCFInfo ] 1
|  7>     print[ P_SCFIterInfo ] 1
|  8>     print[ P_OrbEn ] 0
|  9>     print[ P_Cartesian ] 0
| 10> end
| 11> *xyz 0 1
| 12>  C        1.1830240000     0.0597940000    -0.1178160000
| 13>  O        2.5968440000     0.0122870000    -0.0533220000
| 14>  C        3.2290680000     1.1577360000    -0.3084700000
| 15>  C        4.5657130000     1.2844960000    -0.2886890000
| 16>  C        5.5244130000     0.1857270000     0.0154820000
| 17>  C        5.0747040000     2.6134910000    -0.5933340000
| 18>  O        6.2463810000     2.9111430000    -0.6214790000
| 19>  H        0.8258230000    -0.9419980000     0.1119640000
| 20>  H        0.8467950000     0.3426720000    -1.1198260000
| 21>  H        0.7817510000     0.7642290000     0.6169210000
| 22>  H        2.5984930000     2.0157460000    -0.5415080000
| 23>  H        5.0060600000    -0.7491830000     0.2237220000
| 24>  H        6.1442880000     0.4499330000     0.8758860000
| 25>  H        6.2086960000     0.0357400000    -0.8233300000
| 26>  H        4.2930380000     3.3763670000    -0.8089000000
| 27> *
| 28>
| 29>                          ****END OF INPUT****
 Total Charge           Charge          ....    0
 Multiplicity           Mult            ....    1
 Number of Electrons    NEL             ....   54
 Basis Dimension        Dim             ....  138

MULLIKEN ATOMIC CHARGES
-----------------------
   0 C :    0.139994
   1 O :   -0.242227
   2 C :    0.102126
   3 C :   -0.169639
   4 C :    0.088062
   5 C :    0.101451
   6 O :   -0.182733
   7 H :    0.048872
   8 H :    0.034557
   9 H :    0.037808
  10 H :   -0.009619
  11 H :    0.016774
  12 H :    0.038539
  13 H :    0.039460
  14 H :   -0.043425
Sum of atomic charges:   -0.0000000

LOEWDIN ATOMIC CHARGES
----------------------
   0 C :    0.066930
   1 O :   -0.047374
   2 C :    0.053329
   3 C :   -0.125130
   4 C :   -0.051125
   5 C :    0.057617
   6 O :   -0.139824
   7 H :    0.032790
   8 H :    0.020787
   9 H :    0.021454
  10 H :    0.012434
  11 H :    0.030446
  12 H :    0.043692
  13 H :    0.043732
  14 H :   -0.019756

  Mayer bond orders larger than 0.1
B(  0-C ,  1-O ) :   0.9553 B(  0-C ,  7-H ) :   0.9773 B(  0-C ,  8-H ) :   0.9647
B(  0-C ,  9-H ) :   0.9656 B(  1-O ,  2-C ) :   1.1936 B(  2-C ,  3-C ) :   1.6310
B(  2-C , 10-H ) :   0.9312 B(  3-C ,  4-C ) :   1.0988 B(  3-C ,  5-C ) :   1.0460
B(  4-C , 11-H ) :   0.9476 B(  4-C , 12-H ) :   0.9392 B(  4-C , 13-H ) :   0.9393
B(  5-C ,  6-O ) :   2.1136 B(  5-C , 14-H ) :   0.9284

FINAL SINGLE POINT ENERGY      -345.088621366230

DIPOLE MOMENT
-------------
                                X             Y             Z
Electronic contribution:      3.33308       3.03307      -0.61514
Nuclear contribution   :     -5.18641      -3.70442       0.70789
                        -----------------------------------------
Total Dipole Moment    :     -1.85333      -0.67135       0.09274
                        -----------------------------------------
Magnitude (a.u.)       :      1.97336
Magnitude (Debye)      :      5.01587

                             ****ORCA TERMINATED NORMALLY****
TOTAL RUN TIME: 0 days 0 hours 0 minutes 6 seconds 994 msec
