                         Program Version 3.0.3 - RELEASE   -
|  1> ! RI PBE def2-SVP def2-SVP/J NBO PAL2
|  2> % maxcore 2000
|  3> % output
|  4>     # printlevel mini
|  5>     print[ P_Basis ] 0
|  6>     print[ P_SCFInfo ] 1
|  7>     print[ P_SCFIterInfo ] 1
|  8>     print[ P_OrbEn ] 0
|  9>     print[ P_Cartesian ] 0
| 10> end
| 11> *xyz 0 1
| 12>  C        4.3637330000     1.0740260000    -0.9651860000
| 13>  O        3.2131810000     0.5656330000    -0.3326190000
| 14>  C        3.2999880000     0.3270560000     0.9885670000
| 15>  C        4.3479870000     0.5231280000     1.7880610000
| 16>  C        4.3712380000     0.2129000000     3.2540110000
| 17>  C        3.0827160000    -0.3521460000     3.8214720000
| 18>  O        5.4734380000    -0.6406700000     3.5520350000
| 19>  H        4.1088960000     1.1991010000    -2.0161050000
| 20>  H        5.2050890000     0.3787200000    -0.8720850000
| 21>  H        4.6527660000     2.0413790000    -0.5402000000
| 22>  H        2.3571850000    -0.0613760000     1.3569350000
| 23>  H        5.2790170000     0.9176150000     1.3953160000
| 24>  H        4.6080790000     1.1353390000     3.7974290000
| 25>  H        2.8054880000    -1.2854900000     3.3224220000
| 26>  H        2.2537920000     0.3525620000     3.7204220000
| 27>  H        3.2244230000    -0.5665500000     4.8814120000
| 28>  H        5.4016950000    -1.4083180000     2.9763120000
| 29> *
| 30>
| 31>                          ****END OF INPUT****
 Total Charge           Charge          ....    0
 Multiplicity           Mult            ....    1
 Number of Electrons    NEL             ....   56
 Basis Dimension        Dim             ....  148

MULLIKEN ATOMIC CHARGES
-----------------------
   0 C :    0.126790
   1 O :   -0.259281
   2 C :    0.138280
   3 C :   -0.179672
   4 C :    0.131237
   5 C :    0.016711
   6 O :   -0.286008
   7 H :    0.042194
   8 H :    0.030271
   9 H :    0.029984
  10 H :    0.003942
  11 H :   -0.004135
  12 H :    0.006880
  13 H :    0.008073
  14 H :    0.023127
  15 H :    0.028636
  16 H :    0.142969
Sum of atomic charges:   -0.0000000

LOEWDIN ATOMIC CHARGES
----------------------
   0 C :    0.059619
   1 O :   -0.065523
   2 C :    0.024698
   3 C :   -0.144181
   4 C :    0.046634
   5 C :   -0.080248
   6 O :   -0.118577
   7 H :    0.027974
   8 H :    0.016315
   9 H :    0.017449
  10 H :    0.020863
  11 H :    0.023746
  12 H :    0.027684
  13 H :    0.021031
  14 H :    0.029320
  15 H :    0.032408
  16 H :    0.060789

  Mayer bond orders larger than 0.1
B(  0-C ,  1-O ) :   0.9891 B(  0-C ,  7-H ) :   0.9726 B(  0-C ,  8-H ) :   0.9591
B(  0-C ,  9-H ) :   0.9580 B(  1-O ,  2-C ) :   1.1639 B(  2-C ,  3-C ) :   1.7375
B(  2-C , 10-H ) :   0.9514 B(  3-C ,  4-C ) :   1.0308 B(  3-C , 11-H ) :   0.9579
B(  4-C ,  5-C ) :   1.1249 B(  4-C ,  6-O ) :   1.0069 B(  4-C , 12-H ) :   0.8857
B(  5-C , 13-H ) :   0.9365 B(  5-C , 14-H ) :   0.9383 B(  5-C , 15-H ) :   0.9492
B(  6-O , 16-H ) :   0.9850

FINAL SINGLE POINT ENERGY      -346.271738778750

DIPOLE MOMENT
-------------
                                X             Y             Z
Electronic contribution:      0.41414      -0.37644      -1.28622
Nuclear contribution   :     -0.49826       0.41874       0.69908
                        -----------------------------------------
Total Dipole Moment    :     -0.08412       0.04231      -0.58714
                        -----------------------------------------
Magnitude (a.u.)       :      0.59464
Magnitude (Debye)      :      1.51145

                             ****ORCA TERMINATED NORMALLY****
TOTAL RUN TIME: 0 days 0 hours 0 minutes 7 seconds 374 msec
