                         Program Version 3.0.3 - RELEASE   -
|  1> ! RI PBE def2-SVP def2-SVP/J NBO PAL2
|  2> % maxcore 2000
|  3> % output
|  4>     # printlevel mini
|  5>     print[ P_Basis ] 0
|  6>     print[ P_SCFInfo ] 1
|  7>     print[ P_SCFIterInfo ] 1
|  8>     print[ P_OrbEn ] 0
|  9>     print[ P_Cartesian ] 0
| 10> end
| 11> *xyz 0 1
| 12>  C        4.3222510000     0.3933280000    -0.9700800000
| 13>  O        3.1489690000     0.2525460000    -0.1918080000
| 14>  C        3.2121280000    -0.5443110000     0.8718990000
| 15>  C        4.2661950000    -1.2466590000     1.3117830000
| 16>  C        4.2251230000    -2.0983410000     2.5027760000
| 17>  C        2.9436070000    -2.2102250000     3.2955620000
| 18>  O        5.2172710000    -2.7085450000     2.8471340000
| 19>  H        4.0698250000     1.0742340000    -1.7800200000
| 20>  H        4.6342870000    -0.5713150000    -1.3806440000
| 21>  H        5.1365860000     0.8136470000    -0.3728720000
| 22>  H        2.2546580000    -0.5678190000     1.3814500000
| 23>  H        5.2233990000    -1.2255680000     0.8056850000
| 24>  H        2.1321380000    -2.6040850000     2.6781440000
| 25>  H        2.6289200000    -1.2344220000     3.6745000000
| 26>  H        3.1140530000    -2.8821750000     4.1342900000
| 27> *
| 28>
| 29>                          ****END OF INPUT****
 Total Charge           Charge          ....    0
 Multiplicity           Mult            ....    1
 Number of Electrons    NEL             ....   54
 Basis Dimension        Dim             ....  138

MULLIKEN ATOMIC CHARGES
-----------------------
   0 C :    0.119294
   1 O :   -0.240241
   2 C :    0.152128
   3 C :   -0.083627
   4 C :   -0.045040
   5 C :    0.017802
   6 O :   -0.181596
   7 H :    0.050312
   8 H :    0.044466
   9 H :    0.044836
  10 H :    0.017324
  11 H :   -0.005993
  12 H :    0.038671
  13 H :    0.038716
  14 H :    0.032948
Sum of atomic charges:   -0.0000000

LOEWDIN ATOMIC CHARGES
----------------------
   0 C :    0.065835
   1 O :   -0.039604
   2 C :    0.057496
   3 C :   -0.145472
   4 C :    0.040165
   5 C :   -0.093064
   6 O :   -0.143991
   7 H :    0.031690
   8 H :    0.024383
   9 H :    0.024158
  10 H :    0.026443
  11 H :    0.032828
  12 H :    0.039934
  13 H :    0.040057
  14 H :    0.039142

  Mayer bond orders larger than 0.1
B(  0-C ,  1-O ) :   0.9664 B(  0-C ,  7-H ) :   0.9730 B(  0-C ,  8-H ) :   0.9616
B(  0-C ,  9-H ) :   0.9622 B(  1-O ,  2-C ) :   1.2129 B(  2-C ,  3-C ) :   1.5924
B(  2-C , 10-H ) :   0.9553 B(  3-C ,  4-C ) :   1.0386 B(  3-C , 11-H ) :   0.9607
B(  4-C ,  5-C ) :   1.0563 B(  4-C ,  6-O ) :   2.1060 B(  5-C , 12-H ) :   0.9335
B(  5-C , 13-H ) :   0.9345 B(  5-C , 14-H ) :   0.9416

FINAL SINGLE POINT ENERGY      -345.091805684792

DIPOLE MOMENT
-------------
                                X             Y             Z
Electronic contribution:      1.32264      -1.02349       0.74700
Nuclear contribution   :     -1.92362       1.87272      -1.61463
                        -----------------------------------------
Total Dipole Moment    :     -0.60099       0.84923      -0.86763
                        -----------------------------------------
Magnitude (a.u.)       :      1.35468
Magnitude (Debye)      :      3.44333

                             ****ORCA TERMINATED NORMALLY****
TOTAL RUN TIME: 0 days 0 hours 0 minutes 6 seconds 595 msec
