                         Program Version 3.0.3 - RELEASE   -
|  1> ! RI PBE def2-SVP def2-SVP/J NBO PAL2
|  2> % maxcore 2000
|  3> % output
|  4>     # printlevel mini
|  5>     print[ P_Basis ] 0
|  6>     print[ P_SCFInfo ] 1
|  7>     print[ P_SCFIterInfo ] 1
|  8>     print[ P_OrbEn ] 0
|  9>     print[ P_Cartesian ] 0
| 10> end
| 11> *xyz 0 1
| 12>  C        5.1323920000    -0.6461600000     0.0151280000
| 13>  O        3.7459170000    -0.5335900000     0.2408930000
| 14>  C        3.3578710000     0.2711690000     1.2414900000
| 15>  C        4.1200460000     1.0041710000     2.0539350000
| 16>  C        3.5424440000     1.8454150000     3.1492700000
| 17>  C        3.8985990000     1.2686440000     4.4967800000
| 18>  O        4.5552600000     1.8277640000     5.3302470000
| 19>  H        5.2552280000    -1.3379300000    -0.8159940000
| 20>  H        5.6437490000    -1.0402790000     0.8999870000
| 21>  H        5.5680020000     0.3237680000    -0.2478000000
| 22>  H        2.2748530000     0.2751810000     1.3250060000
| 23>  H        5.2001470000     0.9979400000     1.9601640000
| 24>  H        2.4486600000     1.8545670000     3.0714380000
| 25>  H        3.9025650000     2.8766700000     3.1116720000
| 26>  H        3.5192680000     0.2363600000     4.6665640000
| 27> *
| 28>
| 29>                          ****END OF INPUT****
 Total Charge           Charge          ....    0
 Multiplicity           Mult            ....    1
 Number of Electrons    NEL             ....   54
 Basis Dimension        Dim             ....  138

MULLIKEN ATOMIC CHARGES
-----------------------
   0 C :    0.119213
   1 O :   -0.254797
   2 C :    0.129416
   3 C :   -0.178186
   4 C :    0.080058
   5 C :    0.082374
   6 O :   -0.160941
   7 H :    0.045557
   8 H :    0.035418
   9 H :    0.035723
  10 H :    0.012672
  11 H :    0.015097
  12 H :    0.033059
  13 H :    0.023388
  14 H :   -0.018050
Sum of atomic charges:   -0.0000000

LOEWDIN ATOMIC CHARGES
----------------------
   0 C :    0.060998
   1 O :   -0.059785
   2 C :    0.025524
   3 C :   -0.123921
   4 C :   -0.069344
   5 C :    0.089299
   6 O :   -0.107721
   7 H :    0.029840
   8 H :    0.018479
   9 H :    0.018829
  10 H :    0.023404
  11 H :    0.026565
  12 H :    0.045552
  13 H :    0.037100
  14 H :   -0.014820

  Mayer bond orders larger than 0.1
B(  0-C ,  1-O ) :   0.9822 B(  0-C ,  7-H ) :   0.9730 B(  0-C ,  8-H ) :   0.9585
B(  0-C ,  9-H ) :   0.9593 B(  1-O ,  2-C ) :   1.1806 B(  1-O ,  3-C ) :   0.1015
B(  2-C ,  3-C ) :   1.7421 B(  2-C , 10-H ) :   0.9684 B(  3-C ,  4-C ) :   1.0436
B(  3-C , 11-H ) :   0.9560 B(  4-C ,  5-C ) :   0.9549 B(  4-C , 12-H ) :   0.9112
B(  4-C , 13-H ) :   0.9019 B(  5-C ,  6-O ) :   2.1769 B(  5-C , 14-H ) :   0.9132

FINAL SINGLE POINT ENERGY      -345.071902004129

DIPOLE MOMENT
-------------
                                X             Y             Z
Electronic contribution:     -1.21285       0.93536       3.53985
Nuclear contribution   :      1.15830      -1.31309      -4.48294
                        -----------------------------------------
Total Dipole Moment    :     -0.05455      -0.37773      -0.94309
                        -----------------------------------------
Magnitude (a.u.)       :      1.01738
Magnitude (Debye)      :      2.58599

                             ****ORCA TERMINATED NORMALLY****
TOTAL RUN TIME: 0 days 0 hours 0 minutes 6 seconds 604 msec
