                         Program Version 3.0.3 - RELEASE   -
|  1> ! RI PBE def2-SVP def2-SVP/J NBO PAL2
|  2> % maxcore 2000
|  3> % output
|  4>     # printlevel mini
|  5>     print[ P_Basis ] 0
|  6>     print[ P_SCFInfo ] 1
|  7>     print[ P_SCFIterInfo ] 1
|  8>     print[ P_OrbEn ] 0
|  9>     print[ P_Cartesian ] 0
| 10> end
| 11> *xyz 0 1
| 12>  C        1.3663280000     0.0783060000     0.1478910000
| 13>  O        2.7363950000     0.0918460000     0.4710620000
| 14>  C        3.1198020000     0.8415090000     1.5269530000
| 15>  C        2.3049770000     1.5750970000     2.2922370000
| 16>  C        4.6054180000     0.8114950000     1.6858070000
| 17>  C        5.2848920000     1.7461520000     0.6874800000
| 18>  O        4.9536960000     3.0957410000     0.9087020000
| 19>  H        1.2596930000    -0.5741240000    -0.7170110000
| 20>  H        1.0102440000     1.0827550000    -0.1046910000
| 21>  H        0.7693190000    -0.3138850000     0.9779680000
| 22>  H        1.2352330000     1.6242640000     2.1451620000
| 23>  H        2.7220410000     2.1235050000     3.1252980000
| 24>  H        4.9629980000    -0.2100030000     1.5261270000
| 25>  H        4.8716120000     1.1179860000     2.6989450000
| 26>  H        5.0296160000     1.4361570000    -0.3350120000
| 27>  H        6.3690560000     1.6717320000     0.7973110000
| 28>  H        3.9950790000     3.1469670000     1.0015900000
| 29> *
| 30>
| 31>                          ****END OF INPUT****
 Total Charge           Charge          ....    0
 Multiplicity           Mult            ....    1
 Number of Electrons    NEL             ....   56
 Basis Dimension        Dim             ....  148

MULLIKEN ATOMIC CHARGES
-----------------------
   0 C :    0.129118
   1 O :   -0.267165
   2 C :   -0.014464
   3 C :   -0.119324
   4 C :    0.053734
   5 C :    0.166918
   6 O :   -0.289349
   7 H :    0.041044
   8 H :    0.029981
   9 H :    0.035250
  10 H :    0.019186
  11 H :    0.021327
  12 H :    0.014955
  13 H :    0.015879
  14 H :    0.000239
  15 H :    0.018711
  16 H :    0.143961
Sum of atomic charges:   -0.0000000

LOEWDIN ATOMIC CHARGES
----------------------
   0 C :    0.061166
   1 O :   -0.064561
   2 C :    0.021058
   3 C :   -0.165173
   4 C :   -0.058683
   5 C :    0.061570
   6 O :   -0.124062
   7 H :    0.028478
   8 H :    0.016681
   9 H :    0.018291
  10 H :    0.021717
  11 H :    0.029443
  12 H :    0.037552
  13 H :    0.035230
  14 H :    0.003214
  15 H :    0.021254
  16 H :    0.056826

  Mayer bond orders larger than 0.1
B(  0-C ,  1-O ) :   0.9815 B(  0-C ,  7-H ) :   0.9727 B(  0-C ,  8-H ) :   0.9588
B(  0-C ,  9-H ) :   0.9598 B(  1-O ,  2-C ) :   1.1587 B(  2-C ,  3-C ) :   1.8035
B(  2-C ,  4-C ) :   1.0512 B(  3-C , 10-H ) :   0.9422 B(  3-C , 11-H ) :   0.9230
B(  4-C ,  5-C ) :   1.0675 B(  4-C , 12-H ) :   0.8961 B(  4-C , 13-H ) :   0.9164
B(  5-C ,  6-O ) :   1.0783 B(  5-C , 14-H ) :   0.9301 B(  5-C , 15-H ) :   0.9407
B(  6-O , 16-H ) :   0.9733

FINAL SINGLE POINT ENERGY      -346.274432318962

DIPOLE MOMENT
-------------
                                X             Y             Z
Electronic contribution:      1.71091       0.31907      -0.46246
Nuclear contribution   :     -2.44695      -0.85709       0.36480
                        -----------------------------------------
Total Dipole Moment    :     -0.73604      -0.53802      -0.09766
                        -----------------------------------------
Magnitude (a.u.)       :      0.91693
Magnitude (Debye)      :      2.33066

                             ****ORCA TERMINATED NORMALLY****
TOTAL RUN TIME: 0 days 0 hours 0 minutes 7 seconds 463 msec
