                         Program Version 3.0.3 - RELEASE   -
|  1> ! RI PBE def2-SVP def2-SVP/J NBO PAL2
|  2> % maxcore 2000
|  3> % output
|  4>     # printlevel mini
|  5>     print[ P_Basis ] 0
|  6>     print[ P_SCFInfo ] 1
|  7>     print[ P_SCFIterInfo ] 1
|  8>     print[ P_OrbEn ] 0
|  9>     print[ P_Cartesian ] 0
| 10> end
| 11> *xyz 0 1
| 12>  C        1.1632490000    -0.0294930000     0.1572950000
| 13>  O        2.5422540000     0.0912970000    -0.0942110000
| 14>  C        2.9119510000     0.7392680000    -1.2211190000
| 15>  C        2.0878000000     1.2553490000    -2.1309250000
| 16>  C        4.4203030000     0.8041420000    -1.3043210000
| 17>  C        5.0461220000    -0.5798140000    -1.2275640000
| 18>  O        4.8640940000     1.5080720000    -2.4388970000
| 19>  H        1.0666140000    -0.5551980000     1.1058890000
| 20>  H        0.6669570000    -0.6047580000    -0.6315740000
| 21>  H        0.6890670000     0.9547770000     0.2329220000
| 22>  H        1.0120540000     1.1913930000    -2.0525830000
| 23>  H        2.5031210000     1.7954060000    -2.9683620000
| 24>  H        4.7642760000     1.3948430000    -0.4476150000
| 25>  H        4.7492130000    -1.0968440000    -0.3151550000
| 26>  H        4.7264750000    -1.1877330000    -2.0803090000
| 27>  H        6.1334080000    -0.4911530000    -1.2500360000
| 28>  H        4.6833310000     0.9653470000    -3.2126140000
| 29> *
| 30>
| 31>                          ****END OF INPUT****
 Total Charge           Charge          ....    0
 Multiplicity           Mult            ....    1
 Number of Electrons    NEL             ....   56
 Basis Dimension        Dim             ....  148

MULLIKEN ATOMIC CHARGES
-----------------------
   0 C :    0.139110
   1 O :   -0.278613
   2 C :    0.033670
   3 C :   -0.116034
   4 C :    0.147401
   5 C :   -0.018715
   6 O :   -0.268037
   7 H :    0.035505
   8 H :    0.029593
   9 H :    0.030280
  10 H :    0.013112
  11 H :    0.003833
  12 H :    0.018334
  13 H :    0.033697
  14 H :    0.007878
  15 H :    0.036120
  16 H :    0.152865
Sum of atomic charges:   -0.0000000

LOEWDIN ATOMIC CHARGES
----------------------
   0 C :    0.062572
   1 O :   -0.068955
   2 C :    0.009271
   3 C :   -0.161309
   4 C :    0.039681
   5 C :   -0.076665
   6 O :   -0.095505
   7 H :    0.026188
   8 H :    0.016164
   9 H :    0.017204
  10 H :    0.021135
  11 H :    0.023614
  12 H :    0.033625
  13 H :    0.032629
  14 H :    0.023601
  15 H :    0.030732
  16 H :    0.066018

  Mayer bond orders larger than 0.1
B(  0-C ,  1-O ) :   0.9834 B(  0-C ,  7-H ) :   0.9725 B(  0-C ,  8-H ) :   0.9596
B(  0-C ,  9-H ) :   0.9592 B(  1-O ,  2-C ) :   1.1319 B(  2-C ,  3-C ) :   1.8691
B(  2-C ,  4-C ) :   0.9508 B(  3-C , 10-H ) :   0.9362 B(  3-C , 11-H ) :   0.9039
B(  4-C ,  5-C ) :   1.0894 B(  4-C ,  6-O ) :   1.0635 B(  4-C , 12-H ) :   0.8859
B(  5-C , 13-H ) :   0.9446 B(  5-C , 14-H ) :   0.9519 B(  5-C , 15-H ) :   0.9596
B(  6-O , 16-H ) :   0.9771

FINAL SINGLE POINT ENERGY      -346.275628235868

DIPOLE MOMENT
-------------
                                X             Y             Z
Electronic contribution:      1.42431       2.18108      -0.12073
Nuclear contribution   :     -1.90853      -2.75749       0.21340
                        -----------------------------------------
Total Dipole Moment    :     -0.48422      -0.57641       0.09266
                        -----------------------------------------
Magnitude (a.u.)       :      0.75849
Magnitude (Debye)      :      1.92793

                             ****ORCA TERMINATED NORMALLY****
TOTAL RUN TIME: 0 days 0 hours 0 minutes 7 seconds 462 msec
