                         Program Version 3.0.3 - RELEASE   -
|  1> ! RI PBE def2-SVP def2-SVP/J NBO PAL2
|  2> % maxcore 2000
|  3> % output
|  4>     # printlevel mini
|  5>     print[ P_Basis ] 0
|  6>     print[ P_SCFInfo ] 1
|  7>     print[ P_SCFIterInfo ] 1
|  8>     print[ P_OrbEn ] 0
|  9>     print[ P_Cartesian ] 0
| 10> end
| 11> *xyz 0 1
| 12>  C        1.7242930000    -0.1305070000     0.7213780000
| 13>  O        3.0787450000    -0.4524870000     0.5138220000
| 14>  C        3.3354160000    -1.5207800000    -0.2710680000
| 15>  C        2.4410310000    -2.3053190000    -0.8720830000
| 16>  C        4.8097980000    -1.7757980000    -0.4263540000
| 17>  C        5.7437280000    -0.8423990000     0.2870840000
| 18>  O        5.2054580000    -2.6970010000    -1.0980950000
| 19>  H        1.7080850000     0.7445220000     1.3686740000
| 20>  H        1.1946520000    -0.9569290000     1.2075820000
| 21>  H        1.2272080000     0.1042230000    -0.2260900000
| 22>  H        1.3727970000    -2.1644120000    -0.7920850000
| 23>  H        2.8170630000    -3.1238600000    -1.4694140000
| 24>  H        5.5449900000    -0.8550520000     1.3615210000
| 25>  H        5.5783390000     0.1857490000    -0.0440040000
| 26>  H        6.7697960000    -1.1442500000     0.0879130000
| 27> *
| 28>
| 29>                          ****END OF INPUT****
 Total Charge           Charge          ....    0
 Multiplicity           Mult            ....    1
 Number of Electrons    NEL             ....   54
 Basis Dimension        Dim             ....  138

MULLIKEN ATOMIC CHARGES
-----------------------
   0 C :    0.127084
   1 O :   -0.266422
   2 C :    0.071365
   3 C :   -0.077250
   4 C :   -0.048053
   5 C :    0.041770
   6 O :   -0.151471
   7 H :    0.043622
   8 H :    0.036616
   9 H :    0.035914
  10 H :    0.022564
  11 H :    0.038537
  12 H :    0.048548
  13 H :    0.043704
  14 H :    0.033472
Sum of atomic charges:   -0.0000000

LOEWDIN ATOMIC CHARGES
----------------------
   0 C :    0.062513
   1 O :   -0.065248
   2 C :   -0.019354
   3 C :   -0.089681
   4 C :    0.049081
   5 C :   -0.087812
   6 O :   -0.114909
   7 H :    0.028997
   8 H :    0.019078
   9 H :    0.019243
  10 H :    0.024953
  11 H :    0.038501
  12 H :    0.048922
  13 H :    0.048123
  14 H :    0.037595

  Mayer bond orders larger than 0.1
B(  0-C ,  1-O ) :   0.9759 B(  0-C ,  7-H ) :   0.9733 B(  0-C ,  8-H ) :   0.9589
B(  0-C ,  9-H ) :   0.9589 B(  1-O ,  2-C ) :   1.1691 B(  2-C ,  3-C ) :   1.8333
B(  2-C ,  4-C ) :   0.8988 B(  3-C , 10-H ) :   0.9350 B(  3-C , 11-H ) :   0.9058
B(  4-C ,  5-C ) :   1.0493 B(  4-C ,  6-O ) :   2.1826 B(  5-C , 12-H ) :   0.9333
B(  5-C , 13-H ) :   0.9333 B(  5-C , 14-H ) :   0.9427

FINAL SINGLE POINT ENERGY      -345.088180207829

DIPOLE MOMENT
-------------
                                X             Y             Z
Electronic contribution:      2.73304      -2.63825      -1.89117
Nuclear contribution   :     -3.56939       3.47191       2.49043
                        -----------------------------------------
Total Dipole Moment    :     -0.83635       0.83366       0.59926
                        -----------------------------------------
Magnitude (a.u.)       :      1.32423
Magnitude (Debye)      :      3.36593

                             ****ORCA TERMINATED NORMALLY****
TOTAL RUN TIME: 0 days 0 hours 0 minutes 6 seconds 650 msec
