                         Program Version 3.0.3 - RELEASE   -
|  1> ! RI PBE def2-SVP def2-SVP/J NBO PAL2
|  2> % maxcore 2000
|  3> % output
|  4>     # printlevel mini
|  5>     print[ P_Basis ] 0
|  6>     print[ P_SCFInfo ] 1
|  7>     print[ P_SCFIterInfo ] 1
|  8>     print[ P_OrbEn ] 0
|  9>     print[ P_Cartesian ] 0
| 10> end
| 11> *xyz 0 1
| 12>  C        1.1810790000    -0.3830370000    -0.6644980000
| 13>  O        2.5556980000    -0.4820060000    -0.3720780000
| 14>  C        3.1044930000    -1.7170240000    -0.3856390000
| 15>  C        2.4694710000    -2.8530290000    -0.6728660000
| 16>  C        4.5459940000    -1.6448960000     0.0060800000
| 17>  C        4.7255990000    -1.3432420000     1.4749130000
| 18>  O        5.5778860000    -1.8391670000     2.1566920000
| 19>  H        0.9250260000     0.6722780000    -0.5904780000
| 20>  H        0.5842580000    -0.9578590000     0.0512140000
| 21>  H        0.9686100000    -0.7410030000    -1.6771800000
| 22>  H        1.4242970000    -2.8934460000    -0.9439520000
| 23>  H        3.0155250000    -3.7849410000    -0.6412310000
| 24>  H        5.0171970000    -0.8209360000    -0.5456620000
| 25>  H        5.0763650000    -2.5660410000    -0.2311970000
| 26>  H        4.0085930000    -0.6088510000     1.8971920000
| 27> *
| 28>
| 29>                          ****END OF INPUT****
 Total Charge           Charge          ....    0
 Multiplicity           Mult            ....    1
 Number of Electrons    NEL             ....   54
 Basis Dimension        Dim             ....  138

MULLIKEN ATOMIC CHARGES
-----------------------
   0 C :    0.132193
   1 O :   -0.275740
   2 C :   -0.008477
   3 C :   -0.101381
   4 C :    0.105602
   5 C :    0.080204
   6 O :   -0.159952
   7 H :    0.039846
   8 H :    0.035920
   9 H :    0.032370
  10 H :    0.017727
  11 H :    0.020050
  12 H :    0.056214
  13 H :    0.024656
  14 H :    0.000767
Sum of atomic charges:   -0.0000000

LOEWDIN ATOMIC CHARGES
----------------------
   0 C :    0.063396
   1 O :   -0.070702
   2 C :    0.021270
   3 C :   -0.149356
   4 C :   -0.074411
   5 C :    0.098779
   6 O :   -0.103103
   7 H :    0.028452
   8 H :    0.018870
   9 H :    0.018125
  10 H :    0.023476
  11 H :    0.031464
  12 H :    0.058712
  13 H :    0.045089
  14 H :   -0.010062

  Mayer bond orders larger than 0.1
B(  0-C ,  1-O ) :   0.9781 B(  0-C ,  7-H ) :   0.9729 B(  0-C ,  8-H ) :   0.9600
B(  0-C ,  9-H ) :   0.9608 B(  1-O ,  2-C ) :   1.1348 B(  2-C ,  3-C ) :   1.8502
B(  2-C ,  4-C ) :   1.0086 B(  3-C , 10-H ) :   0.9422 B(  3-C , 11-H ) :   0.9237
B(  4-C ,  5-C ) :   0.9537 B(  4-C , 12-H ) :   0.8896 B(  4-C , 13-H ) :   0.9156
B(  5-C ,  6-O ) :   2.1831 B(  5-C , 14-H ) :   0.9258

FINAL SINGLE POINT ENERGY      -345.074650514293

DIPOLE MOMENT
-------------
                                X             Y             Z
Electronic contribution:      5.10033       0.51256       3.47412
Nuclear contribution   :     -6.03538      -0.15048      -4.21583
                        -----------------------------------------
Total Dipole Moment    :     -0.93505       0.36207      -0.74171
                        -----------------------------------------
Magnitude (a.u.)       :      1.24721
Magnitude (Debye)      :      3.17016

                             ****ORCA TERMINATED NORMALLY****
TOTAL RUN TIME: 0 days 0 hours 0 minutes 6 seconds 845 msec
