                         Program Version 3.0.3 - RELEASE   -
|  1> ! RI PBE def2-SVP def2-SVP/J NBO PAL2
|  2> % maxcore 2000
|  3> % output
|  4>     # printlevel mini
|  5>     print[ P_Basis ] 0
|  6>     print[ P_SCFInfo ] 1
|  7>     print[ P_SCFIterInfo ] 1
|  8>     print[ P_OrbEn ] 0
|  9>     print[ P_Cartesian ] 0
| 10> end
| 11> *xyz 0 1
| 12>  C        0.8516880000     1.0370620000     0.4464360000
| 13>  O        2.2634800000     0.9018320000     0.4614200000
| 14>  C        3.0932760000     1.9424940000     0.7052890000
| 15>  C        2.6117450000     3.3056090000     0.9739550000
| 16>  O        1.4606560000     3.6701110000     1.0122040000
| 17>  C        4.4128910000     1.6699520000     0.6908210000
| 18>  C        5.5779030000     2.5659030000     0.9148330000
| 19>  H        0.4809770000     0.0360250000     0.2259810000
| 20>  H        0.5155890000     1.7295570000    -0.3260430000
| 21>  H        0.4624500000     1.3667570000     1.4103280000
| 22>  H        3.4270430000     4.0285860000     1.1514270000
| 23>  H        4.6585950000     0.6307320000     0.4820250000
| 24>  H        5.3210590000     3.6022640000     1.1226330000
| 25>  H        6.2344660000     2.5536970000     0.0384210000
| 26>  H        6.1796710000     2.1965170000     1.7519390000
| 27> *
| 28>
| 29>                          ****END OF INPUT****
 Total Charge           Charge          ....    0
 Multiplicity           Mult            ....    1
 Number of Electrons    NEL             ....   54
 Basis Dimension        Dim             ....  138

MULLIKEN ATOMIC CHARGES
-----------------------
   0 C :    0.156357
   1 O :   -0.284679
   2 C :    0.096713
   3 C :    0.088558
   4 O :   -0.171296
   5 C :   -0.131324
   6 C :    0.045456
   7 H :    0.027290
   8 H :    0.032138
   9 H :    0.030671
  10 H :   -0.020656
  11 H :    0.013854
  12 H :    0.027958
  13 H :    0.046388
  14 H :    0.042574
Sum of atomic charges:   -0.0000000

LOEWDIN ATOMIC CHARGES
----------------------
   0 C :    0.066000
   1 O :   -0.082024
   2 C :   -0.030791
   3 C :    0.056245
   4 O :   -0.115229
   5 C :   -0.032052
   6 C :   -0.064832
   7 H :    0.021685
   8 H :    0.017145
   9 H :    0.016896
  10 H :   -0.003298
  11 H :    0.033331
  12 H :    0.028540
  13 H :    0.044336
  14 H :    0.044050

  Mayer bond orders larger than 0.1
B(  0-C ,  1-O ) :   0.9511 B(  0-C ,  7-H ) :   0.9691 B(  0-C ,  8-H ) :   0.9700
B(  0-C ,  9-H ) :   0.9696 B(  1-O ,  2-C ) :   1.1723 B(  2-C ,  3-C ) :   1.0122
B(  2-C ,  5-C ) :   1.6559 B(  3-C ,  4-O ) :   2.0778 B(  3-C , 10-H ) :   0.9301
B(  4-O ,  5-C ) :   0.1081 B(  5-C ,  6-C ) :   1.1279 B(  5-C , 11-H ) :   0.9329
B(  6-C , 12-H ) :   0.9462 B(  6-C , 13-H ) :   0.9363 B(  6-C , 14-H ) :   0.9342

FINAL SINGLE POINT ENERGY      -345.072772389794

DIPOLE MOMENT
-------------
                                X             Y             Z
Electronic contribution:     -3.47433       0.77655       0.04529
Nuclear contribution   :      4.13610      -1.02692      -0.07532
                        -----------------------------------------
Total Dipole Moment    :      0.66177      -0.25037      -0.03003
                        -----------------------------------------
Magnitude (a.u.)       :      0.70819
Magnitude (Debye)      :      1.80007

                             ****ORCA TERMINATED NORMALLY****
TOTAL RUN TIME: 0 days 0 hours 0 minutes 7 seconds 58 msec
