                         Program Version 3.0.3 - RELEASE   -
|  1> ! RI PBE def2-SVP def2-SVP/J NBO PAL2
|  2> % maxcore 2000
|  3> % output
|  4>     # printlevel mini
|  5>     print[ P_Basis ] 0
|  6>     print[ P_SCFInfo ] 1
|  7>     print[ P_SCFIterInfo ] 1
|  8>     print[ P_OrbEn ] 0
|  9>     print[ P_Cartesian ] 0
| 10> end
| 11> *xyz 0 1
| 12>  C        4.5913280000     1.5933910000     1.1639700000
| 13>  O        4.2545090000     2.3660770000     0.0373450000
| 14>  C        3.7566310000     1.6012760000    -1.0200690000
| 15>  C        3.1473060000     2.4809070000    -2.0679580000
| 16>  C        3.1866660000     3.8044350000    -2.0468830000
| 17>  C        4.8826780000     0.8305490000    -1.7039590000
| 18>  O        4.7436040000    -0.2169170000    -2.2665750000
| 19>  H        4.9689490000     2.2782440000     1.9224560000
| 20>  H        5.3692820000     0.8517880000     0.9399900000
| 21>  H        3.7138650000     1.0667120000     1.5604700000
| 22>  H        3.0111760000     0.8683250000    -0.6742210000
| 23>  H        2.6796720000     1.9448800000    -2.8886350000
| 24>  H        3.6562490000     4.3383990000    -1.2300750000
| 25>  H        2.7350030000     4.3858840000    -2.8416040000
| 26>  H        5.8603030000     1.3600600000    -1.6628620000
| 27> *
| 28>
| 29>                          ****END OF INPUT****
 Total Charge           Charge          ....    0
 Multiplicity           Mult            ....    1
 Number of Electrons    NEL             ....   54
 Basis Dimension        Dim             ....  138

MULLIKEN ATOMIC CHARGES
-----------------------
   0 C :    0.143544
   1 O :   -0.327591
   2 C :    0.171828
   3 C :   -0.102602
   4 C :    0.000604
   5 C :    0.083082
   6 O :   -0.147514
   7 H :    0.041308
   8 H :    0.020525
   9 H :    0.017291
  10 H :    0.011336
  11 H :    0.020747
  12 H :    0.037093
  13 H :    0.031953
  14 H :   -0.001604
Sum of atomic charges:   -0.0000000

LOEWDIN ATOMIC CHARGES
----------------------
   0 C :    0.054988
   1 O :   -0.126341
   2 C :    0.008330
   3 C :   -0.039265
   4 C :   -0.042730
   5 C :    0.083571
   6 O :   -0.096869
   7 H :    0.027930
   8 H :    0.008962
   9 H :    0.011918
  10 H :    0.024777
  11 H :    0.034717
  12 H :    0.028548
  13 H :    0.029928
  14 H :   -0.008464

  Mayer bond orders larger than 0.1
B(  0-C ,  1-O ) :   0.9980 B(  0-C ,  7-H ) :   0.9767 B(  0-C ,  8-H ) :   0.9566
B(  0-C ,  9-H ) :   0.9554 B(  1-O ,  2-C ) :   1.0349 B(  2-C ,  3-C ) :   1.0084
B(  2-C ,  5-C ) :   0.8833 B(  2-C , 10-H ) :   0.8806 B(  3-C ,  4-C ) :   2.0021
B(  3-C , 11-H ) :   0.9448 B(  4-C , 12-H ) :   0.9373 B(  4-C , 13-H ) :   0.9382
B(  5-C ,  6-O ) :   2.1784 B(  5-C , 14-H ) :   0.9109

FINAL SINGLE POINT ENERGY      -345.057736093546

DIPOLE MOMENT
-------------
                                X             Y             Z
Electronic contribution:      0.72193      -2.53177      -2.99134
Nuclear contribution   :     -0.79824       2.86414       3.57789
                        -----------------------------------------
Total Dipole Moment    :     -0.07631       0.33237       0.58655
                        -----------------------------------------
Magnitude (a.u.)       :      0.67848
Magnitude (Debye)      :      1.72456

                             ****ORCA TERMINATED NORMALLY****
TOTAL RUN TIME: 0 days 0 hours 0 minutes 6 seconds 922 msec
