                         Program Version 3.0.3 - RELEASE   -
|  1> ! RI PBE def2-SVP def2-SVP/J NBO PAL2
|  2> % maxcore 2000
|  3> % output
|  4>     # printlevel mini
|  5>     print[ P_Basis ] 0
|  6>     print[ P_SCFInfo ] 1
|  7>     print[ P_SCFIterInfo ] 1
|  8>     print[ P_OrbEn ] 0
|  9>     print[ P_Cartesian ] 0
| 10> end
| 11> *xyz 0 1
| 12>  C        1.9332060000    -1.3257340000     1.5607300000
| 13>  O        3.0751880000    -0.7834360000     2.1619080000
| 14>  C        3.2302210000     0.6135230000     1.9816620000
| 15>  C        2.2332600000     1.4097400000     2.8063940000
| 16>  C        4.6592530000     0.9564040000     2.3534780000
| 17>  C        5.6888560000     0.2517090000     1.5012530000
| 18>  O        6.9668730000     0.7253560000     1.8852110000
| 19>  H        2.0003970000    -2.4100360000     1.6579000000
| 20>  H        1.8811400000    -1.0701910000     0.4926160000
| 21>  H        1.0043780000    -0.9934740000     2.0410240000
| 22>  H        3.0736110000     0.8433880000     0.9133370000
| 23>  H        2.3617430000     1.1874860000     3.8686280000
| 24>  H        1.2021790000     1.1831720000     2.5288000000
| 25>  H        2.3871650000     2.4807140000     2.6564790000
| 26>  H        4.8276500000     0.7031620000     3.4050540000
| 27>  H        4.8024470000     2.0367140000     2.2548830000
| 28>  H        5.4973380000     0.4661170000     0.4387500000
| 29>  H        5.6070860000    -0.8314420000     1.6435510000
| 30>  H        7.6328010000     0.2140270000     1.4211200000
| 31> *
| 32>
| 33>                          ****END OF INPUT****
 Total Charge           Charge          ....    0
 Multiplicity           Mult            ....    1
 Number of Electrons    NEL             ....   58
 Basis Dimension        Dim             ....  158

MULLIKEN ATOMIC CHARGES
-----------------------
   0 C :    0.149314
   1 O :   -0.343789
   2 C :    0.033612
   3 C :    0.018793
   4 C :   -0.004299
   5 C :    0.154914
   6 O :   -0.277952
   7 H :    0.035030
   8 H :    0.001892
   9 H :    0.003184
  10 H :   -0.016805
  11 H :    0.027901
  12 H :    0.019376
  13 H :    0.020998
  14 H :    0.015957
  15 H :    0.016386
  16 H :   -0.016762
  17 H :    0.009355
  18 H :    0.152895
Sum of atomic charges:    0.0000000

LOEWDIN ATOMIC CHARGES
----------------------
   0 C :    0.047959
   1 O :   -0.145725
   2 C :    0.048248
   3 C :   -0.075546
   4 C :   -0.055688
   5 C :    0.054887
   6 O :   -0.131896
   7 H :    0.023875
   8 H :    0.004866
   9 H :    0.002447
  10 H :    0.002513
  11 H :    0.030690
  12 H :    0.024596
  13 H :    0.032170
  14 H :    0.030065
  15 H :    0.031647
  16 H :   -0.000389
  17 H :    0.006087
  18 H :    0.069195

  Mayer bond orders larger than 0.1
B(  0-C ,  1-O ) :   1.0221 B(  0-C ,  7-H ) :   0.9757 B(  0-C ,  8-H ) :   0.9525
B(  0-C ,  9-H ) :   0.9545 B(  1-O ,  2-C ) :   0.9966 B(  2-C ,  3-C ) :   1.0886
B(  2-C ,  4-C ) :   1.0416 B(  2-C , 10-H ) :   0.9026 B(  3-C , 11-H ) :   0.9527
B(  3-C , 12-H ) :   0.9510 B(  3-C , 13-H ) :   0.9502 B(  4-C ,  5-C ) :   1.0846
B(  4-C , 14-H ) :   0.9205 B(  4-C , 15-H ) :   0.9251 B(  5-C ,  6-O ) :   1.1017
B(  5-C , 16-H ) :   0.9276 B(  5-C , 17-H ) :   0.9336 B(  6-O , 18-H ) :   0.9806

FINAL SINGLE POINT ENERGY      -347.480872567621

DIPOLE MOMENT
-------------
                                X             Y             Z
Electronic contribution:      4.98307      -0.98603       0.36405
Nuclear contribution   :     -5.31815       0.77709      -0.90783
                        -----------------------------------------
Total Dipole Moment    :     -0.33508      -0.20894      -0.54378
                        -----------------------------------------
Magnitude (a.u.)       :      0.67203
Magnitude (Debye)      :      1.70817

                             ****ORCA TERMINATED NORMALLY****
TOTAL RUN TIME: 0 days 0 hours 0 minutes 8 seconds 153 msec
