                         Program Version 3.0.3 - RELEASE   -
|  1> ! RI PBE def2-SVP def2-SVP/J NBO PAL2
|  2> % maxcore 2000
|  3> % output
|  4>     # printlevel mini
|  5>     print[ P_Basis ] 0
|  6>     print[ P_SCFInfo ] 1
|  7>     print[ P_SCFIterInfo ] 1
|  8>     print[ P_OrbEn ] 0
|  9>     print[ P_Cartesian ] 0
| 10> end
| 11> *xyz 0 1
| 12>  C        2.8764220000    -0.3737650000     0.6170200000
| 13>  O        2.2398870000     0.4797590000    -0.3018780000
| 14>  C        3.0087290000     1.1653220000    -1.1825120000
| 15>  C        2.1244230000     1.9872150000    -2.0575870000
| 16>  C        4.3447770000     1.0828700000    -1.2356530000
| 17>  C        5.2313810000     1.8276640000    -2.1724950000
| 18>  O        6.0877710000     2.7395440000    -1.4979500000
| 19>  H        2.0847440000    -0.8235340000     1.2142190000
| 20>  H        3.5560160000     0.1809160000     1.2728570000
| 21>  H        3.4394580000    -1.1615340000     0.1051280000
| 22>  H        1.4848140000     1.3359830000    -2.6591860000
| 23>  H        2.6867490000     2.6348290000    -2.7254370000
| 24>  H        1.4665960000     2.6013850000    -1.4378580000
| 25>  H        4.8646090000     0.4461200000    -0.5286440000
| 26>  H        4.6538690000     2.3416490000    -2.9492350000
| 27>  H        5.9061920000     1.1360570000    -2.6850210000
| 28>  H        5.5390600000     3.2516890000    -0.8975480000
| 29> *
| 30>
| 31>                          ****END OF INPUT****
 Total Charge           Charge          ....    0
 Multiplicity           Mult            ....    1
 Number of Electrons    NEL             ....   56
 Basis Dimension        Dim             ....  148

MULLIKEN ATOMIC CHARGES
-----------------------
   0 C :    0.141790
   1 O :   -0.278066
   2 C :    0.030470
   3 C :    0.075104
   4 C :   -0.247388
   5 C :    0.276043
   6 O :   -0.298549
   7 H :    0.035755
   8 H :    0.027479
   9 H :    0.028562
  10 H :    0.040841
  11 H :    0.014322
  12 H :    0.033654
  13 H :   -0.009294
  14 H :   -0.015827
  15 H :    0.003520
  16 H :    0.141583
Sum of atomic charges:   -0.0000000

LOEWDIN ATOMIC CHARGES
----------------------
   0 C :    0.060050
   1 O :   -0.071470
   2 C :    0.024473
   3 C :   -0.063792
   4 C :   -0.159364
   5 C :    0.058780
   6 O :   -0.131785
   7 H :    0.026833
   8 H :    0.015420
   9 H :    0.016061
  10 H :    0.042976
  11 H :    0.031438
  12 H :    0.040273
  13 H :    0.023840
  14 H :    0.002460
  15 H :    0.024348
  16 H :    0.059460

  Mayer bond orders larger than 0.1
B(  0-C ,  1-O ) :   0.9880 B(  0-C ,  7-H ) :   0.9712 B(  0-C ,  8-H ) :   0.9592
B(  0-C ,  9-H ) :   0.9587 B(  1-O ,  2-C ) :   1.1322 B(  2-C ,  3-C ) :   1.1055
B(  2-C ,  4-C ) :   1.7020 B(  3-C , 10-H ) :   0.9399 B(  3-C , 11-H ) :   0.9467
B(  3-C , 12-H ) :   0.9371 B(  4-C ,  5-C ) :   1.0788 B(  4-C , 13-H ) :   0.9455
B(  5-C ,  6-O ) :   1.0333 B(  5-C , 14-H ) :   0.9262 B(  5-C , 15-H ) :   0.9090
B(  6-O , 16-H ) :   0.9859

FINAL SINGLE POINT ENERGY      -346.273050087170

DIPOLE MOMENT
-------------
                                X             Y             Z
Electronic contribution:      0.84723       0.64825       0.56665
Nuclear contribution   :     -1.45601      -0.89960      -0.24184
                        -----------------------------------------
Total Dipole Moment    :     -0.60878      -0.25135       0.32481
                        -----------------------------------------
Magnitude (a.u.)       :      0.73436
Magnitude (Debye)      :      1.86660

                             ****ORCA TERMINATED NORMALLY****
TOTAL RUN TIME: 0 days 0 hours 0 minutes 7 seconds 355 msec
