                         Program Version 3.0.3 - RELEASE   -
|  1> ! RI PBE def2-SVP def2-SVP/J NBO PAL2
|  2> % maxcore 2000
|  3> % output
|  4>     # printlevel mini
|  5>     print[ P_Basis ] 0
|  6>     print[ P_SCFInfo ] 1
|  7>     print[ P_SCFIterInfo ] 1
|  8>     print[ P_OrbEn ] 0
|  9>     print[ P_Cartesian ] 0
| 10> end
| 11> *xyz 0 1
| 12>  C        2.8367040000     0.5228680000     0.0422140000
| 13>  O        2.3065060000    -0.5803040000    -0.6676440000
| 14>  C        3.1540250000    -1.4311570000    -1.2555940000
| 15>  C        2.4019220000    -2.5227970000    -1.9507100000
| 16>  C        4.4986400000    -1.3044290000    -1.2153570000
| 17>  C        5.3906320000    -2.2418440000    -1.8617180000
| 18>  O        6.5988090000    -2.1538290000    -1.8437230000
| 19>  H        1.9794280000     1.0692220000     0.4297990000
| 20>  H        3.4189710000     1.1696590000    -0.6197550000
| 21>  H        3.4669130000     0.1876920000     0.8705060000
| 22>  H        1.3335300000    -2.3645870000    -1.8119190000
| 23>  H        2.6639010000    -3.5021970000    -1.5480960000
| 24>  H        2.6163240000    -2.5319990000    -3.0202450000
| 25>  H        4.9759800000    -0.4864870000    -0.6917640000
| 26>  H        4.9074350000    -3.0828110000    -2.4013150000
| 27> *
| 28>
| 29>                          ****END OF INPUT****
 Total Charge           Charge          ....    0
 Multiplicity           Mult            ....    1
 Number of Electrons    NEL             ....   54
 Basis Dimension        Dim             ....  138

MULLIKEN ATOMIC CHARGES
-----------------------
   0 C :    0.127677
   1 O :   -0.243300
   2 C :    0.022310
   3 C :    0.034486
   4 C :   -0.098886
   5 C :    0.108972
   6 O :   -0.196198
   7 H :    0.046855
   8 H :    0.045333
   9 H :    0.045593
  10 H :    0.041164
  11 H :    0.056737
  12 H :    0.062755
  13 H :   -0.010417
  14 H :   -0.043082
Sum of atomic charges:   -0.0000000

LOEWDIN ATOMIC CHARGES
----------------------
   0 C :    0.066337
   1 O :   -0.038254
   2 C :    0.058822
   3 C :   -0.068690
   4 C :   -0.162723
   5 C :    0.056126
   6 O :   -0.144537
   7 H :    0.031406
   8 H :    0.024472
   9 H :    0.024440
  10 H :    0.041682
  11 H :    0.048232
  12 H :    0.049326
  13 H :    0.031394
  14 H :   -0.018034

  Mayer bond orders larger than 0.1
B(  0-C ,  1-O ) :   0.9612 B(  0-C ,  7-H ) :   0.9713 B(  0-C ,  8-H ) :   0.9618
B(  0-C ,  9-H ) :   0.9620 B(  1-O ,  2-C ) :   1.2135 B(  2-C ,  3-C ) :   1.0987
B(  2-C ,  4-C ) :   1.5428 B(  3-C , 10-H ) :   0.9411 B(  3-C , 11-H ) :   0.9396
B(  3-C , 12-H ) :   0.9395 B(  4-C ,  5-C ) :   1.0848 B(  4-C , 13-H ) :   0.9523
B(  5-C ,  6-O ) :   2.0765 B(  5-C , 14-H ) :   0.9240

FINAL SINGLE POINT ENERGY      -345.089356397165

DIPOLE MOMENT
-------------
                                X             Y             Z
Electronic contribution:      3.76501      -0.81437      -0.65876
Nuclear contribution   :     -5.24724       1.33133       1.04653
                        -----------------------------------------
Total Dipole Moment    :     -1.48223       0.51696       0.38776
                        -----------------------------------------
Magnitude (a.u.)       :      1.61698
Magnitude (Debye)      :      4.11003

                             ****ORCA TERMINATED NORMALLY****
TOTAL RUN TIME: 0 days 0 hours 0 minutes 6 seconds 619 msec
