                         Program Version 3.0.3 - RELEASE   -
|  1> ! RI PBE def2-SVP def2-SVP/J NBO PAL2
|  2> % maxcore 2000
|  3> % output
|  4>     # printlevel mini
|  5>     print[ P_Basis ] 0
|  6>     print[ P_SCFInfo ] 1
|  7>     print[ P_SCFIterInfo ] 1
|  8>     print[ P_OrbEn ] 0
|  9>     print[ P_Cartesian ] 0
| 10> end
| 11> *xyz 0 1
| 12>  C        1.5091560000     0.0679360000     0.0660290000
| 13>  O        2.8205240000     0.5580060000    -0.0193090000
| 14>  C        3.0443830000     1.7196600000    -0.8260630000
| 15>  C        2.5537520000     1.5174560000    -2.2518110000
| 16>  C        2.4184220000     2.9518760000    -0.1908910000
| 17>  C        4.5664830000     1.8523620000    -0.7950650000
| 18>  O        5.2164160000     0.7006940000    -1.2656340000
| 19>  H        1.5260060000    -0.7417310000     0.7965490000
| 20>  H        1.1507210000    -0.3348200000    -0.8882100000
| 21>  H        0.8008860000     0.8288050000     0.4145580000
| 22>  H        1.4686040000     1.4039540000    -2.2936260000
| 23>  H        3.0227580000     0.6385760000    -2.6964120000
| 24>  H        2.8164020000     2.3864120000    -2.8590090000
| 25>  H        1.3275900000     2.9145640000    -0.2230470000
| 26>  H        2.7282140000     3.8522390000    -0.7269590000
| 27>  H        2.7319420000     3.0445830000     0.8510700000
| 28>  H        4.8689110000     2.0828640000     0.2366030000
| 29>  H        4.8761950000     2.6830140000    -1.4337910000
| 30>  H        4.8244150000    -0.0358410000    -0.7831830000
| 31> *
| 32>
| 33>                          ****END OF INPUT****
 Total Charge           Charge          ....    0
 Multiplicity           Mult            ....    1
 Number of Electrons    NEL             ....   58
 Basis Dimension        Dim             ....  158

MULLIKEN ATOMIC CHARGES
-----------------------
   0 C :    0.156568
   1 O :   -0.358635
   2 C :   -0.180257
   3 C :    0.055850
   4 C :    0.048249
   5 C :    0.258949
   6 O :   -0.281945
   7 H :    0.032580
   8 H :    0.008660
   9 H :    0.004468
  10 H :    0.020552
  11 H :    0.018798
  12 H :    0.016611
  13 H :    0.023137
  14 H :    0.017037
  15 H :    0.020436
  16 H :   -0.010801
  17 H :   -0.002376
  18 H :    0.152119
Sum of atomic charges:    0.0000000

LOEWDIN ATOMIC CHARGES
----------------------
   0 C :    0.050329
   1 O :   -0.148508
   2 C :   -0.003095
   3 C :   -0.065297
   4 C :   -0.063989
   5 C :    0.057672
   6 O :   -0.116032
   7 H :    0.024807
   8 H :    0.005524
   9 H :    0.005580
  10 H :    0.023596
  11 H :    0.027646
  12 H :    0.032940
  13 H :    0.025328
  14 H :    0.032306
  15 H :    0.028562
  16 H :    0.004077
  17 H :    0.019262
  18 H :    0.059291

  Mayer bond orders larger than 0.1
B(  0-C ,  1-O ) :   1.0139 B(  0-C ,  7-H ) :   0.9744 B(  0-C ,  8-H ) :   0.9547
B(  0-C ,  9-H ) :   0.9553 B(  1-O ,  2-C ) :   0.9717 B(  2-C ,  3-C ) :   1.0467
B(  2-C ,  4-C ) :   1.0597 B(  2-C ,  5-C ) :   1.0014 B(  3-C , 10-H ) :   0.9505
B(  3-C , 11-H ) :   0.9397 B(  3-C , 12-H ) :   0.9503 B(  4-C , 13-H ) :   0.9472
B(  4-C , 14-H ) :   0.9497 B(  4-C , 15-H ) :   0.9445 B(  5-C ,  6-O ) :   1.0893
B(  5-C , 16-H ) :   0.9253 B(  5-C , 17-H ) :   0.9312 B(  6-O , 18-H ) :   0.9665

FINAL SINGLE POINT ENERGY      -347.487624508713

DIPOLE MOMENT
-------------
                                X             Y             Z
Electronic contribution:      4.67983      -2.64520       0.73116
Nuclear contribution   :     -5.51762       2.79947      -0.54903
                        -----------------------------------------
Total Dipole Moment    :     -0.83778       0.15427       0.18214
                        -----------------------------------------
Magnitude (a.u.)       :      0.87112
Magnitude (Debye)      :      2.21421

                             ****ORCA TERMINATED NORMALLY****
TOTAL RUN TIME: 0 days 0 hours 0 minutes 8 seconds 510 msec
