                         Program Version 3.0.3 - RELEASE   -
|  1> ! RI PBE def2-SVP def2-SVP/J NBO PAL2
|  2> % maxcore 2000
|  3> % output
|  4>     # printlevel mini
|  5>     print[ P_Basis ] 0
|  6>     print[ P_SCFInfo ] 1
|  7>     print[ P_SCFIterInfo ] 1
|  8>     print[ P_OrbEn ] 0
|  9>     print[ P_Cartesian ] 0
| 10> end
| 11> *xyz 0 1
| 12>  C        2.7069240000    -0.8313950000    -0.8116670000
| 13>  O        2.4326700000     0.0454900000     0.2541670000
| 14>  C        2.9691140000    -0.3317930000     1.5117160000
| 15>  C        2.4981830000     0.7437080000     2.4825910000
| 16>  C        2.5438310000    -1.7150560000     1.9661230000
| 17>  C        4.4867350000    -0.2046010000     1.4349700000
| 18>  O        5.2735540000    -0.9017900000     2.0098960000
| 19>  H        2.4247330000    -0.3106170000    -1.7267740000
| 20>  H        2.1272910000    -1.7585050000    -0.7432040000
| 21>  H        3.7719610000    -1.0922110000    -0.8745190000
| 22>  H        1.4068160000     0.7439430000     2.5098200000
| 23>  H        2.8304490000     1.7305310000     2.1532750000
| 24>  H        2.8815220000     0.5540860000     3.4861240000
| 25>  H        1.4544670000    -1.7717710000     2.0117030000
| 26>  H        2.9524110000    -1.9189220000     2.9559080000
| 27>  H        2.9134140000    -2.4949590000     1.2989910000
| 28>  H        4.8173350000     0.6476420000     0.7987980000
| 29> *
| 30>
| 31>                          ****END OF INPUT****
 Total Charge           Charge          ....    0
 Multiplicity           Mult            ....    1
 Number of Electrons    NEL             ....   56
 Basis Dimension        Dim             ....  148

MULLIKEN ATOMIC CHARGES
-----------------------
   0 C :    0.149442
   1 O :   -0.333635
   2 C :   -0.135367
   3 C :    0.050570
   4 C :    0.062031
   5 C :    0.123540
   6 O :   -0.142562
   7 H :    0.033075
   8 H :    0.016168
   9 H :    0.012051
  10 H :    0.037999
  11 H :    0.026209
  12 H :    0.029635
  13 H :    0.025874
  14 H :    0.027613
  15 H :    0.022725
  16 H :   -0.005370
Sum of atomic charges:   -0.0000000

LOEWDIN ATOMIC CHARGES
----------------------
   0 C :    0.052132
   1 O :   -0.136708
   2 C :   -0.027643
   3 C :   -0.046191
   4 C :   -0.059444
   5 C :    0.084272
   6 O :   -0.098321
   7 H :    0.025960
   8 H :    0.008112
   9 H :    0.006786
  10 H :    0.036470
  11 H :    0.031479
  12 H :    0.034598
  13 H :    0.031928
  14 H :    0.037252
  15 H :    0.029571
  16 H :   -0.010252

  Mayer bond orders larger than 0.1
B(  0-C ,  1-O ) :   1.0095 B(  0-C ,  7-H ) :   0.9745 B(  0-C ,  8-H ) :   0.9567
B(  0-C ,  9-H ) :   0.9504 B(  1-O ,  2-C ) :   1.0005 B(  2-C ,  3-C ) :   1.0313
B(  2-C ,  4-C ) :   1.0547 B(  2-C ,  5-C ) :   0.8835 B(  3-C , 10-H ) :   0.9504
B(  3-C , 11-H ) :   0.9512 B(  3-C , 12-H ) :   0.9545 B(  4-C , 13-H ) :   0.9524
B(  4-C , 14-H ) :   0.9380 B(  4-C , 15-H ) :   0.9494 B(  5-C ,  6-O ) :   2.2093
B(  5-C , 16-H ) :   0.9182

FINAL SINGLE POINT ENERGY      -346.286133057276

DIPOLE MOMENT
-------------
                                X             Y             Z
Electronic contribution:      4.22636       0.97145       0.28565
Nuclear contribution   :     -4.76213      -0.95478      -0.55746
                        -----------------------------------------
Total Dipole Moment    :     -0.53577       0.01667      -0.27180
                        -----------------------------------------
Magnitude (a.u.)       :      0.60100
Magnitude (Debye)      :      1.52763

                             ****ORCA TERMINATED NORMALLY****
TOTAL RUN TIME: 0 days 0 hours 0 minutes 7 seconds 585 msec
