                         Program Version 3.0.3 - RELEASE   -
|  1> ! RI PBE def2-SVP def2-SVP/J NBO PAL2
|  2> % maxcore 2000
|  3> % output
|  4>     # printlevel mini
|  5>     print[ P_Basis ] 0
|  6>     print[ P_SCFInfo ] 1
|  7>     print[ P_SCFIterInfo ] 1
|  8>     print[ P_OrbEn ] 0
|  9>     print[ P_Cartesian ] 0
| 10> end
| 11> *xyz 0 1
| 12>  C        3.0637170000     2.0537760000     0.1933260000
| 13>  O        3.8821460000     1.7312780000    -0.8985500000
| 14>  C        3.3193840000     0.7919700000    -1.8004790000
| 15>  C        2.2418910000     1.4034650000    -2.6748450000
| 16>  C        4.4931550000     0.2074820000    -2.5834470000
| 17>  C        5.1997720000     1.2138150000    -3.4754850000
| 18>  O        5.3982370000    -0.3937990000    -1.6803200000
| 19>  H        3.6471960000     2.6895160000     0.8601090000
| 20>  H        2.7546530000     1.1530340000     0.7409400000
| 21>  H        2.1643540000     2.6030340000    -0.1100180000
| 22>  H        2.8906220000    -0.0355330000    -1.2140700000
| 23>  H        2.6149420000     2.2933120000    -3.1850090000
| 24>  H        1.3656630000     1.6875360000    -2.0891350000
| 25>  H        1.9119090000     0.6837100000    -3.4282110000
| 26>  H        4.1014820000    -0.6097450000    -3.1983880000
| 27>  H        5.5446420000     2.0703000000    -2.8917470000
| 28>  H        4.5474980000     1.5803320000    -4.2715470000
| 29>  H        6.0660480000     0.7372580000    -3.9366150000
| 30>  H        5.5587880000     0.2635400000    -0.9934180000
| 31> *
| 32>
| 33>                          ****END OF INPUT****
 Total Charge           Charge          ....    0
 Multiplicity           Mult            ....    1
 Number of Electrons    NEL             ....   58
 Basis Dimension        Dim             ....  158

MULLIKEN ATOMIC CHARGES
-----------------------
   0 C :    0.148408
   1 O :   -0.357555
   2 C :    0.048347
   3 C :    0.009463
   4 C :    0.096338
   5 C :    0.018135
   6 O :   -0.278844
   7 H :    0.035102
   8 H :    0.008593
   9 H :    0.011524
  10 H :   -0.002751
  11 H :    0.027960
  12 H :    0.019444
  13 H :    0.023326
  14 H :   -0.000542
  15 H :    0.017045
  16 H :    0.009595
  17 H :    0.021483
  18 H :    0.144928
Sum of atomic charges:    0.0000000

LOEWDIN ATOMIC CHARGES
----------------------
   0 C :    0.050908
   1 O :   -0.145440
   2 C :    0.031524
   3 C :   -0.074147
   4 C :    0.034925
   5 C :   -0.077597
   6 O :   -0.113571
   7 H :    0.024224
   8 H :    0.007931
   9 H :    0.006317
  10 H :    0.008831
  11 H :    0.029433
  12 H :    0.026504
  13 H :    0.033884
  14 H :    0.021644
  15 H :    0.025411
  16 H :    0.024431
  17 H :    0.029704
  18 H :    0.055084

  Mayer bond orders larger than 0.1
B(  0-C ,  1-O ) :   1.0107 B(  0-C ,  7-H ) :   0.9760 B(  0-C ,  8-H ) :   0.9546
B(  0-C ,  9-H ) :   0.9581 B(  1-O ,  2-C ) :   0.9804 B(  2-C ,  3-C ) :   1.0761
B(  2-C ,  4-C ) :   1.0086 B(  2-C , 10-H ) :   0.9078 B(  3-C , 11-H ) :   0.9481
B(  3-C , 12-H ) :   0.9453 B(  3-C , 13-H ) :   0.9526 B(  4-C ,  5-C ) :   1.0744
B(  4-C ,  6-O ) :   1.0545 B(  4-C , 14-H ) :   0.9081 B(  5-C , 15-H ) :   0.9525
B(  5-C , 16-H ) :   0.9438 B(  5-C , 17-H ) :   0.9548 B(  6-O , 18-H ) :   0.9723

FINAL SINGLE POINT ENERGY      -347.489913241768

DIPOLE MOMENT
-------------
                                X             Y             Z
Electronic contribution:      3.32232      -2.39679       1.95456
Nuclear contribution   :     -4.01711       2.84935      -1.76488
                        -----------------------------------------
Total Dipole Moment    :     -0.69479       0.45256       0.18968
                        -----------------------------------------
Magnitude (a.u.)       :      0.85060
Magnitude (Debye)      :      2.16205

                             ****ORCA TERMINATED NORMALLY****
TOTAL RUN TIME: 0 days 0 hours 0 minutes 8 seconds 335 msec
