                         Program Version 3.0.3 - RELEASE   -
|  1> ! RI PBE def2-SVP def2-SVP/J NBO PAL2
|  2> % maxcore 2000
|  3> % output
|  4>     # printlevel mini
|  5>     print[ P_Basis ] 0
|  6>     print[ P_SCFInfo ] 1
|  7>     print[ P_SCFIterInfo ] 1
|  8>     print[ P_OrbEn ] 0
|  9>     print[ P_Cartesian ] 0
| 10> end
| 11> *xyz 0 1
| 12>  C        3.3155300000    -1.6602250000    -0.3908520000
| 13>  O        3.0897540000    -1.5363060000     0.9897190000
| 14>  C        3.1942730000    -0.2129680000     1.4550760000
| 15>  C        2.4760090000    -0.1228260000     2.7889360000
| 16>  C        4.6428890000     0.2441250000     1.6367930000
| 17>  C        5.6612040000    -0.8052250000     1.9817790000
| 18>  O        4.9196820000     1.4141100000     1.5441870000
| 19>  H        3.2092580000    -2.7150650000    -0.6440680000
| 20>  H        4.3215370000    -1.3284340000    -0.6818730000
| 21>  H        2.5842880000    -1.0787360000    -0.9672640000
| 22>  H        2.7327200000     0.4843360000     0.7420820000
| 23>  H        2.9180360000    -0.8116960000     3.5122970000
| 24>  H        1.4270480000    -0.3930130000     2.6590000000
| 25>  H        2.5369850000     0.8922330000     3.1834760000
| 26>  H        5.8395340000    -1.4486250000     1.1160900000
| 27>  H        5.2935640000    -1.4579590000     2.7766510000
| 28>  H        6.5925790000    -0.3252440000     2.2764630000
| 29> *
| 30>
| 31>                          ****END OF INPUT****
 Total Charge           Charge          ....    0
 Multiplicity           Mult            ....    1
 Number of Electrons    NEL             ....   56
 Basis Dimension        Dim             ....  148

MULLIKEN ATOMIC CHARGES
-----------------------
   0 C :    0.150737
   1 O :   -0.330055
   2 C :    0.081259
   3 C :    0.033840
   4 C :   -0.091989
   5 C :    0.037629
   6 O :   -0.158484
   7 H :    0.035235
   8 H :    0.005432
   9 H :    0.012567
  10 H :    0.001376
  11 H :    0.024208
  12 H :    0.039182
  13 H :    0.036046
  14 H :    0.044916
  15 H :    0.042341
  16 H :    0.035761
Sum of atomic charges:    0.0000000

LOEWDIN ATOMIC CHARGES
----------------------
   0 C :    0.052365
   1 O :   -0.140949
   2 C :    0.015936
   3 C :   -0.055029
   4 C :    0.043033
   5 C :   -0.087910
   6 O :   -0.119181
   7 H :    0.025292
   8 H :    0.002129
   9 H :    0.010067
  10 H :    0.017389
  11 H :    0.029994
  12 H :    0.035485
  13 H :    0.038239
  14 H :    0.049884
  15 H :    0.045156
  16 H :    0.038104

  Mayer bond orders larger than 0.1
B(  0-C ,  1-O ) :   1.0113 B(  0-C ,  7-H ) :   0.9776 B(  0-C ,  8-H ) :   0.9502
B(  0-C ,  9-H ) :   0.9553 B(  1-O ,  2-C ) :   1.0323 B(  2-C ,  3-C ) :   1.0766
B(  2-C ,  4-C ) :   0.9037 B(  2-C , 10-H ) :   0.8934 B(  3-C , 11-H ) :   0.9516
B(  3-C , 12-H ) :   0.9539 B(  3-C , 13-H ) :   0.9516 B(  4-C ,  5-C ) :   1.0263
B(  4-C ,  6-O ) :   2.1818 B(  5-C , 14-H ) :   0.9260 B(  5-C , 15-H ) :   0.9375
B(  5-C , 16-H ) :   0.9445

FINAL SINGLE POINT ENERGY      -346.295507901900

DIPOLE MOMENT
-------------
                                X             Y             Z
Electronic contribution:      1.17881       3.21600      -0.02333
Nuclear contribution   :     -1.37865      -3.90781      -0.15669
                        -----------------------------------------
Total Dipole Moment    :     -0.19984      -0.69182      -0.18002
                        -----------------------------------------
Magnitude (a.u.)       :      0.74226
Magnitude (Debye)      :      1.88668

                             ****ORCA TERMINATED NORMALLY****
TOTAL RUN TIME: 0 days 0 hours 0 minutes 7 seconds 998 msec
