                         Program Version 3.0.3 - RELEASE   -
|  1> ! RI PBE def2-SVP def2-SVP/J NBO PAL2
|  2> % maxcore 2000
|  3> % output
|  4>     # printlevel mini
|  5>     print[ P_Basis ] 0
|  6>     print[ P_SCFInfo ] 1
|  7>     print[ P_SCFIterInfo ] 1
|  8>     print[ P_OrbEn ] 0
|  9>     print[ P_Cartesian ] 0
| 10> end
| 11> *xyz 0 1
| 12>  C        1.2524130000     0.3047690000    -0.3631080000
| 13>  O        2.5986810000    -0.0096700000    -0.6000750000
| 14>  C        2.9438110000    -1.3541640000    -0.3311060000
| 15>  C        2.4493300000    -2.3040250000    -1.4075940000
| 16>  C        4.4612430000    -1.3917560000    -0.2112530000
| 17>  C        4.9770760000    -0.6391500000     0.9805790000
| 18>  O        5.8503740000    -1.0388570000     1.7027590000
| 19>  H        1.1429840000     1.3796240000    -0.5085970000
| 20>  H        0.9581310000     0.0547540000     0.6654450000
| 21>  H        0.5741260000    -0.2096400000    -1.0543770000
| 22>  H        2.4978640000    -1.6463290000     0.6344550000
| 23>  H        2.8875140000    -2.0408260000    -2.3733660000
| 24>  H        1.3623570000    -2.2718340000    -1.5015720000
| 25>  H        2.7297490000    -3.3318940000    -1.1673260000
| 26>  H        4.8747620000    -0.9168900000    -1.1105160000
| 27>  H        4.8339190000    -2.4166120000    -0.1666260000
| 28>  H        4.4927760000     0.3420000000     1.1642790000
| 29> *
| 30>
| 31>                          ****END OF INPUT****
 Total Charge           Charge          ....    0
 Multiplicity           Mult            ....    1
 Number of Electrons    NEL             ....   56
 Basis Dimension        Dim             ....  148

MULLIKEN ATOMIC CHARGES
-----------------------
   0 C :    0.149867
   1 O :   -0.345657
   2 C :    0.019527
   3 C :    0.026727
   4 C :    0.055684
   5 C :    0.079704
   6 O :   -0.164415
   7 H :    0.036849
   8 H :    0.003966
   9 H :    0.010712
  10 H :   -0.005746
  11 H :    0.022938
  12 H :    0.028136
  13 H :    0.024289
  14 H :    0.042699
  15 H :    0.020781
  16 H :   -0.006062
Sum of atomic charges:   -0.0000000

LOEWDIN ATOMIC CHARGES
----------------------
   0 C :    0.051198
   1 O :   -0.146111
   2 C :    0.050543
   3 C :   -0.072094
   4 C :   -0.080765
   5 C :    0.092813
   6 O :   -0.110499
   7 H :    0.026020
   8 H :    0.006631
   9 H :    0.005151
  10 H :    0.006652
  11 H :    0.030615
  12 H :    0.028158
  13 H :    0.033917
  14 H :    0.050878
  15 H :    0.037680
  16 H :   -0.010788

  Mayer bond orders larger than 0.1
B(  0-C ,  1-O ) :   1.0135 B(  0-C ,  7-H ) :   0.9752 B(  0-C ,  8-H ) :   0.9540
B(  0-C ,  9-H ) :   0.9570 B(  1-O ,  2-C ) :   0.9937 B(  2-C ,  3-C ) :   1.0890
B(  2-C ,  4-C ) :   1.0155 B(  2-C , 10-H ) :   0.9116 B(  3-C , 11-H ) :   0.9510
B(  3-C , 12-H ) :   0.9514 B(  3-C , 13-H ) :   0.9496 B(  4-C ,  5-C ) :   0.9748
B(  4-C , 14-H ) :   0.8966 B(  4-C , 15-H ) :   0.9201 B(  5-C ,  6-O ) :   2.1776
B(  5-C , 16-H ) :   0.9263

FINAL SINGLE POINT ENERGY      -346.285438054241

DIPOLE MOMENT
-------------
                                X             Y             Z
Electronic contribution:      6.77040       1.73040       4.10067
Nuclear contribution   :     -7.85576      -1.85731      -4.71453
                        -----------------------------------------
Total Dipole Moment    :     -1.08536      -0.12691      -0.61386
                        -----------------------------------------
Magnitude (a.u.)       :      1.25337
Magnitude (Debye)      :      3.18582

                             ****ORCA TERMINATED NORMALLY****
TOTAL RUN TIME: 0 days 0 hours 0 minutes 7 seconds 873 msec
