                         Program Version 3.0.3 - RELEASE   -
|  1> ! RI PBE def2-SVP def2-SVP/J NBO PAL2
|  2> % maxcore 2000
|  3> % output
|  4>     # printlevel mini
|  5>     print[ P_Basis ] 0
|  6>     print[ P_SCFInfo ] 1
|  7>     print[ P_SCFIterInfo ] 1
|  8>     print[ P_OrbEn ] 0
|  9>     print[ P_Cartesian ] 0
| 10> end
| 11> *xyz 0 1
| 12>  C        0.8171350000     0.0717030000     2.0822940000
| 13>  O        2.2061790000     0.2381400000     2.0170410000
| 14>  C        2.8613580000    -0.9199070000     1.5607610000
| 15>  C        4.3166480000    -0.6392750000     1.4318760000
| 16>  C        5.2773710000    -1.3971520000     1.9452330000
| 17>  C        6.7347310000    -1.1232950000     1.7853340000
| 18>  O        7.3927360000    -0.9952830000     3.0321460000
| 19>  H        0.3895050000     1.0105350000     2.4345190000
| 20>  H        0.5376660000    -0.7299930000     2.7803670000
| 21>  H        0.3923960000    -0.1660370000     1.0965320000
| 22>  H        2.4488740000    -1.2133990000     0.5798810000
| 23>  H        2.6916790000    -1.7619990000     2.2488820000
| 24>  H        4.5759490000     0.2461790000     0.8537720000
| 25>  H        5.0200300000    -2.2704570000     2.5429240000
| 26>  H        6.8811390000    -0.2318540000     1.1602360000
| 27>  H        7.2287780000    -1.9605670000     1.2834150000
| 28>  H        6.9377450000    -0.3120280000     3.5323890000
| 29> *
| 30>
| 31>                          ****END OF INPUT****
 Total Charge           Charge          ....    0
 Multiplicity           Mult            ....    1
 Number of Electrons    NEL             ....   56
 Basis Dimension        Dim             ....  148

MULLIKEN ATOMIC CHARGES
-----------------------
   0 C :    0.146566
   1 O :   -0.352069
   2 C :    0.236260
   3 C :   -0.059361
   4 C :   -0.135579
   5 C :    0.250346
   6 O :   -0.293974
   7 H :    0.033395
   8 H :    0.004845
   9 H :    0.002368
  10 H :    0.000454
  11 H :   -0.004890
  12 H :    0.001885
  13 H :    0.001941
  14 H :   -0.002489
  15 H :    0.018175
  16 H :    0.152127
Sum of atomic charges:   -0.0000000

LOEWDIN ATOMIC CHARGES
----------------------
   0 C :    0.048931
   1 O :   -0.151825
   2 C :    0.059613
   3 C :   -0.040777
   4 C :   -0.059678
   5 C :    0.054974
   6 O :   -0.121680
   7 H :    0.023681
   8 H :    0.004976
   9 H :    0.004314
  10 H :    0.012482
  11 H :    0.008875
  12 H :    0.026219
  13 H :    0.024420
  14 H :    0.008607
  15 H :    0.029059
  16 H :    0.067808

  Mayer bond orders larger than 0.1
B(  0-C ,  1-O ) :   1.0204 B(  0-C ,  7-H ) :   0.9766 B(  0-C ,  8-H ) :   0.9563
B(  0-C ,  9-H ) :   0.9541 B(  1-O ,  2-C ) :   1.0021 B(  2-C ,  3-C ) :   1.0380
B(  2-C , 10-H ) :   0.9014 B(  2-C , 11-H ) :   0.9254 B(  3-C ,  4-C ) :   1.8787
B(  3-C , 12-H ) :   0.9542 B(  4-C ,  5-C ) :   1.0630 B(  4-C , 13-H ) :   0.9538
B(  5-C ,  6-O ) :   1.0292 B(  5-C , 14-H ) :   0.9345 B(  5-C , 15-H ) :   0.9166
B(  6-O , 16-H ) :   0.9855

FINAL SINGLE POINT ENERGY      -346.256281960358

DIPOLE MOMENT
-------------
                                X             Y             Z
Electronic contribution:      4.07975       0.67797       1.24472
Nuclear contribution   :     -4.78977      -0.70542      -1.46623
                        -----------------------------------------
Total Dipole Moment    :     -0.71003      -0.02744      -0.22151
                        -----------------------------------------
Magnitude (a.u.)       :      0.74428
Magnitude (Debye)      :      1.89182

                             ****ORCA TERMINATED NORMALLY****
TOTAL RUN TIME: 0 days 0 hours 0 minutes 7 seconds 74 msec
