                         Program Version 3.0.3 - RELEASE   -
|  1> ! RI PBE def2-SVP def2-SVP/J NBO PAL2
|  2> % maxcore 2000
|  3> % output
|  4>     # printlevel mini
|  5>     print[ P_Basis ] 0
|  6>     print[ P_SCFInfo ] 1
|  7>     print[ P_SCFIterInfo ] 1
|  8>     print[ P_OrbEn ] 0
|  9>     print[ P_Cartesian ] 0
| 10> end
| 11> *xyz 0 1
| 12>  C        1.1973640000     0.1734910000     0.0413570000
| 13>  O        2.5935880000     0.0519740000    -0.0125390000
| 14>  C        3.0049970000    -1.0197520000    -0.8164890000
| 15>  C        4.4865000000    -1.1206920000    -0.7679650000
| 16>  C        5.2705490000    -1.4414170000    -1.7957560000
| 17>  C        6.7178090000    -1.5646440000    -1.6187920000
| 18>  O        7.4892030000    -1.8664130000    -2.4940520000
| 19>  H        0.9683640000     1.0213300000     0.6863260000
| 20>  H        0.7312790000    -0.7299160000     0.4586310000
| 21>  H        0.7699630000     0.3571110000    -0.9537420000
| 22>  H        2.6559080000    -0.8973140000    -1.8525560000
| 23>  H        2.5712750000    -1.9635700000    -0.4396700000
| 24>  H        4.9339280000    -0.9359690000     0.2076210000
| 25>  H        4.8788980000    -1.6227690000    -2.7926960000
| 26>  H        7.0766740000    -1.3518500000    -0.5877680000
| 27> *
| 28>
| 29>                          ****END OF INPUT****
 Total Charge           Charge          ....    0
 Multiplicity           Mult            ....    1
 Number of Electrons    NEL             ....   54
 Basis Dimension        Dim             ....  138

MULLIKEN ATOMIC CHARGES
-----------------------
   0 C :    0.143328
   1 O :   -0.353114
   2 C :    0.243267
   3 C :   -0.061106
   4 C :   -0.017879
   5 C :    0.122829
   6 O :   -0.166802
   7 H :    0.039839
   8 H :    0.007578
   9 H :    0.009427
  10 H :    0.007809
  11 H :    0.018670
  12 H :    0.024915
  13 H :    0.007230
  14 H :   -0.025990
Sum of atomic charges:   -0.0000000

LOEWDIN ATOMIC CHARGES
----------------------
   0 C :    0.051739
   1 O :   -0.147666
   2 C :    0.059866
   3 C :    0.014644
   4 C :   -0.069724
   5 C :    0.069747
   6 O :   -0.113500
   7 H :    0.026635
   8 H :    0.006725
   9 H :    0.007618
  10 H :    0.015347
  11 H :    0.022918
  12 H :    0.034945
  13 H :    0.033443
  14 H :   -0.012737

  Mayer bond orders larger than 0.1
B(  0-C ,  1-O ) :   1.0138 B(  0-C ,  7-H ) :   0.9768 B(  0-C ,  8-H ) :   0.9555
B(  0-C ,  9-H ) :   0.9572 B(  1-O ,  2-C ) :   1.0110 B(  2-C ,  3-C ) :   1.0287
B(  2-C , 10-H ) :   0.9264 B(  2-C , 11-H ) :   0.8972 B(  3-C ,  4-C ) :   1.7530
B(  3-C ,  6-O ) :   0.1035 B(  3-C , 12-H ) :   0.9563 B(  4-C ,  5-C ) :   1.0350
B(  4-C , 13-H ) :   0.9623 B(  5-C ,  6-O ) :   2.1089 B(  5-C , 14-H ) :   0.9315

FINAL SINGLE POINT ENERGY      -345.066906688472

DIPOLE MOMENT
-------------
                                X             Y             Z
Electronic contribution:      8.03986      -1.32841      -2.40040
Nuclear contribution   :     -9.48224       1.37352       2.91500
                        -----------------------------------------
Total Dipole Moment    :     -1.44237       0.04511       0.51461
                        -----------------------------------------
Magnitude (a.u.)       :      1.53209
Magnitude (Debye)      :      3.89426

                             ****ORCA TERMINATED NORMALLY****
TOTAL RUN TIME: 0 days 0 hours 0 minutes 6 seconds 425 msec
