                         Program Version 3.0.3 - RELEASE   -
|  1> ! RI PBE def2-SVP def2-SVP/J NBO PAL2
|  2> % maxcore 2000
|  3> % output
|  4>     # printlevel mini
|  5>     print[ P_Basis ] 0
|  6>     print[ P_SCFInfo ] 1
|  7>     print[ P_SCFIterInfo ] 1
|  8>     print[ P_OrbEn ] 0
|  9>     print[ P_Cartesian ] 0
| 10> end
| 11> *xyz 0 1
| 12>  C        1.7544450000    -2.7214380000    -0.8321300000
| 13>  O        3.0942650000    -2.3479640000    -0.6463770000
| 14>  C        3.2383050000    -1.2761320000     0.2645260000
| 15>  C        4.6896020000    -1.0068520000     0.5142310000
| 16>  C        5.1819990000     0.2236630000     0.4472700000
| 17>  C        5.5347940000    -2.1927940000     0.8889360000
| 18>  O        5.7729420000    -3.0626490000    -0.1965930000
| 19>  H        1.7376370000    -3.5467030000    -1.5436360000
| 20>  H        1.1627310000    -1.8898620000    -1.2366600000
| 21>  H        1.2962940000    -3.0500570000     0.1103760000
| 22>  H        2.7499620000    -1.5489120000     1.2155060000
| 23>  H        2.7362790000    -0.3784130000    -0.1212970000
| 24>  H        4.5659930000     1.0708710000     0.1636080000
| 25>  H        6.2214220000     0.4263620000     0.6810840000
| 26>  H        5.0517100000    -2.7322560000     1.7199060000
| 27>  H        6.5112380000    -1.8538490000     1.2407490000
| 28>  H        4.9185920000    -3.2133340000    -0.6187890000
| 29> *
| 30>
| 31>                          ****END OF INPUT****
 Total Charge           Charge          ....    0
 Multiplicity           Mult            ....    1
 Number of Electrons    NEL             ....   56
 Basis Dimension        Dim             ....  148

MULLIKEN ATOMIC CHARGES
-----------------------
   0 C :    0.145850
   1 O :   -0.369034
   2 C :    0.261575
   3 C :   -0.243731
   4 C :   -0.015315
   5 C :    0.292582
   6 O :   -0.293541
   7 H :    0.041458
   8 H :    0.014590
   9 H :    0.011684
  10 H :    0.008239
  11 H :   -0.007871
  12 H :    0.011599
  13 H :    0.018954
  14 H :   -0.014904
  15 H :   -0.010041
  16 H :    0.147906
Sum of atomic charges:   -0.0000000

LOEWDIN ATOMIC CHARGES
----------------------
   0 C :    0.052481
   1 O :   -0.145646
   2 C :    0.071766
   3 C :   -0.063871
   4 C :   -0.044088
   5 C :    0.066523
   6 O :   -0.125285
   7 H :    0.026655
   8 H :    0.010233
   9 H :    0.008735
  10 H :    0.014629
  11 H :    0.010818
  12 H :    0.020693
  13 H :    0.025161
  14 H :    0.005010
  15 H :    0.020295
  16 H :    0.045890

  Mayer bond orders larger than 0.1
B(  0-C ,  1-O ) :   0.9984 B(  0-C ,  7-H ) :   0.9763 B(  0-C ,  8-H ) :   0.9583
B(  0-C ,  9-H ) :   0.9567 B(  1-O ,  2-C ) :   0.9857 B(  2-C ,  3-C ) :   1.0433
B(  2-C , 10-H ) :   0.9078 B(  2-C , 11-H ) :   0.9205 B(  3-C ,  4-C ) :   1.9867
B(  3-C ,  5-C ) :   1.0271 B(  4-C , 12-H ) :   0.9348 B(  4-C , 13-H ) :   0.9351
B(  5-C ,  6-O ) :   1.0735 B(  5-C , 14-H ) :   0.9108 B(  5-C , 15-H ) :   0.9225
B(  6-O , 16-H ) :   0.9614

FINAL SINGLE POINT ENERGY      -346.259971854648

DIPOLE MOMENT
-------------
                                X             Y             Z
Electronic contribution:      3.17122      -1.13033      -0.93278
Nuclear contribution   :     -4.28401       1.48494       1.17211
                        -----------------------------------------
Total Dipole Moment    :     -1.11280       0.35461       0.23933
                        -----------------------------------------
Magnitude (a.u.)       :      1.19220
Magnitude (Debye)      :      3.03033

                             ****ORCA TERMINATED NORMALLY****
TOTAL RUN TIME: 0 days 0 hours 0 minutes 7 seconds 398 msec
