                         Program Version 3.0.3 - RELEASE   -
|  1> ! RI PBE def2-SVP def2-SVP/J NBO PAL2
|  2> % maxcore 2000
|  3> % output
|  4>     # printlevel mini
|  5>     print[ P_Basis ] 0
|  6>     print[ P_SCFInfo ] 1
|  7>     print[ P_SCFIterInfo ] 1
|  8>     print[ P_OrbEn ] 0
|  9>     print[ P_Cartesian ] 0
| 10> end
| 11> *xyz 0 1
| 12>  C        0.9421060000    -0.0638910000    -0.0146240000
| 13>  O        2.3431340000    -0.1059420000     0.0251890000
| 14>  C        2.9238980000     1.0376990000    -0.5292120000
| 15>  C        4.4116710000     0.9501350000    -0.4674400000
| 16>  C        5.0885180000    -0.0759270000     0.0446490000
| 17>  C        5.1652010000     2.0879570000    -1.0162670000
| 18>  O        4.6572160000     3.0669950000    -1.5031160000
| 19>  H        0.5741140000    -0.9859220000     0.4351720000
| 20>  H        0.5709940000     0.0032240000    -1.0462770000
| 21>  H        0.5492260000     0.7913770000     0.5516770000
| 22>  H        2.5954960000     1.9466120000    -0.0005900000
| 23>  H        2.6154030000     1.1717810000    -1.5781510000
| 24>  H        4.5828290000    -0.9374620000     0.4610560000
| 25>  H        6.1737360000    -0.0639660000     0.0525080000
| 26>  H        6.2692680000     1.9845300000    -0.9515650000
| 27> *
| 28>
| 29>                          ****END OF INPUT****
 Total Charge           Charge          ....    0
 Multiplicity           Mult            ....    1
 Number of Electrons    NEL             ....   54
 Basis Dimension        Dim             ....  138

MULLIKEN ATOMIC CHARGES
-----------------------
   0 C :    0.152635
   1 O :   -0.346734
   2 C :    0.271625
   3 C :   -0.181705
   4 C :    0.011559
   5 C :    0.125700
   6 O :   -0.161485
   7 H :    0.033963
   8 H :    0.008853
   9 H :    0.010190
  10 H :    0.013121
  11 H :    0.012734
  12 H :    0.041229
  13 H :    0.030735
  14 H :   -0.022419
Sum of atomic charges:   -0.0000000

LOEWDIN ATOMIC CHARGES
----------------------
   0 C :    0.054162
   1 O :   -0.140659
   2 C :    0.068513
   3 C :   -0.089295
   4 C :    0.004803
   5 C :    0.080392
   6 O :   -0.114752
   7 H :    0.024566
   8 H :    0.007714
   9 H :    0.008026
  10 H :    0.022670
  11 H :    0.022434
  12 H :    0.032494
  13 H :    0.028287
  14 H :   -0.009355

  Mayer bond orders larger than 0.1
B(  0-C ,  1-O ) :   1.0067 B(  0-C ,  7-H ) :   0.9768 B(  0-C ,  8-H ) :   0.9571
B(  0-C ,  9-H ) :   0.9574 B(  1-O ,  2-C ) :   1.0540 B(  2-C ,  3-C ) :   1.0007
B(  2-C , 10-H ) :   0.9030 B(  2-C , 11-H ) :   0.9046 B(  3-C ,  4-C ) :   1.8887
B(  3-C ,  5-C ) :   1.0026 B(  4-C , 12-H ) :   0.9278 B(  4-C , 13-H ) :   0.9306
B(  5-C ,  6-O ) :   2.1420 B(  5-C , 14-H ) :   0.9367

FINAL SINGLE POINT ENERGY      -345.069927577972

DIPOLE MOMENT
-------------
                                X             Y             Z
Electronic contribution:      4.19653       3.04437      -1.43839
Nuclear contribution   :     -4.44146      -3.70786       1.75990
                        -----------------------------------------
Total Dipole Moment    :     -0.24493      -0.66349       0.32151
                        -----------------------------------------
Magnitude (a.u.)       :      0.77690
Magnitude (Debye)      :      1.97473

                             ****ORCA TERMINATED NORMALLY****
TOTAL RUN TIME: 0 days 0 hours 0 minutes 6 seconds 811 msec
