                         Program Version 3.0.3 - RELEASE   -
|  1> ! RI PBE def2-SVP def2-SVP/J NBO PAL2
|  2> % maxcore 2000
|  3> % output
|  4>     # printlevel mini
|  5>     print[ P_Basis ] 0
|  6>     print[ P_SCFInfo ] 1
|  7>     print[ P_SCFIterInfo ] 1
|  8>     print[ P_OrbEn ] 0
|  9>     print[ P_Cartesian ] 0
| 10> end
| 11> *xyz 0 1
| 12>  C        1.0076620000    -2.0715030000     1.5046680000
| 13>  O        2.4062590000    -1.9678330000     1.4801740000
| 14>  C        2.8518360000    -0.6416230000     1.2934870000
| 15>  C        4.3677890000    -0.5837210000     1.3104120000
| 16>  C        4.8201860000     0.8520920000     1.0863420000
| 17>  C        4.9439370000    -1.1313010000     2.6124780000
| 18>  O        4.8148810000    -2.5236860000     2.7524400000
| 19>  H        0.7554840000    -3.1227200000     1.6437080000
| 20>  H        0.5682930000    -1.7211240000     0.5613600000
| 21>  H        0.5762460000    -1.4870300000     2.3282730000
| 22>  H        2.4478480000     0.0000110000     2.0943470000
| 23>  H        2.4664960000    -0.2546470000     0.3377510000
| 24>  H        4.7419910000    -1.2135870000     0.4945850000
| 25>  H        4.5090750000     1.4979130000     1.9134160000
| 26>  H        4.4008540000     1.2666520000     0.1663090000
| 27>  H        5.9078560000     0.9100570000     1.0120940000
| 28>  H        4.4754060000    -0.5992690000     3.4584660000
| 29>  H        6.0151580000    -0.9127130000     2.6533450000
| 30>  H        3.9072240000    -2.7409700000     2.5070440000
| 31> *
| 32>
| 33>                          ****END OF INPUT****
 Total Charge           Charge          ....    0
 Multiplicity           Mult            ....    1
 Number of Electrons    NEL             ....   58
 Basis Dimension        Dim             ....  158

MULLIKEN ATOMIC CHARGES
-----------------------
   0 C :    0.154376
   1 O :   -0.367085
   2 C :    0.217971
   3 C :   -0.181633
   4 C :   -0.006539
   5 C :    0.212796
   6 O :   -0.287155
   7 H :    0.036485
   8 H :    0.010353
   9 H :    0.011715
  10 H :   -0.009583
  11 H :   -0.007488
  12 H :    0.019050
  13 H :    0.021326
  14 H :    0.016717
  15 H :    0.032645
  16 H :   -0.021264
  17 H :    0.000575
  18 H :    0.146739
Sum of atomic charges:   -0.0000000

LOEWDIN ATOMIC CHARGES
----------------------
   0 C :    0.054662
   1 O :   -0.142585
   2 C :    0.066982
   3 C :   -0.076180
   4 C :   -0.054673
   5 C :    0.057879
   6 O :   -0.128684
   7 H :    0.025359
   8 H :    0.008978
   9 H :    0.008506
  10 H :    0.003953
  11 H :    0.005738
  12 H :    0.028884
  13 H :    0.025537
  14 H :    0.026094
  15 H :    0.031237
  16 H :   -0.001550
  17 H :    0.016842
  18 H :    0.043022

  Mayer bond orders larger than 0.1
B(  0-C ,  1-O ) :   0.9976 B(  0-C ,  7-H ) :   0.9765 B(  0-C ,  8-H ) :   0.9581
B(  0-C ,  9-H ) :   0.9584 B(  1-O ,  2-C ) :   0.9917 B(  2-C ,  3-C ) :   1.0467
B(  2-C , 10-H ) :   0.9218 B(  2-C , 11-H ) :   0.9278 B(  3-C ,  4-C ) :   1.0608
B(  3-C ,  5-C ) :   1.0342 B(  3-C , 12-H ) :   0.9027 B(  4-C , 13-H ) :   0.9604
B(  4-C , 14-H ) :   0.9567 B(  4-C , 15-H ) :   0.9610 B(  5-C ,  6-O ) :   1.1021
B(  5-C , 16-H ) :   0.9194 B(  5-C , 17-H ) :   0.9396 B(  6-O , 18-H ) :   0.9599

FINAL SINGLE POINT ENERGY      -347.485400641997

DIPOLE MOMENT
-------------
                                X             Y             Z
Electronic contribution:      1.14804      -4.76603       1.17417
Nuclear contribution   :     -2.03786       5.43262      -1.54881
                        -----------------------------------------
Total Dipole Moment    :     -0.88982       0.66658      -0.37464
                        -----------------------------------------
Magnitude (a.u.)       :      1.17323
Magnitude (Debye)      :      2.98211

                             ****ORCA TERMINATED NORMALLY****
TOTAL RUN TIME: 0 days 0 hours 0 minutes 8 seconds 92 msec
