                         Program Version 3.0.3 - RELEASE   -
|  1> ! RI PBE def2-SVP def2-SVP/J NBO PAL2
|  2> % maxcore 2000
|  3> % output
|  4>     # printlevel mini
|  5>     print[ P_Basis ] 0
|  6>     print[ P_SCFInfo ] 1
|  7>     print[ P_SCFIterInfo ] 1
|  8>     print[ P_OrbEn ] 0
|  9>     print[ P_Cartesian ] 0
| 10> end
| 11> *xyz 0 1
| 12>  C        2.5941620000     0.3912700000     3.4728500000
| 13>  O        3.7904580000     0.4579040000     2.7470980000
| 14>  C        3.7662520000    -0.3195920000     1.5754830000
| 15>  C        5.0579070000    -0.0702900000     0.8064220000
| 16>  C        4.9924820000    -0.7612290000    -0.5411560000
| 17>  C        6.2663800000    -0.5402480000     1.6071690000
| 18>  O        5.1614330000     1.3218530000     0.5406320000
| 19>  H        2.7032040000     1.0300050000     4.3497670000
| 20>  H        2.3830570000    -0.6343580000     3.8047690000
| 21>  H        1.7420700000     0.7451820000     2.8766170000
| 22>  H        2.9115180000    -0.0268710000     0.9476550000
| 23>  H        3.6633160000    -1.3869380000     1.8232440000
| 24>  H        5.9018170000    -0.5498040000    -1.1066560000
| 25>  H        4.1404420000    -0.3952910000    -1.1176090000
| 26>  H        4.9031300000    -1.8435150000    -0.4241970000
| 27>  H        7.1813840000    -0.2970840000     1.0640120000
| 28>  H        6.2364440000    -1.6204850000     1.7730870000
| 29>  H        6.2971250000    -0.0473710000     2.5807220000
| 30>  H        4.9894090000     1.7712620000     1.3756820000
| 31> *
| 32>
| 33>                          ****END OF INPUT****
 Total Charge           Charge          ....    0
 Multiplicity           Mult            ....    1
 Number of Electrons    NEL             ....   58
 Basis Dimension        Dim             ....  158

MULLIKEN ATOMIC CHARGES
-----------------------
   0 C :    0.154881
   1 O :   -0.356196
   2 C :    0.214523
   3 C :   -0.145118
   4 C :    0.053849
   5 C :    0.070570
   6 O :   -0.266030
   7 H :    0.033955
   8 H :    0.005441
   9 H :    0.009287
  10 H :   -0.006959
  11 H :   -0.009132
  12 H :    0.026743
  13 H :    0.019369
  14 H :    0.015227
  15 H :    0.017257
  16 H :    0.003116
  17 H :    0.011071
  18 H :    0.148146
Sum of atomic charges:    0.0000000

LOEWDIN ATOMIC CHARGES
----------------------
   0 C :    0.053296
   1 O :   -0.146799
   2 C :    0.052215
   3 C :    0.003081
   4 C :   -0.056759
   5 C :   -0.065442
   6 O :   -0.108837
   7 H :    0.023762
   8 H :    0.007117
   9 H :    0.007330
  10 H :    0.005876
  11 H :    0.005647
  12 H :    0.032663
  13 H :    0.027406
  14 H :    0.027705
  15 H :    0.027068
  16 H :    0.024360
  17 H :    0.023499
  18 H :    0.056812

  Mayer bond orders larger than 0.1
B(  0-C ,  1-O ) :   1.0124 B(  0-C ,  7-H ) :   0.9757 B(  0-C ,  8-H ) :   0.9568
B(  0-C ,  9-H ) :   0.9571 B(  1-O ,  2-C ) :   1.0107 B(  2-C ,  3-C ) :   1.0144
B(  2-C , 10-H ) :   0.9177 B(  2-C , 11-H ) :   0.9181 B(  3-C ,  4-C ) :   1.0490
B(  3-C ,  5-C ) :   1.0515 B(  3-C ,  6-O ) :   1.0451 B(  4-C , 12-H ) :   0.9520
B(  4-C , 13-H ) :   0.9496 B(  4-C , 14-H ) :   0.9554 B(  5-C , 15-H ) :   0.9550
B(  5-C , 16-H ) :   0.9472 B(  5-C , 17-H ) :   0.9468 B(  6-O , 18-H ) :   0.9695

FINAL SINGLE POINT ENERGY      -347.491625584382

DIPOLE MOMENT
-------------
                                X             Y             Z
Electronic contribution:      0.40105       3.66456       0.26888
Nuclear contribution   :     -0.93301      -4.06572       0.21550
                        -----------------------------------------
Total Dipole Moment    :     -0.53195      -0.40116       0.48438
                        -----------------------------------------
Magnitude (a.u.)       :      0.82373
Magnitude (Debye)      :      2.09375

                             ****ORCA TERMINATED NORMALLY****
TOTAL RUN TIME: 0 days 0 hours 0 minutes 8 seconds 283 msec
