                         Program Version 3.0.3 - RELEASE   -
|  1> ! RI PBE def2-SVP def2-SVP/J NBO PAL2
|  2> % maxcore 2000
|  3> % output
|  4>     # printlevel mini
|  5>     print[ P_Basis ] 0
|  6>     print[ P_SCFInfo ] 1
|  7>     print[ P_SCFIterInfo ] 1
|  8>     print[ P_OrbEn ] 0
|  9>     print[ P_Cartesian ] 0
| 10> end
| 11> *xyz 0 1
| 12>  C        1.8213520000    -3.1423170000    -0.4714870000
| 13>  O        3.1527130000    -2.7289460000    -0.3231250000
| 14>  C        3.2853290000    -1.6457880000     0.5572050000
| 15>  C        4.7578450000    -1.2770520000     0.6913740000
| 16>  C        4.9521260000     0.0309950000     1.4321400000
| 17>  C        5.5210190000    -2.4156220000     1.3222750000
| 18>  O        6.2712260000    -2.2963480000     2.2533450000
| 19>  H        1.8123530000    -3.9767690000    -1.1725290000
| 20>  H        1.1926570000    -2.3343760000    -0.8705700000
| 21>  H        1.3936860000    -3.4743110000     0.4844010000
| 22>  H        2.8657010000    -1.8981990000     1.5449560000
| 23>  H        2.7263620000    -0.7745230000     0.1823440000
| 24>  H        5.1456670000    -1.1968210000    -0.3346880000
| 25>  H        4.5254900000    -0.0208120000     2.4365860000
| 26>  H        4.4746600000     0.8542280000     0.8968860000
| 27>  H        6.0122350000     0.2568250000     1.5459770000
| 28>  H        5.3423890000    -3.4072650000     0.8600210000
| 29> *
| 30>
| 31>                          ****END OF INPUT****
 Total Charge           Charge          ....    0
 Multiplicity           Mult            ....    1
 Number of Electrons    NEL             ....   56
 Basis Dimension        Dim             ....  148

MULLIKEN ATOMIC CHARGES
-----------------------
   0 C :    0.142511
   1 O :   -0.345843
   2 C :    0.189892
   3 C :   -0.141460
   4 C :    0.027224
   5 C :    0.109563
   6 O :   -0.159741
   7 H :    0.038829
   8 H :    0.009213
   9 H :    0.009010
  10 H :   -0.000894
  11 H :    0.000585
  12 H :    0.041837
  13 H :    0.025282
  14 H :    0.017440
  15 H :    0.036133
  16 H :    0.000420
Sum of atomic charges:   -0.0000000

LOEWDIN ATOMIC CHARGES
----------------------
   0 C :    0.051692
   1 O :   -0.147834
   2 C :    0.070888
   3 C :   -0.097810
   4 C :   -0.053215
   5 C :    0.097884
   6 O :   -0.108099
   7 H :    0.025544
   8 H :    0.006900
   9 H :    0.007480
  10 H :    0.005890
  11 H :    0.007634
  12 H :    0.048213
  13 H :    0.030909
  14 H :    0.027045
  15 H :    0.035033
  16 H :   -0.008152

  Mayer bond orders larger than 0.1
B(  0-C ,  1-O ) :   1.0122 B(  0-C ,  7-H ) :   0.9763 B(  0-C ,  8-H ) :   0.9565
B(  0-C ,  9-H ) :   0.9565 B(  1-O ,  2-C ) :   1.0268 B(  2-C ,  3-C ) :   1.0185
B(  2-C , 10-H ) :   0.9215 B(  2-C , 11-H ) :   0.9286 B(  3-C ,  4-C ) :   1.0825
B(  3-C ,  5-C ) :   0.9281 B(  3-C , 12-H ) :   0.8812 B(  4-C , 13-H ) :   0.9603
B(  4-C , 14-H ) :   0.9568 B(  4-C , 15-H ) :   0.9535 B(  5-C ,  6-O ) :   2.1930
B(  5-C , 16-H ) :   0.9365

FINAL SINGLE POINT ENERGY      -346.284511304645

DIPOLE MOMENT
-------------
                                X             Y             Z
Electronic contribution:      5.25456      -2.94176       1.46093
Nuclear contribution   :     -6.26320       3.18545      -2.01463
                        -----------------------------------------
Total Dipole Moment    :     -1.00863       0.24370      -0.55369
                        -----------------------------------------
Magnitude (a.u.)       :      1.17614
Magnitude (Debye)      :      2.98951

                             ****ORCA TERMINATED NORMALLY****
TOTAL RUN TIME: 0 days 0 hours 0 minutes 7 seconds 835 msec
