                         Program Version 3.0.3 - RELEASE   -
|  1> ! RI PBE def2-SVP def2-SVP/J NBO PAL2
|  2> % maxcore 2000
|  3> % output
|  4>     # printlevel mini
|  5>     print[ P_Basis ] 0
|  6>     print[ P_SCFInfo ] 1
|  7>     print[ P_SCFIterInfo ] 1
|  8>     print[ P_OrbEn ] 0
|  9>     print[ P_Cartesian ] 0
| 10> end
| 11> *xyz 0 1
| 12>  C        0.9322290000     0.0282440000     0.1130580000
| 13>  O        2.3341200000     0.0108790000     0.1237010000
| 14>  C        2.8354010000    -1.3007400000     0.0870830000
| 15>  C        4.2868420000    -1.2960790000     0.1014500000
| 16>  C        5.4891670000    -1.3054730000     0.1184010000
| 17>  C        6.9451920000    -1.3418830000     0.1182120000
| 18>  O        7.5202840000    -1.2344380000    -1.1667220000
| 19>  H        0.6207910000     1.0719170000     0.1427960000
| 20>  H        0.5143180000    -0.4936630000     0.9855080000
| 21>  H        0.5284730000    -0.4384910000    -0.7965460000
| 22>  H        2.4821380000    -1.8218140000    -0.8175560000
| 23>  H        2.4651220000    -1.8776210000     0.9500140000
| 24>  H        7.2760690000    -2.2588690000     0.6262090000
| 25>  H        7.3320620000    -0.4990080000     0.6968190000
| 26>  H        7.0691240000    -1.8537930000    -1.7464860000
| 27> *
| 28>
| 29>                          ****END OF INPUT****
 Total Charge           Charge          ....    0
 Multiplicity           Mult            ....    1
 Number of Electrons    NEL             ....   54
 Basis Dimension        Dim             ....  138

MULLIKEN ATOMIC CHARGES
-----------------------
   0 C :    0.153053
   1 O :   -0.336661
   2 C :    0.217842
   3 C :   -0.115001
   4 C :   -0.196979
   5 C :    0.256327
   6 O :   -0.281743
   7 H :    0.036436
   8 H :    0.003826
   9 H :    0.002903
  10 H :    0.017929
  11 H :    0.021266
  12 H :    0.026345
  13 H :    0.038291
  14 H :    0.156166
Sum of atomic charges:    0.0000000

LOEWDIN ATOMIC CHARGES
----------------------
   0 C :    0.051291
   1 O :   -0.142664
   2 C :    0.051722
   3 C :   -0.055994
   4 C :   -0.070760
   5 C :    0.049808
   6 O :   -0.114689
   7 H :    0.025977
   8 H :    0.005158
   9 H :    0.004945
  10 H :    0.025626
  11 H :    0.026344
  12 H :    0.027193
  13 H :    0.045797
  14 H :    0.070245

  Mayer bond orders larger than 0.1
B(  0-C ,  1-O ) :   1.0161 B(  0-C ,  7-H ) :   0.9771 B(  0-C ,  8-H ) :   0.9552
B(  0-C ,  9-H ) :   0.9548 B(  1-O ,  2-C ) :   1.0576 B(  2-C ,  3-C ) :   1.0089
B(  2-C , 10-H ) :   0.9003 B(  2-C , 11-H ) :   0.9052 B(  3-C ,  4-C ) :   2.6914
B(  4-C ,  5-C ) :   1.0207 B(  5-C ,  6-O ) :   1.0646 B(  5-C , 12-H ) :   0.9199
B(  5-C , 13-H ) :   0.8982 B(  6-O , 14-H ) :   0.9838

FINAL SINGLE POINT ENERGY      -345.012121306419

DIPOLE MOMENT
-------------
                                X             Y             Z
Electronic contribution:      5.10787       0.14459      -0.70722
Nuclear contribution   :     -5.84820      -0.87600       0.78912
                        -----------------------------------------
Total Dipole Moment    :     -0.74032      -0.73141       0.08189
                        -----------------------------------------
Magnitude (a.u.)       :      1.04391
Magnitude (Debye)      :      2.65340

                             ****ORCA TERMINATED NORMALLY****
TOTAL RUN TIME: 0 days 0 hours 0 minutes 6 seconds 456 msec
