                         Program Version 3.0.3 - RELEASE   -
|  1> ! RI PBE def2-SVP def2-SVP/J NBO PAL2
|  2> % maxcore 2000
|  3> % output
|  4>     # printlevel mini
|  5>     print[ P_Basis ] 0
|  6>     print[ P_SCFInfo ] 1
|  7>     print[ P_SCFIterInfo ] 1
|  8>     print[ P_OrbEn ] 0
|  9>     print[ P_Cartesian ] 0
| 10> end
| 11> *xyz 0 1
| 12>  C        0.9307260000    -0.0328050000     0.1861820000
| 13>  O        2.3349340000     0.0024860000     0.1868800000
| 14>  C        2.8208360000     1.2545830000    -0.2107430000
| 15>  C        4.2695020000     1.2684430000    -0.2030870000
| 16>  C        5.4730920000     1.3288360000    -0.2122210000
| 17>  C        6.9106630000     1.3299980000    -0.2007920000
| 18>  O        7.5910840000     2.2779960000    -0.4991990000
| 19>  H        0.6341230000    -1.0315710000     0.5035920000
| 20>  H        0.5233830000     0.1600950000    -0.8156340000
| 21>  H        0.5088530000     0.7042490000     0.8829970000
| 22>  H        2.4568180000     2.0507850000     0.4591950000
| 23>  H        2.4708700000     1.5106960000    -1.2242530000
| 24>  H        7.3617370000     0.3686290000     0.1111630000
| 25> *
| 26>
| 27>                          ****END OF INPUT****
 Total Charge           Charge          ....    0
 Multiplicity           Mult            ....    1
 Number of Electrons    NEL             ....   52
 Basis Dimension        Dim             ....  128

MULLIKEN ATOMIC CHARGES
-----------------------
   0 C :    0.147734
   1 O :   -0.337558
   2 C :    0.229558
   3 C :   -0.044319
   4 C :   -0.065011
   5 C :    0.081213
   6 O :   -0.155848
   7 H :    0.042040
   8 H :    0.009274
   9 H :    0.011370
  10 H :    0.034342
  11 H :    0.028913
  12 H :    0.018293
Sum of atomic charges:    0.0000000

LOEWDIN ATOMIC CHARGES
----------------------
   0 C :    0.053427
   1 O :   -0.141258
   2 C :    0.053276
   3 C :    0.006807
   4 C :   -0.068923
   5 C :    0.068381
   6 O :   -0.094252
   7 H :    0.028803
   8 H :    0.008035
   9 H :    0.008508
  10 H :    0.036145
  11 H :    0.035232
  12 H :    0.005820

  Mayer bond orders larger than 0.1
B(  0-C ,  1-O ) :   1.0055 B(  0-C ,  7-H ) :   0.9770 B(  0-C ,  8-H ) :   0.9560
B(  0-C ,  9-H ) :   0.9569 B(  1-O ,  2-C ) :   1.0656 B(  2-C ,  3-C ) :   1.0121
B(  2-C , 10-H ) :   0.8946 B(  2-C , 11-H ) :   0.8921 B(  3-C ,  4-C ) :   2.6086
B(  3-C ,  6-O ) :   0.1175 B(  4-C ,  5-C ) :   0.9085 B(  5-C ,  6-O ) :   2.1299
B(  5-C , 12-H ) :   0.9394

FINAL SINGLE POINT ENERGY      -343.816666432088

DIPOLE MOMENT
-------------
                                X             Y             Z
Electronic contribution:      9.40746       2.00005      -0.55922
Nuclear contribution   :    -10.86865      -2.32670       0.65447
                        -----------------------------------------
Total Dipole Moment    :     -1.46119      -0.32665       0.09526
                        -----------------------------------------
Magnitude (a.u.)       :      1.50029
Magnitude (Debye)      :      3.81343

                             ****ORCA TERMINATED NORMALLY****
TOTAL RUN TIME: 0 days 0 hours 0 minutes 5 seconds 703 msec
