                         Program Version 3.0.3 - RELEASE   -
|  1> ! RI PBE def2-SVP def2-SVP/J NBO PAL2
|  2> % maxcore 2000
|  3> % output
|  4>     # printlevel mini
|  5>     print[ P_Basis ] 0
|  6>     print[ P_SCFInfo ] 1
|  7>     print[ P_SCFIterInfo ] 1
|  8>     print[ P_OrbEn ] 0
|  9>     print[ P_Cartesian ] 0
| 10> end
| 11> *xyz 0 1
| 12>  C        0.9273780000     1.8548770000    -0.8400910000
| 13>  O        2.3100950000     1.9539910000    -1.0509970000
| 14>  C        2.9563080000     0.6974940000    -1.0381100000
| 15>  C        4.4363440000     0.8828700000    -1.2910080000
| 16>  C        4.7901290000     1.5939260000    -2.5980160000
| 17>  C        4.1763400000     0.9435370000    -3.8279070000
| 18>  O        4.4732830000     2.9709060000    -2.5379150000
| 19>  H        0.5147970000     2.8634340000    -0.8640700000
| 20>  H        0.7066280000     1.4022060000     0.1356870000
| 21>  H        0.4445730000     1.2515530000    -1.6206920000
| 22>  H        2.5060870000     0.0459610000    -1.8017740000
| 23>  H        2.7979470000     0.2110270000    -0.0641720000
| 24>  H        4.9000780000    -0.1092950000    -1.2803420000
| 25>  H        4.8755220000     1.4524850000    -0.4665420000
| 26>  H        5.8803250000     1.5565300000    -2.7008650000
| 27>  H        3.0854350000     1.0114920000    -3.8080100000
| 28>  H        4.4546680000    -0.1117550000    -3.9048470000
| 29>  H        4.5235140000     1.4579860000    -4.7253040000
| 30>  H        3.5841270000     3.0331740000    -2.1674260000
| 31> *
| 32>
| 33>                          ****END OF INPUT****
 Total Charge           Charge          ....    0
 Multiplicity           Mult            ....    1
 Number of Electrons    NEL             ....   58
 Basis Dimension        Dim             ....  158

MULLIKEN ATOMIC CHARGES
-----------------------
   0 C :    0.152653
   1 O :   -0.367224
   2 C :    0.150870
   3 C :    0.004036
   4 C :    0.049308
   5 C :    0.011494
   6 O :   -0.284325
   7 H :    0.036360
   8 H :    0.008676
   9 H :    0.011527
  10 H :    0.002352
  11 H :    0.001528
  12 H :    0.006134
  13 H :    0.023622
  14 H :    0.004270
  15 H :    0.017437
  16 H :    0.004045
  17 H :    0.021296
  18 H :    0.145942
Sum of atomic charges:   -0.0000000

LOEWDIN ATOMIC CHARGES
----------------------
   0 C :    0.053816
   1 O :   -0.146215
   2 C :    0.061452
   3 C :   -0.064813
   4 C :    0.040763
   5 C :   -0.080644
   6 O :   -0.122791
   7 H :    0.025175
   8 H :    0.008531
   9 H :    0.008215
  10 H :    0.004031
  11 H :    0.008723
  12 H :    0.033975
  13 H :    0.030942
  14 H :    0.020446
  15 H :    0.021408
  16 H :    0.023378
  17 H :    0.030008
  18 H :    0.043599

  Mayer bond orders larger than 0.1
B(  0-C ,  1-O ) :   1.0021 B(  0-C ,  7-H ) :   0.9765 B(  0-C ,  8-H ) :   0.9582
B(  0-C ,  9-H ) :   0.9576 B(  1-O ,  2-C ) :   0.9820 B(  2-C ,  3-C ) :   1.0873
B(  2-C , 10-H ) :   0.9240 B(  2-C , 11-H ) :   0.9293 B(  3-C ,  4-C ) :   1.0607
B(  3-C , 12-H ) :   0.9072 B(  3-C , 13-H ) :   0.9237 B(  4-C ,  5-C ) :   1.0701
B(  4-C ,  6-O ) :   1.0661 B(  4-C , 14-H ) :   0.9169 B(  5-C , 15-H ) :   0.9507
B(  5-C , 16-H ) :   0.9459 B(  5-C , 17-H ) :   0.9524 B(  6-O , 18-H ) :   0.9642

FINAL SINGLE POINT ENERGY      -347.488388419520

DIPOLE MOMENT
-------------
                                X             Y             Z
Electronic contribution:      1.69919       3.77450       0.99263
Nuclear contribution   :     -2.43850      -4.58309      -0.62730
                        -----------------------------------------
Total Dipole Moment    :     -0.73931      -0.80860       0.36533
                        -----------------------------------------
Magnitude (a.u.)       :      1.15494
Magnitude (Debye)      :      2.93562

                             ****ORCA TERMINATED NORMALLY****
TOTAL RUN TIME: 0 days 0 hours 0 minutes 8 seconds 268 msec
