                         Program Version 3.0.3 - RELEASE   -
|  1> ! RI PBE def2-SVP def2-SVP/J NBO PAL2
|  2> % maxcore 2000
|  3> % output
|  4>     # printlevel mini
|  5>     print[ P_Basis ] 0
|  6>     print[ P_SCFInfo ] 1
|  7>     print[ P_SCFIterInfo ] 1
|  8>     print[ P_OrbEn ] 0
|  9>     print[ P_Cartesian ] 0
| 10> end
| 11> *xyz 0 1
| 12>  C        1.8088560000     0.8949840000     0.1888820000
| 13>  O        3.1301560000     0.5516770000     0.5014980000
| 14>  C        3.2035860000    -0.4084730000     1.5245760000
| 15>  C        4.6600170000    -0.7056500000     1.7828500000
| 16>  C        4.8821790000    -1.7296060000     2.8679180000
| 17>  C        6.3150310000    -2.0737450000     3.1773580000
| 18>  O        3.9625090000    -2.2449170000     3.4559850000
| 19>  H        1.8408610000     1.6388050000    -0.6076310000
| 20>  H        1.2872940000     1.3237940000     1.0560110000
| 21>  H        1.2372170000     0.0236510000    -0.1601550000
| 22>  H        2.6727680000    -1.3265060000     1.2356870000
| 23>  H        2.7218280000    -0.0387870000     2.4406830000
| 24>  H        5.1907860000     0.2145560000     2.0534840000
| 25>  H        5.1423410000    -1.0571580000     0.8633150000
| 26>  H        6.8128500000    -2.4585900000     2.2828970000
| 27>  H        6.3560920000    -2.8177750000     3.9706890000
| 28>  H        6.8616290000    -1.1769720000     3.4823500000
| 29> *
| 30>
| 31>                          ****END OF INPUT****
 Total Charge           Charge          ....    0
 Multiplicity           Mult            ....    1
 Number of Electrons    NEL             ....   56
 Basis Dimension        Dim             ....  148

MULLIKEN ATOMIC CHARGES
-----------------------
   0 C :    0.145014
   1 O :   -0.350876
   2 C :    0.185392
   3 C :   -0.007276
   4 C :   -0.079624
   5 C :    0.025341
   6 O :   -0.167892
   7 H :    0.033574
   8 H :    0.005326
   9 H :    0.005778
  10 H :    0.002303
  11 H :    0.001179
  12 H :    0.037997
  13 H :    0.037004
  14 H :    0.043269
  15 H :    0.040112
  16 H :    0.043377
Sum of atomic charges:   -0.0000000

LOEWDIN ATOMIC CHARGES
----------------------
   0 C :    0.048687
   1 O :   -0.151344
   2 C :    0.063371
   3 C :   -0.080531
   4 C :    0.059620
   5 C :   -0.089253
   6 O :   -0.123418
   7 H :    0.022804
   8 H :    0.005440
   9 H :    0.005634
  10 H :    0.008373
  11 H :    0.008146
  12 H :    0.045569
  13 H :    0.045345
  14 H :    0.046266
  15 H :    0.038914
  16 H :    0.046378

  Mayer bond orders larger than 0.1
B(  0-C ,  1-O ) :   1.0184 B(  0-C ,  7-H ) :   0.9765 B(  0-C ,  8-H ) :   0.9558
B(  0-C ,  9-H ) :   0.9560 B(  1-O ,  2-C ) :   1.0322 B(  2-C ,  3-C ) :   1.0758
B(  2-C , 10-H ) :   0.9271 B(  2-C , 11-H ) :   0.9268 B(  3-C ,  4-C ) :   0.9428
B(  3-C , 12-H ) :   0.9074 B(  3-C , 13-H ) :   0.9078 B(  4-C ,  5-C ) :   1.0470
B(  4-C ,  6-O ) :   2.1735 B(  5-C , 14-H ) :   0.9415 B(  5-C , 15-H ) :   0.9477
B(  5-C , 16-H ) :   0.9412

FINAL SINGLE POINT ENERGY      -346.295338663911

DIPOLE MOMENT
-------------
                                X             Y             Z
Electronic contribution:     -0.02863      -1.85188       1.97850
Nuclear contribution   :      0.46624       2.12629      -2.28992
                        -----------------------------------------
Total Dipole Moment    :      0.43761       0.27441      -0.31142
                        -----------------------------------------
Magnitude (a.u.)       :      0.60314
Magnitude (Debye)      :      1.53307

                             ****ORCA TERMINATED NORMALLY****
TOTAL RUN TIME: 0 days 0 hours 0 minutes 7 seconds 207 msec
