                         Program Version 3.0.3 - RELEASE   -
|  1> ! RI PBE def2-SVP def2-SVP/J NBO PAL2
|  2> % maxcore 2000
|  3> % output
|  4>     # printlevel mini
|  5>     print[ P_Basis ] 0
|  6>     print[ P_SCFInfo ] 1
|  7>     print[ P_SCFIterInfo ] 1
|  8>     print[ P_OrbEn ] 0
|  9>     print[ P_Cartesian ] 0
| 10> end
| 11> *xyz 0 1
| 12>  C        1.1341720000    -1.4166980000     1.4730960000
| 13>  O        2.5206790000    -1.5665090000     1.3510560000
| 14>  C        2.9633420000    -1.4243640000     0.0222170000
| 15>  C        4.4622480000    -1.6279600000    -0.0185530000
| 16>  C        4.8916460000    -3.0089720000     0.4418440000
| 17>  C        4.6335960000    -4.1147700000    -0.5351150000
| 18>  O        4.1839100000    -3.9734600000    -1.6403720000
| 19>  H        0.8777110000    -1.5488270000     2.5246920000
| 20>  H        0.5926420000    -2.1648130000     0.8772920000
| 21>  H        0.8064550000    -0.4181970000     1.1507970000
| 22>  H        2.7126090000    -0.4202130000    -0.3523090000
| 23>  H        2.4576860000    -2.1530920000    -0.6270140000
| 24>  H        4.9332300000    -0.8728150000     0.6166350000
| 25>  H        4.8051010000    -1.4575450000    -1.0425050000
| 26>  H        4.4043950000    -3.2785910000     1.3866700000
| 27>  H        5.9676350000    -3.0431130000     0.6604630000
| 28>  H        4.9071450000    -5.1291710000    -0.1686070000
| 29> *
| 30>
| 31>                          ****END OF INPUT****
 Total Charge           Charge          ....    0
 Multiplicity           Mult            ....    1
 Number of Electrons    NEL             ....   56
 Basis Dimension        Dim             ....  148

MULLIKEN ATOMIC CHARGES
-----------------------
   0 C :    0.154236
   1 O :   -0.359359
   2 C :    0.164105
   3 C :    0.013018
   4 C :   -0.029937
   5 C :    0.080929
   6 O :   -0.169138
   7 H :    0.029145
   8 H :    0.005467
   9 H :   -0.000159
  10 H :   -0.007027
  11 H :    0.007680
  12 H :    0.016855
  13 H :    0.019419
  14 H :    0.044426
  15 H :    0.041218
  16 H :   -0.010878
Sum of atomic charges:   -0.0000000

LOEWDIN ATOMIC CHARGES
----------------------
   0 C :    0.050639
   1 O :   -0.154752
   2 C :    0.063155
   3 C :   -0.047561
   4 C :   -0.085870
   5 C :    0.093786
   6 O :   -0.115477
   7 H :    0.022048
   8 H :    0.005630
   9 H :    0.004011
  10 H :    0.005952
  11 H :    0.006513
  12 H :    0.031623
  13 H :    0.034446
  14 H :    0.047453
  15 H :    0.050658
  16 H :   -0.012255

  Mayer bond orders larger than 0.1
B(  0-C ,  1-O ) :   1.0222 B(  0-C ,  7-H ) :   0.9764 B(  0-C ,  8-H ) :   0.9561
B(  0-C ,  9-H ) :   0.9555 B(  1-O ,  2-C ) :   1.0044 B(  2-C ,  3-C ) :   1.0867
B(  2-C , 10-H ) :   0.9234 B(  2-C , 11-H ) :   0.9294 B(  3-C ,  4-C ) :   1.0896
B(  3-C , 12-H ) :   0.9239 B(  3-C , 13-H ) :   0.9222 B(  4-C ,  5-C ) :   0.9794
B(  4-C , 14-H ) :   0.8996 B(  4-C , 15-H ) :   0.9039 B(  5-C ,  6-O ) :   2.1590
B(  5-C , 16-H ) :   0.9252

FINAL SINGLE POINT ENERGY      -346.286424863600

DIPOLE MOMENT
-------------
                                X             Y             Z
Electronic contribution:      2.40190      -3.39388      -2.58245
Nuclear contribution   :     -2.35947       3.59928       3.13955
                        -----------------------------------------
Total Dipole Moment    :      0.04243       0.20540       0.55711
                        -----------------------------------------
Magnitude (a.u.)       :      0.59528
Magnitude (Debye)      :      1.51308

                             ****ORCA TERMINATED NORMALLY****
TOTAL RUN TIME: 0 days 0 hours 0 minutes 7 seconds 838 msec
