                         Program Version 3.0.3 - RELEASE   -
|  1> ! RI PBE def2-SVP def2-SVP/J NBO PAL2
|  2> % maxcore 2000
|  3> % output
|  4>     # printlevel mini
|  5>     print[ P_Basis ] 0
|  6>     print[ P_SCFInfo ] 1
|  7>     print[ P_SCFIterInfo ] 1
|  8>     print[ P_OrbEn ] 0
|  9>     print[ P_Cartesian ] 0
| 10> end
| 11> *xyz 0 1
| 12>  C        1.5548180000    -0.7284180000     1.2329430000
| 13>  O        2.8416660000    -0.6602460000     0.6886930000
| 14>  C        3.0989640000     0.5769670000     0.0741590000
| 15>  C        4.5194080000     0.5749690000    -0.4427410000
| 16>  C        4.8754570000     1.8377150000    -1.1907390000
| 17>  O        4.7992510000     2.9373460000    -0.3181850000
| 18>  C        5.1245090000     4.1439370000    -0.9473940000
| 19>  H        1.4393670000    -1.7125240000     1.6883800000
| 20>  H        0.7814320000    -0.6017610000     0.4614780000
| 21>  H        1.4000370000     0.0403940000     2.0033100000
| 22>  H        2.9547640000     1.3981880000     0.7898240000
| 23>  H        2.3927920000     0.7402750000    -0.7575600000
| 24>  H        4.6522540000    -0.2799680000    -1.1127800000
| 25>  H        5.2090520000     0.4398610000     0.3952350000
| 26>  H        4.1905530000     1.9872000000    -2.0421350000
| 27>  H        5.8920270000     1.7557010000    -1.6050470000
| 28>  H        5.0428390000     4.9377850000    -0.2044350000
| 29>  H        4.4403120000     4.3639190000    -1.7793620000
| 30>  H        6.1509090000     4.1301510000    -1.3411550000
| 31> *
| 32>
| 33>                          ****END OF INPUT****
 Total Charge           Charge          ....    0
 Multiplicity           Mult            ....    1
 Number of Electrons    NEL             ....   58
 Basis Dimension        Dim             ....  158

MULLIKEN ATOMIC CHARGES
-----------------------
   0 C :    0.153483
   1 O :   -0.347468
   2 C :    0.164205
   3 C :   -0.010699
   4 C :    0.157270
   5 O :   -0.350935
   6 C :    0.150715
   7 H :    0.027481
   8 H :   -0.000054
   9 H :    0.002856
  10 H :    0.004308
  11 H :   -0.019255
  12 H :    0.018819
  13 H :    0.027848
  14 H :   -0.010113
  15 H :   -0.005104
  16 H :    0.033829
  17 H :    0.003070
  18 H :   -0.000257
Sum of atomic charges:   -0.0000000

LOEWDIN ATOMIC CHARGES
----------------------
   0 C :    0.049038
   1 O :   -0.151471
   2 C :    0.059456
   3 C :   -0.059553
   4 C :    0.062826
   5 O :   -0.150938
   6 C :    0.049389
   7 H :    0.021707
   8 H :    0.003040
   9 H :    0.004266
  10 H :    0.006285
  11 H :    0.000526
  12 H :    0.033836
  13 H :    0.032670
  14 H :    0.001556
  15 H :    0.005373
  16 H :    0.023435
  17 H :    0.004529
  18 H :    0.004032

  Mayer bond orders larger than 0.1
B(  0-C ,  1-O ) :   1.0231 B(  0-C ,  7-H ) :   0.9760 B(  0-C ,  8-H ) :   0.9547
B(  0-C ,  9-H ) :   0.9548 B(  1-O ,  2-C ) :   1.0312 B(  2-C ,  3-C ) :   1.0827
B(  2-C , 10-H ) :   0.9268 B(  2-C , 11-H ) :   0.9225 B(  3-C ,  4-C ) :   1.0747
B(  3-C , 12-H ) :   0.9218 B(  3-C , 13-H ) :   0.9270 B(  4-C ,  5-O ) :   1.0142
B(  4-C , 14-H ) :   0.9205 B(  4-C , 15-H ) :   0.9254 B(  5-O ,  6-C ) :   1.0245
B(  6-C , 16-H ) :   0.9763 B(  6-C , 17-H ) :   0.9548 B(  6-C , 18-H ) :   0.9538

FINAL SINGLE POINT ENERGY      -347.468587600371

DIPOLE MOMENT
-------------
                                X             Y             Z
Electronic contribution:      1.03935      -1.62235       1.48527
Nuclear contribution   :     -1.16916       2.00421      -1.88361
                        -----------------------------------------
Total Dipole Moment    :     -0.12981       0.38186      -0.39834
                        -----------------------------------------
Magnitude (a.u.)       :      0.56687
Magnitude (Debye)      :      1.44086

                             ****ORCA TERMINATED NORMALLY****
TOTAL RUN TIME: 0 days 0 hours 0 minutes 7 seconds 604 msec
