                         Program Version 3.0.3 - RELEASE   -
|  1> ! RI PBE def2-SVP def2-SVP/J NBO PAL2
|  2> % maxcore 2000
|  3> % output
|  4>     # printlevel mini
|  5>     print[ P_Basis ] 0
|  6>     print[ P_SCFInfo ] 1
|  7>     print[ P_SCFIterInfo ] 1
|  8>     print[ P_OrbEn ] 0
|  9>     print[ P_Cartesian ] 0
| 10> end
| 11> *xyz 0 1
| 12>  C        1.4704020000    -0.0253890000     0.9533650000
| 13>  O        2.8501020000     0.0697650000     0.7138720000
| 14>  C        3.3405560000    -0.9019070000    -0.1144360000
| 15>  C        4.6378270000    -0.9401580000    -0.4328230000
| 16>  C        5.6486690000     0.0305750000     0.0592480000
| 17>  O        5.1943190000    -1.8765840000    -1.2500410000
| 18>  C        4.3455970000    -2.8555760000    -1.7845080000
| 19>  H        1.2041940000     0.7949230000     1.6191640000
| 20>  H        1.2100910000    -0.9752360000     1.4377310000
| 21>  H        0.8928570000     0.0686050000     0.0248230000
| 22>  H        2.6186670000    -1.6202560000    -0.4844090000
| 23>  H        5.1852550000     0.7696760000     0.7097210000
| 24>  H        6.1239420000     0.5432950000    -0.7818620000
| 25>  H        6.4359710000    -0.4887290000     0.6130630000
| 26>  H        4.9663240000    -3.5030070000    -2.4023510000
| 27>  H        3.5588880000    -2.4084260000    -2.4052270000
| 28>  H        3.8746470000    -3.4528510000    -0.9935500000
| 29> *
| 30>
| 31>                          ****END OF INPUT****
 Total Charge           Charge          ....    0
 Multiplicity           Mult            ....    1
 Number of Electrons    NEL             ....   56
 Basis Dimension        Dim             ....  148

MULLIKEN ATOMIC CHARGES
-----------------------
   0 C :    0.148975
   1 O :   -0.290363
   2 C :    0.013373
   3 C :   -0.003925
   4 C :    0.080586
   5 O :   -0.283706
   6 C :    0.137091
   7 H :    0.035594
   8 H :    0.013415
   9 H :    0.012933
  10 H :   -0.022324
  11 H :    0.027427
  12 H :    0.029057
  13 H :    0.029947
  14 H :    0.035682
  15 H :    0.018232
  16 H :    0.018007
Sum of atomic charges:   -0.0000000

LOEWDIN ATOMIC CHARGES
----------------------
   0 C :    0.054906
   1 O :   -0.098378
   2 C :   -0.058231
   3 C :   -0.021379
   4 C :   -0.061105
   5 O :   -0.078342
   6 C :    0.054875
   7 H :    0.025754
   8 H :    0.008608
   9 H :    0.008634
  10 H :    0.007745
  11 H :    0.037572
  12 H :    0.037377
  13 H :    0.037107
  14 H :    0.025889
  15 H :    0.009280
  16 H :    0.009689

  Mayer bond orders larger than 0.1
B(  0-C ,  1-O ) :   0.9977 B(  0-C ,  7-H ) :   0.9767 B(  0-C ,  8-H ) :   0.9580
B(  0-C ,  9-H ) :   0.9572 B(  1-O ,  2-C ) :   1.0764 B(  2-C ,  3-C ) :   1.6660
B(  2-C , 10-H ) :   0.9399 B(  3-C ,  4-C ) :   1.1142 B(  3-C ,  5-O ) :   1.1091
B(  4-C , 11-H ) :   0.9452 B(  4-C , 12-H ) :   0.9391 B(  4-C , 13-H ) :   0.9409
B(  5-O ,  6-C ) :   1.0045 B(  6-C , 14-H ) :   0.9715 B(  6-C , 15-H ) :   0.9536
B(  6-C , 16-H ) :   0.9534

FINAL SINGLE POINT ENERGY      -346.261619731373

DIPOLE MOMENT
-------------
                                X             Y             Z
Electronic contribution:      2.12700       0.51439      -0.09484
Nuclear contribution   :     -2.76970      -0.85226      -0.00837
                        -----------------------------------------
Total Dipole Moment    :     -0.64270      -0.33787      -0.10321
                        -----------------------------------------
Magnitude (a.u.)       :      0.73339
Magnitude (Debye)      :      1.86414

                             ****ORCA TERMINATED NORMALLY****
TOTAL RUN TIME: 0 days 0 hours 0 minutes 7 seconds 223 msec
