                         Program Version 3.0.3 - RELEASE   -
|  1> ! RI PBE def2-SVP def2-SVP/J NBO PAL2
|  2> % maxcore 2000
|  3> % output
|  4>     # printlevel mini
|  5>     print[ P_Basis ] 0
|  6>     print[ P_SCFInfo ] 1
|  7>     print[ P_SCFIterInfo ] 1
|  8>     print[ P_OrbEn ] 0
|  9>     print[ P_Cartesian ] 0
| 10> end
| 11> *xyz 0 1
| 12>  C        2.8375590000    -0.8318500000    -0.8551180000
| 13>  O        2.4579670000     0.0222150000     0.1979070000
| 14>  C        2.7763860000    -0.4185830000     1.5009460000
| 15>  C        2.1765800000     0.6283070000     2.4225200000
| 16>  C        2.2255050000    -1.8013710000     1.8000630000
| 17>  O        4.1737630000    -0.5444230000     1.6593690000
| 18>  C        4.9227200000     0.6390710000     1.5151870000
| 19>  H        2.7385370000    -0.2551570000    -1.7753030000
| 20>  H        2.1868050000    -1.7109180000    -0.9244490000
| 21>  H        3.8752080000    -1.1646150000    -0.7524820000
| 22>  H        1.0884990000     0.5862960000     2.3657940000
| 23>  H        2.4884630000     1.6299380000     2.1256410000
| 24>  H        2.4849710000     0.4434390000     3.4527130000
| 25>  H        1.1585430000    -1.8379330000     1.5746010000
| 26>  H        2.3725200000    -2.0340760000     2.8551170000
| 27>  H        2.7452560000    -2.5602340000     1.2146930000
| 28>  H        5.9676270000     0.3384850000     1.4319030000
| 29>  H        4.8191210000     1.2979170000     2.3848060000
| 30>  H        4.6374580000     1.1914830000     0.6143830000
| 31> *
| 32>
| 33>                          ****END OF INPUT****
 Total Charge           Charge          ....    0
 Multiplicity           Mult            ....    1
 Number of Electrons    NEL             ....   58
 Basis Dimension        Dim             ....  158

MULLIKEN ATOMIC CHARGES
-----------------------
   0 C :    0.149666
   1 O :   -0.327951
   2 C :    0.032652
   3 C :    0.030942
   4 C :    0.036953
   5 O :   -0.327273
   6 C :    0.139139
   7 H :    0.025000
   8 H :    0.010034
   9 H :    0.017285
  10 H :    0.028606
  11 H :    0.024226
  12 H :    0.026325
  13 H :    0.026936
  14 H :    0.022326
  15 H :    0.022977
  16 H :    0.028533
  17 H :    0.012804
  18 H :    0.020820
Sum of atomic charges:    0.0000000

LOEWDIN ATOMIC CHARGES
----------------------
   0 C :    0.048179
   1 O :   -0.142994
   2 C :    0.067863
   3 C :   -0.070724
   4 C :   -0.069903
   5 O :   -0.142236
   6 C :    0.046179
   7 H :    0.021833
   8 H :    0.006006
   9 H :    0.007156
  10 H :    0.035156
  11 H :    0.029611
  12 H :    0.031617
  13 H :    0.031920
  14 H :    0.034179
  15 H :    0.029514
  16 H :    0.022417
  17 H :    0.006429
  18 H :    0.007797

  Mayer bond orders larger than 0.1
B(  0-C ,  1-O ) :   0.9965 B(  0-C ,  7-H ) :   0.9747 B(  0-C ,  8-H ) :   0.9600
B(  0-C ,  9-H ) :   0.9544 B(  1-O ,  2-C ) :   1.0489 B(  2-C ,  3-C ) :   1.0479
B(  2-C ,  4-C ) :   1.0528 B(  2-C ,  5-O ) :   1.0513 B(  3-C , 10-H ) :   0.9515
B(  3-C , 11-H ) :   0.9453 B(  3-C , 12-H ) :   0.9522 B(  4-C , 13-H ) :   0.9508
B(  4-C , 14-H ) :   0.9498 B(  4-C , 15-H ) :   0.9437 B(  5-O ,  6-C ) :   0.9946
B(  6-C , 16-H ) :   0.9746 B(  6-C , 17-H ) :   0.9609 B(  6-C , 18-H ) :   0.9544

FINAL SINGLE POINT ENERGY      -347.485627599420

DIPOLE MOMENT
-------------
                                X             Y             Z
Electronic contribution:      0.56592       0.16172      -0.60146
Nuclear contribution   :     -0.53964      -0.15754       0.57247
                        -----------------------------------------
Total Dipole Moment    :      0.02629       0.00418      -0.02899
                        -----------------------------------------
Magnitude (a.u.)       :      0.03936
Magnitude (Debye)      :      0.10004

                             ****ORCA TERMINATED NORMALLY****
TOTAL RUN TIME: 0 days 0 hours 0 minutes 7 seconds 801 msec
