                         Program Version 3.0.3 - RELEASE   -
|  1> ! RI PBE def2-SVP def2-SVP/J NBO PAL2
|  2> % maxcore 2000
|  3> % output
|  4>     # printlevel mini
|  5>     print[ P_Basis ] 0
|  6>     print[ P_SCFInfo ] 1
|  7>     print[ P_SCFIterInfo ] 1
|  8>     print[ P_OrbEn ] 0
|  9>     print[ P_Cartesian ] 0
| 10> end
| 11> *xyz 0 1
| 12>  C        0.5617160000     0.7841830000     1.6125850000
| 13>  O        1.9334610000     1.0374010000     1.5004840000
| 14>  C        2.7053930000    -0.1312620000     1.6747770000
| 15>  C        4.1410960000     0.1738850000     1.4482690000
| 16>  C        5.0390660000     0.0449800000     2.4232030000
| 17>  O        6.3625840000     0.2652710000     2.3699940000
| 18>  C        6.8802270000     0.7115700000     1.1383340000
| 19>  H        0.0377840000     1.7275560000     1.4563030000
| 20>  H        0.3003320000     0.3945790000     2.6072210000
| 21>  H        0.2199630000     0.0587160000     0.8599310000
| 22>  H        2.3568200000    -0.8993140000     0.9643160000
| 23>  H        2.5563590000    -0.5387930000     2.6871560000
| 24>  H        4.4212170000     0.5125120000     0.4575470000
| 25>  H        4.7497840000    -0.2814720000     3.4176830000
| 26>  H        7.9518450000     0.8394400000     1.2805550000
| 27>  H        6.4315880000     1.6669880000     0.8463900000
| 28>  H        6.7000750000    -0.0239620000     0.3467420000
| 29> *
| 30>
| 31>                          ****END OF INPUT****
 Total Charge           Charge          ....    0
 Multiplicity           Mult            ....    1
 Number of Electrons    NEL             ....   56
 Basis Dimension        Dim             ....  148

MULLIKEN ATOMIC CHARGES
-----------------------
   0 C :    0.150243
   1 O :   -0.348540
   2 C :    0.228085
   3 C :   -0.140191
   4 C :    0.131539
   5 O :   -0.261802
   6 C :    0.123534
   7 H :    0.029639
   8 H :   -0.002610
   9 H :    0.000416
  10 H :   -0.005497
  11 H :   -0.019462
  12 H :    0.000577
  13 H :    0.006478
  14 H :    0.042910
  15 H :    0.033825
  16 H :    0.030855
Sum of atomic charges:   -0.0000000

LOEWDIN ATOMIC CHARGES
----------------------
   0 C :    0.046640
   1 O :   -0.155709
   2 C :    0.064238
   3 C :   -0.130852
   4 C :    0.031588
   5 O :   -0.063744
   6 C :    0.060044
   7 H :    0.021993
   8 H :    0.002146
   9 H :    0.002654
  10 H :    0.006673
  11 H :    0.004268
  12 H :    0.024258
  13 H :    0.021922
  14 H :    0.028110
  15 H :    0.019040
  16 H :    0.016732

  Mayer bond orders larger than 0.1
B(  0-C ,  1-O ) :   1.0259 B(  0-C ,  7-H ) :   0.9762 B(  0-C ,  8-H ) :   0.9537
B(  0-C ,  9-H ) :   0.9536 B(  1-O ,  2-C ) :   1.0006 B(  2-C ,  3-C ) :   1.0579
B(  2-C , 10-H ) :   0.9077 B(  2-C , 11-H ) :   0.9205 B(  3-C ,  4-C ) :   1.7632
B(  3-C ,  5-O ) :   0.1007 B(  3-C , 12-H ) :   0.9577 B(  4-C ,  5-O ) :   1.1685
B(  4-C , 13-H ) :   0.9649 B(  5-O ,  6-C ) :   0.9883 B(  6-C , 14-H ) :   0.9727
B(  6-C , 15-H ) :   0.9592 B(  6-C , 16-H ) :   0.9589

FINAL SINGLE POINT ENERGY      -346.255378931678

DIPOLE MOMENT
-------------
                                X             Y             Z
Electronic contribution:      3.36937       0.50025       1.94400
Nuclear contribution   :     -3.30073      -0.73213      -2.21712
                        -----------------------------------------
Total Dipole Moment    :      0.06864      -0.23188      -0.27312
                        -----------------------------------------
Magnitude (a.u.)       :      0.36479
Magnitude (Debye)      :      0.92723

                             ****ORCA TERMINATED NORMALLY****
TOTAL RUN TIME: 0 days 0 hours 0 minutes 7 seconds 77 msec
