                         Program Version 3.0.3 - RELEASE   -
|  1> ! RI PBE def2-SVP def2-SVP/J NBO PAL2
|  2> % maxcore 2000
|  3> % output
|  4>     # printlevel mini
|  5>     print[ P_Basis ] 0
|  6>     print[ P_SCFInfo ] 1
|  7>     print[ P_SCFIterInfo ] 1
|  8>     print[ P_OrbEn ] 0
|  9>     print[ P_Cartesian ] 0
| 10> end
| 11> *xyz 0 1
| 12>  C        0.9983930000     0.4744830000     0.2917240000
| 13>  O        2.3907280000     0.5828960000     0.3931600000
| 14>  C        2.9711230000     1.0483490000    -0.7867260000
| 15>  C        4.4584410000     1.1542820000    -0.6509960000
| 16>  C        5.1422400000     0.8466650000     0.4465680000
| 17>  O        4.9662790000     1.6084350000    -1.8193150000
| 18>  C        6.3611220000     1.7747550000    -1.8863590000
| 19>  H        0.6282220000     0.1061430000     1.2484580000
| 20>  H        0.7045330000    -0.2299890000    -0.4989310000
| 21>  H        0.5318470000     1.4466780000     0.0797200000
| 22>  H        2.5734850000     2.0398080000    -1.0583210000
| 23>  H        2.7441620000     0.3764160000    -1.6304300000
| 24>  H        4.5993260000     0.4935990000     1.3104370000
| 25>  H        6.2171160000     0.9343490000     0.5121050000
| 26>  H        6.5814570000     2.1420620000    -2.8873890000
| 27>  H        6.8801870000     0.8242930000    -1.7222900000
| 28>  H        6.7078490000     2.5021660000    -1.1445010000
| 29> *
| 30>
| 31>                          ****END OF INPUT****
 Total Charge           Charge          ....    0
 Multiplicity           Mult            ....    1
 Number of Electrons    NEL             ....   56
 Basis Dimension        Dim             ....  148

MULLIKEN ATOMIC CHARGES
-----------------------
   0 C :    0.153015
   1 O :   -0.340433
   2 C :    0.263492
   3 C :   -0.015010
   4 C :   -0.089889
   5 O :   -0.284616
   6 C :    0.140098
   7 H :    0.032822
   8 H :    0.006433
   9 H :    0.005639
  10 H :    0.001512
  11 H :    0.004960
  12 H :    0.020469
  13 H :    0.010188
  14 H :    0.033105
  15 H :    0.029785
  16 H :    0.028429
Sum of atomic charges:   -0.0000000

LOEWDIN ATOMIC CHARGES
----------------------
   0 C :    0.053250
   1 O :   -0.135853
   2 C :    0.059150
   3 C :    0.010291
   4 C :   -0.152327
   5 O :   -0.073318
   6 C :    0.062716
   7 H :    0.023984
   8 H :    0.006009
   9 H :    0.005867
  10 H :    0.014690
  11 H :    0.015318
  12 H :    0.031495
  13 H :    0.020815
  14 H :    0.025627
  15 H :    0.016432
  16 H :    0.015854

  Mayer bond orders larger than 0.1
B(  0-C ,  1-O ) :   1.0130 B(  0-C ,  7-H ) :   0.9770 B(  0-C ,  8-H ) :   0.9561
B(  0-C ,  9-H ) :   0.9555 B(  1-O ,  2-C ) :   1.0496 B(  2-C ,  3-C ) :   0.9920
B(  2-C , 10-H ) :   0.9060 B(  2-C , 11-H ) :   0.9080 B(  3-C ,  4-C ) :   1.8858
B(  3-C ,  5-O ) :   1.1340 B(  4-C , 12-H ) :   0.9047 B(  4-C , 13-H ) :   0.9367
B(  5-O ,  6-C ) :   0.9844 B(  6-C , 14-H ) :   0.9730 B(  6-C , 15-H ) :   0.9599
B(  6-C , 16-H ) :   0.9599

FINAL SINGLE POINT ENERGY      -346.257953129272

DIPOLE MOMENT
-------------
                                X             Y             Z
Electronic contribution:      0.50333       0.19172      -0.40613
Nuclear contribution   :     -0.53396      -0.07246       0.04817
                        -----------------------------------------
Total Dipole Moment    :     -0.03064       0.11927      -0.35796
                        -----------------------------------------
Magnitude (a.u.)       :      0.37855
Magnitude (Debye)      :      0.96220

                             ****ORCA TERMINATED NORMALLY****
TOTAL RUN TIME: 0 days 0 hours 0 minutes 7 seconds 208 msec
