                         Program Version 3.0.3 - RELEASE   -
|  1> ! RI PBE def2-SVP def2-SVP/J NBO PAL2
|  2> % maxcore 2000
|  3> % output
|  4>     # printlevel mini
|  5>     print[ P_Basis ] 0
|  6>     print[ P_SCFInfo ] 1
|  7>     print[ P_SCFIterInfo ] 1
|  8>     print[ P_OrbEn ] 0
|  9>     print[ P_Cartesian ] 0
| 10> end
| 11> *xyz 0 1
| 12>  C        1.1100400000    -0.1783980000     0.3663090000
| 13>  O        2.4907490000    -0.0552570000     0.1716770000
| 14>  C        2.9475840000     1.2528060000     0.3853800000
| 15>  C        4.4454230000     1.2982740000     0.1500870000
| 16>  C        4.8077500000     0.9414180000    -1.2784420000
| 17>  O        4.8348530000     2.6084240000     0.5057090000
| 18>  C        6.2148780000     2.7754780000     0.6762530000
| 19>  H        0.8421710000    -1.2192640000     0.1827860000
| 20>  H        0.5463240000     0.4621030000    -0.3264550000
| 21>  H        0.8220760000     0.0876790000     1.3930220000
| 22>  H        2.7367080000     1.5793900000     1.4137970000
| 23>  H        2.4489750000     1.9582980000    -0.2980480000
| 24>  H        4.9182300000     0.5782870000     0.8371540000
| 25>  H        4.3873880000     1.6799570000    -1.9663510000
| 26>  H        4.3997450000    -0.0394430000    -1.5266900000
| 27>  H        5.8886480000     0.9050510000    -1.4260800000
| 28>  H        6.3728370000     3.7837150000     1.0606270000
| 29>  H        6.7697990000     2.6720570000    -0.2643130000
| 30>  H        6.6196220000     2.0539360000     1.3999790000
| 31> *
| 32>
| 33>                          ****END OF INPUT****
 Total Charge           Charge          ....    0
 Multiplicity           Mult            ....    1
 Number of Electrons    NEL             ....   58
 Basis Dimension        Dim             ....  158

MULLIKEN ATOMIC CHARGES
-----------------------
   0 C :    0.157973
   1 O :   -0.353225
   2 C :    0.209908
   3 C :    0.050971
   4 C :    0.007042
   5 O :   -0.348529
   6 C :    0.154850
   7 H :    0.029514
   8 H :    0.004644
   9 H :    0.000799
  10 H :   -0.006590
  11 H :   -0.006817
  12 H :   -0.001737
  13 H :    0.015565
  14 H :    0.028024
  15 H :    0.020341
  16 H :    0.027698
  17 H :    0.006907
  18 H :    0.002663
Sum of atomic charges:   -0.0000000

LOEWDIN ATOMIC CHARGES
----------------------
   0 C :    0.052508
   1 O :   -0.146921
   2 C :    0.058437
   3 C :    0.036956
   4 C :   -0.076253
   5 O :   -0.144692
   6 C :    0.050918
   7 H :    0.022348
   8 H :    0.005659
   9 H :    0.004514
  10 H :    0.005234
  11 H :    0.004881
  12 H :    0.008703
  13 H :    0.027834
  14 H :    0.033976
  15 H :    0.024178
  16 H :    0.022848
  17 H :    0.003567
  18 H :    0.005306

  Mayer bond orders larger than 0.1
B(  0-C ,  1-O ) :   1.0196 B(  0-C ,  7-H ) :   0.9768 B(  0-C ,  8-H ) :   0.9563
B(  0-C ,  9-H ) :   0.9555 B(  1-O ,  2-C ) :   1.0190 B(  2-C ,  3-C ) :   1.0274
B(  2-C , 10-H ) :   0.9237 B(  2-C , 11-H ) :   0.9181 B(  3-C ,  4-C ) :   1.0879
B(  3-C ,  5-O ) :   1.0102 B(  3-C , 12-H ) :   0.9082 B(  4-C , 13-H ) :   0.9489
B(  4-C , 14-H ) :   0.9441 B(  4-C , 15-H ) :   0.9543 B(  5-O ,  6-C ) :   1.0197
B(  6-C , 16-H ) :   0.9758 B(  6-C , 17-H ) :   0.9564 B(  6-C , 18-H ) :   0.9542

FINAL SINGLE POINT ENERGY      -347.470610735680

DIPOLE MOMENT
-------------
                                X             Y             Z
Electronic contribution:     -0.73278       0.25183       1.20163
Nuclear contribution   :      0.74280      -0.29557      -1.15713
                        -----------------------------------------
Total Dipole Moment    :      0.01002      -0.04375       0.04450
                        -----------------------------------------
Magnitude (a.u.)       :      0.06320
Magnitude (Debye)      :      0.16063

                             ****ORCA TERMINATED NORMALLY****
TOTAL RUN TIME: 0 days 0 hours 0 minutes 7 seconds 511 msec
