                         Program Version 3.0.3 - RELEASE   -
|  1> ! RI PBE def2-SVP def2-SVP/J NBO PAL2
|  2> % maxcore 2000
|  3> % output
|  4>     # printlevel mini
|  5>     print[ P_Basis ] 0
|  6>     print[ P_SCFInfo ] 1
|  7>     print[ P_SCFIterInfo ] 1
|  8>     print[ P_OrbEn ] 0
|  9>     print[ P_Cartesian ] 0
| 10> end
| 11> *xyz 0 1
| 12>  C        3.9701750000     1.0651400000    -0.6797150000
| 13>  O        2.8598330000     0.3306750000    -0.2309980000
| 14>  C        3.1048100000    -0.6254850000     0.6883540000
| 15>  C        4.2842400000    -0.9470210000     1.2150910000
| 16>  O        4.3487120000    -1.9512520000     2.1425150000
| 17>  C        5.5605030000    -2.2533580000     2.6574120000
| 18>  C        5.7307110000    -3.2077070000     3.5602740000
| 19>  H        3.5978770000     1.7835710000    -1.4078350000
| 20>  H        4.7093370000     0.4108760000    -1.1579970000
| 21>  H        4.4502680000     1.6006980000     0.1484560000
| 22>  H        2.2033370000    -1.1475980000     0.9850710000
| 23>  H        5.2219640000    -0.4663320000     0.9632970000
| 24>  H        6.3874120000    -1.6568370000     2.2777270000
| 25>  H        4.8999900000    -3.7945040000     3.9303370000
| 26>  H        6.7224990000    -3.4078660000     3.9388110000
| 27> *
| 28>
| 29>                          ****END OF INPUT****
 Total Charge           Charge          ....    0
 Multiplicity           Mult            ....    1
 Number of Electrons    NEL             ....   54
 Basis Dimension        Dim             ....  138

MULLIKEN ATOMIC CHARGES
-----------------------
   0 C :    0.120660
   1 O :   -0.266811
   2 C :    0.118385
   3 C :    0.047861
   4 O :   -0.207574
   5 C :    0.100405
   6 C :   -0.077537
   7 H :    0.043472
   8 H :    0.027832
   9 H :    0.026972
  10 H :    0.018905
  11 H :   -0.004065
  12 H :   -0.002948
  13 H :    0.029682
  14 H :    0.024762
Sum of atomic charges:    0.0000000

LOEWDIN ATOMIC CHARGES
----------------------
   0 C :    0.057321
   1 O :   -0.067018
   2 C :   -0.005410
   3 C :   -0.044044
   4 O :   -0.020563
   5 C :    0.035009
   6 C :   -0.125144
   7 H :    0.029075
   8 H :    0.013623
   9 H :    0.013706
  10 H :    0.028934
  11 H :    0.010618
  12 H :    0.011947
  13 H :    0.030015
  14 H :    0.031934

  Mayer bond orders larger than 0.1
B(  0-C ,  1-O ) :   0.9960 B(  0-C ,  7-H ) :   0.9723 B(  0-C ,  8-H ) :   0.9555
B(  0-C ,  9-H ) :   0.9552 B(  1-O ,  2-C ) :   1.1437 B(  1-O ,  3-C ) :   0.1051
B(  2-C ,  3-C ) :   1.6917 B(  2-C , 10-H ) :   0.9674 B(  3-C ,  4-O ) :   1.0278
B(  3-C , 11-H ) :   0.9504 B(  4-O ,  5-C ) :   1.0959 B(  5-C ,  6-C ) :   1.9197
B(  5-C , 12-H ) :   0.9448 B(  6-C , 13-H ) :   0.9483 B(  6-C , 14-H ) :   0.9352

FINAL SINGLE POINT ENERGY      -345.040563491195

DIPOLE MOMENT
-------------
                                X             Y             Z
Electronic contribution:     -3.32618      -1.02658       0.27888
Nuclear contribution   :      3.88541       1.56416      -0.65489
                        -----------------------------------------
Total Dipole Moment    :      0.55923       0.53758      -0.37601
                        -----------------------------------------
Magnitude (a.u.)       :      0.86204
Magnitude (Debye)      :      2.19112

                             ****ORCA TERMINATED NORMALLY****
TOTAL RUN TIME: 0 days 0 hours 0 minutes 6 seconds 210 msec
