                         Program Version 3.0.3 - RELEASE   -
|  1> ! RI PBE def2-SVP def2-SVP/J NBO PAL2
|  2> % maxcore 2000
|  3> % output
|  4>     # printlevel mini
|  5>     print[ P_Basis ] 0
|  6>     print[ P_SCFInfo ] 1
|  7>     print[ P_SCFIterInfo ] 1
|  8>     print[ P_OrbEn ] 0
|  9>     print[ P_Cartesian ] 0
| 10> end
| 11> *xyz 0 1
| 12>  C        1.0841540000    -0.2891300000    -0.1207790000
| 13>  O        2.4446650000    -0.0434580000     0.1613010000
| 14>  C        2.9131070000     1.1415100000    -0.4320870000
| 15>  C        2.3744640000     2.3575570000     0.3330230000
| 16>  O        1.8470430000     3.2962790000    -0.1856120000
| 17>  C        4.3648290000     1.1842410000    -0.3684620000
| 18>  C        5.5575960000     1.2838740000    -0.2922590000
| 19>  H        0.8275060000    -1.2270920000     0.3693710000
| 20>  H        0.9158510000    -0.3881600000    -1.2003760000
| 21>  H        0.4301360000     0.5032440000     0.2635860000
| 22>  H        2.5804090000     1.2283300000    -1.4766930000
| 23>  H        2.5069410000     2.2759550000     1.4322170000
| 24>  H        6.6182770000     1.3568200000    -0.2339790000
| 25> *
| 26>
| 27>                          ****END OF INPUT****
 Total Charge           Charge          ....    0
 Multiplicity           Mult            ....    1
 Number of Electrons    NEL             ....   52
 Basis Dimension        Dim             ....  128

MULLIKEN ATOMIC CHARGES
-----------------------
   0 C :    0.142911
   1 O :   -0.322934
   2 C :    0.172988
   3 C :    0.083219
   4 O :   -0.133730
   5 C :    0.371461
   6 C :   -0.445180
   7 H :    0.043026
   8 H :    0.017969
   9 H :    0.023192
  10 H :    0.023871
  11 H :    0.010713
  12 H :    0.012494
Sum of atomic charges:    0.0000000

LOEWDIN ATOMIC CHARGES
----------------------
   0 C :    0.055170
   1 O :   -0.126578
   2 C :    0.004799
   3 C :    0.088226
   4 O :   -0.083834
   5 C :   -0.021794
   6 C :   -0.039412
   7 H :    0.029929
   8 H :    0.012753
   9 H :    0.010019
  10 H :    0.032432
  11 H :   -0.002347
  12 H :    0.040638

  Mayer bond orders larger than 0.1
B(  0-C ,  1-O ) :   0.9935 B(  0-C ,  7-H ) :   0.9764 B(  0-C ,  8-H ) :   0.9565
B(  0-C ,  9-H ) :   0.9562 B(  1-O ,  2-C ) :   1.0613 B(  2-C ,  3-C ) :   0.8932
B(  2-C ,  5-C ) :   0.9385 B(  2-C , 10-H ) :   0.8816 B(  3-C ,  4-O ) :   2.1913
B(  3-C , 11-H ) :   0.9105 B(  5-C ,  6-C ) :   2.3807 B(  5-C , 12-H ) :  -0.1066
B(  6-C , 12-H ) :   1.0969

FINAL SINGLE POINT ENERGY      -343.806363583234

DIPOLE MOMENT
-------------
                                X             Y             Z
Electronic contribution:      2.97995       3.07823       0.11312
Nuclear contribution   :     -2.97189      -3.58827      -0.11225
                        -----------------------------------------
Total Dipole Moment    :      0.00807      -0.51004       0.00087
                        -----------------------------------------
Magnitude (a.u.)       :      0.51011
Magnitude (Debye)      :      1.29659

                             ****ORCA TERMINATED NORMALLY****
TOTAL RUN TIME: 0 days 0 hours 0 minutes 6 seconds 138 msec
