                         Program Version 3.0.3 - RELEASE   -
|  1> ! RI PBE def2-SVP def2-SVP/J NBO PAL2
|  2> % maxcore 2000
|  3> % output
|  4>     # printlevel mini
|  5>     print[ P_Basis ] 0
|  6>     print[ P_SCFInfo ] 1
|  7>     print[ P_SCFIterInfo ] 1
|  8>     print[ P_OrbEn ] 0
|  9>     print[ P_Cartesian ] 0
| 10> end
| 11> *xyz 0 1
| 12>  C        2.7992490000     1.2029500000    -0.2318230000
| 13>  O        2.3530780000     0.2204330000    -1.1391680000
| 14>  C        2.8715080000    -1.0363190000    -0.9093160000
| 15>  C        2.1591280000    -2.0159500000    -1.8044780000
| 16>  O        4.2651340000    -0.9913850000    -1.2118720000
| 17>  C        5.0857750000    -1.8766890000    -0.6205560000
| 18>  C        4.7887250000    -2.9034210000     0.1724580000
| 19>  H        2.2655270000     2.1215640000    -0.4724120000
| 20>  H        3.8751500000     1.3753860000    -0.3244810000
| 21>  H        2.5706550000     0.9159140000     0.8027690000
| 22>  H        2.7744160000    -1.3008410000     0.1561740000
| 23>  H        2.2470020000    -1.6817750000    -2.8391930000
| 24>  H        1.1029480000    -2.0661060000    -1.5366830000
| 25>  H        2.5988360000    -3.0093710000    -1.7132150000
| 26>  H        6.1160190000    -1.6521520000    -0.8784870000
| 27>  H        3.7832880000    -3.1914210000     0.4463580000
| 28>  H        5.6017810000    -3.4964160000     0.5675240000
| 29> *
| 30>
| 31>                          ****END OF INPUT****
 Total Charge           Charge          ....    0
 Multiplicity           Mult            ....    1
 Number of Electrons    NEL             ....   56
 Basis Dimension        Dim             ....  148

MULLIKEN ATOMIC CHARGES
-----------------------
   0 C :    0.151656
   1 O :   -0.313075
   2 C :    0.168450
   3 C :    0.036161
   4 O :   -0.253834
   5 C :    0.104907
   6 C :   -0.118407
   7 H :    0.032812
   8 H :    0.026357
   9 H :    0.004469
  10 H :   -0.006783
  11 H :    0.039364
  12 H :    0.032101
  13 H :    0.025806
  14 H :    0.014477
  15 H :    0.027295
  16 H :    0.028245
Sum of atomic charges:   -0.0000000

LOEWDIN ATOMIC CHARGES
----------------------
   0 C :    0.053384
   1 O :   -0.118946
   2 C :    0.112371
   3 C :   -0.073724
   4 O :   -0.070922
   5 C :    0.033348
   6 C :   -0.161126
   7 H :    0.024982
   8 H :    0.011842
   9 H :    0.008406
  10 H :   -0.004902
  11 H :    0.038017
  12 H :    0.036541
  13 H :    0.034688
  14 H :    0.024064
  15 H :    0.019264
  16 H :    0.032713

  Mayer bond orders larger than 0.1
B(  0-C ,  1-O ) :   0.9894 B(  0-C ,  7-H ) :   0.9778 B(  0-C ,  8-H ) :   0.9643
B(  0-C ,  9-H ) :   0.9547 B(  1-O ,  2-C ) :   1.1191 B(  2-C ,  3-C ) :   1.0814
B(  2-C ,  4-O ) :   0.9337 B(  2-C , 10-H ) :   0.9121 B(  3-C , 11-H ) :   0.9490
B(  3-C , 12-H ) :   0.9533 B(  3-C , 13-H ) :   0.9452 B(  4-O ,  5-C ) :   1.1539
B(  4-O ,  6-C ) :   0.1026 B(  5-C ,  6-C ) :   1.8566 B(  5-C , 14-H ) :   0.9644
B(  6-C , 15-H ) :   0.9525 B(  6-C , 16-H ) :   0.9372

FINAL SINGLE POINT ENERGY      -346.270205534500

DIPOLE MOMENT
-------------
                                X             Y             Z
Electronic contribution:      1.34192       1.66174      -1.90992
Nuclear contribution   :     -1.41400      -1.66843       2.29180
                        -----------------------------------------
Total Dipole Moment    :     -0.07208      -0.00669       0.38188
                        -----------------------------------------
Magnitude (a.u.)       :      0.38869
Magnitude (Debye)      :      0.98796

                             ****ORCA TERMINATED NORMALLY****
TOTAL RUN TIME: 0 days 0 hours 0 minutes 7 seconds 710 msec
