                         Program Version 3.0.3 - RELEASE   -
|  1> ! RI PBE def2-SVP def2-SVP/J NBO PAL2
|  2> % maxcore 2000
|  3> % output
|  4>     # printlevel mini
|  5>     print[ P_Basis ] 0
|  6>     print[ P_SCFInfo ] 1
|  7>     print[ P_SCFIterInfo ] 1
|  8>     print[ P_OrbEn ] 0
|  9>     print[ P_Cartesian ] 0
| 10> end
| 11> *xyz 0 1
| 12>  C        2.5954910000     0.4698960000     0.2666490000
| 13>  O        2.2231160000    -0.6877340000    -0.4364270000
| 14>  C        3.2092250000    -1.4664150000    -0.9667180000
| 15>  C        2.5572850000    -2.5913680000    -1.7101290000
| 16>  O        1.6484640000    -2.1315790000    -2.6863610000
| 17>  C        4.5162430000    -1.2436870000    -0.8207880000
| 18>  C        5.6269720000    -2.0576650000    -1.3970590000
| 19>  H        1.6705410000     0.9591730000     0.5686670000
| 20>  H        3.1784110000     1.1485630000    -0.3656630000
| 21>  H        3.1811640000     0.2224940000     1.1589580000
| 22>  H        2.0473950000    -3.2385800000    -0.9804600000
| 23>  H        3.2993720000    -3.1952540000    -2.2277110000
| 24>  H        1.0856560000    -1.4804590000    -2.2563200000
| 25>  H        4.8289050000    -0.3941070000    -0.2224090000
| 26>  H        5.2766230000    -2.8542250000    -2.0526200000
| 27>  H        6.2279320000    -2.5210440000    -0.6075840000
| 28>  H        6.3064040000    -1.4274280000    -1.9791340000
| 29> *
| 30>
| 31>                          ****END OF INPUT****
 Total Charge           Charge          ....    0
 Multiplicity           Mult            ....    1
 Number of Electrons    NEL             ....   56
 Basis Dimension        Dim             ....  148

MULLIKEN ATOMIC CHARGES
-----------------------
   0 C :    0.141236
   1 O :   -0.301267
   2 C :    0.006828
   3 C :    0.286572
   4 O :   -0.293442
   5 C :   -0.193675
   6 C :    0.044147
   7 H :    0.035225
   8 H :    0.029339
   9 H :    0.029841
  10 H :    0.005278
  11 H :   -0.007161
  12 H :    0.152481
  13 H :   -0.014601
  14 H :    0.019399
  15 H :    0.029572
  16 H :    0.030228
Sum of atomic charges:   -0.0000000

LOEWDIN ATOMIC CHARGES
----------------------
   0 C :    0.059622
   1 O :   -0.083036
   2 C :   -0.005208
   3 C :    0.056165
   4 O :   -0.120320
   5 C :   -0.120510
   6 C :   -0.061646
   7 H :    0.026448
   8 H :    0.016111
   9 H :    0.015700
  10 H :    0.013932
  11 H :    0.023426
  12 H :    0.059866
  13 H :    0.022046
  14 H :    0.028084
  15 H :    0.034386
  16 H :    0.034935

  Mayer bond orders larger than 0.1
B(  0-C ,  1-O ) :   0.9875 B(  0-C ,  7-H ) :   0.9707 B(  0-C ,  8-H ) :   0.9577
B(  0-C ,  9-H ) :   0.9595 B(  1-O ,  2-C ) :   1.0961 B(  2-C ,  3-C ) :   1.0446
B(  2-C ,  5-C ) :   1.7683 B(  3-C ,  4-O ) :   1.0575 B(  3-C , 10-H ) :   0.9017
B(  3-C , 11-H ) :   0.9236 B(  4-O , 12-H ) :   0.9766 B(  5-C ,  6-C ) :   1.0943
B(  5-C , 13-H ) :   0.9381 B(  6-C , 14-H ) :   0.9560 B(  6-C , 15-H ) :   0.9432
B(  6-C , 16-H ) :   0.9450

FINAL SINGLE POINT ENERGY      -346.271546716478

DIPOLE MOMENT
-------------
                                X             Y             Z
Electronic contribution:     -4.98611      -0.42334      -1.38273
Nuclear contribution   :      5.23046       0.93612       2.10251
                        -----------------------------------------
Total Dipole Moment    :      0.24435       0.51279       0.71978
                        -----------------------------------------
Magnitude (a.u.)       :      0.91692
Magnitude (Debye)      :      2.33062

                             ****ORCA TERMINATED NORMALLY****
TOTAL RUN TIME: 0 days 0 hours 0 minutes 7 seconds 399 msec
