                         Program Version 3.0.3 - RELEASE   -
|  1> ! RI PBE def2-SVP def2-SVP/J NBO PAL2
|  2> % maxcore 2000
|  3> % output
|  4>     # printlevel mini
|  5>     print[ P_Basis ] 0
|  6>     print[ P_SCFInfo ] 1
|  7>     print[ P_SCFIterInfo ] 1
|  8>     print[ P_OrbEn ] 0
|  9>     print[ P_Cartesian ] 0
| 10> end
| 11> *xyz 0 1
| 12>  C        4.7261190000    -1.5503910000    -2.4088080000
| 13>  O        3.9121980000    -2.5590930000    -1.8680480000
| 14>  C        3.7288520000    -2.4716500000    -0.4636390000
| 15>  C        2.6258950000    -3.4721130000    -0.1500210000
| 16>  O        2.9642130000    -4.7747030000    -0.5558150000
| 17>  C        4.9926040000    -2.7660930000     0.2832430000
| 18>  C        5.5990430000    -1.9026220000     1.0847730000
| 19>  H        4.7701650000    -1.7161130000    -3.4853730000
| 20>  H        5.7417580000    -1.5780960000    -1.9984940000
| 21>  H        4.3010820000    -0.5553310000    -2.2193620000
| 22>  H        3.3756440000    -1.4625490000    -0.1976310000
| 23>  H        1.7028430000    -3.1315150000    -0.6393410000
| 24>  H        2.4527440000    -3.5033770000     0.9276600000
| 25>  H        3.2120620000    -4.7154890000    -1.4843740000
| 26>  H        5.3953490000    -3.7657330000     0.1422640000
| 27>  H        5.2081680000    -0.9004850000     1.2372840000
| 28>  H        6.5014600000    -2.1635370000     1.6259710000
| 29> *
| 30>
| 31>                          ****END OF INPUT****
 Total Charge           Charge          ....    0
 Multiplicity           Mult            ....    1
 Number of Electrons    NEL             ....   56
 Basis Dimension        Dim             ....  148

MULLIKEN ATOMIC CHARGES
-----------------------
   0 C :    0.151457
   1 O :   -0.357226
   2 C :    0.077207
   3 C :    0.228412
   4 O :   -0.288838
   5 C :   -0.047503
   6 C :   -0.018802
   7 H :    0.036630
   8 H :    0.016153
   9 H :    0.003867
  10 H :   -0.020978
  11 H :   -0.001916
  12 H :    0.012414
  13 H :    0.156983
  14 H :    0.004683
  15 H :    0.018647
  16 H :    0.028809
Sum of atomic charges:    0.0000000

LOEWDIN ATOMIC CHARGES
----------------------
   0 C :    0.050715
   1 O :   -0.147971
   2 C :    0.025612
   3 C :    0.057769
   4 O :   -0.117375
   5 C :   -0.036077
   6 C :   -0.053348
   7 H :    0.024051
   8 H :    0.008481
   9 H :    0.006689
  10 H :    0.010120
  11 H :    0.007294
  12 H :    0.025017
  13 H :    0.064046
  14 H :    0.027413
  15 H :    0.021057
  16 H :    0.026507

  Mayer bond orders larger than 0.1
B(  0-C ,  1-O ) :   1.0076 B(  0-C ,  7-H ) :   0.9768 B(  0-C ,  8-H ) :   0.9552
B(  0-C ,  9-H ) :   0.9559 B(  1-O ,  2-C ) :   0.9891 B(  2-C ,  3-C ) :   1.0242
B(  2-C ,  5-C ) :   1.0185 B(  2-C , 10-H ) :   0.9053 B(  3-C ,  4-O ) :   1.0746
B(  3-C , 11-H ) :   0.9265 B(  3-C , 12-H ) :   0.9342 B(  4-O , 13-H ) :   0.9718
B(  5-C ,  6-C ) :   1.9732 B(  5-C , 14-H ) :   0.9487 B(  6-C , 15-H ) :   0.9459
B(  6-C , 16-H ) :   0.9428

FINAL SINGLE POINT ENERGY      -346.260213992289

DIPOLE MOMENT
-------------
                                X             Y             Z
Electronic contribution:     -1.78211      -3.57546      -0.43009
Nuclear contribution   :      2.03830       4.30752       0.21972
                        -----------------------------------------
Total Dipole Moment    :      0.25619       0.73205      -0.21037
                        -----------------------------------------
Magnitude (a.u.)       :      0.80361
Magnitude (Debye)      :      2.04261

                             ****ORCA TERMINATED NORMALLY****
TOTAL RUN TIME: 0 days 0 hours 0 minutes 7 seconds 228 msec
