                         Program Version 3.0.3 - RELEASE   -
|  1> ! RI PBE def2-SVP def2-SVP/J NBO PAL2
|  2> % maxcore 2000
|  3> % output
|  4>     # printlevel mini
|  5>     print[ P_Basis ] 0
|  6>     print[ P_SCFInfo ] 1
|  7>     print[ P_SCFIterInfo ] 1
|  8>     print[ P_OrbEn ] 0
|  9>     print[ P_Cartesian ] 0
| 10> end
| 11> *xyz 0 1
| 12>  C        2.4276020000     0.0751600000    -1.6766490000
| 13>  O        2.2282860000    -1.2040660000    -1.1265690000
| 14>  C        2.8532470000    -1.4030300000     0.1233010000
| 15>  C        2.3991870000    -2.7788160000     0.5983940000
| 16>  O        2.7548980000    -3.7956440000    -0.2942930000
| 17>  C        4.3112350000    -1.2922350000     0.0452260000
| 18>  C        5.5062250000    -1.1938640000    -0.0032770000
| 19>  H        1.8746090000     0.1077800000    -2.6149460000
| 20>  H        3.4880000000     0.2667510000    -1.8735530000
| 21>  H        2.0440970000     0.8568080000    -1.0077120000
| 22>  H        2.4891230000    -0.6533200000     0.8448210000
| 23>  H        1.3108070000    -2.7298920000     0.7425470000
| 24>  H        2.8669690000    -3.0050130000     1.5582090000
| 25>  H        2.4662630000    -3.5153920000    -1.1690830000
| 26>  H        6.5672910000    -1.1198180000    -0.0482150000
| 27> *
| 28>
| 29>                          ****END OF INPUT****
 Total Charge           Charge          ....    0
 Multiplicity           Mult            ....    1
 Number of Electrons    NEL             ....   54
 Basis Dimension        Dim             ....  138

MULLIKEN ATOMIC CHARGES
-----------------------
   0 C :    0.156324
   1 O :   -0.347360
   2 C :    0.084159
   3 C :    0.224241
   4 O :   -0.275834
   5 C :    0.400931
   6 C :   -0.510249
   7 H :    0.033784
   8 H :    0.025935
   9 H :    0.006102
  10 H :    0.017831
  11 H :    0.007166
  12 H :    0.018003
  13 H :    0.157101
  14 H :    0.001867
Sum of atomic charges:   -0.0000000

LOEWDIN ATOMIC CHARGES
----------------------
   0 C :    0.055431
   1 O :   -0.140331
   2 C :    0.016013
   3 C :    0.062611
   4 O :   -0.108931
   5 C :   -0.032395
   6 C :   -0.067456
   7 H :    0.025125
   8 H :    0.013452
   9 H :    0.008426
  10 H :    0.028590
  11 H :    0.009237
  12 H :    0.028036
  13 H :    0.065778
  14 H :    0.036414

  Mayer bond orders larger than 0.1
B(  0-C ,  1-O ) :   1.0003 B(  0-C ,  7-H ) :   0.9757 B(  0-C ,  8-H ) :   0.9578
B(  0-C ,  9-H ) :   0.9534 B(  1-O ,  2-C ) :   1.0242 B(  2-C ,  3-C ) :   1.0280
B(  2-C ,  5-C ) :   0.9382 B(  2-C , 10-H ) :   0.8867 B(  3-C ,  4-O ) :   1.0915
B(  3-C , 11-H ) :   0.9258 B(  3-C , 12-H ) :   0.9305 B(  4-O , 13-H ) :   0.9709
B(  5-C ,  6-C ) :   2.3201 B(  5-C , 14-H ) :  -0.1187 B(  6-C , 14-H ) :   1.1089

FINAL SINGLE POINT ENERGY      -345.012803584628

DIPOLE MOMENT
-------------
                                X             Y             Z
Electronic contribution:      1.68587      -2.64532       0.48496
Nuclear contribution   :     -1.81824       3.46211      -0.56148
                        -----------------------------------------
Total Dipole Moment    :     -0.13237       0.81680      -0.07652
                        -----------------------------------------
Magnitude (a.u.)       :      0.83098
Magnitude (Debye)      :      2.11219

                             ****ORCA TERMINATED NORMALLY****
TOTAL RUN TIME: 0 days 0 hours 0 minutes 6 seconds 691 msec
