                         Program Version 3.0.3 - RELEASE   -
|  1> ! RI PBE def2-SVP def2-SVP/J NBO PAL2
|  2> % maxcore 2000
|  3> % output
|  4>     # printlevel mini
|  5>     print[ P_Basis ] 0
|  6>     print[ P_SCFInfo ] 1
|  7>     print[ P_SCFIterInfo ] 1
|  8>     print[ P_OrbEn ] 0
|  9>     print[ P_Cartesian ] 0
| 10> end
| 11> *xyz 0 1
| 12>  C        0.9610750000    -0.1577200000     0.3105930000
| 13>  O        2.3589150000    -0.0427790000     0.3065950000
| 14>  C        2.9529600000    -0.8002610000    -0.7060730000
| 15>  C        4.4643200000    -0.6778710000    -0.7102120000
| 16>  O        5.0883790000    -1.2910070000    -1.5454120000
| 17>  C        5.1074320000     0.1869370000     0.3079510000
| 18>  C        6.4291050000     0.3196720000     0.3363900000
| 19>  H        0.5833760000     0.4604650000     1.1247810000
| 20>  H        0.6444520000    -1.1968580000     0.4737920000
| 21>  H        0.5269780000     0.1927170000    -0.6356890000
| 22>  H        2.5994790000    -0.4901350000    -1.7015640000
| 23>  H        2.7142860000    -1.8700030000    -0.6020710000
| 24>  H        4.4622580000     0.6951210000     1.0132080000
| 25>  H        7.0444260000    -0.2054220000    -0.3869410000
| 26>  H        6.9231570000     0.9454450000     1.0701520000
| 27> *
| 28>
| 29>                          ****END OF INPUT****
 Total Charge           Charge          ....    0
 Multiplicity           Mult            ....    1
 Number of Electrons    NEL             ....   54
 Basis Dimension        Dim             ....  138

MULLIKEN ATOMIC CHARGES
-----------------------
   0 C :    0.153395
   1 O :   -0.348131
   2 C :    0.221244
   3 C :   -0.036300
   4 O :   -0.174467
   5 C :   -0.045334
   6 C :    0.036926
   7 H :    0.036643
   8 H :    0.009410
   9 H :    0.009225
  10 H :    0.020531
  11 H :    0.024181
  12 H :    0.013369
  13 H :    0.043668
  14 H :    0.035637
Sum of atomic charges:    0.0000000

LOEWDIN ATOMIC CHARGES
----------------------
   0 C :    0.054500
   1 O :   -0.146013
   2 C :    0.032398
   3 C :    0.043843
   4 O :   -0.123773
   5 C :   -0.071214
   6 C :    0.024651
   7 H :    0.025081
   8 H :    0.008096
   9 H :    0.008056
  10 H :    0.025538
  11 H :    0.026085
  12 H :    0.029981
  13 H :    0.031833
  14 H :    0.030939

  Mayer bond orders larger than 0.1
B(  0-C ,  1-O ) :   1.0050 B(  0-C ,  7-H ) :   0.9770 B(  0-C ,  8-H ) :   0.9571
B(  0-C ,  9-H ) :   0.9566 B(  1-O ,  2-C ) :   1.0355 B(  2-C ,  3-C ) :   0.9575
B(  2-C , 10-H ) :   0.9062 B(  2-C , 11-H ) :   0.9085 B(  3-C ,  4-O ) :   2.1244
B(  3-C ,  5-C ) :   1.0033 B(  5-C ,  6-C ) :   1.9299 B(  5-C , 12-H ) :   0.9428
B(  6-C , 13-H ) :   0.9312 B(  6-C , 14-H ) :   0.9429

FINAL SINGLE POINT ENERGY      -345.069305294616

DIPOLE MOMENT
-------------
                                X             Y             Z
Electronic contribution:      4.19063      -1.02353      -1.72280
Nuclear contribution   :     -4.87212       1.34065       2.19710
                        -----------------------------------------
Total Dipole Moment    :     -0.68149       0.31712       0.47430
                        -----------------------------------------
Magnitude (a.u.)       :      0.88879
Magnitude (Debye)      :      2.25914

                             ****ORCA TERMINATED NORMALLY****
TOTAL RUN TIME: 0 days 0 hours 0 minutes 6 seconds 570 msec
