                         Program Version 3.0.3 - RELEASE   -
|  1> ! RI PBE def2-SVP def2-SVP/J NBO PAL2
|  2> % maxcore 2000
|  3> % output
|  4>     # printlevel mini
|  5>     print[ P_Basis ] 0
|  6>     print[ P_SCFInfo ] 1
|  7>     print[ P_SCFIterInfo ] 1
|  8>     print[ P_OrbEn ] 0
|  9>     print[ P_Cartesian ] 0
| 10> end
| 11> *xyz 0 1
| 12>  C        3.4619260000    -0.9492480000    -0.8011370000
| 13>  O        2.8670140000    -0.1224110000     0.1700720000
| 14>  C        3.2767680000     1.2043790000     0.0822680000
| 15>  C        4.6598280000     1.5034970000     0.6446970000
| 16>  O        5.2568320000     2.5052020000     0.3359340000
| 17>  C        5.1967990000     0.5602960000     1.6064520000
| 18>  C        5.6488450000    -0.2109040000     2.4092190000
| 19>  H        3.0616600000    -1.9523270000    -0.6580130000
| 20>  H        4.5532510000    -0.9870520000    -0.6955460000
| 21>  H        3.2171540000    -0.6058120000    -1.8148540000
| 22>  H        2.5732320000     1.8031210000     0.6718550000
| 23>  H        3.2566300000     1.5873430000    -0.9472580000
| 24>  H        6.0562530000    -0.8883950000     3.1235020000
| 25> *
| 26>
| 27>                          ****END OF INPUT****
 Total Charge           Charge          ....    0
 Multiplicity           Mult            ....    1
 Number of Electrons    NEL             ....   52
 Basis Dimension        Dim             ....  128

MULLIKEN ATOMIC CHARGES
-----------------------
   0 C :    0.140099
   1 O :   -0.323590
   2 C :    0.211343
   3 C :   -0.064270
   4 O :   -0.140022
   5 C :    0.409460
   6 C :   -0.398454
   7 H :    0.038131
   8 H :    0.021539
   9 H :    0.010535
  10 H :    0.056514
  11 H :    0.017000
  12 H :    0.021716
Sum of atomic charges:    0.0000000

LOEWDIN ATOMIC CHARGES
----------------------
   0 C :    0.054207
   1 O :   -0.135010
   2 C :    0.032195
   3 C :    0.019952
   4 O :   -0.090482
   5 C :   -0.037512
   6 C :   -0.003058
   7 H :    0.027134
   8 H :    0.008625
   9 H :    0.009070
  10 H :    0.048936
  11 H :    0.022120
  12 H :    0.043823

  Mayer bond orders larger than 0.1
B(  0-C ,  1-O ) :   0.9963 B(  0-C ,  7-H ) :   0.9777 B(  0-C ,  8-H ) :   0.9572
B(  0-C ,  9-H ) :   0.9555 B(  1-O ,  2-C ) :   1.0909 B(  2-C ,  3-C ) :   0.9486
B(  2-C , 10-H ) :   0.9129 B(  2-C , 11-H ) :   0.9109 B(  3-C ,  4-O ) :   2.1408
B(  3-C ,  5-C ) :   0.8773 B(  4-O ,  6-C ) :   0.1118 B(  5-C ,  6-C ) :   2.3175
B(  5-C , 12-H ) :  -0.1009 B(  6-C , 12-H ) :   1.0892

FINAL SINGLE POINT ENERGY      -343.816776160803

DIPOLE MOMENT
-------------
                                X             Y             Z
Electronic contribution:      2.61892       3.71813       3.47807
Nuclear contribution   :     -2.79530      -4.54217      -3.47210
                        -----------------------------------------
Total Dipole Moment    :     -0.17638      -0.82404       0.00597
                        -----------------------------------------
Magnitude (a.u.)       :      0.84273
Magnitude (Debye)      :      2.14205

                             ****ORCA TERMINATED NORMALLY****
TOTAL RUN TIME: 0 days 0 hours 0 minutes 6 seconds 161 msec
