                         Program Version 3.0.3 - RELEASE   -
|  1> ! RI PBE def2-SVP def2-SVP/J NBO PAL2
|  2> % maxcore 2000
|  3> % output
|  4>     # printlevel mini
|  5>     print[ P_Basis ] 0
|  6>     print[ P_SCFInfo ] 1
|  7>     print[ P_SCFIterInfo ] 1
|  8>     print[ P_OrbEn ] 0
|  9>     print[ P_Cartesian ] 0
| 10> end
| 11> *xyz 0 1
| 12>  C        1.9786710000     2.0752420000     1.0928840000
| 13>  O        3.2588970000     1.5697330000     1.3579440000
| 14>  C        3.2931310000     0.1646560000     1.4173470000
| 15>  C        4.7428120000    -0.2543040000     1.5948560000
| 16>  O        5.5193620000     0.2455120000     0.5226290000
| 17>  C        5.2973970000     0.1763210000     2.9199690000
| 18>  C        5.7380040000    -0.6626480000     3.8450940000
| 19>  H        2.0551270000     3.1618140000     1.0491120000
| 20>  H        1.2683580000     1.7998200000     1.8837610000
| 21>  H        1.5923210000     1.7044260000     0.1338510000
| 22>  H        2.9049970000    -0.2618420000     0.4804280000
| 23>  H        2.6803540000    -0.2063360000     2.2513300000
| 24>  H        4.7891780000    -1.3459340000     1.5286050000
| 25>  H        5.2647170000     1.1681500000     0.4085270000
| 26>  H        5.3265880000     1.2494460000     3.0935950000
| 27>  H        5.7230180000    -1.7370440000     3.6865880000
| 28>  H        6.1329580000    -0.3127130000     4.7919600000
| 29> *
| 30>
| 31>                          ****END OF INPUT****
 Total Charge           Charge          ....    0
 Multiplicity           Mult            ....    1
 Number of Electrons    NEL             ....   56
 Basis Dimension        Dim             ....  148

MULLIKEN ATOMIC CHARGES
-----------------------
   0 C :    0.146234
   1 O :   -0.367863
   2 C :    0.172773
   3 C :    0.134975
   4 O :   -0.276594
   5 C :   -0.037883
   6 C :   -0.034976
   7 H :    0.039550
   8 H :    0.014116
   9 H :    0.006827
  10 H :    0.002742
  11 H :    0.003081
  12 H :    0.000947
  13 H :    0.151809
  14 H :    0.001388
  15 H :    0.020938
  16 H :    0.021936
Sum of atomic charges:   -0.0000000

LOEWDIN ATOMIC CHARGES
----------------------
   0 C :    0.052496
   1 O :   -0.151309
   2 C :    0.051051
   3 C :    0.031985
   4 O :   -0.104762
   5 C :   -0.037948
   6 C :   -0.058908
   7 H :    0.025058
   8 H :    0.009346
   9 H :    0.007341
  10 H :    0.007163
  11 H :    0.010355
  12 H :    0.028273
  13 H :    0.058895
  14 H :    0.024865
  15 H :    0.021674
  16 H :    0.024425

  Mayer bond orders larger than 0.1
B(  0-C ,  1-O ) :   1.0112 B(  0-C ,  7-H ) :   0.9762 B(  0-C ,  8-H ) :   0.9591
B(  0-C ,  9-H ) :   0.9565 B(  1-O ,  2-C ) :   1.0010 B(  2-C ,  3-C ) :   1.0376
B(  2-C , 10-H ) :   0.9208 B(  2-C , 11-H ) :   0.9202 B(  3-C ,  4-O ) :   1.0220
B(  3-C ,  5-C ) :   1.0086 B(  3-C , 12-H ) :   0.9040 B(  4-O , 13-H ) :   0.9727
B(  5-C ,  6-C ) :   2.0028 B(  5-C , 14-H ) :   0.9502 B(  6-C , 15-H ) :   0.9466
B(  6-C , 16-H ) :   0.9407

FINAL SINGLE POINT ENERGY      -346.259411158928

DIPOLE MOMENT
-------------
                                X             Y             Z
Electronic contribution:      3.31717       0.11832      -1.42021
Nuclear contribution   :     -4.21038       0.10355       1.54505
                        -----------------------------------------
Total Dipole Moment    :     -0.89320       0.22186       0.12485
                        -----------------------------------------
Magnitude (a.u.)       :      0.92877
Magnitude (Debye)      :      2.36075

                             ****ORCA TERMINATED NORMALLY****
TOTAL RUN TIME: 0 days 0 hours 0 minutes 7 seconds 321 msec
