                         Program Version 3.0.3 - RELEASE   -
|  1> ! RI PBE def2-SVP def2-SVP/J NBO PAL2
|  2> % maxcore 2000
|  3> % output
|  4>     # printlevel mini
|  5>     print[ P_Basis ] 0
|  6>     print[ P_SCFInfo ] 1
|  7>     print[ P_SCFIterInfo ] 1
|  8>     print[ P_OrbEn ] 0
|  9>     print[ P_Cartesian ] 0
| 10> end
| 11> *xyz 0 1
| 12>  C        1.3110570000     0.4723530000     0.0543100000
| 13>  O        2.6960140000     0.3840940000    -0.1433140000
| 14>  C        3.0455760000    -0.4946530000    -1.1764300000
| 15>  C        4.5580010000    -0.4399040000    -1.3383570000
| 16>  O        4.9811780000     0.8746160000    -1.6140860000
| 17>  C        5.2449180000    -1.0136800000    -0.1769810000
| 18>  C        5.8102730000    -1.4870880000     0.7695840000
| 19>  H        1.1395240000     1.1828550000     0.8628160000
| 20>  H        0.8849090000    -0.4991190000     0.3379490000
| 21>  H        0.7982990000     0.8280520000    -0.8497540000
| 22>  H        2.5827130000    -0.1786240000    -2.1228520000
| 23>  H        2.7233710000    -1.5213250000    -0.9516360000
| 24>  H        4.8208070000    -1.0342500000    -2.2196700000
| 25>  H        4.6238650000     1.4284520000    -0.9104940000
| 26>  H        6.3163950000    -1.9000880000     1.6099260000
| 27> *
| 28>
| 29>                          ****END OF INPUT****
 Total Charge           Charge          ....    0
 Multiplicity           Mult            ....    1
 Number of Electrons    NEL             ....   54
 Basis Dimension        Dim             ....  138

MULLIKEN ATOMIC CHARGES
-----------------------
   0 C :    0.146470
   1 O :   -0.360193
   2 C :    0.178289
   3 C :    0.181803
   4 O :   -0.269336
   5 C :    0.374513
   6 C :   -0.506162
   7 H :    0.038548
   8 H :    0.011482
   9 H :    0.010892
  10 H :    0.003467
  11 H :    0.006232
  12 H :    0.025198
  13 H :    0.158772
  14 H :    0.000027
Sum of atomic charges:   -0.0000000

LOEWDIN ATOMIC CHARGES
----------------------
   0 C :    0.053803
   1 O :   -0.146022
   2 C :    0.057011
   3 C :    0.026764
   4 O :   -0.093757
   5 C :   -0.033720
   6 C :   -0.074642
   7 H :    0.025629
   8 H :    0.009159
   9 H :    0.007831
  10 H :    0.008229
  11 H :    0.012120
  12 H :    0.045719
  13 H :    0.066828
  14 H :    0.035047

  Mayer bond orders larger than 0.1
B(  0-C ,  1-O ) :   1.0116 B(  0-C ,  7-H ) :   0.9767 B(  0-C ,  8-H ) :   0.9581
B(  0-C ,  9-H ) :   0.9569 B(  1-O ,  2-C ) :   1.0126 B(  2-C ,  3-C ) :   1.0431
B(  2-C , 10-H ) :   0.9195 B(  2-C , 11-H ) :   0.9189 B(  3-C ,  4-O ) :   1.0501
B(  3-C ,  5-C ) :   0.9503 B(  3-C , 12-H ) :   0.8690 B(  4-O , 13-H ) :   0.9733
B(  5-C ,  6-C ) :   2.3585 B(  5-C , 14-H ) :  -0.1115 B(  6-C , 14-H ) :   1.1009

FINAL SINGLE POINT ENERGY      -345.013025908320

DIPOLE MOMENT
-------------
                                X             Y             Z
Electronic contribution:      5.71626       0.05358       0.05735
Nuclear contribution   :     -6.58225      -0.27938       0.11921
                        -----------------------------------------
Total Dipole Moment    :     -0.86600      -0.22580       0.17657
                        -----------------------------------------
Magnitude (a.u.)       :      0.91220
Magnitude (Debye)      :      2.31863

                             ****ORCA TERMINATED NORMALLY****
TOTAL RUN TIME: 0 days 0 hours 0 minutes 6 seconds 612 msec
