                         Program Version 3.0.3 - RELEASE   -
|  1> ! RI PBE def2-SVP def2-SVP/J NBO PAL2
|  2> % maxcore 2000
|  3> % output
|  4>     # printlevel mini
|  5>     print[ P_Basis ] 0
|  6>     print[ P_SCFInfo ] 1
|  7>     print[ P_SCFIterInfo ] 1
|  8>     print[ P_OrbEn ] 0
|  9>     print[ P_Cartesian ] 0
| 10> end
| 11> *xyz 0 1
| 12>  C        1.0084260000     0.1438610000    -0.4104310000
| 13>  O        2.3719310000     0.0292020000    -0.1102010000
| 14>  C        2.6405220000    -1.0240380000     0.7722630000
| 15>  C        4.1301510000    -1.0453790000     1.0156030000
| 16>  O        4.3947620000    -2.1071180000     1.9049670000
| 17>  C        5.6793350000    -2.3003500000     2.2545540000
| 18>  C        6.7472900000    -1.6110140000     1.8654080000
| 19>  H        0.8922640000     0.9822190000    -1.0973100000
| 20>  H        0.4123310000     0.3370130000     0.4922420000
| 21>  H        0.6240330000    -0.7666970000    -0.8906180000
| 22>  H        2.3179790000    -1.9869480000     0.3486020000
| 23>  H        2.1088130000    -0.8864670000     1.7257200000
| 24>  H        4.4571210000    -0.0923970000     1.4481580000
| 25>  H        4.6663760000    -1.1939670000     0.0708460000
| 26>  H        5.7577340000    -3.1395140000     2.9375930000
| 27>  H        6.7027200000    -0.7706300000     1.1865400000
| 28>  H        7.7170020000    -1.9012670000     2.2447830000
| 29> *
| 30>
| 31>                          ****END OF INPUT****
 Total Charge           Charge          ....    0
 Multiplicity           Mult            ....    1
 Number of Electrons    NEL             ....   56
 Basis Dimension        Dim             ....  148

MULLIKEN ATOMIC CHARGES
-----------------------
   0 C :    0.145975
   1 O :   -0.354015
   2 C :    0.172189
   3 C :    0.137259
   4 O :   -0.268225
   5 C :    0.106051
   6 C :   -0.116089
   7 H :    0.036123
   8 H :    0.007341
   9 H :    0.006421
  10 H :    0.000257
  11 H :    0.003270
  12 H :    0.025276
  13 H :    0.029657
  14 H :    0.013863
  15 H :    0.032517
  16 H :    0.022132
Sum of atomic charges:   -0.0000000

LOEWDIN ATOMIC CHARGES
----------------------
   0 C :    0.051794
   1 O :   -0.147254
   2 C :    0.054047
   3 C :    0.063288
   4 O :   -0.065616
   5 C :    0.032102
   6 C :   -0.155240
   7 H :    0.024323
   8 H :    0.006473
   9 H :    0.006085
  10 H :    0.006929
  11 H :    0.007555
  12 H :    0.017666
  13 H :    0.018532
  14 H :    0.023455
  15 H :    0.024023
  16 H :    0.031839

  Mayer bond orders larger than 0.1
B(  0-C ,  1-O ) :   1.0169 B(  0-C ,  7-H ) :   0.9771 B(  0-C ,  8-H ) :   0.9571
B(  0-C ,  9-H ) :   0.9569 B(  1-O ,  2-C ) :   1.0284 B(  2-C ,  3-C ) :   1.0575
B(  2-C , 10-H ) :   0.9250 B(  2-C , 11-H ) :   0.9253 B(  3-C ,  4-O ) :   0.9693
B(  3-C , 12-H ) :   0.9311 B(  3-C , 13-H ) :   0.9308 B(  4-O ,  5-C ) :   1.1547
B(  4-O ,  6-C ) :   0.1031 B(  5-C ,  6-C ) :   1.8625 B(  5-C , 14-H ) :   0.9665
B(  6-C , 15-H ) :   0.9534 B(  6-C , 16-H ) :   0.9365

FINAL SINGLE POINT ENERGY      -346.256070204246

DIPOLE MOMENT
-------------
                                X             Y             Z
Electronic contribution:      1.66454      -1.50422       1.46378
Nuclear contribution   :     -2.09933       1.53142      -1.54718
                        -----------------------------------------
Total Dipole Moment    :     -0.43479       0.02720      -0.08340
                        -----------------------------------------
Magnitude (a.u.)       :      0.44355
Magnitude (Debye)      :      1.12742

                             ****ORCA TERMINATED NORMALLY****
TOTAL RUN TIME: 0 days 0 hours 0 minutes 6 seconds 882 msec
