                         Program Version 3.0.3 - RELEASE   -
|  1> ! RI PBE def2-SVP def2-SVP/J NBO PAL2
|  2> % maxcore 2000
|  3> % output
|  4>     # printlevel mini
|  5>     print[ P_Basis ] 0
|  6>     print[ P_SCFInfo ] 1
|  7>     print[ P_SCFIterInfo ] 1
|  8>     print[ P_OrbEn ] 0
|  9>     print[ P_Cartesian ] 0
| 10> end
| 11> *xyz 0 1
| 12>  C        1.7798250000     2.7142410000     2.4747400000
| 13>  O        2.9277640000     2.4389040000     1.7052610000
| 14>  C        3.3800190000     1.1309970000     1.8369800000
| 15>  O        3.8921250000     0.8396430000     3.1052560000
| 16>  C        5.1046150000     1.4747010000     3.3714080000
| 17>  C        5.9952990000     0.7987220000     4.3445850000
| 18>  C        6.3681610000     0.8374520000     2.8851540000
| 19>  H        1.4896650000     3.7428040000     2.2619020000
| 20>  H        1.9751160000     2.6077190000     3.5463200000
| 21>  H        0.9530790000     2.0456270000     2.2000960000
| 22>  H        4.1515260000     1.0035070000     1.0698970000
| 23>  H        2.5606970000     0.4166810000     1.6853910000
| 24>  H        5.0518000000     2.5593700000     3.3812760000
| 25>  H        5.6458070000    -0.1486950000     4.7350000000
| 26>  H        6.5519750000     1.4076220000     5.0454470000
| 27>  H        6.2686400000    -0.0889730000     2.3330110000
| 28>  H        7.1833970000     1.4757790000     2.5681860000
| 29> *
| 30>
| 31>                          ****END OF INPUT****
 Total Charge           Charge          ....    0
 Multiplicity           Mult            ....    1
 Number of Electrons    NEL             ....   56
 Basis Dimension        Dim             ....  148

MULLIKEN ATOMIC CHARGES
-----------------------
   0 C :    0.139565
   1 O :   -0.348876
   2 C :    0.345794
   3 O :   -0.311622
   4 C :    0.037343
   5 C :   -0.027053
   6 C :   -0.066601
   7 H :    0.031074
   8 H :    0.025285
   9 H :    0.003418
  10 H :   -0.008097
  11 H :   -0.007843
  12 H :    0.026222
  13 H :    0.042268
  14 H :    0.038182
  15 H :    0.041124
  16 H :    0.039817
Sum of atomic charges:    0.0000000

LOEWDIN ATOMIC CHARGES
----------------------
   0 C :    0.049052
   1 O :   -0.144369
   2 C :    0.120989
   3 O :   -0.123962
   4 C :    0.033653
   5 C :   -0.048917
   6 C :   -0.063599
   7 H :    0.023090
   8 H :    0.010018
   9 H :    0.007530
  10 H :    0.002810
  11 H :   -0.000670
  12 H :    0.012746
  13 H :    0.033543
  14 H :    0.029314
  15 H :    0.030662
  16 H :    0.028111

  Mayer bond orders larger than 0.1
B(  0-C ,  1-O ) :   0.9948 B(  0-C ,  7-H ) :   0.9772 B(  0-C ,  8-H ) :   0.9613
B(  0-C ,  9-H ) :   0.9569 B(  1-O ,  2-C ) :   1.0671 B(  2-C ,  3-O ) :   1.0360
B(  2-C , 10-H ) :   0.9264 B(  2-C , 11-H ) :   0.9310 B(  3-O ,  4-C ) :   1.0392
B(  4-C ,  5-C ) :   0.9995 B(  4-C ,  6-C ) :   1.0098 B(  4-C , 12-H ) :   0.9346
B(  5-C ,  6-C ) :   1.0336 B(  5-C , 13-H ) :   0.9448 B(  5-C , 14-H ) :   0.9445
B(  6-C , 15-H ) :   0.9403 B(  6-C , 16-H ) :   0.9456

FINAL SINGLE POINT ENERGY      -346.254594872513

DIPOLE MOMENT
-------------
                                X             Y             Z
Electronic contribution:     -0.39294      -0.19691      -0.80250
Nuclear contribution   :      0.36213       0.21356       0.84054
                        -----------------------------------------
Total Dipole Moment    :     -0.03081       0.01664       0.03804
                        -----------------------------------------
Magnitude (a.u.)       :      0.05171
Magnitude (Debye)      :      0.13143

                             ****ORCA TERMINATED NORMALLY****
TOTAL RUN TIME: 0 days 0 hours 0 minutes 7 seconds 76 msec
