                         Program Version 3.0.3 - RELEASE   -
|  1> ! RI PBE def2-SVP def2-SVP/J NBO PAL2
|  2> % maxcore 2000
|  3> % output
|  4>     # printlevel mini
|  5>     print[ P_Basis ] 0
|  6>     print[ P_SCFInfo ] 1
|  7>     print[ P_SCFIterInfo ] 1
|  8>     print[ P_OrbEn ] 0
|  9>     print[ P_Cartesian ] 0
| 10> end
| 11> *xyz 0 1
| 12>  C        1.3419540000     0.7679520000     0.7245360000
| 13>  O        2.7062170000     1.1674400000     0.7976470000
| 14>  C        3.5045340000     0.6468860000    -0.1449970000
| 15>  O        3.1157380000    -0.1062150000    -1.0011420000
| 16>  C        4.8966620000     1.1152270000     0.0086680000
| 17>  C        5.9907020000     0.1487370000    -0.3704770000
| 18>  C        5.7000580000     1.3022510000    -1.2538960000
| 19>  H        0.8404220000     1.2704830000     1.5488120000
| 20>  H        1.2515680000    -0.3144570000     0.8262850000
| 21>  H        0.9033790000     1.0679460000    -0.2282600000
| 22>  H        5.0745370000     1.7917130000     0.8334010000
| 23>  H        5.6647580000    -0.8284430000    -0.7027980000
| 24>  H        6.8869630000     0.1660700000     0.2359790000
| 25>  H        5.1785200000     1.1014210000    -2.1808130000
| 26>  H        6.3909000000     2.1351980000    -1.2720440000
| 27> *
| 28>
| 29>                          ****END OF INPUT****
 Total Charge           Charge          ....    0
 Multiplicity           Mult            ....    1
 Number of Electrons    NEL             ....   54
 Basis Dimension        Dim             ....  138

MULLIKEN ATOMIC CHARGES
-----------------------
   0 C :    0.146330
   1 O :   -0.257194
   2 C :    0.169954
   3 O :   -0.203443
   4 C :   -0.157321
   5 C :   -0.012458
   6 C :   -0.013537
   7 H :    0.035276
   8 H :    0.037556
   9 H :    0.036721
  10 H :    0.027766
  11 H :    0.050922
  12 H :    0.043281
  13 H :    0.051602
  14 H :    0.044546
Sum of atomic charges:   -0.0000000

LOEWDIN ATOMIC CHARGES
----------------------
   0 C :    0.063370
   1 O :   -0.065146
   2 C :    0.047100
   3 O :   -0.166545
   4 C :   -0.074778
   5 C :   -0.020060
   6 C :   -0.020364
   7 H :    0.025237
   8 H :    0.023229
   9 H :    0.023284
  10 H :    0.033460
  11 H :    0.033988
  12 H :    0.031427
  13 H :    0.034166
  14 H :    0.031631

  Mayer bond orders larger than 0.1
B(  0-C ,  1-O ) :   0.9426 B(  0-C ,  7-H ) :   0.9750 B(  0-C ,  8-H ) :   0.9691
B(  0-C ,  9-H ) :   0.9684 B(  1-O ,  2-C ) :   1.2022 B(  2-C ,  3-O ) :   2.0664
B(  2-C ,  4-C ) :   1.0039 B(  4-C ,  5-C ) :   0.9627 B(  4-C ,  6-C ) :   0.9586
B(  4-C , 10-H ) :   0.9365 B(  5-C ,  6-C ) :   1.0582 B(  5-C , 11-H ) :   0.9443
B(  5-C , 12-H ) :   0.9478 B(  6-C , 13-H ) :   0.9436 B(  6-C , 14-H ) :   0.9485

FINAL SINGLE POINT ENERGY      -345.107688076688

DIPOLE MOMENT
-------------
                                X             Y             Z
Electronic contribution:     -1.39561      -0.28205       0.09131
Nuclear contribution   :      1.45893       0.64922       0.36860
                        -----------------------------------------
Total Dipole Moment    :      0.06332       0.36717       0.45991
                        -----------------------------------------
Magnitude (a.u.)       :      0.59190
Magnitude (Debye)      :      1.50449

                             ****ORCA TERMINATED NORMALLY****
TOTAL RUN TIME: 0 days 0 hours 0 minutes 7 seconds 97 msec
