                         Program Version 3.0.3 - RELEASE   -
|  1> ! RI PBE def2-SVP def2-SVP/J NBO PAL2
|  2> % maxcore 2000
|  3> % output
|  4>     # printlevel mini
|  5>     print[ P_Basis ] 0
|  6>     print[ P_SCFInfo ] 1
|  7>     print[ P_SCFIterInfo ] 1
|  8>     print[ P_OrbEn ] 0
|  9>     print[ P_Cartesian ] 0
| 10> end
| 11> *xyz 0 1
| 12>  C        1.5493160000     0.1277260000     0.0356050000
| 13>  O        2.9687910000     0.1428900000     0.1107670000
| 14>  C        3.5108350000     1.3250190000     0.4492570000
| 15>  O        2.8548200000     2.3100550000     0.6756300000
| 16>  C        4.9801240000     1.2301240000     0.4977830000
| 17>  C        5.7182960000     2.2903820000     0.8137840000
| 18>  C        7.1993170000     2.3119390000     0.8935430000
| 19>  H        1.2756100000    -0.8871360000    -0.2451370000
| 20>  H        1.1951000000     0.8389280000    -0.7124270000
| 21>  H        1.1092660000     0.3885080000     0.9995440000
| 22>  H        5.4231330000     0.2674360000     0.2665450000
| 23>  H        5.1885410000     3.2158270000     1.0308760000
| 24>  H        7.6374430000     1.3406190000     0.6598560000
| 25>  H        7.5252890000     2.6106530000     1.8950560000
| 26>  H        7.6099180000     3.0558500000     0.2032390000
| 27> *
| 28>
| 29>                          ****END OF INPUT****
 Total Charge           Charge          ....    0
 Multiplicity           Mult            ....    1
 Number of Electrons    NEL             ....   54
 Basis Dimension        Dim             ....  138

MULLIKEN ATOMIC CHARGES
-----------------------
   0 C :    0.147457
   1 O :   -0.263309
   2 C :    0.143777
   3 O :   -0.196725
   4 C :   -0.055265
   5 C :   -0.066539
   6 C :    0.048442
   7 H :    0.032868
   8 H :    0.036728
   9 H :    0.036281
  10 H :    0.001866
  11 H :    0.022179
  12 H :    0.024771
  13 H :    0.042438
  14 H :    0.045032
Sum of atomic charges:   -0.0000000

LOEWDIN ATOMIC CHARGES
----------------------
   0 C :    0.062812
   1 O :   -0.067363
   2 C :    0.035141
   3 O :   -0.160959
   4 C :   -0.087137
   5 C :    0.022139
   6 C :   -0.061169
   7 H :    0.024347
   8 H :    0.022930
   9 H :    0.022921
  10 H :    0.029339
  11 H :    0.033528
  12 H :    0.033263
  13 H :    0.044819
  14 H :    0.045388

  Mayer bond orders larger than 0.1
B(  0-C ,  1-O ) :   0.9446 B(  0-C ,  7-H ) :   0.9750 B(  0-C ,  8-H ) :   0.9687
B(  0-C ,  9-H ) :   0.9681 B(  1-O ,  2-C ) :   1.1809 B(  2-C ,  3-O ) :   2.0606
B(  2-C ,  4-C ) :   0.9956 B(  4-C ,  5-C ) :   1.8437 B(  4-C , 10-H ) :   0.9516
B(  5-C ,  6-C ) :   1.0911 B(  5-C , 11-H ) :   0.9415 B(  6-C , 12-H ) :   0.9598
B(  6-C , 13-H ) :   0.9407 B(  6-C , 14-H ) :   0.9407

FINAL SINGLE POINT ENERGY      -345.115449728149

DIPOLE MOMENT
-------------
                                X             Y             Z
Electronic contribution:     -3.75235      -0.22494      -0.24849
Nuclear contribution   :      4.19537      -0.16351       0.16643
                        -----------------------------------------
Total Dipole Moment    :      0.44302      -0.38844      -0.08205
                        -----------------------------------------
Magnitude (a.u.)       :      0.59488
Magnitude (Debye)      :      1.51208

                             ****ORCA TERMINATED NORMALLY****
TOTAL RUN TIME: 0 days 0 hours 0 minutes 6 seconds 482 msec
