                         Program Version 3.0.3 - RELEASE   -
|  1> ! RI PBE def2-SVP def2-SVP/J NBO PAL2
|  2> % maxcore 2000
|  3> % output
|  4>     # printlevel mini
|  5>     print[ P_Basis ] 0
|  6>     print[ P_SCFInfo ] 1
|  7>     print[ P_SCFIterInfo ] 1
|  8>     print[ P_OrbEn ] 0
|  9>     print[ P_Cartesian ] 0
| 10> end
| 11> *xyz 0 1
| 12>  C        1.6325650000     0.1697730000     2.5247150000
| 13>  O        3.0072050000     0.1249960000     2.1572050000
| 14>  C        3.3682000000     0.9688090000     1.1786770000
| 15>  O        2.5929830000     1.7019470000     0.6251940000
| 16>  C        4.8531690000     0.8939290000     0.9096010000
| 17>  C        5.1720130000     1.3563750000    -0.5009940000
| 18>  C        5.5869840000     1.7283960000     1.9612100000
| 19>  H        1.5115960000    -0.5657830000     3.3171000000
| 20>  H        0.9982000000    -0.0797020000     1.6730240000
| 21>  H        1.3616350000     1.1640920000     2.8830200000
| 22>  H        5.1485670000    -0.1519970000     1.0382770000
| 23>  H        4.8462180000     2.3872010000    -0.6500400000
| 24>  H        4.6691720000     0.7397120000    -1.2482810000
| 25>  H        6.2481330000     1.3026760000    -0.6798080000
| 26>  H        5.2985960000     2.7799820000     1.8863760000
| 27>  H        6.6656750000     1.6626070000     1.8037750000
| 28>  H        5.3677790000     1.3802750000     2.9720400000
| 29> *
| 30>
| 31>                          ****END OF INPUT****
 Total Charge           Charge          ....    0
 Multiplicity           Mult            ....    1
 Number of Electrons    NEL             ....   56
 Basis Dimension        Dim             ....  148

MULLIKEN ATOMIC CHARGES
-----------------------
   0 C :    0.142052
   1 O :   -0.260476
   2 C :    0.116614
   3 O :   -0.193886
   4 C :   -0.131643
   5 C :    0.034793
   6 C :   -0.000577
   7 H :    0.037361
   8 H :    0.039381
   9 H :    0.035588
  10 H :    0.022598
  11 H :    0.029811
  12 H :    0.022890
  13 H :    0.014767
  14 H :    0.029128
  15 H :    0.032799
  16 H :    0.028800
Sum of atomic charges:   -0.0000000

LOEWDIN ATOMIC CHARGES
----------------------
   0 C :    0.062276
   1 O :   -0.067768
   2 C :    0.049621
   3 O :   -0.150499
   4 C :   -0.072718
   5 C :   -0.053021
   6 C :   -0.049065
   7 H :    0.025374
   8 H :    0.023537
   9 H :    0.022582
  10 H :    0.035189
  11 H :    0.030503
  12 H :    0.029722
  13 H :    0.026362
  14 H :    0.029636
  15 H :    0.030064
  16 H :    0.028204

  Mayer bond orders larger than 0.1
B(  0-C ,  1-O ) :   0.9429 B(  0-C ,  7-H ) :   0.9751 B(  0-C ,  8-H ) :   0.9690
B(  0-C ,  9-H ) :   0.9684 B(  1-O ,  2-C ) :   1.2007 B(  2-C ,  3-O ) :   2.0799
B(  2-C ,  4-C ) :   0.9431 B(  4-C ,  5-C ) :   1.0886 B(  4-C ,  6-C ) :   1.0745
B(  4-C , 10-H ) :   0.8989 B(  5-C , 11-H ) :   0.9542 B(  5-C , 12-H ) :   0.9614
B(  5-C , 13-H ) :   0.9580 B(  6-C , 14-H ) :   0.9618 B(  6-C , 15-H ) :   0.9648
B(  6-C , 16-H ) :   0.9592

FINAL SINGLE POINT ENERGY      -346.330362658259

DIPOLE MOMENT
-------------
                                X             Y             Z
Electronic contribution:     -4.41953      -1.05545       0.25110
Nuclear contribution   :      4.61238       0.64606       0.20234
                        -----------------------------------------
Total Dipole Moment    :      0.19285      -0.40939       0.45344
                        -----------------------------------------
Magnitude (a.u.)       :      0.64063
Magnitude (Debye)      :      1.62834

                             ****ORCA TERMINATED NORMALLY****
TOTAL RUN TIME: 0 days 0 hours 0 minutes 7 seconds 891 msec
