                         Program Version 3.0.3 - RELEASE   -
|  1> ! RI PBE def2-SVP def2-SVP/J NBO PAL2
|  2> % maxcore 2000
|  3> % output
|  4>     # printlevel mini
|  5>     print[ P_Basis ] 0
|  6>     print[ P_SCFInfo ] 1
|  7>     print[ P_SCFIterInfo ] 1
|  8>     print[ P_OrbEn ] 0
|  9>     print[ P_Cartesian ] 0
| 10> end
| 11> *xyz 0 1
| 12>  C        2.2199570000     2.2724550000    -2.5350910000
| 13>  O        3.5147940000     1.6905810000    -2.4503100000
| 14>  C        3.7956960000     1.0954570000    -1.2839370000
| 15>  O        3.0164550000     1.0496820000    -0.3655190000
| 16>  C        5.1577790000     0.4973600000    -1.2290870000
| 17>  C        5.4968280000    -0.1726460000     0.0612180000
| 18>  C        5.9850240000     0.5720100000    -2.2686740000
| 19>  H        2.1539760000     2.7072680000    -3.5301660000
| 20>  H        2.0928770000     3.0430180000    -1.7731210000
| 21>  H        1.4469890000     1.5146310000    -2.3981680000
| 22>  H        4.7888830000    -0.9759810000     0.2786330000
| 23>  H        5.4260280000     0.5312620000     0.8938680000
| 24>  H        6.5051360000    -0.5858120000     0.0292220000
| 25>  H        5.6964920000     1.0683000000    -3.1857390000
| 26>  H        6.9758970000     0.1339140000    -2.2215390000
| 27> *
| 28>
| 29>                          ****END OF INPUT****
 Total Charge           Charge          ....    0
 Multiplicity           Mult            ....    1
 Number of Electrons    NEL             ....   54
 Basis Dimension        Dim             ....  138

MULLIKEN ATOMIC CHARGES
-----------------------
   0 C :    0.152731
   1 O :   -0.260074
   2 C :    0.159400
   3 O :   -0.187447
   4 C :   -0.224251
   5 C :    0.084990
   6 C :    0.027759
   7 H :    0.033468
   8 H :    0.036885
   9 H :    0.036779
  10 H :    0.041195
  11 H :    0.042271
  12 H :    0.008514
  13 H :    0.030384
  14 H :    0.017395
Sum of atomic charges:   -0.0000000

LOEWDIN ATOMIC CHARGES
----------------------
   0 C :    0.065731
   1 O :   -0.062546
   2 C :    0.041592
   3 O :   -0.150165
   4 C :   -0.069830
   5 C :   -0.050057
   6 C :   -0.016701
   7 H :    0.024769
   8 H :    0.023279
   9 H :    0.023321
  10 H :    0.043189
  11 H :    0.043662
  12 H :    0.030031
  13 H :    0.028141
  14 H :    0.025585

  Mayer bond orders larger than 0.1
B(  0-C ,  1-O ) :   0.9424 B(  0-C ,  7-H ) :   0.9745 B(  0-C ,  8-H ) :   0.9680
B(  0-C ,  9-H ) :   0.9682 B(  1-O ,  2-C ) :   1.2145 B(  2-C ,  3-O ) :   2.0677
B(  2-C ,  4-C ) :   0.9624 B(  4-C ,  5-C ) :   1.0949 B(  4-C ,  6-C ) :   1.9603
B(  5-C , 10-H ) :   0.9419 B(  5-C , 11-H ) :   0.9406 B(  5-C , 12-H ) :   0.9450
B(  6-C , 13-H ) :   0.9244 B(  6-C , 14-H ) :   0.9227

FINAL SINGLE POINT ENERGY      -345.112446073237

DIPOLE MOMENT
-------------
                                X             Y             Z
Electronic contribution:     -1.79278       0.82593      -0.16957
Nuclear contribution   :      2.00786      -0.70149      -0.35981
                        -----------------------------------------
Total Dipole Moment    :      0.21508       0.12443      -0.52938
                        -----------------------------------------
Magnitude (a.u.)       :      0.58480
Magnitude (Debye)      :      1.48644

                             ****ORCA TERMINATED NORMALLY****
TOTAL RUN TIME: 0 days 0 hours 0 minutes 6 seconds 861 msec
