                         Program Version 3.0.3 - RELEASE   -
|  1> ! RI PBE def2-SVP def2-SVP/J NBO PAL2
|  2> % maxcore 2000
|  3> % output
|  4>     # printlevel mini
|  5>     print[ P_Basis ] 0
|  6>     print[ P_SCFInfo ] 1
|  7>     print[ P_SCFIterInfo ] 1
|  8>     print[ P_OrbEn ] 0
|  9>     print[ P_Cartesian ] 0
| 10> end
| 11> *xyz 0 1
| 12>  C        1.0274130000     0.3546130000    -0.1847580000
| 13>  O        2.4511260000     0.3005970000    -0.2000690000
| 14>  C        2.9640670000    -0.8818480000    -0.5585640000
| 15>  O        2.3053950000    -1.8444300000    -0.8515610000
| 16>  C        4.4043640000    -0.8529950000    -0.5482510000
| 17>  C        5.6062200000    -0.8890590000    -0.5567230000
| 18>  C        7.0516630000    -0.9316180000    -0.5693440000
| 19>  H        0.7748350000     1.3669030000     0.1221800000
| 20>  H        0.6230520000    -0.3718090000     0.5215580000
| 21>  H        0.6243240000     0.1432720000    -1.1761850000
| 22>  H        7.4129630000    -1.9601450000    -0.5010510000
| 23>  H        7.4648130000    -0.3621620000     0.2664160000
| 24>  H        7.4359750000    -0.4972280000    -1.4957380000
| 25> *
| 26>
| 27>                          ****END OF INPUT****
 Total Charge           Charge          ....    0
 Multiplicity           Mult            ....    1
 Number of Electrons    NEL             ....   52
 Basis Dimension        Dim             ....  128

MULLIKEN ATOMIC CHARGES
-----------------------
   0 C :    0.151830
   1 O :   -0.247841
   2 C :    0.093571
   3 O :   -0.179634
   4 C :    0.050584
   5 C :   -0.214807
   6 C :    0.053698
   7 H :    0.037023
   8 H :    0.039357
   9 H :    0.037681
  10 H :    0.058678
  11 H :    0.059922
  12 H :    0.059939
Sum of atomic charges:    0.0000000

LOEWDIN ATOMIC CHARGES
----------------------
   0 C :    0.065156
   1 O :   -0.052870
   2 C :    0.020501
   3 O :   -0.132628
   4 C :   -0.083061
   5 C :   -0.003426
   6 C :   -0.063408
   7 H :    0.026684
   8 H :    0.024565
   9 H :    0.024300
  10 H :    0.056499
  11 H :    0.057493
  12 H :    0.060196

  Mayer bond orders larger than 0.1
B(  0-C ,  1-O ) :   0.9388 B(  0-C ,  7-H ) :   0.9743 B(  0-C ,  8-H ) :   0.9686
B(  0-C ,  9-H ) :   0.9679 B(  1-O ,  2-C ) :   1.2295 B(  2-C ,  3-O ) :   2.0578
B(  2-C ,  4-C ) :   0.8522 B(  4-C ,  5-C ) :   2.5987 B(  5-C ,  6-C ) :   1.1294
B(  6-C , 10-H ) :   0.9311 B(  6-C , 11-H ) :   0.9303 B(  6-C , 12-H ) :   0.9262

FINAL SINGLE POINT ENERGY      -343.868173457853

DIPOLE MOMENT
-------------
                                X             Y             Z
Electronic contribution:     -1.94746      -1.53279      -0.46008
Nuclear contribution   :      2.51090       2.14005       0.63857
                        -----------------------------------------
Total Dipole Moment    :      0.56343       0.60726       0.17848
                        -----------------------------------------
Magnitude (a.u.)       :      0.84740
Magnitude (Debye)      :      2.15391

                             ****ORCA TERMINATED NORMALLY****
TOTAL RUN TIME: 0 days 0 hours 0 minutes 5 seconds 374 msec
