                         Program Version 3.0.3 - RELEASE   -
|  1> ! RI PBE def2-SVP def2-SVP/J NBO PAL2
|  2> % maxcore 2000
|  3> % output
|  4>     # printlevel mini
|  5>     print[ P_Basis ] 0
|  6>     print[ P_SCFInfo ] 1
|  7>     print[ P_SCFIterInfo ] 1
|  8>     print[ P_OrbEn ] 0
|  9>     print[ P_Cartesian ] 0
| 10> end
| 11> *xyz 0 1
| 12>  C        1.7038100000    -0.8434640000     0.4771050000
| 13>  O        2.9762730000    -0.4528420000    -0.0313120000
| 14>  C        3.4670330000    -1.2312010000    -1.0039640000
| 15>  O        2.8892910000    -2.1870090000    -1.4447580000
| 16>  C        4.8384390000    -0.7655220000    -1.4259310000
| 17>  C        5.2137220000    -1.2216860000    -2.7957020000
| 18>  C        5.7446020000    -0.4357390000    -3.7199610000
| 19>  H        1.4562250000    -0.1168960000     1.2477900000
| 20>  H        1.7505750000    -1.8479000000     0.9001960000
| 21>  H        0.9538870000    -0.8304840000    -0.3148210000
| 22>  H        5.5320060000    -1.1883280000    -0.6854920000
| 23>  H        4.9051570000     0.3189320000    -1.3236310000
| 24>  H        5.0238490000    -2.2686440000    -3.0127280000
| 25>  H        5.9323170000     0.6175720000    -3.5346740000
| 26>  H        6.0117230000    -0.8174990000    -4.6982160000
| 27> *
| 28>
| 29>                          ****END OF INPUT****
 Total Charge           Charge          ....    0
 Multiplicity           Mult            ....    1
 Number of Electrons    NEL             ....   54
 Basis Dimension        Dim             ....  138

MULLIKEN ATOMIC CHARGES
-----------------------
   0 C :    0.140784
   1 O :   -0.255886
   2 C :    0.072561
   3 O :   -0.189071
   4 C :    0.067146
   5 C :   -0.083866
   6 C :   -0.029604
   7 H :    0.039046
   8 H :    0.037535
   9 H :    0.042015
  10 H :    0.060898
  11 H :    0.030691
  12 H :    0.021824
  13 H :    0.018687
  14 H :    0.027240
Sum of atomic charges:   -0.0000000

LOEWDIN ATOMIC CHARGES
----------------------
   0 C :    0.063676
   1 O :   -0.067076
   2 C :    0.044087
   3 O :   -0.148487
   4 C :   -0.067908
   5 C :   -0.023951
   6 C :   -0.059113
   7 H :    0.026182
   8 H :    0.023564
   9 H :    0.024877
  10 H :    0.061869
  11 H :    0.042593
  12 H :    0.031565
  13 H :    0.021523
  14 H :    0.026600

  Mayer bond orders larger than 0.1
B(  0-C ,  1-O ) :   0.9391 B(  0-C ,  7-H ) :   0.9754 B(  0-C ,  8-H ) :   0.9689
B(  0-C ,  9-H ) :   0.9696 B(  1-O ,  2-C ) :   1.2084 B(  2-C ,  3-O ) :   2.0845
B(  2-C ,  4-C ) :   0.9645 B(  4-C ,  5-C ) :   1.0498 B(  4-C , 10-H ) :   0.8851
B(  4-C , 11-H ) :   0.9195 B(  5-C ,  6-C ) :   2.0199 B(  5-C , 12-H ) :   0.9551
B(  6-C , 13-H ) :   0.9469 B(  6-C , 14-H ) :   0.9454

FINAL SINGLE POINT ENERGY      -345.104453507621

DIPOLE MOMENT
-------------
                                X             Y             Z
Electronic contribution:     -1.26056      -1.47615       0.96202
Nuclear contribution   :      1.28938       1.91657      -0.43821
                        -----------------------------------------
Total Dipole Moment    :      0.02882       0.44042       0.52381
                        -----------------------------------------
Magnitude (a.u.)       :      0.68497
Magnitude (Debye)      :      1.74105

                             ****ORCA TERMINATED NORMALLY****
TOTAL RUN TIME: 0 days 0 hours 0 minutes 6 seconds 95 msec
