                         Program Version 3.0.3 - RELEASE   -
|  1> ! RI PBE def2-SVP def2-SVP/J NBO PAL2
|  2> % maxcore 2000
|  3> % output
|  4>     # printlevel mini
|  5>     print[ P_Basis ] 0
|  6>     print[ P_SCFInfo ] 1
|  7>     print[ P_SCFIterInfo ] 1
|  8>     print[ P_OrbEn ] 0
|  9>     print[ P_Cartesian ] 0
| 10> end
| 11> *xyz 0 1
| 12>  C        2.6287160000     1.5621690000     0.0661240000
| 13>  O        3.7379750000     0.6670650000     0.0646040000
| 14>  C        3.6502160000    -0.3470880000    -0.8057020000
| 15>  O        2.7262650000    -0.5220480000    -1.5442910000
| 16>  C        4.8910360000    -1.2116180000    -0.6913590000
| 17>  C        4.9185010000    -2.3375750000    -1.6007100000
| 18>  C        4.9616760000    -3.2755830000    -2.3451750000
| 19>  H        2.8549590000     2.3135000000     0.8192210000
| 20>  H        1.7093830000     1.0323680000     0.3186770000
| 21>  H        2.5101800000     2.0266040000    -0.9136290000
| 22>  H        4.9614910000    -1.5519890000     0.3471690000
| 23>  H        5.7611670000    -0.5657790000    -0.8484790000
| 24>  H        4.9892350000    -4.1055270000    -3.0107410000
| 25> *
| 26>
| 27>                          ****END OF INPUT****
 Total Charge           Charge          ....    0
 Multiplicity           Mult            ....    1
 Number of Electrons    NEL             ....   52
 Basis Dimension        Dim             ....  128

MULLIKEN ATOMIC CHARGES
-----------------------
   0 C :    0.142691
   1 O :   -0.262499
   2 C :    0.080606
   3 O :   -0.163794
   4 C :    0.088341
   5 C :    0.328044
   6 C :   -0.464424
   7 H :    0.041536
   8 H :    0.039886
   9 H :    0.041081
  10 H :    0.063883
  11 H :    0.063059
  12 H :    0.001592
Sum of atomic charges:    0.0000000

LOEWDIN ATOMIC CHARGES
----------------------
   0 C :    0.066375
   1 O :   -0.070141
   2 C :    0.046019
   3 O :   -0.128969
   4 C :   -0.073358
   5 C :   -0.020854
   6 C :   -0.066898
   7 H :    0.027223
   8 H :    0.024606
   9 H :    0.024816
  10 H :    0.067889
  11 H :    0.067481
  12 H :    0.035811

  Mayer bond orders larger than 0.1
B(  0-C ,  1-O ) :   0.9378 B(  0-C ,  7-H ) :   0.9759 B(  0-C ,  8-H ) :   0.9694
B(  0-C ,  9-H ) :   0.9697 B(  1-O ,  2-C ) :   1.1975 B(  2-C ,  3-O ) :   2.1274
B(  2-C ,  4-C ) :   0.9388 B(  4-C ,  5-C ) :   1.0337 B(  4-C , 10-H ) :   0.8830
B(  4-C , 11-H ) :   0.8835 B(  5-C ,  6-C ) :   2.3771 B(  5-C , 12-H ) :  -0.1070
B(  6-C , 12-H ) :   1.0979

FINAL SINGLE POINT ENERGY      -343.857903415616

DIPOLE MOMENT
-------------
                                X             Y             Z
Electronic contribution:      0.65840      -2.47656      -1.57481
Nuclear contribution   :     -0.40099       3.00605       2.17543
                        -----------------------------------------
Total Dipole Moment    :      0.25741       0.52949       0.60063
                        -----------------------------------------
Magnitude (a.u.)       :      0.84105
Magnitude (Debye)      :      2.13779

                             ****ORCA TERMINATED NORMALLY****
TOTAL RUN TIME: 0 days 0 hours 0 minutes 6 seconds 45 msec
