                         Program Version 3.0.3 - RELEASE   -
|  1> ! RI PBE def2-SVP def2-SVP/J NBO PAL2
|  2> % maxcore 2000
|  3> % output
|  4>     # printlevel mini
|  5>     print[ P_Basis ] 0
|  6>     print[ P_SCFInfo ] 1
|  7>     print[ P_SCFIterInfo ] 1
|  8>     print[ P_OrbEn ] 0
|  9>     print[ P_Cartesian ] 0
| 10> end
| 11> *xyz 0 1
| 12>  C        5.9894630000    -0.6597240000    -0.7376870000
| 13>  O        4.6583280000    -0.4799920000    -0.3020670000
| 14>  C        4.4562290000    -0.6942200000     1.0729280000
| 15>  O        4.7221060000    -2.0044910000     1.4572040000
| 16>  C        3.8199750000    -2.9412450000     0.9167900000
| 17>  C        5.2594030000     0.2506090000     1.9169480000
| 18>  C        5.9882510000    -0.0902400000     2.9671360000
| 19>  H        5.9845730000    -0.5065660000    -1.8165850000
| 20>  H        6.3533410000    -1.6680600000    -0.5178940000
| 21>  H        6.6698240000     0.0639620000    -0.2754340000
| 22>  H        3.3842630000    -0.4778850000     1.2044280000
| 23>  H        4.1061830000    -3.9195510000     1.3020860000
| 24>  H        3.8592300000    -2.9562590000    -0.1767300000
| 25>  H        2.7904930000    -2.7215240000     1.2281710000
| 26>  H        5.1837330000     1.2891550000     1.6054420000
| 27>  H        6.0635640000    -1.1236410000     3.2834930000
| 28>  H        6.5280600000     0.6553830000     3.5394720000
| 29> *
| 30>
| 31>                          ****END OF INPUT****
 Total Charge           Charge          ....    0
 Multiplicity           Mult            ....    1
 Number of Electrons    NEL             ....   56
 Basis Dimension        Dim             ....  148

MULLIKEN ATOMIC CHARGES
-----------------------
   0 C :    0.148406
   1 O :   -0.345429
   2 C :    0.319744
   3 O :   -0.326196
   4 C :    0.152287
   5 C :   -0.143522
   6 C :    0.008202
   7 H :    0.033482
   8 H :    0.012441
   9 H :    0.013309
  10 H :   -0.007660
  11 H :    0.029401
  12 H :    0.024692
  13 H :    0.006443
  14 H :    0.016233
  15 H :    0.031458
  16 H :    0.026708
Sum of atomic charges:    0.0000000

LOEWDIN ATOMIC CHARGES
----------------------
   0 C :    0.048750
   1 O :   -0.146515
   2 C :    0.095505
   3 O :   -0.129825
   4 C :    0.052919
   5 C :   -0.059191
   6 C :   -0.039940
   7 H :    0.023117
   8 H :    0.007337
   9 H :    0.008712
  10 H :    0.011700
  11 H :    0.023226
  12 H :    0.010383
  13 H :    0.009422
  14 H :    0.031311
  15 H :    0.026687
  16 H :    0.026401

  Mayer bond orders larger than 0.1
B(  0-C ,  1-O ) :   0.9920 B(  0-C ,  7-H ) :   0.9779 B(  0-C ,  8-H ) :   0.9575
B(  0-C ,  9-H ) :   0.9541 B(  1-O ,  2-C ) :   1.0507 B(  2-C ,  3-O ) :   1.0831
B(  2-C ,  5-C ) :   0.9987 B(  2-C , 10-H ) :   0.8927 B(  3-O ,  4-C ) :   0.9869
B(  4-C , 11-H ) :   0.9767 B(  4-C , 12-H ) :   0.9613 B(  4-C , 13-H ) :   0.9577
B(  5-C ,  6-C ) :   2.0040 B(  5-C , 14-H ) :   0.9472 B(  6-C , 15-H ) :   0.9370
B(  6-C , 16-H ) :   0.9391

FINAL SINGLE POINT ENERGY      -346.256326322495

DIPOLE MOMENT
-------------
                                X             Y             Z
Electronic contribution:     -1.09535       1.26625       0.52646
Nuclear contribution   :      1.11654      -1.40429      -0.55146
                        -----------------------------------------
Total Dipole Moment    :      0.02119      -0.13803      -0.02499
                        -----------------------------------------
Magnitude (a.u.)       :      0.14187
Magnitude (Debye)      :      0.36060

                             ****ORCA TERMINATED NORMALLY****
TOTAL RUN TIME: 0 days 0 hours 0 minutes 7 seconds 457 msec
