                         Program Version 3.0.3 - RELEASE   -
|  1> ! RI PBE def2-SVP def2-SVP/J NBO PAL2
|  2> % maxcore 2000
|  3> % output
|  4>     # printlevel mini
|  5>     print[ P_Basis ] 0
|  6>     print[ P_SCFInfo ] 1
|  7>     print[ P_SCFIterInfo ] 1
|  8>     print[ P_OrbEn ] 0
|  9>     print[ P_Cartesian ] 0
| 10> end
| 11> *xyz 0 1
| 12>  C        1.0992450000    -0.2266440000     0.1379460000
| 13>  O        2.4589090000     0.0745760000    -0.0892140000
| 14>  C        2.9392580000    -0.4536160000    -1.2879320000
| 15>  O        2.3696630000     0.1379600000    -2.4170170000
| 16>  C        2.6684380000     1.5101620000    -2.5861850000
| 17>  C        4.4037410000    -0.3475090000    -1.2649460000
| 18>  C        5.6015440000    -0.3024630000    -1.2805090000
| 19>  H        0.8425260000     0.1930950000     1.1096630000
| 20>  H        0.9361370000    -1.3117920000     0.1617150000
| 21>  H        0.4532080000     0.2100580000    -0.6294470000
| 22>  H        2.6577330000    -1.5131050000    -1.3729860000
| 23>  H        2.1185400000     1.8364350000    -3.4678930000
| 24>  H        3.7400740000     1.6634540000    -2.7496020000
| 25>  H        2.3517850000     2.0993470000    -1.7207280000
| 26>  H        6.6652390000    -0.2571380000    -1.2851930000
| 27> *
| 28>
| 29>                          ****END OF INPUT****
 Total Charge           Charge          ....    0
 Multiplicity           Mult            ....    1
 Number of Electrons    NEL             ....   54
 Basis Dimension        Dim             ....  138

MULLIKEN ATOMIC CHARGES
-----------------------
   0 C :    0.153134
   1 O :   -0.318803
   2 C :    0.318639
   3 O :   -0.328227
   4 C :    0.147679
   5 C :    0.353169
   6 C :   -0.480499
   7 H :    0.034419
   8 H :    0.009448
   9 H :    0.020184
  10 H :    0.008340
  11 H :    0.032303
  12 H :    0.023821
  13 H :    0.020231
  14 H :    0.006163
Sum of atomic charges:   -0.0000000

LOEWDIN ATOMIC CHARGES
----------------------
   0 C :    0.052095
   1 O :   -0.128693
   2 C :    0.089056
   3 O :   -0.130244
   4 C :    0.051561
   5 C :   -0.033732
   6 C :   -0.055918
   7 H :    0.025967
   8 H :    0.010757
   9 H :    0.010445
  10 H :    0.021893
  11 H :    0.024588
  12 H :    0.014413
  13 H :    0.010527
  14 H :    0.037285

  Mayer bond orders larger than 0.1
B(  0-C ,  1-O ) :   0.9862 B(  0-C ,  7-H ) :   0.9766 B(  0-C ,  8-H ) :   0.9578
B(  0-C ,  9-H ) :   0.9602 B(  1-O ,  2-C ) :   1.1016 B(  2-C ,  3-O ) :   1.0795
B(  2-C ,  5-C ) :   0.9077 B(  2-C , 10-H ) :   0.8888 B(  3-O ,  4-C ) :   0.9752
B(  4-C , 11-H ) :   0.9772 B(  4-C , 12-H ) :   0.9585 B(  4-C , 13-H ) :   0.9555
B(  5-C ,  6-C ) :   2.4048 B(  5-C , 14-H ) :  -0.1090 B(  6-C , 14-H ) :   1.0990

FINAL SINGLE POINT ENERGY      -345.006687286630

DIPOLE MOMENT
-------------
                                X             Y             Z
Electronic contribution:      3.65659      -2.00890      -0.05817
Nuclear contribution   :     -3.80628       2.10283       0.07526
                        -----------------------------------------
Total Dipole Moment    :     -0.14969       0.09393       0.01709
                        -----------------------------------------
Magnitude (a.u.)       :      0.17755
Magnitude (Debye)      :      0.45129

                             ****ORCA TERMINATED NORMALLY****
TOTAL RUN TIME: 0 days 0 hours 0 minutes 6 seconds 425 msec
