                         Program Version 3.0.3 - RELEASE   -
|  1> ! RI PBE def2-SVP def2-SVP/J NBO PAL2
|  2> % maxcore 2000
|  3> % output
|  4>     # printlevel mini
|  5>     print[ P_Basis ] 0
|  6>     print[ P_SCFInfo ] 1
|  7>     print[ P_SCFIterInfo ] 1
|  8>     print[ P_OrbEn ] 0
|  9>     print[ P_Cartesian ] 0
| 10> end
| 11> *xyz 0 1
| 12>  C        3.4516420000    -0.1504170000     0.5011610000
| 13>  O        2.8656230000    -0.0083220000    -0.7747310000
| 14>  C        3.0864960000     1.2140800000    -1.3537010000
| 15>  O        4.4485940000     1.3240520000    -1.7084130000
| 16>  C        4.8368250000     2.4815790000    -2.2826430000
| 17>  C        4.0910090000     3.5395350000    -2.5959770000
| 18>  C        4.6640200000     4.7597390000    -3.2364630000
| 19>  H        3.1203180000    -1.1096320000     0.8968920000
| 20>  H        3.1199140000     0.6503800000     1.1748990000
| 21>  H        4.5435110000    -0.1393370000     0.4444790000
| 22>  H        2.8341140000     2.0417320000    -0.6689350000
| 23>  H        2.4631930000     1.2675450000    -2.2528160000
| 24>  H        5.9036700000     2.4640450000    -2.4846580000
| 25>  H        3.0249570000     3.5431710000    -2.3940730000
| 26>  H        5.7389990000     4.6540210000    -3.3997970000
| 27>  H        4.5072270000     5.6498300000    -2.6188260000
| 28>  H        4.1978770000     4.9607090000    -4.2062870000
| 29> *
| 30>
| 31>                          ****END OF INPUT****
 Total Charge           Charge          ....    0
 Multiplicity           Mult            ....    1
 Number of Electrons    NEL             ....   56
 Basis Dimension        Dim             ....  148

MULLIKEN ATOMIC CHARGES
-----------------------
   0 C :    0.141959
   1 O :   -0.315816
   2 C :    0.290954
   3 O :   -0.266952
   4 C :    0.124086
   5 C :   -0.189229
   6 C :    0.034527
   7 H :    0.034546
   8 H :    0.005689
   9 H :    0.032888
  10 H :   -0.008213
  11 H :    0.025703
  12 H :    0.002864
  13 H :    0.009624
  14 H :    0.018349
  15 H :    0.029832
  16 H :    0.029190
Sum of atomic charges:   -0.0000000

LOEWDIN ATOMIC CHARGES
----------------------
   0 C :    0.054296
   1 O :   -0.119703
   2 C :    0.131643
   3 O :   -0.081117
   4 C :    0.018036
   5 C :   -0.128989
   6 C :   -0.060195
   7 H :    0.025304
   8 H :    0.008978
   9 H :    0.013732
  10 H :   -0.010082
  11 H :    0.011026
  12 H :    0.020012
  13 H :    0.021931
  14 H :    0.030621
  15 H :    0.031891
  16 H :    0.032614

  Mayer bond orders larger than 0.1
B(  0-C ,  1-O ) :   0.9863 B(  0-C ,  7-H ) :   0.9781 B(  0-C ,  8-H ) :   0.9533
B(  0-C ,  9-H ) :   0.9646 B(  1-O ,  2-C ) :   1.1318 B(  2-C ,  3-O ) :   0.9565
B(  2-C , 10-H ) :   0.9233 B(  2-C , 11-H ) :   0.9388 B(  3-O ,  4-C ) :   1.1469
B(  4-C ,  5-C ) :   1.7842 B(  4-C , 12-H ) :   0.9662 B(  5-C ,  6-C ) :   1.0911
B(  5-C , 13-H ) :   0.9562 B(  6-C , 14-H ) :   0.9599 B(  6-C , 15-H ) :   0.9502
B(  6-C , 16-H ) :   0.9480

FINAL SINGLE POINT ENERGY      -346.265725148321

DIPOLE MOMENT
-------------
                                X             Y             Z
Electronic contribution:     -0.44171      -4.88586      -0.11278
Nuclear contribution   :      0.39530       5.24251       0.43965
                        -----------------------------------------
Total Dipole Moment    :     -0.04641       0.35665       0.32687
                        -----------------------------------------
Magnitude (a.u.)       :      0.48600
Magnitude (Debye)      :      1.23530

                             ****ORCA TERMINATED NORMALLY****
TOTAL RUN TIME: 0 days 0 hours 0 minutes 6 seconds 927 msec
