                         Program Version 3.0.3 - RELEASE   -
|  1> ! RI PBE def2-SVP def2-SVP/J NBO PAL2
|  2> % maxcore 2000
|  3> % output
|  4>     # printlevel mini
|  5>     print[ P_Basis ] 0
|  6>     print[ P_SCFInfo ] 1
|  7>     print[ P_SCFIterInfo ] 1
|  8>     print[ P_OrbEn ] 0
|  9>     print[ P_Cartesian ] 0
| 10> end
| 11> *xyz 0 1
| 12>  C        6.2918180000    -1.0850490000     1.0008880000
| 13>  O        5.1242390000    -1.7714610000     0.6147870000
| 14>  C        5.3138360000    -3.1446600000     0.4676460000
| 15>  O        5.5785110000    -3.8045060000     1.6631360000
| 16>  C        4.4543360000    -3.9341550000     2.5349520000
| 17>  C        3.6354460000    -5.1571910000     2.1654490000
| 18>  C        4.9965570000    -4.0149420000     3.9442970000
| 19>  H        6.0403720000    -0.0260050000     1.0538130000
| 20>  H        7.0926800000    -1.2254660000     0.2624380000
| 21>  H        6.6545500000    -1.4200120000     1.9775760000
| 22>  H        6.1772680000    -3.3493460000    -0.1785890000
| 23>  H        4.3970900000    -3.5135000000    -0.0061120000
| 24>  H        3.8354980000    -3.0331350000     2.4398410000
| 25>  H        4.2412580000    -6.0610090000     2.2669830000
| 26>  H        3.2719700000    -5.1025480000     1.1369500000
| 27>  H        2.7647340000    -5.2480080000     2.8194320000
| 28>  H        5.6591170000    -4.8783190000     4.0447080000
| 29>  H        4.1822340000    -4.1200120000     4.6644860000
| 30>  H        5.5645870000    -3.1165860000     4.1918290000
| 31> *
| 32>
| 33>                          ****END OF INPUT****
 Total Charge           Charge          ....    0
 Multiplicity           Mult            ....    1
 Number of Electrons    NEL             ....   58
 Basis Dimension        Dim             ....  158

MULLIKEN ATOMIC CHARGES
-----------------------
   0 C :    0.138383
   1 O :   -0.341703
   2 C :    0.319214
   3 O :   -0.341518
   4 C :    0.023566
   5 C :    0.019042
   6 C :    0.014881
   7 H :    0.034368
   8 H :    0.006574
   9 H :    0.013786
  10 H :   -0.005365
  11 H :   -0.007020
  12 H :    0.007827
  13 H :    0.020009
  14 H :    0.013163
  15 H :    0.019983
  16 H :    0.023127
  17 H :    0.017330
  18 H :    0.024351
Sum of atomic charges:   -0.0000000

LOEWDIN ATOMIC CHARGES
----------------------
   0 C :    0.047345
   1 O :   -0.146233
   2 C :    0.115600
   3 O :   -0.141502
   4 C :    0.046105
   5 C :   -0.071995
   6 C :   -0.066756
   7 H :    0.023025
   8 H :    0.007894
   9 H :    0.006693
  10 H :    0.001088
  11 H :   -0.000338
  12 H :    0.010243
  13 H :    0.027310
  14 H :    0.024380
  15 H :    0.030455
  16 H :    0.028490
  17 H :    0.030093
  18 H :    0.028103

  Mayer bond orders larger than 0.1
B(  0-C ,  1-O ) :   0.9985 B(  0-C ,  7-H ) :   0.9775 B(  0-C ,  8-H ) :   0.9572
B(  0-C ,  9-H ) :   0.9582 B(  1-O ,  2-C ) :   1.0628 B(  2-C ,  3-O ) :   1.0638
B(  2-C , 10-H ) :   0.9303 B(  2-C , 11-H ) :   0.9253 B(  3-O ,  4-C ) :   0.9513
B(  4-C ,  5-C ) :   1.0987 B(  4-C ,  6-C ) :   1.0903 B(  4-C , 12-H ) :   0.9095
B(  5-C , 13-H ) :   0.9553 B(  5-C , 14-H ) :   0.9455 B(  5-C , 15-H ) :   0.9536
B(  6-C , 16-H ) :   0.9581 B(  6-C , 17-H ) :   0.9549 B(  6-C , 18-H ) :   0.9586

FINAL SINGLE POINT ENERGY      -347.486300679599

DIPOLE MOMENT
-------------
                                X             Y             Z
Electronic contribution:      0.88086       1.89492      -3.27775
Nuclear contribution   :     -0.90555      -1.91062       3.37133
                        -----------------------------------------
Total Dipole Moment    :     -0.02469      -0.01570       0.09359
                        -----------------------------------------
Magnitude (a.u.)       :      0.09805
Magnitude (Debye)      :      0.24923

                             ****ORCA TERMINATED NORMALLY****
TOTAL RUN TIME: 0 days 0 hours 0 minutes 7 seconds 872 msec
