                         Program Version 3.0.3 - RELEASE   -
|  1> ! RI PBE def2-SVP def2-SVP/J NBO PAL2
|  2> % maxcore 2000
|  3> % output
|  4>     # printlevel mini
|  5>     print[ P_Basis ] 0
|  6>     print[ P_SCFInfo ] 1
|  7>     print[ P_SCFIterInfo ] 1
|  8>     print[ P_OrbEn ] 0
|  9>     print[ P_Cartesian ] 0
| 10> end
| 11> *xyz 0 1
| 12>  C        4.5039360000     0.5266730000    -0.4173060000
| 13>  O        3.5403590000    -0.4794380000    -0.1933770000
| 14>  C        3.3369760000    -1.3031110000    -1.2700640000
| 15>  O        4.4778370000    -2.1165040000    -1.4555240000
| 16>  C        4.4590500000    -2.9970550000    -2.4821410000
| 17>  C        5.7425050000    -3.7510980000    -2.5436090000
| 18>  C        3.4400730000    -3.1782520000    -3.3251940000
| 19>  H        4.4944590000     1.1752420000     0.4577870000
| 20>  H        4.2512920000     1.1189290000    -1.3064510000
| 21>  H        5.5042860000     0.1033130000    -0.5431130000
| 22>  H        3.1600900000    -0.7292280000    -2.1948150000
| 23>  H        2.4685240000    -1.9298700000    -1.0435760000
| 24>  H        6.5809660000    -3.0629230000    -2.6800530000
| 25>  H        5.7339220000    -4.4662790000    -3.3644990000
| 26>  H        5.9111220000    -4.2869390000    -1.6059170000
| 27>  H        2.5112200000    -2.6289950000    -3.2681020000
| 28>  H        3.5331730000    -3.9141570000    -4.1111460000
| 29> *
| 30>
| 31>                          ****END OF INPUT****
 Total Charge           Charge          ....    0
 Multiplicity           Mult            ....    1
 Number of Electrons    NEL             ....   56
 Basis Dimension        Dim             ....  148

MULLIKEN ATOMIC CHARGES
-----------------------
   0 C :    0.139061
   1 O :   -0.316175
   2 C :    0.288561
   3 O :   -0.274268
   4 C :   -0.008981
   5 C :    0.064939
   6 C :   -0.112623
   7 H :    0.039529
   8 H :    0.006403
   9 H :    0.027326
  10 H :   -0.000821
  11 H :    0.027316
  12 H :    0.033963
  13 H :    0.019661
  14 H :    0.039488
  15 H :    0.014868
  16 H :    0.011755
Sum of atomic charges:   -0.0000000

LOEWDIN ATOMIC CHARGES
----------------------
   0 C :    0.053823
   1 O :   -0.119358
   2 C :    0.132304
   3 O :   -0.081664
   4 C :    0.025983
   5 C :   -0.061366
   6 C :   -0.163655
   7 H :    0.025828
   8 H :    0.009221
   9 H :    0.012188
  10 H :   -0.007518
  11 H :    0.011848
  12 H :    0.038721
  13 H :    0.036282
  14 H :    0.040672
  15 H :    0.019601
  16 H :    0.027089

  Mayer bond orders larger than 0.1
B(  0-C ,  1-O ) :   0.9880 B(  0-C ,  7-H ) :   0.9790 B(  0-C ,  8-H ) :   0.9539
B(  0-C ,  9-H ) :   0.9638 B(  1-O ,  2-C ) :   1.1286 B(  2-C ,  3-O ) :   0.9525
B(  2-C , 10-H ) :   0.9258 B(  2-C , 11-H ) :   0.9405 B(  3-O ,  4-C ) :   1.1341
B(  4-C ,  5-C ) :   1.0874 B(  4-C ,  6-C ) :   1.8447 B(  5-C , 12-H ) :   0.9418
B(  5-C , 13-H ) :   0.9526 B(  5-C , 14-H ) :   0.9436 B(  6-C , 15-H ) :   0.9417
B(  6-C , 16-H ) :   0.9233

FINAL SINGLE POINT ENERGY      -346.270190797509

DIPOLE MOMENT
-------------
                                X             Y             Z
Electronic contribution:     -1.63896       0.36417       2.82282
Nuclear contribution   :      1.83974      -0.10557      -3.10149
                        -----------------------------------------
Total Dipole Moment    :      0.20078       0.25860      -0.27868
                        -----------------------------------------
Magnitude (a.u.)       :      0.42994
Magnitude (Debye)      :      1.09283

                             ****ORCA TERMINATED NORMALLY****
TOTAL RUN TIME: 0 days 0 hours 0 minutes 7 seconds 517 msec
