                         Program Version 3.0.3 - RELEASE   -
|  1> ! RI PBE def2-SVP def2-SVP/J NBO PAL2
|  2> % maxcore 2000
|  3> % output
|  4>     # printlevel mini
|  5>     print[ P_Basis ] 0
|  6>     print[ P_SCFInfo ] 1
|  7>     print[ P_SCFIterInfo ] 1
|  8>     print[ P_OrbEn ] 0
|  9>     print[ P_Cartesian ] 0
| 10> end
| 11> *xyz 0 1
| 12>  C        2.4727230000    -1.3967080000    -2.2726950000
| 13>  O        2.2112430000    -0.0116980000    -2.2665780000
| 14>  C        2.7857000000     0.6513890000    -1.1867200000
| 15>  O        4.1770650000     0.6950730000    -1.2259810000
| 16>  C        4.6881980000     1.5107490000    -2.2651180000
| 17>  C        6.1654320000     1.6113790000    -2.1147060000
| 18>  C        7.0280510000     1.3893430000    -3.0946920000
| 19>  H        1.9471940000    -1.8190870000    -3.1286820000
| 20>  H        2.0999890000    -1.8702400000    -1.3547260000
| 21>  H        3.5429280000    -1.6064680000    -2.3645860000
| 22>  H        2.5364840000     0.1497740000    -0.2429090000
| 23>  H        2.3629540000     1.6640410000    -1.2056690000
| 24>  H        4.2335690000     2.5120980000    -2.1887510000
| 25>  H        4.4257270000     1.1042440000    -3.2482230000
| 26>  H        6.5185640000     1.9027760000    -1.1284470000
| 27>  H        6.6956090000     1.0862800000    -4.0828410000
| 28>  H        8.0955720000     1.5064650000    -2.9493840000
| 29> *
| 30>
| 31>                          ****END OF INPUT****
 Total Charge           Charge          ....    0
 Multiplicity           Mult            ....    1
 Number of Electrons    NEL             ....   56
 Basis Dimension        Dim             ....  148

MULLIKEN ATOMIC CHARGES
-----------------------
   0 C :    0.142189
   1 O :   -0.347550
   2 C :    0.321898
   3 O :   -0.349615
   4 C :    0.230492
   5 C :   -0.076394
   6 C :   -0.038923
   7 H :    0.032843
   8 H :    0.004142
   9 H :    0.020875
  10 H :   -0.006543
  11 H :   -0.007785
  12 H :    0.007060
  13 H :    0.002949
  14 H :    0.010620
  15 H :    0.021489
  16 H :    0.032252
Sum of atomic charges:   -0.0000000

LOEWDIN ATOMIC CHARGES
----------------------
   0 C :    0.049853
   1 O :   -0.145960
   2 C :    0.115867
   3 O :   -0.143563
   4 C :    0.062546
   5 C :   -0.035166
   6 C :   -0.053233
   7 H :    0.023320
   8 H :    0.008020
   9 H :    0.009586
  10 H :    0.000474
  11 H :    0.000757
  12 H :    0.016665
  13 H :    0.011950
  14 H :    0.028731
  15 H :    0.023106
  16 H :    0.027047

  Mayer bond orders larger than 0.1
B(  0-C ,  1-O ) :   0.9948 B(  0-C ,  7-H ) :   0.9778 B(  0-C ,  8-H ) :   0.9572
B(  0-C ,  9-H ) :   0.9606 B(  1-O ,  2-C ) :   1.0684 B(  2-C ,  3-O ) :   1.0580
B(  2-C , 10-H ) :   0.9324 B(  2-C , 11-H ) :   0.9298 B(  3-O ,  4-C ) :   0.9630
B(  4-C ,  5-C ) :   1.0465 B(  4-C , 12-H ) :   0.9107 B(  4-C , 13-H ) :   0.9320
B(  5-C ,  6-C ) :   2.0151 B(  5-C , 14-H ) :   0.9555 B(  6-C , 15-H ) :   0.9453
B(  6-C , 16-H ) :   0.9475

FINAL SINGLE POINT ENERGY      -346.255371387003

DIPOLE MOMENT
-------------
                                X             Y             Z
Electronic contribution:     -0.95575       1.21029       1.29091
Nuclear contribution   :      0.95503      -1.25211      -1.30810
                        -----------------------------------------
Total Dipole Moment    :     -0.00072      -0.04182      -0.01719
                        -----------------------------------------
Magnitude (a.u.)       :      0.04522
Magnitude (Debye)      :      0.11495

                             ****ORCA TERMINATED NORMALLY****
TOTAL RUN TIME: 0 days 0 hours 0 minutes 7 seconds 221 msec
