                         Program Version 3.0.3 - RELEASE   -
|  1> ! RI PBE def2-SVP def2-SVP/J NBO PAL2
|  2> % maxcore 2000
|  3> % output
|  4>     # printlevel mini
|  5>     print[ P_Basis ] 0
|  6>     print[ P_SCFInfo ] 1
|  7>     print[ P_SCFIterInfo ] 1
|  8>     print[ P_OrbEn ] 0
|  9>     print[ P_Cartesian ] 0
| 10> end
| 11> *xyz 0 1
| 12>  C        1.8701840000     1.1935950000    -0.9929470000
| 13>  O        2.0806360000     0.1212240000    -0.1002080000
| 14>  C        3.0348480000     0.3925720000     0.8722970000
| 15>  O        4.3343590000     0.5009930000     0.3723320000
| 16>  C        4.8384860000    -0.7320760000    -0.1023910000
| 17>  C        6.1872300000    -0.5551820000    -0.6095010000
| 18>  C        7.3016600000    -0.4378540000    -1.0362520000
| 19>  H        1.0834180000     0.8871320000    -1.6813600000
| 20>  H        2.7754610000     1.4322200000    -1.5592420000
| 21>  H        1.5445000000     2.0926470000    -0.4539540000
| 22>  H        2.9622320000    -0.4290040000     1.5959970000
| 23>  H        2.8375240000     1.3530810000     1.3637320000
| 24>  H        4.1967000000    -1.1311070000    -0.8972800000
| 25>  H        4.8477170000    -1.4720170000     0.7119400000
| 26>  H        8.2909560000    -0.3271320000    -1.4128840000
| 27> *
| 28>
| 29>                          ****END OF INPUT****
 Total Charge           Charge          ....    0
 Multiplicity           Mult            ....    1
 Number of Electrons    NEL             ....   54
 Basis Dimension        Dim             ....  138

MULLIKEN ATOMIC CHARGES
-----------------------
   0 C :    0.136107
   1 O :   -0.344123
   2 C :    0.315897
   3 O :   -0.336133
   4 C :    0.221408
   5 C :    0.311130
   6 C :   -0.445528
   7 H :    0.037075
   8 H :    0.024975
   9 H :    0.007843
  10 H :   -0.000626
  11 H :    0.000861
  12 H :    0.037498
  13 H :    0.027441
  14 H :    0.006175
Sum of atomic charges:   -0.0000000

LOEWDIN ATOMIC CHARGES
----------------------
   0 C :    0.050181
   1 O :   -0.142456
   2 C :    0.115861
   3 O :   -0.136787
   4 C :    0.053548
   5 C :   -0.029139
   6 C :   -0.064113
   7 H :    0.024638
   8 H :    0.011192
   9 H :    0.009705
  10 H :    0.003195
  11 H :    0.004238
  12 H :    0.031711
  13 H :    0.031546
  14 H :    0.036680

  Mayer bond orders larger than 0.1
B(  0-C ,  1-O ) :   0.9902 B(  0-C ,  7-H ) :   0.9778 B(  0-C ,  8-H ) :   0.9603
B(  0-C ,  9-H ) :   0.9581 B(  1-O ,  2-C ) :   1.0740 B(  2-C ,  3-O ) :   1.0511
B(  2-C , 10-H ) :   0.9305 B(  2-C , 11-H ) :   0.9319 B(  3-O ,  4-C ) :   1.0120
B(  4-C ,  5-C ) :   1.0195 B(  4-C , 12-H ) :   0.9076 B(  4-C , 13-H ) :   0.9042
B(  5-C ,  6-C ) :   2.3990 B(  6-C , 14-H ) :   1.0886

FINAL SINGLE POINT ENERGY      -345.008563459025

DIPOLE MOMENT
-------------
                                X             Y             Z
Electronic contribution:      3.82305      -1.44668       0.60698
Nuclear contribution   :     -4.02180       1.46015      -0.64613
                        -----------------------------------------
Total Dipole Moment    :     -0.19876       0.01348      -0.03914
                        -----------------------------------------
Magnitude (a.u.)       :      0.20302
Magnitude (Debye)      :      0.51604

                             ****ORCA TERMINATED NORMALLY****
TOTAL RUN TIME: 0 days 0 hours 0 minutes 6 seconds 504 msec
