                         Program Version 3.0.3 - RELEASE   -
|  1> ! RI PBE def2-SVP def2-SVP/J NBO PAL2
|  2> % maxcore 2000
|  3> % output
|  4>     # printlevel mini
|  5>     print[ P_Basis ] 0
|  6>     print[ P_SCFInfo ] 1
|  7>     print[ P_SCFIterInfo ] 1
|  8>     print[ P_OrbEn ] 0
|  9>     print[ P_Cartesian ] 0
| 10> end
| 11> *xyz 0 1
| 12>  O       -0.0202690000     0.0254150000    -1.2728280000
| 13>  C        0.0229530000    -1.0468510000    -0.3325520000
| 14>  C        1.2643400000    -0.6415830000     0.4829590000
| 15>  C        1.2306060000     0.6815630000     0.5111790000
| 16>  C       -0.0306930000     1.0574570000    -0.2876770000
| 17>  C       -1.2438850000     0.6176100000     0.5519910000
| 18>  C       -1.2101520000    -0.7055350000     0.5237780000
| 19>  H        0.0398000000    -2.0147190000    -0.8276880000
| 20>  H        1.9500220000    -1.3226730000     0.9653290000
| 21>  H        1.8812310000     1.3755200000     1.0228780000
| 22>  H       -0.0636980000     2.0451420000    -0.7411090000
| 23>  H       -1.9122640000     1.2774790000     1.0854410000
| 24>  H       -1.8434730000    -1.4207150000     1.0279080000
| 25> *
| 26>
| 27>                          ****END OF INPUT****
 Total Charge           Charge          ....    0
 Multiplicity           Mult            ....    1
 Number of Electrons    NEL             ....   50
 Basis Dimension        Dim             ....  128

MULLIKEN ATOMIC CHARGES
-----------------------
   0 O :   -0.303003
   1 C :    0.128300
   2 C :    0.007426
   3 C :    0.008692
   4 C :    0.128667
   5 C :    0.006726
   6 C :    0.009961
   7 H :    0.006168
   8 H :    0.000308
   9 H :    0.000233
  10 H :    0.006156
  11 H :    0.000628
  12 H :   -0.000261
Sum of atomic charges:   -0.0000000

LOEWDIN ATOMIC CHARGES
----------------------
   0 O :   -0.139296
   1 C :    0.063241
   2 C :   -0.031185
   3 C :   -0.031095
   4 C :    0.063379
   5 C :   -0.031442
   6 C :   -0.030787
   7 H :    0.019614
   8 H :    0.024495
   9 H :    0.024496
  10 H :    0.019637
  11 H :    0.024518
  12 H :    0.024426

  Mayer bond orders larger than 0.1
B(  0-O ,  1-C ) :   0.9926 B(  0-O ,  4-C ) :   0.9916 B(  1-C ,  2-C ) :   0.9264
B(  1-C ,  6-C ) :   0.9259 B(  1-C ,  7-H ) :   0.9579 B(  2-C ,  3-C ) :   1.8467
B(  2-C ,  8-H ) :   1.0063 B(  3-C ,  4-C ) :   0.9263 B(  3-C ,  9-H ) :   1.0063
B(  4-C ,  5-C ) :   0.9257 B(  4-C , 10-H ) :   0.9580 B(  5-C ,  6-C ) :   1.8467
B(  5-C , 11-H ) :   1.0064 B(  6-C , 12-H ) :   1.0064

FINAL SINGLE POINT ENERGY      -306.764161659613

DIPOLE MOMENT
-------------
                                X             Y             Z
Electronic contribution:     -0.02890       0.03562      -1.71562
Nuclear contribution   :      0.04056      -0.04975       2.38127
                        -----------------------------------------
Total Dipole Moment    :      0.01166      -0.01412       0.66565
                        -----------------------------------------
Magnitude (a.u.)       :      0.66590
Magnitude (Debye)      :      1.69259

                             ****ORCA TERMINATED NORMALLY****
TOTAL RUN TIME: 0 days 0 hours 0 minutes 5 seconds 916 msec
