                         Program Version 3.0.3 - RELEASE   -
|  1> ! RI PBE def2-SVP def2-SVP/J NBO PAL2
|  2> % maxcore 2000
|  3> % output
|  4>     # printlevel mini
|  5>     print[ P_Basis ] 0
|  6>     print[ P_SCFInfo ] 1
|  7>     print[ P_SCFIterInfo ] 1
|  8>     print[ P_OrbEn ] 0
|  9>     print[ P_Cartesian ] 0
| 10> end
| 11> *xyz 0 1
| 12>  O       -1.1515620000     0.7841710000     0.7138920000
| 13>  C       -1.0833360000    -0.3659950000    -0.1118540000
| 14>  C       -0.1762940000    -1.4310330000     0.3023630000
| 15>  C        1.1288730000    -1.1770200000     0.5046760000
| 16>  C        1.7188390000     0.0794900000     0.1183820000
| 17>  C        0.9882790000     1.0492710000    -0.4601690000
| 18>  C       -0.4661420000     0.9485040000    -0.5159800000
| 19>  H       -2.0406840000    -0.6463080000    -0.5445230000
| 20>  H       -0.5739110000    -2.4326950000     0.4217320000
| 21>  H        1.7851860000    -1.9661220000     0.8550790000
| 22>  H        2.7955380000     0.1857250000     0.1935300000
| 23>  H        1.4655040000     1.9108460000    -0.9136210000
| 24>  H       -0.9973010000     1.5758850000    -1.2277070000
| 25> *
| 26>
| 27>                          ****END OF INPUT****
 Total Charge           Charge          ....    0
 Multiplicity           Mult            ....    1
 Number of Electrons    NEL             ....   50
 Basis Dimension        Dim             ....  128

MULLIKEN ATOMIC CHARGES
-----------------------
   0 O :   -0.259940
   1 C :    0.097521
   2 C :    0.041982
   3 C :   -0.002946
   4 C :   -0.003734
   5 C :    0.044080
   6 C :    0.090197
   7 H :    0.012079
   8 H :   -0.011970
   9 H :   -0.005803
  10 H :   -0.003859
  11 H :   -0.011532
  12 H :    0.013926
Sum of atomic charges:    0.0000000

LOEWDIN ATOMIC CHARGES
----------------------
   0 O :   -0.130544
   1 C :    0.051274
   2 C :   -0.038099
   3 C :   -0.026049
   4 C :   -0.027177
   5 C :   -0.038165
   6 C :    0.050158
   7 H :    0.017923
   8 H :    0.029897
   9 H :    0.031089
  10 H :    0.031413
  11 H :    0.030169
  12 H :    0.018109

  Mayer bond orders larger than 0.1
B(  0-O ,  1-C ) :   0.9603 B(  0-O ,  6-C ) :   0.9639 B(  1-C ,  2-C ) :   1.0789
B(  1-C ,  6-C ) :   0.9161 B(  1-C ,  7-H ) :   0.9422 B(  2-C ,  3-C ) :   1.6573
B(  2-C ,  5-C ) :   0.1130 B(  2-C ,  8-H ) :   0.9830 B(  3-C ,  4-C ) :   1.1547
B(  3-C ,  9-H ) :   0.9717 B(  4-C ,  5-C ) :   1.6586 B(  4-C , 10-H ) :   0.9738
B(  5-C ,  6-C ) :   1.0749 B(  5-C , 11-H ) :   0.9806 B(  6-C , 12-H ) :   0.9455

FINAL SINGLE POINT ENERGY      -306.797169284760

DIPOLE MOMENT
-------------
                                X             Y             Z
Electronic contribution:     -1.47747       1.02002       1.07550
Nuclear contribution   :      1.70455      -1.29966      -1.62416
                        -----------------------------------------
Total Dipole Moment    :      0.22707      -0.27963      -0.54866
                        -----------------------------------------
Magnitude (a.u.)       :      0.65634
Magnitude (Debye)      :      1.66829

                             ****ORCA TERMINATED NORMALLY****
TOTAL RUN TIME: 0 days 0 hours 0 minutes 6 seconds 78 msec
