                         Program Version 3.0.3 - RELEASE   -
|  1> ! RI PBE def2-SVP def2-SVP/J NBO PAL2
|  2> % maxcore 2000
|  3> % output
|  4>     # printlevel mini
|  5>     print[ P_Basis ] 0
|  6>     print[ P_SCFInfo ] 1
|  7>     print[ P_SCFIterInfo ] 1
|  8>     print[ P_OrbEn ] 0
|  9>     print[ P_Cartesian ] 0
| 10> end
| 11> *xyz 0 1
| 12>  O        0.9233330000    -1.3214090000     0.0002820000
| 13>  C       -0.4346190000    -1.4864350000     0.0003240000
| 14>  C       -1.4354800000    -0.6105670000     0.0000270000
| 15>  C       -1.4121610000     0.8518950000    -0.0004830000
| 16>  C       -0.3207870000     1.6162680000    -0.0002590000
| 17>  C        1.0615620000     1.1383030000     0.0005390000
| 18>  C        1.5425760000    -0.1016520000     0.0007290000
| 19>  H       -0.6463120000    -2.5489260000     0.0006370000
| 20>  H       -2.4149200000    -1.0759110000     0.0001430000
| 21>  H       -2.3815640000     1.3383710000    -0.0010740000
| 22>  H       -0.4466160000     2.6935650000    -0.0006760000
| 23>  H        1.8336560000     1.8996950000     0.0010150000
| 24>  H        2.6134310000    -0.2658760000     0.0013060000
| 25> *
| 26>
| 27>                          ****END OF INPUT****
 Total Charge           Charge          ....    0
 Multiplicity           Mult            ....    1
 Number of Electrons    NEL             ....   50
 Basis Dimension        Dim             ....  128

MULLIKEN ATOMIC CHARGES
-----------------------
   0 O :   -0.224998
   1 C :    0.107559
   2 C :   -0.024770
   3 C :    0.025686
   4 C :    0.017560
   5 C :   -0.027559
   6 C :    0.102955
   7 H :    0.017967
   8 H :   -0.001419
   9 H :   -0.012449
  10 H :   -0.005910
  11 H :    0.005383
  12 H :    0.019997
Sum of atomic charges:   -0.0000000

LOEWDIN ATOMIC CHARGES
----------------------
   0 O :   -0.051246
   1 C :    0.064279
   2 C :   -0.103637
   3 C :   -0.034612
   4 C :   -0.037254
   5 C :   -0.104256
   6 C :    0.063107
   7 H :    0.029542
   8 H :    0.040116
   9 H :    0.030662
  10 H :    0.031778
  11 H :    0.041703
  12 H :    0.029820

  Mayer bond orders larger than 0.1
B(  0-O ,  1-C ) :   1.0715 B(  0-O ,  6-C ) :   1.0723 B(  1-C ,  2-C ) :   1.7899
B(  1-C ,  7-H ) :   0.9635 B(  2-C ,  3-C ) :   1.0567 B(  2-C ,  8-H ) :   0.9356
B(  3-C ,  4-C ) :   1.8042 B(  3-C ,  9-H ) :   0.9558 B(  4-C ,  5-C ) :   1.0564
B(  4-C , 10-H ) :   0.9554 B(  5-C ,  6-C ) :   1.7964 B(  5-C , 11-H ) :   0.9334
B(  6-C , 12-H ) :   0.9617

FINAL SINGLE POINT ENERGY      -306.790247924004

DIPOLE MOMENT
-------------
                                X             Y             Z
Electronic contribution:      1.35712      -1.93337      -0.00010
Nuclear contribution   :     -1.41870       2.02562       0.00029
                        -----------------------------------------
Total Dipole Moment    :     -0.06158       0.09225       0.00019
                        -----------------------------------------
Magnitude (a.u.)       :      0.11092
Magnitude (Debye)      :      0.28193

                             ****ORCA TERMINATED NORMALLY****
TOTAL RUN TIME: 0 days 0 hours 0 minutes 6 seconds 139 msec
