                         Program Version 3.0.3 - RELEASE   -
|  1> ! RI PBE def2-SVP def2-SVP/J NBO PAL2
|  2> % maxcore 2000
|  3> % output
|  4>     # printlevel mini
|  5>     print[ P_Basis ] 0
|  6>     print[ P_SCFInfo ] 1
|  7>     print[ P_SCFIterInfo ] 1
|  8>     print[ P_OrbEn ] 0
|  9>     print[ P_Cartesian ] 0
| 10> end
| 11> *xyz 0 1
| 12>  O        0.9822580000    -0.0107520000    -0.9117070000
| 13>  C        2.0364730000    -0.0687200000    -0.0136590000
| 14>  C        2.4250600000    -1.3499970000     0.7858020000
| 15>  C        3.7617740000    -0.5641030000     0.9027910000
| 16>  C        3.4828620000    -0.0899600000    -0.5543870000
| 17>  C        3.3005330000     0.6594890000     1.6886900000
| 18>  C        2.1628730000     0.9914760000     1.0852770000
| 19>  H        0.1569430000     0.0110310000    -0.4194650000
| 20>  H        2.4974050000    -2.2336490000     0.1471110000
| 21>  H        1.8826450000    -1.5594340000     1.7095630000
| 22>  H        4.6929600000    -1.0502790000     1.1814970000
| 23>  H        3.6396300000    -0.8733600000    -1.2997260000
| 24>  H        3.9142030000     0.8607470000    -0.8696960000
| 25>  H        3.8067840000     1.1219350000     2.5242650000
| 26>  H        1.4729070000     1.8034660000     1.2706450000
| 27> *
| 28>
| 29>                          ****END OF INPUT****
 Total Charge           Charge          ....    0
 Multiplicity           Mult            ....    1
 Number of Electrons    NEL             ....   52
 Basis Dimension        Dim             ....  138

MULLIKEN ATOMIC CHARGES
-----------------------
   0 O :   -0.214763
   1 C :   -0.040898
   2 C :    0.093364
   3 C :   -0.117419
   4 C :    0.113817
   5 C :    0.037585
   6 C :   -0.015707
   7 H :    0.158723
   8 H :    0.015104
   9 H :    0.003418
  10 H :   -0.019781
  11 H :    0.018060
  12 H :    0.010174
  13 H :   -0.016994
  14 H :   -0.024686
Sum of atomic charges:    0.0000000

LOEWDIN ATOMIC CHARGES
----------------------
   0 O :   -0.090134
   1 C :    0.009364
   2 C :   -0.021562
   3 C :   -0.021616
   4 C :   -0.003902
   5 C :   -0.019533
   6 C :   -0.042879
   7 H :    0.074652
   8 H :    0.019136
   9 H :    0.010031
  10 H :    0.011750
  11 H :    0.021462
  12 H :    0.015043
  13 H :    0.019541
  14 H :    0.018648

  Mayer bond orders larger than 0.1
B(  0-O ,  1-C ) :   1.1594 B(  0-O ,  7-H ) :   0.9757 B(  1-C ,  2-C ) :   0.9423
B(  1-C ,  4-C ) :   0.9707 B(  1-C ,  6-C ) :   0.9297 B(  2-C ,  3-C ) :   0.9751
B(  2-C ,  8-H ) :   0.9307 B(  2-C ,  9-H ) :   0.9312 B(  3-C ,  4-C ) :   0.9640
B(  3-C ,  5-C ) :   0.9239 B(  3-C , 10-H ) :   0.9683 B(  4-C , 11-H ) :   0.9324
B(  4-C , 12-H ) :   0.9296 B(  5-C ,  6-C ) :   1.7677 B(  5-C , 13-H ) :   1.0163
B(  6-C , 14-H ) :   1.0196

FINAL SINGLE POINT ENERGY      -307.975837413136

DIPOLE MOMENT
-------------
                                X             Y             Z
Electronic contribution:     -1.77054       1.18420      -0.67016
Nuclear contribution   :      1.61177      -1.23986       1.11536
                        -----------------------------------------
Total Dipole Moment    :     -0.15876      -0.05566       0.44520
                        -----------------------------------------
Magnitude (a.u.)       :      0.47593
Magnitude (Debye)      :      1.20971

                             ****ORCA TERMINATED NORMALLY****
TOTAL RUN TIME: 0 days 0 hours 0 minutes 6 seconds 598 msec
