                         Program Version 3.0.3 - RELEASE   -
|  1> ! RI PBE def2-SVP def2-SVP/J NBO PAL2
|  2> % maxcore 2000
|  3> % output
|  4>     # printlevel mini
|  5>     print[ P_Basis ] 0
|  6>     print[ P_SCFInfo ] 1
|  7>     print[ P_SCFIterInfo ] 1
|  8>     print[ P_OrbEn ] 0
|  9>     print[ P_Cartesian ] 0
| 10> end
| 11> *xyz 0 1
| 12>  O        1.7267390000    -0.4329720000    -0.9667610000
| 13>  C        2.8687830000    -0.0344420000    -0.2765640000
| 14>  C        3.6579100000    -1.0532050000     0.4808640000
| 15>  C        4.2099240000    -0.4501270000    -0.7884460000
| 16>  C        5.1647820000     0.7211510000    -0.6493460000
| 17>  C        4.2556880000     1.9464060000    -0.4625820000
| 18>  C        2.9713120000     1.4143760000     0.1880550000
| 19>  H        1.0444410000    -0.6424970000    -0.3228300000
| 20>  H        3.3167840000    -2.0801400000     0.4169350000
| 21>  H        4.1078510000    -0.7721960000     1.4280120000
| 22>  H        4.2682930000    -1.0994920000    -1.6533090000
| 23>  H        5.8060350000     0.8244550000    -1.5270860000
| 24>  H        5.8273850000     0.5848470000     0.2117650000
| 25>  H        4.0078530000     2.3548500000    -1.4464910000
| 26>  H        4.7291640000     2.7473010000     0.1101630000
| 27>  H        2.0875760000     1.9680510000    -0.1342870000
| 28>  H        3.0196810000     1.4785240000     1.2800980000
| 29> *
| 30>
| 31>                          ****END OF INPUT****
 Total Charge           Charge          ....    0
 Multiplicity           Mult            ....    1
 Number of Electrons    NEL             ....   54
 Basis Dimension        Dim             ....  148

MULLIKEN ATOMIC CHARGES
-----------------------
   0 O :   -0.222154
   1 C :   -0.104367
   2 C :    0.049619
   3 C :   -0.146572
   4 C :    0.082600
   5 C :   -0.012497
   6 C :    0.083966
   7 H :    0.157570
   8 H :    0.022042
   9 H :    0.014294
  10 H :    0.019231
  11 H :    0.013203
  12 H :    0.007610
  13 H :    0.018059
  14 H :    0.006411
  15 H :    0.003247
  16 H :    0.007738
Sum of atomic charges:   -0.0000000

LOEWDIN ATOMIC CHARGES
----------------------
   0 O :   -0.090810
   1 C :    0.002492
   2 C :   -0.050434
   3 C :   -0.042713
   4 C :   -0.033981
   5 C :   -0.033204
   6 C :   -0.045956
   7 H :    0.072692
   8 H :    0.028795
   9 H :    0.018884
  10 H :    0.026592
  11 H :    0.028606
  12 H :    0.022476
  13 H :    0.027393
  14 H :    0.020079
  15 H :    0.026985
  16 H :    0.022102

  Mayer bond orders larger than 0.1
B(  0-O ,  1-C ) :   1.1424 B(  0-O ,  7-H ) :   0.9796 B(  1-C ,  2-C ) :   0.9754
B(  1-C ,  3-C ) :   0.9301 B(  1-C ,  6-C ) :   1.0393 B(  2-C ,  3-C ) :   0.9760
B(  2-C ,  8-H ) :   0.9261 B(  2-C ,  9-H ) :   0.9262 B(  3-C ,  4-C ) :   1.0639
B(  3-C , 10-H ) :   0.9384 B(  4-C ,  5-C ) :   1.1062 B(  4-C , 11-H ) :   0.9367
B(  4-C , 12-H ) :   0.9171 B(  5-C ,  6-C ) :   1.1045 B(  5-C , 13-H ) :   0.9356
B(  5-C , 14-H ) :   0.9346 B(  6-C , 15-H ) :   0.9253 B(  6-C , 16-H ) :   0.9134

FINAL SINGLE POINT ENERGY      -309.218870742401

DIPOLE MOMENT
-------------
                                X             Y             Z
Electronic contribution:     -3.03072      -2.22513      -1.36895
Nuclear contribution   :      2.94846       2.24561       1.82287
                        -----------------------------------------
Total Dipole Moment    :     -0.08225       0.02048       0.45392
                        -----------------------------------------
Magnitude (a.u.)       :      0.46177
Magnitude (Debye)      :      1.17372

                             ****ORCA TERMINATED NORMALLY****
TOTAL RUN TIME: 0 days 0 hours 0 minutes 7 seconds 796 msec
