                         Program Version 3.0.3 - RELEASE   -
|  1> ! RI PBE def2-SVP def2-SVP/J NBO PAL2
|  2> % maxcore 2000
|  3> % output
|  4>     # printlevel mini
|  5>     print[ P_Basis ] 0
|  6>     print[ P_SCFInfo ] 1
|  7>     print[ P_SCFIterInfo ] 1
|  8>     print[ P_OrbEn ] 0
|  9>     print[ P_Cartesian ] 0
| 10> end
| 11> *xyz 0 1
| 12>  O        1.7531120000     0.5063050000     1.0769340000
| 13>  C        2.7096920000     0.0581270000     0.1729970000
| 14>  C        3.3602230000     1.0416900000    -0.7438310000
| 15>  C        4.1525010000     0.4180310000     0.3886450000
| 16>  C        4.9187960000    -0.7979480000     0.0278950000
| 17>  C        4.1126270000    -1.7854980000    -0.3585700000
| 18>  C        2.6639630000    -1.3995770000    -0.2557820000
| 19>  H        0.9722150000     0.7720330000     0.5832720000
| 20>  H        3.0667340000     2.0762140000    -0.6067710000
| 21>  H        3.6064820000     0.7506960000    -1.7591670000
| 22>  H        4.4511910000     1.0559090000     1.2112910000
| 23>  H        6.0007800000    -0.8491780000     0.0557370000
| 24>  H        4.4395620000    -2.7582630000    -0.7057860000
| 25>  H        2.1448250000    -1.9902800000     0.5086310000
| 26>  H        2.1217880000    -1.5457600000    -1.1965940000
| 27> *
| 28>
| 29>                          ****END OF INPUT****
 Total Charge           Charge          ....    0
 Multiplicity           Mult            ....    1
 Number of Electrons    NEL             ....   52
 Basis Dimension        Dim             ....  138

MULLIKEN ATOMIC CHARGES
-----------------------
   0 O :   -0.217127
   1 C :   -0.136053
   2 C :    0.039112
   3 C :   -0.064276
   4 C :    0.051493
   5 C :   -0.126801
   6 C :    0.198191
   7 H :    0.159179
   8 H :    0.025430
   9 H :    0.025266
  10 H :    0.023305
  11 H :   -0.009652
  12 H :   -0.012047
  13 H :    0.025978
  14 H :    0.018002
Sum of atomic charges:    0.0000000

LOEWDIN ATOMIC CHARGES
----------------------
   0 O :   -0.086691
   1 C :    0.008188
   2 C :   -0.043926
   3 C :   -0.040210
   4 C :   -0.030142
   5 C :   -0.037192
   6 C :   -0.040846
   7 H :    0.074509
   8 H :    0.029795
   9 H :    0.024662
  10 H :    0.028821
  11 H :    0.024178
  12 H :    0.019643
  13 H :    0.037915
  14 H :    0.031296

  Mayer bond orders larger than 0.1
B(  0-O ,  1-C ) :   1.1420 B(  0-O ,  7-H ) :   0.9787 B(  1-C ,  2-C ) :   0.9787
B(  1-C ,  3-C ) :   0.9029 B(  1-C ,  6-C ) :   1.0401 B(  2-C ,  3-C ) :   0.9608
B(  2-C ,  8-H ) :   0.9249 B(  2-C ,  9-H ) :   0.9301 B(  3-C ,  4-C ) :   1.0134
B(  3-C , 10-H ) :   0.9478 B(  4-C ,  5-C ) :   1.8173 B(  4-C , 11-H ) :   0.9998
B(  5-C ,  6-C ) :   1.0165 B(  5-C , 12-H ) :   0.9802 B(  6-C , 13-H ) :   0.8969
B(  6-C , 14-H ) :   0.9051

FINAL SINGLE POINT ENERGY      -308.003320946355

DIPOLE MOMENT
-------------
                                X             Y             Z
Electronic contribution:     -0.55681       0.51604       1.78127
Nuclear contribution   :      0.27008      -0.44840      -2.25051
                        -----------------------------------------
Total Dipole Moment    :     -0.28673       0.06764      -0.46924
                        -----------------------------------------
Magnitude (a.u.)       :      0.55405
Magnitude (Debye)      :      1.40829

                             ****ORCA TERMINATED NORMALLY****
TOTAL RUN TIME: 0 days 0 hours 0 minutes 6 seconds 521 msec
