                         Program Version 3.0.3 - RELEASE   -
|  1> ! RI PBE def2-SVP def2-SVP/J NBO PAL2
|  2> % maxcore 2000
|  3> % output
|  4>     # printlevel mini
|  5>     print[ P_Basis ] 0
|  6>     print[ P_SCFInfo ] 1
|  7>     print[ P_SCFIterInfo ] 1
|  8>     print[ P_OrbEn ] 0
|  9>     print[ P_Cartesian ] 0
| 10> end
| 11> *xyz 0 1
| 12>  O        0.9888090000    -0.0296830000    -0.1075990000
| 13>  C        2.3716770000     0.0707590000    -0.0741670000
| 14>  C        3.3054450000    -0.5380350000    -1.1469670000
| 15>  C        4.3644630000    -0.2935360000    -0.0515890000
| 16>  C        3.2620130000    -0.6441810000     0.9696110000
| 17>  C        4.3916060000     1.2369030000     0.0257050000
| 18>  C        2.8676740000     1.5097890000     0.0081700000
| 19>  H        0.7493350000    -0.9585710000    -0.1570230000
| 20>  H        3.4086160000    -0.0157430000    -2.1013690000
| 21>  H        3.1119330000    -1.6014590000    -1.3066790000
| 22>  H        5.3173970000    -0.8189070000    -0.0583540000
| 23>  H        3.3249890000    -0.2202150000     1.9749030000
| 24>  H        3.0643740000    -1.7178700000     1.0140810000
| 25>  H        4.9098640000     1.6829820000    -0.8259820000
| 26>  H        4.8737150000     1.5945550000     0.9381770000
| 27>  H        2.5403450000     2.0922640000    -0.8552840000
| 28>  H        2.5041450000     2.0036270000     0.9114660000
| 29> *
| 30>
| 31>                          ****END OF INPUT****
 Total Charge           Charge          ....    0
 Multiplicity           Mult            ....    1
 Number of Electrons    NEL             ....   54
 Basis Dimension        Dim             ....  148

MULLIKEN ATOMIC CHARGES
-----------------------
   0 O :   -0.206529
   1 C :   -0.173800
   2 C :    0.093416
   3 C :   -0.204496
   4 C :    0.092251
   5 C :    0.118393
   6 C :    0.096970
   7 H :    0.156014
   8 H :    0.006475
   9 H :    0.001301
  10 H :   -0.015790
  11 H :    0.006428
  12 H :    0.002227
  13 H :    0.005490
  14 H :    0.004750
  15 H :    0.008793
  16 H :    0.008107
Sum of atomic charges:   -0.0000000

LOEWDIN ATOMIC CHARGES
----------------------
   0 O :   -0.085255
   1 C :    0.007591
   2 C :   -0.038060
   3 C :   -0.022701
   4 C :   -0.038313
   5 C :   -0.025103
   6 C :   -0.027746
   7 H :    0.071832
   8 H :    0.012264
   9 H :    0.017223
  10 H :    0.010639
  11 H :    0.012295
  12 H :    0.017150
  13 H :    0.021388
  14 H :    0.021281
  15 H :    0.022858
  16 H :    0.022658

  Mayer bond orders larger than 0.1
B(  0-O ,  1-C ) :   1.1703 B(  0-O ,  7-H ) :   0.9727 B(  1-C ,  2-C ) :   0.9514
B(  1-C ,  4-C ) :   0.9512 B(  1-C ,  6-C ) :   1.0792 B(  2-C ,  3-C ) :   0.9785
B(  2-C ,  8-H ) :   0.9328 B(  2-C ,  9-H ) :   0.9289 B(  3-C ,  4-C ) :   0.9783
B(  3-C ,  5-C ) :   1.0622 B(  3-C , 10-H ) :   0.9566 B(  4-C , 11-H ) :   0.9326
B(  4-C , 12-H ) :   0.9296 B(  5-C ,  6-C ) :   1.1051 B(  5-C , 13-H ) :   0.9175
B(  5-C , 14-H ) :   0.9174 B(  6-C , 15-H ) :   0.9125 B(  6-C , 16-H ) :   0.9133

FINAL SINGLE POINT ENERGY      -309.219006914120

DIPOLE MOMENT
-------------
                                X             Y             Z
Electronic contribution:     -3.08755      -0.68609      -0.09998
Nuclear contribution   :      3.30606       0.21970       0.08056
                        -----------------------------------------
Total Dipole Moment    :      0.21851      -0.46639      -0.01942
                        -----------------------------------------
Magnitude (a.u.)       :      0.51540
Magnitude (Debye)      :      1.31005

                             ****ORCA TERMINATED NORMALLY****
TOTAL RUN TIME: 0 days 0 hours 0 minutes 7 seconds 372 msec
