                         Program Version 3.0.3 - RELEASE   -
|  1> ! RI PBE def2-SVP def2-SVP/J NBO PAL2
|  2> % maxcore 2000
|  3> % output
|  4>     # printlevel mini
|  5>     print[ P_Basis ] 0
|  6>     print[ P_SCFInfo ] 1
|  7>     print[ P_SCFIterInfo ] 1
|  8>     print[ P_OrbEn ] 0
|  9>     print[ P_Cartesian ] 0
| 10> end
| 11> *xyz 0 1
| 12>  O        1.5301160000    -0.4665650000    -0.8623790000
| 13>  C        2.7167670000    -0.0694990000    -0.2602740000
| 14>  C        3.5941150000    -1.0871670000     0.4137850000
| 15>  C        4.0177670000    -0.4348950000    -0.8749890000
| 16>  O        4.9078740000     0.6329880000    -0.7639430000
| 17>  C        4.1378820000     1.8149600000    -0.5610470000
| 18>  C        2.8749480000     1.3794680000     0.1838280000
| 19>  H        0.9125630000    -0.7222100000    -0.1711890000
| 20>  H        3.2782230000    -2.1221940000     0.3469870000
| 21>  H        4.1216510000    -0.8059680000     1.3177640000
| 22>  H        4.0816280000    -1.0197850000    -1.7856850000
| 23>  H        3.8757150000     2.2552490000    -1.5321100000
| 24>  H        4.7576390000     2.5256680000    -0.0120460000
| 25>  H        2.0004910000     1.9563290000    -0.1204320000
| 26>  H        2.9905010000     1.4681120000     1.2674290000
| 27> *
| 28>
| 29>                          ****END OF INPUT****
 Total Charge           Charge          ....    0
 Multiplicity           Mult            ....    1
 Number of Electrons    NEL             ....   54
 Basis Dimension        Dim             ....  138

MULLIKEN ATOMIC CHARGES
-----------------------
   0 O :   -0.212801
   1 C :   -0.141488
   2 C :    0.041922
   3 C :    0.093711
   4 O :   -0.323940
   5 C :    0.204603
   6 C :    0.052974
   7 H :    0.160807
   8 H :    0.027716
   9 H :    0.018969
  10 H :    0.024559
  11 H :    0.009813
  12 H :    0.015003
  13 H :    0.011778
  14 H :    0.016373
Sum of atomic charges:   -0.0000000

LOEWDIN ATOMIC CHARGES
----------------------
   0 O :   -0.085997
   1 C :   -0.012600
   2 C :   -0.061625
   3 C :    0.042459
   4 O :   -0.141590
   5 C :    0.077335
   6 C :   -0.056377
   7 H :    0.075013
   8 H :    0.031871
   9 H :    0.026610
  10 H :    0.019184
  11 H :    0.009947
  12 H :    0.017684
  13 H :    0.032358
  14 H :    0.025730

  Mayer bond orders larger than 0.1
B(  0-O ,  1-C ) :   1.1500 B(  0-O ,  7-H ) :   0.9771 B(  1-C ,  2-C ) :   0.9534
B(  1-C ,  3-C ) :   0.9248 B(  1-C ,  6-C ) :   1.0614 B(  2-C ,  3-C ) :   0.9683
B(  2-C ,  8-H ) :   0.9248 B(  2-C ,  9-H ) :   0.9107 B(  3-C ,  4-O ) :   1.0668
B(  3-C , 10-H ) :   0.9376 B(  4-O ,  5-C ) :   0.9902 B(  5-C ,  6-C ) :   1.1078
B(  5-C , 11-H ) :   0.9311 B(  5-C , 12-H ) :   0.9450 B(  6-C , 13-H ) :   0.9169
B(  6-C , 14-H ) :   0.9064

FINAL SINGLE POINT ENERGY      -345.065523720254

DIPOLE MOMENT
-------------
                                X             Y             Z
Electronic contribution:      0.27974      -1.34882      -1.75955
Nuclear contribution   :     -0.89704       1.40157       2.33304
                        -----------------------------------------
Total Dipole Moment    :     -0.61730       0.05276       0.57349
                        -----------------------------------------
Magnitude (a.u.)       :      0.84424
Magnitude (Debye)      :      2.14588

                             ****ORCA TERMINATED NORMALLY****
TOTAL RUN TIME: 0 days 0 hours 0 minutes 6 seconds 960 msec
