                         Program Version 3.0.3 - RELEASE   -
|  1> ! RI PBE def2-SVP def2-SVP/J NBO PAL2
|  2> % maxcore 2000
|  3> % output
|  4>     # printlevel mini
|  5>     print[ P_Basis ] 0
|  6>     print[ P_SCFInfo ] 1
|  7>     print[ P_SCFIterInfo ] 1
|  8>     print[ P_OrbEn ] 0
|  9>     print[ P_Cartesian ] 0
| 10> end
| 11> *xyz 0 1
| 12>  O        1.6230440000    -0.3164250000    -0.9392770000
| 13>  C        2.7720630000    -0.0417730000    -0.2138900000
| 14>  C        3.5345590000    -1.1252950000     0.4771800000
| 15>  C        4.1140460000    -0.4378510000    -0.7318080000
| 16>  C        5.0164750000     0.7351560000    -0.4606120000
| 17>  O        4.3470510000     1.5064880000     0.5273620000
| 18>  C        2.9558300000     1.3551810000     0.3358030000
| 19>  H        0.9270290000    -0.5620810000    -0.3235610000
| 20>  H        3.1769700000    -2.1356090000     0.3210250000
| 21>  H        3.9672400000    -0.9207170000     1.4507960000
| 22>  H        4.1974400000    -0.9890630000    -1.6592800000
| 23>  H        5.1644520000     1.3179740000    -1.3812160000
| 24>  H        5.9957940000     0.4707560000    -0.0539220000
| 25>  H        2.5599840000     2.0713500000    -0.3997060000
| 26>  H        2.4698140000     1.5327300000     1.2996750000
| 27> *
| 28>
| 29>                          ****END OF INPUT****
 Total Charge           Charge          ....    0
 Multiplicity           Mult            ....    1
 Number of Electrons    NEL             ....   54
 Basis Dimension        Dim             ....  138

MULLIKEN ATOMIC CHARGES
-----------------------
   0 O :   -0.214330
   1 C :   -0.161717
   2 C :    0.042369
   3 C :   -0.183558
   4 C :    0.300640
   5 O :   -0.365141
   6 C :    0.317749
   7 H :    0.163542
   8 H :    0.027493
   9 H :    0.026724
  10 H :    0.024681
  11 H :    0.003529
  12 H :    0.014389
  13 H :   -0.001872
  14 H :    0.005503
Sum of atomic charges:    0.0000000

LOEWDIN ATOMIC CHARGES
----------------------
   0 O :   -0.082244
   1 C :   -0.018507
   2 C :   -0.050023
   3 C :   -0.058012
   4 C :    0.077695
   5 O :   -0.154962
   6 C :    0.062324
   7 H :    0.077914
   8 H :    0.032031
   9 H :    0.027449
  10 H :    0.030974
  11 H :    0.010469
  12 H :    0.019412
  13 H :    0.009134
  14 H :    0.016345

  Mayer bond orders larger than 0.1
B(  0-O ,  1-C ) :   1.1383 B(  0-O ,  7-H ) :   0.9783 B(  1-C ,  2-C ) :   0.9589
B(  1-C ,  3-C ) :   0.9327 B(  1-C ,  6-C ) :   1.0366 B(  2-C ,  3-C ) :   0.9678
B(  2-C ,  8-H ) :   0.9305 B(  2-C ,  9-H ) :   0.9226 B(  3-C ,  4-C ) :   1.0625
B(  3-C , 10-H ) :   0.9346 B(  4-C ,  5-O ) :   1.0023 B(  4-C , 11-H ) :   0.9219
B(  4-C , 12-H ) :   0.9335 B(  5-O ,  6-C ) :   1.0110 B(  6-C , 13-H ) :   0.9057
B(  6-C , 14-H ) :   0.9277

FINAL SINGLE POINT ENERGY      -345.071793349247

DIPOLE MOMENT
-------------
                                X             Y             Z
Electronic contribution:     -1.16589       0.73826      -0.25924
Nuclear contribution   :      0.81323      -1.17697       0.38280
                        -----------------------------------------
Total Dipole Moment    :     -0.35266      -0.43871       0.12356
                        -----------------------------------------
Magnitude (a.u.)       :      0.57628
Magnitude (Debye)      :      1.46478

                             ****ORCA TERMINATED NORMALLY****
TOTAL RUN TIME: 0 days 0 hours 0 minutes 6 seconds 994 msec
