                         Program Version 3.0.3 - RELEASE   -
|  1> ! RI PBE def2-SVP def2-SVP/J NBO PAL2
|  2> % maxcore 2000
|  3> % output
|  4>     # printlevel mini
|  5>     print[ P_Basis ] 0
|  6>     print[ P_SCFInfo ] 1
|  7>     print[ P_SCFIterInfo ] 1
|  8>     print[ P_OrbEn ] 0
|  9>     print[ P_Cartesian ] 0
| 10> end
| 11> *xyz 0 1
| 12>  O        1.0963130000    -0.1329850000    -0.0962950000
| 13>  C        2.4668060000     0.0004550000     0.0159900000
| 14>  C        3.5063450000    -0.5679590000    -0.9852700000
| 15>  C        4.4393880000    -0.1704260000     0.1684230000
| 16>  C        3.3375740000    -0.6222050000     1.1386970000
| 17>  O        4.3449800000     1.2565630000     0.1973730000
| 18>  C        2.9305190000     1.4497110000     0.0898420000
| 19>  H        0.8768470000    -1.0669320000    -0.1398820000
| 20>  H        3.6404840000    -0.0616320000    -1.9422440000
| 21>  H        3.4215700000    -1.6487110000    -1.1093340000
| 22>  H        5.4763900000    -0.4849170000     0.2427550000
| 23>  H        3.2385720000    -1.7074920000     1.1928880000
| 24>  H        3.3169330000    -0.1655690000     2.1292570000
| 25>  H        2.6828120000     2.0167070000    -0.8123200000
| 26>  H        2.5411870000     1.9712920000     0.9691090000
| 27> *
| 28>
| 29>                          ****END OF INPUT****
 Total Charge           Charge          ....    0
 Multiplicity           Mult            ....    1
 Number of Electrons    NEL             ....   54
 Basis Dimension        Dim             ....  138

MULLIKEN ATOMIC CHARGES
-----------------------
   0 O :   -0.203850
   1 C :   -0.218925
   2 C :    0.080160
   3 C :    0.055138
   4 C :    0.079481
   5 O :   -0.329354
   6 C :    0.290215
   7 H :    0.162737
   8 H :    0.017025
   9 H :    0.012339
  10 H :   -0.002777
  11 H :    0.013320
  12 H :    0.017820
  13 H :    0.013366
  14 H :    0.013306
Sum of atomic charges:   -0.0000000

LOEWDIN ATOMIC CHARGES
----------------------
   0 O :   -0.078380
   1 C :   -0.010124
   2 C :   -0.052658
   3 C :    0.075727
   4 C :   -0.052777
   5 O :   -0.161838
   6 C :    0.079994
   7 H :    0.076933
   8 H :    0.019500
   9 H :    0.021908
  10 H :    0.011568
  11 H :    0.021925
  12 H :    0.019751
  13 H :    0.014298
  14 H :    0.014172

  Mayer bond orders larger than 0.1
B(  0-O ,  1-C ) :   1.1734 B(  0-O ,  7-H ) :   0.9723 B(  1-C ,  2-C ) :   0.9299
B(  1-C ,  4-C ) :   0.9286 B(  1-C ,  6-C ) :   1.0178 B(  2-C ,  3-C ) :   0.9871
B(  2-C ,  8-H ) :   0.9182 B(  2-C ,  9-H ) :   0.9318 B(  3-C ,  4-C ) :   0.9868
B(  3-C ,  5-O ) :   1.0165 B(  3-C , 10-H ) :   0.9513 B(  4-C , 11-H ) :   0.9324
B(  4-C , 12-H ) :   0.9176 B(  5-O ,  6-C ) :   0.9929 B(  6-C , 13-H ) :   0.9334
B(  6-C , 14-H ) :   0.9344

FINAL SINGLE POINT ENERGY      -345.062619993027

DIPOLE MOMENT
-------------
                                X             Y             Z
Electronic contribution:     -0.42043       1.48669       0.00461
Nuclear contribution   :      0.17553      -2.40656      -0.04960
                        -----------------------------------------
Total Dipole Moment    :     -0.24490      -0.91987      -0.04500
                        -----------------------------------------
Magnitude (a.u.)       :      0.95298
Magnitude (Debye)      :      2.42227

                             ****ORCA TERMINATED NORMALLY****
TOTAL RUN TIME: 0 days 0 hours 0 minutes 7 seconds 90 msec
