                         Program Version 3.0.3 - RELEASE   -
|  1> ! RI PBE def2-SVP def2-SVP/J NBO PAL2
|  2> % maxcore 2000
|  3> % output
|  4>     # printlevel mini
|  5>     print[ P_Basis ] 0
|  6>     print[ P_SCFInfo ] 1
|  7>     print[ P_SCFIterInfo ] 1
|  8>     print[ P_OrbEn ] 0
|  9>     print[ P_Cartesian ] 0
| 10> end
| 11> *xyz 0 1
| 12>  O        1.2466090000    -0.0722260000    -0.6713030000
| 13>  C        2.3264610000     0.1689370000    -0.2588120000
| 14>  C        3.4465020000    -0.5438280000     0.5840550000
| 15>  C        3.5988880000     0.8559430000     1.2311000000
| 16>  C        3.3107960000     1.3935840000    -0.1933990000
| 17>  C        4.4261860000     0.7511300000    -0.9800880000
| 18>  C        4.5132600000    -0.4917330000    -0.4813250000
| 19>  H        3.2828710000    -1.4543870000     1.1531190000
| 20>  H        4.5924760000     1.0828410000     1.6231020000
| 21>  H        2.8110210000     1.0899710000     1.9518280000
| 22>  H        3.0116990000     2.4170150000    -0.4004170000
| 23>  H        4.9253670000     1.1764390000    -1.8386410000
| 24>  H        5.1007520000    -1.3269840000    -0.8340180000
| 25> *
| 26>
| 27>                          ****END OF INPUT****
 Total Charge           Charge          ....    0
 Multiplicity           Mult            ....    1
 Number of Electrons    NEL             ....   50
 Basis Dimension        Dim             ....  128

MULLIKEN ATOMIC CHARGES
-----------------------
   0 O :   -0.084600
   1 C :    0.096704
   2 C :   -0.122622
   3 C :    0.147808
   4 C :   -0.124012
   5 C :    0.022094
   6 C :    0.018209
   7 H :    0.001386
   8 H :    0.011232
   9 H :    0.033352
  10 H :    0.000320
  11 H :   -0.000168
  12 H :    0.000297
Sum of atomic charges:    0.0000000

LOEWDIN ATOMIC CHARGES
----------------------
   0 O :   -0.077392
   1 C :    0.083290
   2 C :   -0.051692
   3 C :    0.002364
   4 C :   -0.051453
   5 C :   -0.024325
   6 C :   -0.024645
   7 H :    0.020115
   8 H :    0.025484
   9 H :    0.027649
  10 H :    0.020022
  11 H :    0.025247
  12 H :    0.025335

  Mayer bond orders larger than 0.1
B(  0-O ,  1-C ) :   2.3074 B(  1-C ,  2-C ) :   0.7816 B(  1-C ,  4-C ) :   0.7802
B(  2-C ,  3-C ) :   0.9679 B(  2-C ,  6-C ) :   0.9484 B(  2-C ,  7-H ) :   0.9766
B(  3-C ,  4-C ) :   0.9684 B(  3-C ,  8-H ) :   0.9053 B(  3-C ,  9-H ) :   0.9426
B(  4-C ,  5-C ) :   0.9479 B(  4-C , 10-H ) :   0.9770 B(  5-C ,  6-C ) :   1.6899
B(  5-C , 11-H ) :   1.0158 B(  6-C , 12-H ) :   1.0152

FINAL SINGLE POINT ENERGY      -306.790465507409

DIPOLE MOMENT
-------------
                                X             Y             Z
Electronic contribution:     -3.35541      -0.96862      -1.83444
Nuclear contribution   :      4.07168       1.15104       2.15769
                        -----------------------------------------
Total Dipole Moment    :      0.71627       0.18242       0.32325
                        -----------------------------------------
Magnitude (a.u.)       :      0.80673
Magnitude (Debye)      :      2.05054

                             ****ORCA TERMINATED NORMALLY****
TOTAL RUN TIME: 0 days 0 hours 0 minutes 6 seconds 563 msec
