                         Program Version 3.0.3 - RELEASE   -
|  1> ! RI PBE def2-SVP def2-SVP/J NBO PAL2
|  2> % maxcore 2000
|  3> % output
|  4>     # printlevel mini
|  5>     print[ P_Basis ] 0
|  6>     print[ P_SCFInfo ] 1
|  7>     print[ P_SCFIterInfo ] 1
|  8>     print[ P_OrbEn ] 0
|  9>     print[ P_Cartesian ] 0
| 10> end
| 11> *xyz 0 1
| 12>  O        1.0830220000    -0.1749990000    -0.4325750000
| 13>  C        2.3594730000     0.2466390000    -0.0726890000
| 14>  C        3.6448120000    -0.4879650000    -0.5861420000
| 15>  C        4.3303690000     0.8875850000    -0.3553170000
| 16>  C        2.9660870000     1.4124390000    -0.8887300000
| 17>  C        2.9770550000     0.8086340000    -2.2898170000
| 18>  C        3.4222810000    -0.4291270000    -2.0909190000
| 19>  H        0.7962950000    -0.8523070000     0.1842160000
| 20>  H        2.4227200000     0.4391050000     1.0064460000
| 21>  H        4.0145650000    -1.4093190000    -0.1378200000
| 22>  H        5.2041400000     1.1012570000    -0.9696250000
| 23>  H        4.5147290000     1.1229000000     0.6965440000
| 24>  H        2.6374860000     2.4419290000    -0.7578900000
| 25>  H        2.6648230000     1.2956010000    -3.2018680000
| 26>  H        3.5703350000    -1.2326640000    -2.7975140000
| 27> *
| 28>
| 29>                          ****END OF INPUT****
 Total Charge           Charge          ....    0
 Multiplicity           Mult            ....    1
 Number of Electrons    NEL             ....   52
 Basis Dimension        Dim             ....  138

MULLIKEN ATOMIC CHARGES
-----------------------
   0 O :   -0.208369
   1 C :    0.110091
   2 C :   -0.089384
   3 C :    0.091695
   4 C :   -0.078220
   5 C :    0.041352
   6 C :    0.027833
   7 H :    0.157473
   8 H :    0.001059
   9 H :   -0.024792
  10 H :    0.011434
  11 H :    0.013965
  12 H :   -0.018457
  13 H :   -0.017948
  14 H :   -0.017732
Sum of atomic charges:    0.0000000

LOEWDIN ATOMIC CHARGES
----------------------
   0 O :   -0.096382
   1 C :    0.052790
   2 C :   -0.046847
   3 C :   -0.002154
   4 C :   -0.029574
   5 C :   -0.019561
   6 C :   -0.024867
   7 H :    0.074390
   8 H :    0.003927
   9 H :    0.005458
  10 H :    0.017820
  11 H :    0.016422
  12 H :    0.010005
  13 H :    0.019663
  14 H :    0.018911

  Mayer bond orders larger than 0.1
B(  0-O ,  1-C ) :   1.1895 B(  0-O ,  7-H ) :   0.9776 B(  1-C ,  2-C ) :   0.8920
B(  1-C ,  4-C ) :   0.9360 B(  1-C ,  8-H ) :   0.9469 B(  2-C ,  3-C ) :   0.9781
B(  2-C ,  6-C ) :   0.9261 B(  2-C ,  9-H ) :   0.9588 B(  3-C ,  4-C ) :   0.9755
B(  3-C , 10-H ) :   0.9296 B(  3-C , 11-H ) :   0.9391 B(  4-C ,  5-C ) :   0.9337
B(  4-C , 12-H ) :   0.9589 B(  5-C ,  6-C ) :   1.7962 B(  5-C , 13-H ) :   1.0139
B(  6-C , 14-H ) :   1.0133

FINAL SINGLE POINT ENERGY      -307.973324744275

DIPOLE MOMENT
-------------
                                X             Y             Z
Electronic contribution:     -2.26077      -0.69203      -0.75935
Nuclear contribution   :      2.34186       0.42306       1.30266
                        -----------------------------------------
Total Dipole Moment    :      0.08109      -0.26897       0.54330
                        -----------------------------------------
Magnitude (a.u.)       :      0.61163
Magnitude (Debye)      :      1.55465

                             ****ORCA TERMINATED NORMALLY****
TOTAL RUN TIME: 0 days 0 hours 0 minutes 7 seconds 39 msec
