                         Program Version 3.0.3 - RELEASE   -
|  1> ! RI PBE def2-SVP def2-SVP/J NBO PAL2
|  2> % maxcore 2000
|  3> % output
|  4>     # printlevel mini
|  5>     print[ P_Basis ] 0
|  6>     print[ P_SCFInfo ] 1
|  7>     print[ P_SCFIterInfo ] 1
|  8>     print[ P_OrbEn ] 0
|  9>     print[ P_Cartesian ] 0
| 10> end
| 11> *xyz 0 1
| 12>  O        1.1828340000    -0.0036260000     0.0452200000
| 13>  C        2.5830280000     0.0725910000    -0.0283080000
| 14>  C        3.1549680000     1.1167490000    -1.0210690000
| 15>  C        2.7657090000     0.1168080000    -2.1330070000
| 16>  C        3.1508220000    -0.9244190000    -1.0561480000
| 17>  C        4.6510160000    -0.6873270000    -0.9030020000
| 18>  C        4.6543880000     0.8688380000    -0.8701850000
| 19>  H        0.8605240000     0.7855740000     0.4875050000
| 20>  H        3.0314100000     0.0536580000     0.9754050000
| 21>  H        2.8088180000     2.1516220000    -1.0209620000
| 22>  H        3.3481150000     0.1329040000    -3.0576410000
| 23>  H        1.6990370000     0.1195150000    -2.3450810000
| 24>  H        2.7927320000    -1.9528140000    -1.0872790000
| 25>  H        5.2178480000    -1.0924500000    -1.7434710000
| 26>  H        5.0509610000    -1.1253870000     0.0145270000
| 27>  H        5.2301570000     1.3075870000    -1.6875820000
| 28>  H        5.0496330000     1.2648570000     0.0686780000
| 29> *
| 30>
| 31>                          ****END OF INPUT****
 Total Charge           Charge          ....    0
 Multiplicity           Mult            ....    1
 Number of Electrons    NEL             ....   54
 Basis Dimension        Dim             ....  148

MULLIKEN ATOMIC CHARGES
-----------------------
   0 O :   -0.235700
   1 C :    0.109792
   2 C :   -0.186692
   3 C :    0.099722
   4 C :   -0.167282
   5 C :    0.097458
   6 C :    0.096014
   7 H :    0.158557
   8 H :   -0.006442
   9 H :   -0.017203
  10 H :    0.004513
  11 H :    0.024786
  12 H :   -0.006823
  13 H :    0.008225
  14 H :    0.008175
  15 H :    0.008081
  16 H :    0.004819
Sum of atomic charges:   -0.0000000

LOEWDIN ATOMIC CHARGES
----------------------
   0 O :   -0.102033
   1 C :    0.050769
   2 C :   -0.042915
   3 C :   -0.021967
   4 C :   -0.025778
   5 C :   -0.028817
   6 C :   -0.030087
   7 H :    0.072363
   8 H :   -0.006342
   9 H :    0.005827
  10 H :    0.010707
  11 H :    0.022714
  12 H :    0.012791
  13 H :    0.021690
  14 H :    0.020521
  15 H :    0.021339
  16 H :    0.019217

  Mayer bond orders larger than 0.1
B(  0-O ,  1-C ) :   1.1348 B(  0-O ,  7-H ) :   0.9805 B(  1-C ,  2-C ) :   0.9258
B(  1-C ,  4-C ) :   0.9431 B(  1-C ,  8-H ) :   0.9450 B(  2-C ,  3-C ) :   0.9890
B(  2-C ,  6-C ) :   1.0646 B(  2-C ,  9-H ) :   0.9528 B(  3-C ,  4-C ) :   0.9939
B(  3-C , 10-H ) :   0.9434 B(  3-C , 11-H ) :   0.9304 B(  4-C ,  5-C ) :   1.0682
B(  4-C , 12-H ) :   0.9544 B(  5-C ,  6-C ) :   1.0761 B(  5-C , 13-H ) :   0.9194
B(  5-C , 14-H ) :   0.9224 B(  6-C , 15-H ) :   0.9166 B(  6-C , 16-H ) :   0.9223

FINAL SINGLE POINT ENERGY      -309.210936326598

DIPOLE MOMENT
-------------
                                X             Y             Z
Electronic contribution:     -3.47892      -0.29332       1.27845
Nuclear contribution   :      3.63628       0.74240      -1.06365
                        -----------------------------------------
Total Dipole Moment    :      0.15736       0.44908       0.21480
                        -----------------------------------------
Magnitude (a.u.)       :      0.52209
Magnitude (Debye)      :      1.32704

                             ****ORCA TERMINATED NORMALLY****
TOTAL RUN TIME: 0 days 0 hours 0 minutes 7 seconds 364 msec
