                         Program Version 3.0.3 - RELEASE   -
|  1> ! RI PBE def2-SVP def2-SVP/J NBO PAL2
|  2> % maxcore 2000
|  3> % output
|  4>     # printlevel mini
|  5>     print[ P_Basis ] 0
|  6>     print[ P_SCFInfo ] 1
|  7>     print[ P_SCFIterInfo ] 1
|  8>     print[ P_OrbEn ] 0
|  9>     print[ P_Cartesian ] 0
| 10> end
| 11> *xyz 0 1
| 12>  O        1.2136310000     0.0304630000     0.1654370000
| 13>  C        2.4058300000     0.0241440000     0.1833190000
| 14>  C        3.5172160000     1.0700010000     0.1132940000
| 15>  C        4.1456140000     0.0519680000    -0.8798350000
| 16>  C        3.5071790000    -1.0251280000     0.0420370000
| 17>  C        4.2792150000    -0.8047280000     1.3473890000
| 18>  C        4.2866890000     0.7540440000     1.4004010000
| 19>  H        3.3250110000     2.1083170000    -0.1442830000
| 20>  H        5.2360170000     0.0486720000    -0.9365380000
| 21>  H        3.7010620000     0.0879170000    -1.8741680000
| 22>  H        3.3051280000    -2.0416570000    -0.2854280000
| 23>  H        5.2860470000    -1.2228310000     1.2922220000
| 24>  H        3.7750440000    -1.2511720000     2.2061930000
| 25>  H        5.2974970000     1.1652680000     1.3734340000
| 26>  H        3.7865400000     1.1459200000     2.2877160000
| 27> *
| 28>
| 29>                          ****END OF INPUT****
 Total Charge           Charge          ....    0
 Multiplicity           Mult            ....    1
 Number of Electrons    NEL             ....   52
 Basis Dimension        Dim             ....  138

MULLIKEN ATOMIC CHARGES
-----------------------
   0 O :   -0.110618
   1 C :    0.117601
   2 C :   -0.223237
   3 C :    0.095930
   4 C :   -0.222388
   5 C :    0.097416
   6 C :    0.099539
   7 H :    0.007001
   8 H :    0.015484
   9 H :    0.039414
  10 H :    0.006480
  11 H :    0.016967
  12 H :    0.022666
  13 H :    0.016145
  14 H :    0.021599
Sum of atomic charges:   -0.0000000

LOEWDIN ATOMIC CHARGES
----------------------
   0 O :   -0.103388
   1 C :    0.062219
   2 C :   -0.050359
   3 C :   -0.011380
   4 C :   -0.050295
   5 C :   -0.021942
   6 C :   -0.021685
   7 H :    0.019701
   8 H :    0.023636
   9 H :    0.030657
  10 H :    0.019597
  11 H :    0.024263
  12 H :    0.027552
  13 H :    0.024116
  14 H :    0.027308

  Mayer bond orders larger than 0.1
B(  0-O ,  1-C ) :   2.2966 B(  1-C ,  2-C ) :   0.8321 B(  1-C ,  4-C ) :   0.8320
B(  2-C ,  3-C ) :   0.9533 B(  2-C ,  6-C ) :   1.0572 B(  2-C ,  7-H ) :   0.9712
B(  3-C ,  4-C ) :   0.9543 B(  3-C ,  8-H ) :   0.9124 B(  3-C ,  9-H ) :   0.9486
B(  4-C ,  5-C ) :   1.0572 B(  4-C , 10-H ) :   0.9706 B(  5-C ,  6-C ) :   1.0711
B(  5-C , 11-H ) :   0.9207 B(  5-C , 12-H ) :   0.9247 B(  6-C , 13-H ) :   0.9205
B(  6-C , 14-H ) :   0.9247

FINAL SINGLE POINT ENERGY      -308.020964381369

DIPOLE MOMENT
-------------
                                X             Y             Z
Electronic contribution:     -5.59876       0.06255      -1.06347
Nuclear contribution   :      6.66375      -0.06899       1.08981
                        -----------------------------------------
Total Dipole Moment    :      1.06498      -0.00644       0.02634
                        -----------------------------------------
Magnitude (a.u.)       :      1.06533
Magnitude (Debye)      :      2.70785

                             ****ORCA TERMINATED NORMALLY****
TOTAL RUN TIME: 0 days 0 hours 0 minutes 7 seconds 98 msec
