                         Program Version 3.0.3 - RELEASE   -
|  1> ! RI PBE def2-SVP def2-SVP/J NBO PAL2
|  2> % maxcore 2000
|  3> % output
|  4>     # printlevel mini
|  5>     print[ P_Basis ] 0
|  6>     print[ P_SCFInfo ] 1
|  7>     print[ P_SCFIterInfo ] 1
|  8>     print[ P_OrbEn ] 0
|  9>     print[ P_Cartesian ] 0
| 10> end
| 11> *xyz 0 1
| 12>  O        1.1929690000     0.1340060000     0.1966210000
| 13>  C        2.5823170000     0.0439040000     0.1181560000
| 14>  C        3.1543350000    -0.9162840000    -0.9440390000
| 15>  C        4.6646820000    -0.7298560000    -0.7842090000
| 16>  C        4.6664710000     0.8238840000    -0.7687370000
| 17>  C        3.1568040000     1.0181000000    -0.9155550000
| 18>  O        2.8253020000     0.0637670000    -1.9576620000
| 19>  H        0.8497600000    -0.6821460000     0.5685150000
| 20>  H        3.0527920000     0.0275530000     1.1105300000
| 21>  H        2.7497200000    -1.9114700000    -1.1293720000
| 22>  H        5.2075550000    -1.1456290000    -1.6328290000
| 23>  H        5.0556510000    -1.1745240000     0.1335180000
| 24>  H        5.2023140000     1.2539510000    -1.6144630000
| 25>  H        5.0651480000     1.2507100000     0.1536790000
| 26>  H        2.7436610000     2.0138430000    -1.0658730000
| 27> *
| 28>
| 29>                          ****END OF INPUT****
 Total Charge           Charge          ....    0
 Multiplicity           Mult            ....    1
 Number of Electrons    NEL             ....   54
 Basis Dimension        Dim             ....  138

MULLIKEN ATOMIC CHARGES
-----------------------
   0 O :   -0.230786
   1 C :    0.063300
   2 C :    0.032168
   3 C :    0.099157
   4 C :    0.105811
   5 C :    0.038429
   6 O :   -0.323694
   7 H :    0.160746
   8 H :   -0.002317
   9 H :   -0.006375
  10 H :    0.019907
  11 H :    0.007575
  12 H :    0.020920
  13 H :    0.010219
  14 H :    0.004940
Sum of atomic charges:   -0.0000000

LOEWDIN ATOMIC CHARGES
----------------------
   0 O :   -0.092309
   1 C :    0.026135
   2 C :    0.054170
   3 C :   -0.043813
   4 C :   -0.042079
   5 C :    0.072488
   6 O :   -0.169637
   7 H :    0.074388
   8 H :   -0.004090
   9 H :    0.007828
  10 H :    0.027697
  11 H :    0.022468
  12 H :    0.028281
  13 H :    0.023776
  14 H :    0.014698

  Mayer bond orders larger than 0.1
B(  0-O ,  1-C ) :   1.1351 B(  0-O ,  7-H ) :   0.9796 B(  1-C ,  2-C ) :   0.9437
B(  1-C ,  5-C ) :   0.9660 B(  1-C ,  8-H ) :   0.9338 B(  2-C ,  3-C ) :   1.0428
B(  2-C ,  6-O ) :   0.9872 B(  2-C ,  9-H ) :   0.9563 B(  3-C ,  4-C ) :   1.1028
B(  3-C , 10-H ) :   0.9053 B(  3-C , 11-H ) :   0.9100 B(  4-C ,  5-C ) :   1.0439
B(  4-C , 12-H ) :   0.9083 B(  4-C , 13-H ) :   0.9105 B(  5-C ,  6-O ) :   0.9763
B(  5-C , 14-H ) :   0.9612

FINAL SINGLE POINT ENERGY      -345.055881470329

DIPOLE MOMENT
-------------
                                X             Y             Z
Electronic contribution:     -4.19169       0.28463      -1.30514
Nuclear contribution   :      4.55255      -0.76902       2.07482
                        -----------------------------------------
Total Dipole Moment    :      0.36086      -0.48439       0.76968
                        -----------------------------------------
Magnitude (a.u.)       :      0.97840
Magnitude (Debye)      :      2.48689

                             ****ORCA TERMINATED NORMALLY****
TOTAL RUN TIME: 0 days 0 hours 0 minutes 7 seconds 80 msec
