                         Program Version 3.0.3 - RELEASE   -
|  1> ! RI PBE def2-SVP def2-SVP/J NBO PAL2
|  2> % maxcore 2000
|  3> % output
|  4>     # printlevel mini
|  5>     print[ P_Basis ] 0
|  6>     print[ P_SCFInfo ] 1
|  7>     print[ P_SCFIterInfo ] 1
|  8>     print[ P_OrbEn ] 0
|  9>     print[ P_Cartesian ] 0
| 10> end
| 11> *xyz 0 1
| 12>  O        1.0374180000     0.0891600000     0.1641200000
| 13>  C        2.2237880000     0.0836470000     0.1619440000
| 14>  C        3.3731860000    -0.9167900000    -0.0117610000
| 15>  C        4.1671530000    -0.7418170000     1.2823650000
| 16>  C        4.1744640000     0.8129590000     1.3351230000
| 17>  C        3.3826020000     1.0827000000     0.0560790000
| 18>  O        3.9386960000     0.1107520000    -0.8749460000
| 19>  H        3.2721390000    -1.8955950000    -0.4733510000
| 20>  H        5.1685590000    -1.1617700000     1.1861120000
| 21>  H        3.6740420000    -1.2034350000     2.1399670000
| 22>  H        5.1798010000     1.2290450000     1.2672470000
| 23>  H        3.6854290000     1.2199950000     2.2221960000
| 24>  H        3.2909130000     2.0914480000    -0.3380750000
| 25> *
| 26>
| 27>                          ****END OF INPUT****
 Total Charge           Charge          ....    0
 Multiplicity           Mult            ....    1
 Number of Electrons    NEL             ....   52
 Basis Dimension        Dim             ....  128

MULLIKEN ATOMIC CHARGES
-----------------------
   0 O :   -0.096478
   1 C :    0.087352
   2 C :   -0.026018
   3 C :    0.108961
   4 C :    0.111657
   5 C :   -0.028147
   6 O :   -0.302455
   7 H :    0.022612
   8 H :    0.027209
   9 H :    0.023405
  10 H :    0.026781
  11 H :    0.022298
  12 H :    0.022823
Sum of atomic charges:   -0.0000000

LOEWDIN ATOMIC CHARGES
----------------------
   0 O :   -0.084658
   1 C :    0.044112
   2 C :    0.045782
   3 C :   -0.038877
   4 C :   -0.038467
   5 C :    0.045733
   6 O :   -0.140714
   7 H :    0.020754
   8 H :    0.030782
   9 H :    0.032130
  10 H :    0.030705
  11 H :    0.031897
  12 H :    0.020822

  Mayer bond orders larger than 0.1
B(  0-O ,  1-C ) :   2.2891 B(  1-C ,  2-C ) :   0.8585 B(  1-C ,  5-C ) :   0.8581
B(  1-C ,  6-O ) :   0.1267 B(  2-C ,  3-C ) :   1.0410 B(  2-C ,  6-O ) :   0.9383
B(  2-C ,  7-H ) :   0.9732 B(  3-C ,  4-C ) :   1.0977 B(  3-C ,  8-H ) :   0.9085
B(  3-C ,  9-H ) :   0.9106 B(  4-C ,  5-C ) :   1.0406 B(  4-C , 10-H ) :   0.9085
B(  4-C , 11-H ) :   0.9106 B(  5-C ,  6-O ) :   0.9374 B(  5-C , 12-H ) :   0.9739

FINAL SINGLE POINT ENERGY      -343.865950763781

DIPOLE MOMENT
-------------
                                X             Y             Z
Electronic contribution:     -4.10854       0.13568      -3.40328
Nuclear contribution   :      4.84018      -0.15758       3.97294
                        -----------------------------------------
Total Dipole Moment    :      0.73164      -0.02190       0.56965
                        -----------------------------------------
Magnitude (a.u.)       :      0.92751
Magnitude (Debye)      :      2.35755

                             ****ORCA TERMINATED NORMALLY****
TOTAL RUN TIME: 0 days 0 hours 0 minutes 6 seconds 304 msec
