                         Program Version 3.0.3 - RELEASE   -
|  1> ! RI PBE def2-SVP def2-SVP/J NBO PAL2
|  2> % maxcore 2000
|  3> % output
|  4>     # printlevel mini
|  5>     print[ P_Basis ] 0
|  6>     print[ P_SCFInfo ] 1
|  7>     print[ P_SCFIterInfo ] 1
|  8>     print[ P_OrbEn ] 0
|  9>     print[ P_Cartesian ] 0
| 10> end
| 11> *xyz 0 1
| 12>  O        0.7215190000    -0.0322660000    -0.1451760000
| 13>  C        2.0719260000     0.0006640000     0.1884660000
| 14>  C        3.0487610000    -0.9551090000    -0.4354890000
| 15>  C        2.5665660000    -1.7688910000    -1.6242810000
| 16>  C        2.6829590000    -0.8286730000    -2.8317080000
| 17>  C        2.5293560000     0.5908360000    -2.2692780000
| 18>  C        3.0284060000     0.5067150000    -0.8359400000
| 19>  H        0.3201390000    -0.7880890000     0.2920310000
| 20>  H        2.2698510000     0.2916060000     1.2186010000
| 21>  H        3.8367350000    -1.3541570000     0.1926690000
| 22>  H        1.5292570000    -2.0897650000    -1.4852000000
| 23>  H        3.1666250000    -2.6723940000    -1.7485690000
| 24>  H        1.9580710000    -1.0551770000    -3.6177020000
| 25>  H        3.6803350000    -0.9350060000    -3.2699880000
| 26>  H        1.4842840000     0.9089730000    -2.2920680000
| 27>  H        3.1063680000     1.3207330000    -2.8401680000
| 28>  H        3.8031300000     1.1890880000    -0.5075790000
| 29> *
| 30>
| 31>                          ****END OF INPUT****
 Total Charge           Charge          ....    0
 Multiplicity           Mult            ....    1
 Number of Electrons    NEL             ....   54
 Basis Dimension        Dim             ....  148

MULLIKEN ATOMIC CHARGES
-----------------------
   0 O :   -0.224618
   1 C :    0.127993
   2 C :   -0.166225
   3 C :    0.097268
   4 C :    0.007296
   5 C :    0.086139
   6 C :   -0.151226
   7 H :    0.164711
   8 H :   -0.000549
   9 H :    0.011460
  10 H :   -0.014833
  11 H :    0.007230
  12 H :    0.006420
  13 H :    0.008162
  14 H :    0.017393
  15 H :    0.007759
  16 H :    0.015620
Sum of atomic charges:   -0.0000000

LOEWDIN ATOMIC CHARGES
----------------------
   0 O :   -0.090143
   1 C :    0.035891
   2 C :   -0.062685
   3 C :   -0.033546
   4 C :   -0.033470
   5 C :   -0.032257
   6 C :   -0.047398
   7 H :    0.076062
   8 H :    0.008706
   9 H :    0.020114
  10 H :    0.014270
  11 H :    0.026255
  12 H :    0.021296
  13 H :    0.022733
  14 H :    0.025712
  15 H :    0.026196
  16 H :    0.022265

  Mayer bond orders larger than 0.1
B(  0-O ,  1-C ) :   1.1477 B(  0-O ,  7-H ) :   0.9749 B(  1-C ,  2-C ) :   0.9249
B(  1-C ,  6-C ) :   0.9412 B(  1-C ,  8-H ) :   0.9415 B(  2-C ,  3-C ) :   1.0781
B(  2-C ,  6-C ) :   0.9526 B(  2-C ,  9-H ) :   0.9417 B(  3-C ,  4-C ) :   1.1010
B(  3-C , 10-H ) :   0.9065 B(  3-C , 11-H ) :   0.9365 B(  4-C ,  5-C ) :   1.0966
B(  4-C , 12-H ) :   0.9336 B(  4-C , 13-H ) :   0.9394 B(  5-C ,  6-C ) :   1.0881
B(  5-C , 14-H ) :   0.9127 B(  5-C , 15-H ) :   0.9373 B(  6-C , 16-H ) :   0.9445

FINAL SINGLE POINT ENERGY      -309.218526850398

DIPOLE MOMENT
-------------
                                X             Y             Z
Electronic contribution:     -1.63666       1.09665       2.94203
Nuclear contribution   :      1.76108      -1.49192      -2.63284
                        -----------------------------------------
Total Dipole Moment    :      0.12442      -0.39527       0.30918
                        -----------------------------------------
Magnitude (a.u.)       :      0.51702
Magnitude (Debye)      :      1.31416

                             ****ORCA TERMINATED NORMALLY****
TOTAL RUN TIME: 0 days 0 hours 0 minutes 7 seconds 581 msec
