                         Program Version 3.0.3 - RELEASE   -
|  1> ! RI PBE def2-SVP def2-SVP/J NBO PAL2
|  2> % maxcore 2000
|  3> % output
|  4>     # printlevel mini
|  5>     print[ P_Basis ] 0
|  6>     print[ P_SCFInfo ] 1
|  7>     print[ P_SCFIterInfo ] 1
|  8>     print[ P_OrbEn ] 0
|  9>     print[ P_Cartesian ] 0
| 10> end
| 11> *xyz 0 1
| 12>  O        1.3214860000     0.0043580000     1.0993780000
| 13>  C        2.4272680000     0.0507300000     0.2564800000
| 14>  C        2.3022670000     0.8089590000    -1.0269610000
| 15>  C        3.5701880000     1.2642760000    -1.7241130000
| 16>  C        4.2989290000    -0.0231530000    -2.0019740000
| 17>  C        3.5852560000    -1.0919060000    -1.6529490000
| 18>  C        2.2989170000    -0.7119550000    -1.0246850000
| 19>  H        1.2018140000     0.8749630000     1.4890240000
| 20>  H        3.3973470000     0.0227200000     0.7526050000
| 21>  H        1.3737290000     1.3458540000    -1.1776570000
| 22>  H        4.1637860000     1.9457500000    -1.1032000000
| 23>  H        3.3508330000     1.8047480000    -2.6527250000
| 24>  H        5.2940120000    -0.0530660000    -2.4299480000
| 25>  H        3.9042620000    -2.1206260000    -1.7717940000
| 26>  H        1.3929860000    -1.2867420000    -1.1731720000
| 27> *
| 28>
| 29>                          ****END OF INPUT****
 Total Charge           Charge          ....    0
 Multiplicity           Mult            ....    1
 Number of Electrons    NEL             ....   52
 Basis Dimension        Dim             ....  138

MULLIKEN ATOMIC CHARGES
-----------------------
   0 O :   -0.240563
   1 C :    0.105736
   2 C :   -0.151629
   3 C :    0.175975
   4 C :   -0.120226
   5 C :    0.045939
   6 C :   -0.043855
   7 H :    0.160337
   8 H :    0.008514
   9 H :    0.009430
  10 H :    0.023839
  11 H :    0.024607
  12 H :   -0.008656
  13 H :   -0.010238
  14 H :    0.020790
Sum of atomic charges:   -0.0000000

LOEWDIN ATOMIC CHARGES
----------------------
   0 O :   -0.096168
   1 C :    0.044417
   2 C :   -0.053077
   3 C :   -0.033592
   4 C :   -0.039053
   5 C :   -0.027343
   6 C :   -0.041830
   7 H :    0.074977
   8 H :    0.005833
   9 H :    0.023959
  10 H :    0.033273
  11 H :    0.033899
  12 H :    0.020782
  13 H :    0.024887
  14 H :    0.029037

  Mayer bond orders larger than 0.1
B(  0-O ,  1-C ) :   1.1191 B(  0-O ,  7-H ) :   0.9797 B(  1-C ,  2-C ) :   0.9337
B(  1-C ,  6-C ) :   0.9182 B(  1-C ,  8-H ) :   0.9422 B(  2-C ,  3-C ) :   1.0441
B(  2-C ,  6-C ) :   0.9250 B(  2-C ,  9-H ) :   0.9393 B(  3-C ,  4-C ) :   1.0270
B(  3-C , 10-H ) :   0.9135 B(  3-C , 11-H ) :   0.9083 B(  4-C ,  5-C ) :   1.8212
B(  4-C , 12-H ) :   0.9787 B(  5-C ,  6-C ) :   1.0079 B(  5-C , 13-H ) :   1.0003
B(  6-C , 14-H ) :   0.9495

FINAL SINGLE POINT ENERGY      -308.001311665630

DIPOLE MOMENT
-------------
                                X             Y             Z
Electronic contribution:     -1.53355      -1.31642       1.53848
Nuclear contribution   :      1.69003       1.89276      -1.55070
                        -----------------------------------------
Total Dipole Moment    :      0.15648       0.57634      -0.01222
                        -----------------------------------------
Magnitude (a.u.)       :      0.59733
Magnitude (Debye)      :      1.51830

                             ****ORCA TERMINATED NORMALLY****
TOTAL RUN TIME: 0 days 0 hours 0 minutes 6 seconds 699 msec
