                         Program Version 3.0.3 - RELEASE   -
|  1> ! RI PBE def2-SVP def2-SVP/J NBO PAL2
|  2> % maxcore 2000
|  3> % output
|  4>     # printlevel mini
|  5>     print[ P_Basis ] 0
|  6>     print[ P_SCFInfo ] 1
|  7>     print[ P_SCFIterInfo ] 1
|  8>     print[ P_OrbEn ] 0
|  9>     print[ P_Cartesian ] 0
| 10> end
| 11> *xyz 0 1
| 12>  O        0.7709670000     0.1182500000    -0.6357580000
| 13>  C        2.0292140000     0.0264420000    -0.0542190000
| 14>  C        3.0050630000    -1.0646570000    -0.4293640000
| 15>  C        2.7397100000    -1.8279090000    -1.7068920000
| 16>  C        2.5409600000    -0.7358440000    -2.7657190000
| 17>  O        3.1267190000     0.4547420000    -2.2523830000
| 18>  C        3.2360170000     0.3536950000    -0.8723200000
| 19>  H        0.2083180000    -0.5556020000    -0.2439720000
| 20>  H        2.0780640000     0.3521610000     0.9843360000
| 21>  H        3.5921970000    -1.5372630000     0.3486350000
| 22>  H        1.8673200000    -2.4841400000    -1.6495170000
| 23>  H        3.6084910000    -2.4514170000    -1.9316430000
| 24>  H        1.4778660000    -0.5657850000    -2.9485960000
| 25>  H        3.0335850000    -0.9654910000    -3.7136120000
| 26>  H        4.0058080000     1.0003280000    -0.4697770000
| 27> *
| 28>
| 29>                          ****END OF INPUT****
 Total Charge           Charge          ....    0
 Multiplicity           Mult            ....    1
 Number of Electrons    NEL             ....   54
 Basis Dimension        Dim             ....  138

MULLIKEN ATOMIC CHARGES
-----------------------
   0 O :   -0.214738
   1 C :    0.072106
   2 C :   -0.211674
   3 C :    0.075855
   4 C :    0.183346
   5 O :   -0.310516
   6 C :    0.135468
   7 H :    0.164271
   8 H :    0.003414
   9 H :    0.022514
  10 H :    0.014037
  11 H :    0.020985
  12 H :    0.015529
  13 H :    0.007338
  14 H :    0.022064
Sum of atomic charges:   -0.0000000

LOEWDIN ATOMIC CHARGES
----------------------
   0 O :   -0.083936
   1 C :    0.012621
   2 C :   -0.083176
   3 C :   -0.043341
   4 C :    0.069420
   5 O :   -0.126643
   6 C :    0.039531
   7 H :    0.077255
   8 H :    0.011340
   9 H :    0.024369
  10 H :    0.026610
  11 H :    0.032088
  12 H :    0.008151
  13 H :    0.016280
  14 H :    0.019431

  Mayer bond orders larger than 0.1
B(  0-O ,  1-C ) :   1.1625 B(  0-O ,  7-H ) :   0.9772 B(  1-C ,  2-C ) :   0.8883
B(  1-C ,  6-C ) :   0.9029 B(  1-C ,  8-H ) :   0.9330 B(  2-C ,  3-C ) :   1.0862
B(  2-C ,  6-C ) :   0.9248 B(  2-C ,  9-H ) :   0.9372 B(  3-C ,  4-C ) :   1.0912
B(  3-C , 10-H ) :   0.9263 B(  3-C , 11-H ) :   0.9236 B(  4-C ,  5-O ) :   0.9994
B(  4-C , 12-H ) :   0.9311 B(  4-C , 13-H ) :   0.9382 B(  5-O ,  6-C ) :   1.0904
B(  6-C , 14-H ) :   0.9559

FINAL SINGLE POINT ENERGY      -345.063505374142

DIPOLE MOMENT
-------------
                                X             Y             Z
Electronic contribution:     -0.38949       3.09579       0.19506
Nuclear contribution   :      0.25029      -3.96000       0.40472
                        -----------------------------------------
Total Dipole Moment    :     -0.13920      -0.86421       0.59978
                        -----------------------------------------
Magnitude (a.u.)       :      1.06111
Magnitude (Debye)      :      2.69714

                             ****ORCA TERMINATED NORMALLY****
TOTAL RUN TIME: 0 days 0 hours 0 minutes 6 seconds 985 msec
