                         Program Version 3.0.3 - RELEASE   -
|  1> ! RI PBE def2-SVP def2-SVP/J NBO PAL2
|  2> % maxcore 2000
|  3> % output
|  4>     # printlevel mini
|  5>     print[ P_Basis ] 0
|  6>     print[ P_SCFInfo ] 1
|  7>     print[ P_SCFIterInfo ] 1
|  8>     print[ P_OrbEn ] 0
|  9>     print[ P_Cartesian ] 0
| 10> end
| 11> *xyz 0 1
| 12>  O        1.1075710000    -0.1536210000     0.0302820000
| 13>  C        2.5036280000    -0.0608510000    -0.0100300000
| 14>  C        3.0957630000     0.9728920000    -1.0153570000
| 15>  C        2.7135110000    -0.0394440000    -2.1247720000
| 16>  C        3.1287740000    -1.0302700000    -1.0280640000
| 17>  O        4.5229720000    -0.7878480000    -0.8584880000
| 18>  C        4.5699550000     0.6522040000    -0.8446770000
| 19>  H        0.7640580000     0.6128930000     0.4958240000
| 20>  H        2.9482740000    -0.0821030000     0.9926430000
| 21>  H        2.7969830000     2.0207500000    -1.0300190000
| 22>  H        3.3006060000    -0.0436550000    -3.0443210000
| 23>  H        1.6452230000    -0.0526800000    -2.3253310000
| 24>  H        2.9239790000    -2.0981490000    -1.0456870000
| 25>  H        5.1964890000     1.0161320000    -1.6649210000
| 26>  H        4.9865040000     0.9999500000     0.1063170000
| 27> *
| 28>
| 29>                          ****END OF INPUT****
 Total Charge           Charge          ....    0
 Multiplicity           Mult            ....    1
 Number of Electrons    NEL             ....   54
 Basis Dimension        Dim             ....  138

MULLIKEN ATOMIC CHARGES
-----------------------
   0 O :   -0.230492
   1 C :    0.098252
   2 C :   -0.237376
   3 C :    0.105427
   4 C :    0.076448
   5 O :   -0.331537
   6 C :    0.274541
   7 H :    0.162339
   8 H :    0.007455
   9 H :   -0.002631
  10 H :    0.014815
  11 H :    0.031959
  12 H :    0.006753
  13 H :    0.013336
  14 H :    0.010711
Sum of atomic charges:    0.0000000

LOEWDIN ATOMIC CHARGES
----------------------
   0 O :   -0.097467
   1 C :    0.036907
   2 C :   -0.059206
   3 C :   -0.035008
   4 C :    0.067400
   5 O :   -0.162665
   6 C :    0.079753
   7 H :    0.075059
   8 H :    0.000721
   9 H :    0.012469
  10 H :    0.018241
  11 H :    0.026874
  12 H :    0.012948
  13 H :    0.012562
  14 H :    0.011411

  Mayer bond orders larger than 0.1
B(  0-O ,  1-C ) :   1.1411 B(  0-O ,  7-H ) :   0.9780 B(  1-C ,  2-C ) :   0.9076
B(  1-C ,  4-C ) :   0.9379 B(  1-C ,  8-H ) :   0.9346 B(  2-C ,  3-C ) :   0.9762
B(  2-C ,  6-C ) :   1.0342 B(  2-C ,  9-H ) :   0.9361 B(  3-C ,  4-C ) :   1.0009
B(  3-C , 10-H ) :   0.9285 B(  3-C , 11-H ) :   0.9275 B(  4-C ,  5-O ) :   1.0304
B(  4-C , 12-H ) :   0.9437 B(  5-O ,  6-C ) :   0.9691 B(  6-C , 13-H ) :   0.9381
B(  6-C , 14-H ) :   0.9404

FINAL SINGLE POINT ENERGY      -345.055259542146

DIPOLE MOMENT
-------------
                                X             Y             Z
Electronic contribution:     -0.35379      -1.86048       1.15832
Nuclear contribution   :      0.00964       2.71906      -0.95515
                        -----------------------------------------
Total Dipole Moment    :     -0.34415       0.85858       0.20317
                        -----------------------------------------
Magnitude (a.u.)       :      0.94704
Magnitude (Debye)      :      2.40718

                             ****ORCA TERMINATED NORMALLY****
TOTAL RUN TIME: 0 days 0 hours 0 minutes 6 seconds 582 msec
