                         Program Version 3.0.3 - RELEASE   -
|  1> ! RI PBE def2-SVP def2-SVP/J NBO PAL2
|  2> % maxcore 2000
|  3> % output
|  4>     # printlevel mini
|  5>     print[ P_Basis ] 0
|  6>     print[ P_SCFInfo ] 1
|  7>     print[ P_SCFIterInfo ] 1
|  8>     print[ P_OrbEn ] 0
|  9>     print[ P_Cartesian ] 0
| 10> end
| 11> *xyz 0 1
| 12>  O        1.2293200000     0.0591950000     0.0012520000
| 13>  C        2.4167560000     0.0460690000     0.0600980000
| 14>  C        3.5509830000     1.0801930000    -0.0089390000
| 15>  C        4.1694270000     0.0499270000    -1.0001340000
| 16>  C        3.5579800000    -0.9779190000    -0.0250760000
| 17>  O        4.2727120000    -0.7418990000     1.1840780000
| 18>  C        4.2980850000     0.7015260000     1.2645590000
| 19>  H        3.3913950000     2.1296220000    -0.2384510000
| 20>  H        5.2580380000     0.0330580000    -1.0662000000
| 21>  H        3.7013700000     0.0603140000    -1.9844520000
| 22>  H        3.4475350000    -2.0395440000    -0.2215210000
| 23>  H        5.3350490000     1.0493330000     1.2794810000
| 24>  H        3.7916610000     1.0329250000     2.1755160000
| 25> *
| 26>
| 27>                          ****END OF INPUT****
 Total Charge           Charge          ....    0
 Multiplicity           Mult            ....    1
 Number of Electrons    NEL             ....   52
 Basis Dimension        Dim             ....  128

MULLIKEN ATOMIC CHARGES
-----------------------
   0 O :   -0.094147
   1 C :    0.114988
   2 C :   -0.279788
   3 C :    0.103926
   4 C :    0.026217
   5 O :   -0.324771
   6 C :    0.291713
   7 H :    0.022245
   8 H :    0.027762
   9 H :    0.046866
  10 H :    0.019467
  11 H :    0.020233
  12 H :    0.025290
Sum of atomic charges:    0.0000000

LOEWDIN ATOMIC CHARGES
----------------------
   0 O :   -0.085763
   1 C :    0.051506
   2 C :   -0.066077
   3 C :   -0.026759
   4 C :    0.043962
   5 O :   -0.155865
   6 C :    0.090251
   7 H :    0.025938
   8 H :    0.033204
   9 H :    0.035874
  10 H :    0.019705
  11 H :    0.014942
  12 H :    0.019081

  Mayer bond orders larger than 0.1
B(  0-O ,  1-C ) :   2.2953 B(  1-C ,  2-C ) :   0.8211 B(  1-C ,  4-C ) :   0.8155
B(  2-C ,  3-C ) :   0.9376 B(  2-C ,  6-C ) :   1.0252 B(  2-C ,  7-H ) :   0.9544
B(  3-C ,  4-C ) :   0.9474 B(  3-C ,  8-H ) :   0.8902 B(  3-C ,  9-H ) :   0.9451
B(  4-C ,  5-O ) :   1.0194 B(  4-C , 10-H ) :   0.9629 B(  5-O ,  6-C ) :   0.9558
B(  6-C , 11-H ) :   0.9412 B(  6-C , 12-H ) :   0.9418

FINAL SINGLE POINT ENERGY      -343.859889627792

DIPOLE MOMENT
-------------
                                X             Y             Z
Electronic contribution:     -3.68721      -1.56144       0.94069
Nuclear contribution   :      4.47270       1.99044      -1.32657
                        -----------------------------------------
Total Dipole Moment    :      0.78549       0.42901      -0.38589
                        -----------------------------------------
Magnitude (a.u.)       :      0.97466
Magnitude (Debye)      :      2.47738

                             ****ORCA TERMINATED NORMALLY****
TOTAL RUN TIME: 0 days 0 hours 0 minutes 5 seconds 643 msec
