                         Program Version 3.0.3 - RELEASE   -
|  1> ! RI PBE def2-SVP def2-SVP/J NBO PAL2
|  2> % maxcore 2000
|  3> % output
|  4>     # printlevel mini
|  5>     print[ P_Basis ] 0
|  6>     print[ P_SCFInfo ] 1
|  7>     print[ P_SCFIterInfo ] 1
|  8>     print[ P_OrbEn ] 0
|  9>     print[ P_Cartesian ] 0
| 10> end
| 11> *xyz 0 1
| 12>  O        0.8266880000     0.0856380000    -0.1094250000
| 13>  C        2.2037450000     0.0501720000     0.0621400000
| 14>  C        3.0863000000    -0.9282070000    -0.6552390000
| 15>  C        2.5113460000    -1.6681680000    -1.8353850000
| 16>  O        1.9203900000    -0.7075130000    -2.6821750000
| 17>  C        2.4669390000     0.5721360000    -2.4247400000
| 18>  C        3.0775080000     0.5285350000    -1.0462230000
| 19>  H        0.4579480000    -0.7632290000     0.1471460000
| 20>  H        2.5351570000     0.3182530000     1.0641340000
| 21>  H        3.9162910000    -1.3756910000    -0.1218650000
| 22>  H        1.7335870000    -2.3935440000    -1.5703430000
| 23>  H        3.3161920000    -2.2145580000    -2.3487880000
| 24>  H        1.6532450000     1.2968280000    -2.5143910000
| 25>  H        3.2432710000     0.8233250000    -3.1611210000
| 26>  H        3.9049840000     1.1914240000    -0.8264230000
| 27> *
| 28>
| 29>                          ****END OF INPUT****
 Total Charge           Charge          ....    0
 Multiplicity           Mult            ....    1
 Number of Electrons    NEL             ....   54
 Basis Dimension        Dim             ....  138

MULLIKEN ATOMIC CHARGES
-----------------------
   0 O :   -0.218471
   1 C :    0.119823
   2 C :   -0.206950
   3 C :    0.297326
   4 O :   -0.358461
   5 C :    0.301406
   6 C :   -0.182887
   7 H :    0.166600
   8 H :    0.003671
   9 H :    0.022831
  10 H :    0.003200
  11 H :    0.000946
  12 H :    0.022963
  13 H :    0.000094
  14 H :    0.027907
Sum of atomic charges:   -0.0000000

LOEWDIN ATOMIC CHARGES
----------------------
   0 O :   -0.089478
   1 C :    0.034872
   2 C :   -0.074319
   3 C :    0.070062
   4 O :   -0.155478
   5 C :    0.076556
   6 C :   -0.062209
   7 H :    0.078035
   8 H :    0.011972
   9 H :    0.027203
  10 H :    0.012508
  11 H :    0.009651
  12 H :    0.022987
  13 H :    0.009320
  14 H :    0.028317

  Mayer bond orders larger than 0.1
B(  0-O ,  1-C ) :   1.1775 B(  0-O ,  7-H ) :   0.9766 B(  1-C ,  2-C ) :   0.9189
B(  1-C ,  6-C ) :   0.9119 B(  1-C ,  8-H ) :   0.9463 B(  2-C ,  3-C ) :   1.0578
B(  2-C ,  6-C ) :   0.9625 B(  2-C ,  9-H ) :   0.9341 B(  3-C ,  4-O ) :   1.0242
B(  3-C , 10-H ) :   0.9288 B(  3-C , 11-H ) :   0.9242 B(  4-O ,  5-C ) :   1.0100
B(  5-C ,  6-C ) :   1.0682 B(  5-C , 12-H ) :   0.9280 B(  5-C , 13-H ) :   0.9265
B(  6-C , 14-H ) :   0.9372

FINAL SINGLE POINT ENERGY      -345.066921382164

DIPOLE MOMENT
-------------
                                X             Y             Z
Electronic contribution:     -2.04011       0.29406      -0.00041
Nuclear contribution   :      2.57078      -0.64166       0.60624
                        -----------------------------------------
Total Dipole Moment    :      0.53068      -0.34760       0.60583
                        -----------------------------------------
Magnitude (a.u.)       :      0.87720
Magnitude (Debye)      :      2.22966

                             ****ORCA TERMINATED NORMALLY****
TOTAL RUN TIME: 0 days 0 hours 0 minutes 6 seconds 768 msec
