                         Program Version 3.0.3 - RELEASE   -
|  1> ! RI PBE def2-SVP def2-SVP/J NBO PAL2
|  2> % maxcore 2000
|  3> % output
|  4>     # printlevel mini
|  5>     print[ P_Basis ] 0
|  6>     print[ P_SCFInfo ] 1
|  7>     print[ P_SCFIterInfo ] 1
|  8>     print[ P_OrbEn ] 0
|  9>     print[ P_Cartesian ] 0
| 10> end
| 11> *xyz 0 1
| 12>  O        1.1454290000    -0.1584700000    -0.8510590000
| 13>  C        2.2207320000    -0.0289470000    -0.3943490000
| 14>  C        3.3453090000    -0.8569730000     0.3533350000
| 15>  O        3.4550050000     0.3191870000     1.1830830000
| 16>  C        3.2670290000     1.0989990000    -0.0170870000
| 17>  C        4.3925640000     0.6457470000    -0.9006710000
| 18>  C        4.4453050000    -0.6722110000    -0.6510620000
| 19>  H        3.1904070000    -1.7911880000     0.8837920000
| 20>  H        3.0327920000     2.1474560000     0.1378630000
| 21>  H        4.9372300000     1.2397890000    -1.6190310000
| 22>  H        5.0446080000    -1.4436080000    -1.1108140000
| 23> *
| 24>
| 25>                          ****END OF INPUT****
 Total Charge           Charge          ....    0
 Multiplicity           Mult            ....    1
 Number of Electrons    NEL             ....   50
 Basis Dimension        Dim             ....  118

MULLIKEN ATOMIC CHARGES
-----------------------
   0 O :   -0.075745
   1 C :    0.069768
   2 C :    0.093937
   3 O :   -0.274700
   4 C :    0.086182
   5 C :    0.024324
   6 C :    0.027915
   7 H :    0.015582
   8 H :    0.018018
   9 H :    0.008238
  10 H :    0.006482
Sum of atomic charges:   -0.0000000

LOEWDIN ATOMIC CHARGES
----------------------
   0 O :   -0.064103
   1 C :    0.060985
   2 C :    0.042066
   3 O :   -0.127077
   4 C :    0.040937
   5 C :   -0.028639
   6 C :   -0.027137
   7 H :    0.021615
   8 H :    0.022130
   9 H :    0.029731
  10 H :    0.029493

  Mayer bond orders larger than 0.1
B(  0-O ,  1-C ) :   2.2898 B(  1-C ,  2-C ) :   0.7977 B(  1-C ,  3-O ) :   0.1155
B(  1-C ,  4-C ) :   0.7948 B(  2-C ,  3-O ) :   0.9558 B(  2-C ,  6-C ) :   0.9396
B(  2-C ,  7-H ) :   0.9852 B(  3-O ,  4-C ) :   0.9580 B(  4-C ,  5-C ) :   0.9381
B(  4-C ,  8-H ) :   0.9881 B(  5-C ,  6-C ) :   1.6547 B(  5-C ,  9-H ) :   1.0208
B(  6-C , 10-H ) :   1.0205

FINAL SINGLE POINT ENERGY      -342.635167398308

DIPOLE MOMENT
-------------
                                X             Y             Z
Electronic contribution:     -2.69228       0.01663       0.66556
Nuclear contribution   :      3.37612      -0.05010      -0.97787
                        -----------------------------------------
Total Dipole Moment    :      0.68384      -0.03346      -0.31231
                        -----------------------------------------
Magnitude (a.u.)       :      0.75252
Magnitude (Debye)      :      1.91276

                             ****ORCA TERMINATED NORMALLY****
TOTAL RUN TIME: 0 days 0 hours 0 minutes 5 seconds 836 msec
