                         Program Version 3.0.3 - RELEASE   -
|  1> ! RI PBE def2-SVP def2-SVP/J NBO PAL2
|  2> % maxcore 2000
|  3> % output
|  4>     # printlevel mini
|  5>     print[ P_Basis ] 0
|  6>     print[ P_SCFInfo ] 1
|  7>     print[ P_SCFIterInfo ] 1
|  8>     print[ P_OrbEn ] 0
|  9>     print[ P_Cartesian ] 0
| 10> end
| 11> *xyz 0 1
| 12>  O        0.8323110000    -0.2381070000    -0.5376590000
| 13>  C        2.1356310000    -0.0009440000    -0.1258460000
| 14>  C        3.3453180000    -0.7948430000    -0.7155700000
| 15>  O        4.1348730000     0.3795950000    -0.3906540000
| 16>  C        2.9561720000     1.1021140000    -0.8385100000
| 17>  C        2.8552000000     0.6726060000    -2.2996880000
| 18>  C        3.1246780000    -0.6266040000    -2.2140650000
| 19>  H        0.3405780000    -0.6228130000     0.1902680000
| 20>  H        2.2250280000     0.0870020000     0.9609540000
| 21>  H        3.7268350000    -1.7299500000    -0.3101600000
| 22>  H        2.9290650000     2.1550700000    -0.5659200000
| 23>  H        2.6091970000     1.2887940000    -3.1509760000
| 24>  H        3.1617060000    -1.3906080000    -2.9756650000
| 25> *
| 26>
| 27>                          ****END OF INPUT****
 Total Charge           Charge          ....    0
 Multiplicity           Mult            ....    1
 Number of Electrons    NEL             ....   52
 Basis Dimension        Dim             ....  128

MULLIKEN ATOMIC CHARGES
-----------------------
   0 O :   -0.197975
   1 C :    0.049168
   2 C :    0.118046
   3 O :   -0.310537
   4 C :    0.113416
   5 C :    0.040625
   6 C :    0.036363
   7 H :    0.161174
   8 H :    0.018602
   9 H :   -0.008365
  10 H :   -0.001696
  11 H :   -0.009168
  12 H :   -0.009651
Sum of atomic charges:   -0.0000000

LOEWDIN ATOMIC CHARGES
----------------------
   0 O :   -0.093085
   1 C :    0.034004
   2 C :    0.052707
   3 O :   -0.163127
   4 C :    0.062028
   5 C :   -0.022745
   6 C :   -0.023697
   7 H :    0.077091
   8 H :    0.011791
   9 H :    0.007944
  10 H :    0.010963
  11 H :    0.023304
  12 H :    0.022820

  Mayer bond orders larger than 0.1
B(  0-O ,  1-C ) :   1.1816 B(  0-O ,  7-H ) :   0.9736 B(  1-C ,  2-C ) :   0.9150
B(  1-C ,  4-C ) :   0.9498 B(  1-C ,  8-H ) :   0.9308 B(  2-C ,  3-O ) :   0.9649
B(  2-C ,  6-C ) :   0.9119 B(  2-C ,  9-H ) :   0.9664 B(  3-O ,  4-C ) :   0.9695
B(  4-C ,  5-C ) :   0.9157 B(  4-C , 10-H ) :   0.9690 B(  5-C ,  6-C ) :   1.7757
B(  5-C , 11-H ) :   1.0187 B(  6-C , 12-H ) :   1.0181

FINAL SINGLE POINT ENERGY      -343.818827077466

DIPOLE MOMENT
-------------
                                X             Y             Z
Electronic contribution:      0.62652       0.25053       0.36080
Nuclear contribution   :     -1.30501      -0.55959      -0.01547
                        -----------------------------------------
Total Dipole Moment    :     -0.67848      -0.30906       0.34533
                        -----------------------------------------
Magnitude (a.u.)       :      0.82165
Magnitude (Debye)      :      2.08847

                             ****ORCA TERMINATED NORMALLY****
TOTAL RUN TIME: 0 days 0 hours 0 minutes 6 seconds 61 msec
