                         Program Version 3.0.3 - RELEASE   -
|  1> ! RI PBE def2-SVP def2-SVP/J NBO PAL2
|  2> % maxcore 2000
|  3> % output
|  4>     # printlevel mini
|  5>     print[ P_Basis ] 0
|  6>     print[ P_SCFInfo ] 1
|  7>     print[ P_SCFIterInfo ] 1
|  8>     print[ P_OrbEn ] 0
|  9>     print[ P_Cartesian ] 0
| 10> end
| 11> *xyz 0 1
| 12>  O        1.3203680000     0.0390990000     1.0794020000
| 13>  C        2.4766840000     0.0207580000     0.3090480000
| 14>  C        2.4076400000     0.7179830000    -1.0096630000
| 15>  O        3.6059470000     1.1252810000    -1.6240210000
| 16>  C        4.3151300000    -0.0102190000    -1.8784730000
| 17>  C        3.6882420000    -1.1419150000    -1.5616460000
| 18>  C        2.3856330000    -0.7978740000    -0.9484940000
| 19>  H        1.2130680000     0.9210260000     1.4478970000
| 20>  H        3.4227010000     0.0062050000     0.8471700000
| 21>  H        1.5542210000     1.3389000000    -1.2506420000
| 22>  H        5.2894090000     0.1518570000    -2.3161260000
| 23>  H        4.0665590000    -2.1390050000    -1.7245080000
| 24>  H        1.4896980000    -1.3838070000    -1.1147240000
| 25> *
| 26>
| 27>                          ****END OF INPUT****
 Total Charge           Charge          ....    0
 Multiplicity           Mult            ....    1
 Number of Electrons    NEL             ....   52
 Basis Dimension        Dim             ....  128

MULLIKEN ATOMIC CHARGES
-----------------------
   0 O :   -0.237548
   1 C :    0.098662
   2 C :    0.098899
   3 O :   -0.234900
   4 C :    0.127164
   5 C :   -0.033723
   6 C :   -0.056915
   7 H :    0.163255
   8 H :    0.017355
   9 H :    0.022643
  10 H :    0.007714
  11 H :   -0.000920
  12 H :    0.028314
Sum of atomic charges:   -0.0000000

LOEWDIN ATOMIC CHARGES
----------------------
   0 O :   -0.091104
   1 C :    0.023539
   2 C :    0.037355
   3 O :   -0.062950
   4 C :    0.041030
   5 C :   -0.097374
   6 C :   -0.044064
   7 H :    0.076987
   8 H :    0.010563
   9 H :    0.020651
  10 H :    0.022851
  11 H :    0.030581
  12 H :    0.031935

  Mayer bond orders larger than 0.1
B(  0-O ,  1-C ) :   1.1237 B(  0-O ,  7-H ) :   0.9783 B(  1-C ,  2-C ) :   0.9190
B(  1-C ,  6-C ) :   0.9006 B(  1-C ,  8-H ) :   0.9272 B(  2-C ,  3-O ) :   1.0051
B(  2-C ,  6-C ) :   0.9003 B(  2-C ,  9-H ) :   0.9505 B(  3-O ,  4-C ) :   1.1036
B(  3-O ,  5-C ) :   0.1050 B(  4-C ,  5-C ) :   1.7016 B(  4-C , 10-H ) :   0.9885
B(  5-C ,  6-C ) :   1.0281 B(  5-C , 11-H ) :   1.0011 B(  6-C , 12-H ) :   0.9450

FINAL SINGLE POINT ENERGY      -343.853328419894

DIPOLE MOMENT
-------------
                                X             Y             Z
Electronic contribution:      0.10902       1.40692      -0.30862
Nuclear contribution   :     -0.06305      -1.19043       0.40269
                        -----------------------------------------
Total Dipole Moment    :      0.04597       0.21649       0.09407
                        -----------------------------------------
Magnitude (a.u.)       :      0.24048
Magnitude (Debye)      :      0.61125

                             ****ORCA TERMINATED NORMALLY****
TOTAL RUN TIME: 0 days 0 hours 0 minutes 6 seconds 19 msec
