                         Program Version 3.0.3 - RELEASE   -
|  1> ! RI PBE def2-SVP def2-SVP/J NBO PAL2
|  2> % maxcore 2000
|  3> % output
|  4>     # printlevel mini
|  5>     print[ P_Basis ] 0
|  6>     print[ P_SCFInfo ] 1
|  7>     print[ P_SCFIterInfo ] 1
|  8>     print[ P_OrbEn ] 0
|  9>     print[ P_Cartesian ] 0
| 10> end
| 11> *xyz 0 1
| 12>  O        0.8416530000     0.4235000000    -0.4333770000
| 13>  C        2.2015960000     0.3319960000    -0.1421220000
| 14>  C        3.0257770000    -0.7426730000    -0.7802830000
| 15>  C        3.1303590000     0.6889740000    -1.2453620000
| 16>  C        4.3720800000     1.4890990000    -1.0511530000
| 17>  C        4.3044490000     2.8998740000    -0.5490300000
| 18>  C        4.9129120000     1.8287990000     0.3042290000
| 19>  H        0.3903300000    -0.2934520000     0.0203770000
| 20>  H        2.4682150000     0.6270810000     0.8705520000
| 21>  H        2.5141300000    -1.4431610000    -1.4290850000
| 22>  H        3.8521030000    -1.1515950000    -0.2105010000
| 23>  H        2.6101650000     0.8880820000    -2.1779640000
| 24>  H        5.1277500000     1.3002320000    -1.8084240000
| 25>  H        3.3283460000     3.2710660000    -0.2604430000
| 26>  H        4.9574410000     3.6415870000    -0.9919530000
| 27>  H        4.3625990000     1.5101560000     1.1811610000
| 28>  H        5.9880950000     1.8253550000     0.4335770000
| 29> *
| 30>
| 31>                          ****END OF INPUT****
 Total Charge           Charge          ....    0
 Multiplicity           Mult            ....    1
 Number of Electrons    NEL             ....   54
 Basis Dimension        Dim             ....  148

MULLIKEN ATOMIC CHARGES
-----------------------
   0 O :   -0.237540
   1 C :    0.012761
   2 C :    0.002475
   3 C :   -0.032720
   4 C :   -0.064515
   5 C :   -0.025630
   6 C :   -0.052673
   7 H :    0.160173
   8 H :    0.010188
   9 H :    0.021836
  10 H :    0.024887
  11 H :    0.027577
  12 H :    0.022421
  13 H :    0.036807
  14 H :    0.033277
  15 H :    0.027917
  16 H :    0.032759
Sum of atomic charges:    0.0000000

LOEWDIN ATOMIC CHARGES
----------------------
   0 O :   -0.099359
   1 C :    0.031698
   2 C :   -0.061494
   3 C :   -0.041030
   4 C :   -0.038722
   5 C :   -0.041426
   6 C :   -0.048566
   7 H :    0.073343
   8 H :    0.005900
   9 H :    0.027024
  10 H :    0.026133
  11 H :    0.034566
  12 H :    0.029368
  13 H :    0.028611
  14 H :    0.025957
  15 H :    0.020597
  16 H :    0.027400

  Mayer bond orders larger than 0.1
B(  0-O ,  1-C ) :   1.1331 B(  0-O ,  7-H ) :   0.9806 B(  1-C ,  2-C ) :   0.9969
B(  1-C ,  3-C ) :   0.9327 B(  1-C ,  8-H ) :   0.9385 B(  2-C ,  3-C ) :   0.9801
B(  2-C ,  9-H ) :   0.9279 B(  2-C , 10-H ) :   0.9357 B(  3-C ,  4-C ) :   1.0777
B(  3-C , 11-H ) :   0.9341 B(  4-C ,  5-C ) :   0.9816 B(  4-C ,  6-C ) :   1.0020
B(  4-C , 12-H ) :   0.9389 B(  5-C ,  6-C ) :   1.0463 B(  5-C , 13-H ) :   0.9512
B(  5-C , 14-H ) :   0.9464 B(  6-C , 15-H ) :   0.9415 B(  6-C , 16-H ) :   0.9415

FINAL SINGLE POINT ENERGY      -309.184596072121

DIPOLE MOMENT
-------------
                                X             Y             Z
Electronic contribution:     -3.32432      -0.85226      -0.67670
Nuclear contribution   :      3.44776       0.45167       0.96017
                        -----------------------------------------
Total Dipole Moment    :      0.12344      -0.40059       0.28347
                        -----------------------------------------
Magnitude (a.u.)       :      0.50603
Magnitude (Debye)      :      1.28621

                             ****ORCA TERMINATED NORMALLY****
TOTAL RUN TIME: 0 days 0 hours 0 minutes 7 seconds 81 msec
