                         Program Version 3.0.3 - RELEASE   -
|  1> ! RI PBE def2-SVP def2-SVP/J NBO PAL2
|  2> % maxcore 2000
|  3> % output
|  4>     # printlevel mini
|  5>     print[ P_Basis ] 0
|  6>     print[ P_SCFInfo ] 1
|  7>     print[ P_SCFIterInfo ] 1
|  8>     print[ P_OrbEn ] 0
|  9>     print[ P_Cartesian ] 0
| 10> end
| 11> *xyz 0 1
| 12>  O        0.8186460000     0.2379800000    -0.4980600000
| 13>  C        2.1635820000     0.0395120000    -0.1703420000
| 14>  C        2.9795060000    -0.8030140000    -1.1028580000
| 15>  C        3.1241390000     0.6981850000    -1.0971770000
| 16>  C        2.4665860000     0.0136740000     1.2934200000
| 17>  C        1.7514900000     0.9322070000     2.2323750000
| 18>  C        1.4878660000    -0.5437100000     2.2820920000
| 19>  H        0.3560010000    -0.5946070000    -0.3663810000
| 20>  H        2.4653310000    -1.2440620000    -1.9481640000
| 21>  H        3.7811360000    -1.4026800000    -0.6883080000
| 22>  H        2.6967810000     1.2397850000    -1.9311140000
| 23>  H        4.0249520000     1.1297360000    -0.6781330000
| 24>  H        3.5133230000    -0.1740000000     1.5103400000
| 25>  H        0.9732280000     1.5528990000     1.8066740000
| 26>  H        2.3135620000     1.3847500000     3.0396030000
| 27>  H        0.5248930000    -0.8834970000     1.9196170000
| 28>  H        1.8746780000    -1.1146480000     3.1169170000
| 29> *
| 30>
| 31>                          ****END OF INPUT****
 Total Charge           Charge          ....    0
 Multiplicity           Mult            ....    1
 Number of Electrons    NEL             ....   54
 Basis Dimension        Dim             ....  148

MULLIKEN ATOMIC CHARGES
-----------------------
   0 O :   -0.236981
   1 C :   -0.005975
   2 C :   -0.041850
   3 C :   -0.008007
   4 C :   -0.035235
   5 C :   -0.013461
   6 C :   -0.044808
   7 H :    0.161686
   8 H :    0.027693
   9 H :    0.026840
  10 H :    0.037944
  11 H :    0.027780
  12 H :   -0.004817
  13 H :    0.037480
  14 H :    0.031273
  15 H :    0.008379
  16 H :    0.032059
Sum of atomic charges:    0.0000000

LOEWDIN ATOMIC CHARGES
----------------------
   0 O :   -0.083954
   1 C :    0.014682
   2 C :   -0.059024
   3 C :   -0.042815
   4 C :   -0.047454
   5 C :   -0.042559
   6 C :   -0.048733
   7 H :    0.071594
   8 H :    0.027451
   9 H :    0.024944
  10 H :    0.032759
  11 H :    0.026634
  12 H :    0.028596
  13 H :    0.028965
  14 H :    0.025692
  15 H :    0.016751
  16 H :    0.026469

  Mayer bond orders larger than 0.1
B(  0-O ,  1-C ) :   1.0965 B(  0-O ,  7-H ) :   0.9766 B(  1-C ,  2-C ) :   0.9741
B(  1-C ,  3-C ) :   0.9678 B(  1-C ,  4-C ) :   1.0319 B(  2-C ,  3-C ) :   1.0376
B(  2-C ,  8-H ) :   0.9347 B(  2-C ,  9-H ) :   0.9385 B(  3-C , 10-H ) :   0.9347
B(  3-C , 11-H ) :   0.9448 B(  4-C ,  5-C ) :   0.9854 B(  4-C ,  6-C ) :   0.9889
B(  4-C , 12-H ) :   0.9158 B(  5-C ,  6-C ) :   1.0447 B(  5-C , 13-H ) :   0.9382
B(  5-C , 14-H ) :   0.9469 B(  6-C , 15-H ) :   0.9393 B(  6-C , 16-H ) :   0.9448

FINAL SINGLE POINT ENERGY      -309.189233039227

DIPOLE MOMENT
-------------
                                X             Y             Z
Electronic contribution:     -1.51917       0.36619      -1.53528
Nuclear contribution   :      1.64732      -0.83787       1.66831
                        -----------------------------------------
Total Dipole Moment    :      0.12814      -0.47167       0.13303
                        -----------------------------------------
Magnitude (a.u.)       :      0.50655
Magnitude (Debye)      :      1.28755

                             ****ORCA TERMINATED NORMALLY****
TOTAL RUN TIME: 0 days 0 hours 0 minutes 7 seconds 110 msec
