                         Program Version 3.0.3 - RELEASE   -
|  1> ! RI PBE def2-SVP def2-SVP/J NBO PAL2
|  2> % maxcore 2000
|  3> % output
|  4>     # printlevel mini
|  5>     print[ P_Basis ] 0
|  6>     print[ P_SCFInfo ] 1
|  7>     print[ P_SCFIterInfo ] 1
|  8>     print[ P_OrbEn ] 0
|  9>     print[ P_Cartesian ] 0
| 10> end
| 11> *xyz 0 1
| 12>  O        1.0252100000     0.4352480000    -0.1921490000
| 13>  C        2.3991420000     0.2849620000    -0.0190720000
| 14>  C        3.1232050000    -0.8217090000    -0.7220830000
| 15>  C        3.2439760000     0.6052510000    -1.1954100000
| 16>  C        4.5246040000     1.3453990000    -1.0428030000
| 17>  C        4.6266780000     2.5733740000    -0.2600350000
| 18>  O        5.1178160000     1.3408860000     0.2468160000
| 19>  H        0.5827370000    -0.2312700000     0.3403800000
| 20>  H        2.7861560000     0.5757310000     0.9547220000
| 21>  H        2.5340970000    -1.4945960000    -1.3327670000
| 22>  H        3.9745310000    -1.2638330000    -0.2181740000
| 23>  H        2.6914690000     0.8391850000    -2.0998820000
| 24>  H        5.2412950000     1.2033090000    -1.8517010000
| 25>  H        3.7362730000     2.9542570000     0.2341870000
| 26>  H        5.3883090000     3.3102950000    -0.5019290000
| 27> *
| 28>
| 29>                          ****END OF INPUT****
 Total Charge           Charge          ....    0
 Multiplicity           Mult            ....    1
 Number of Electrons    NEL             ....   54
 Basis Dimension        Dim             ....  138

MULLIKEN ATOMIC CHARGES
-----------------------
   0 O :   -0.236089
   1 C :    0.013803
   2 C :    0.002651
   3 C :   -0.052861
   4 C :    0.066530
   5 C :    0.134863
   6 O :   -0.291254
   7 H :    0.161682
   8 H :    0.022267
   9 H :    0.024464
  10 H :    0.036285
  11 H :    0.032520
  12 H :    0.019466
  13 H :    0.032227
  14 H :    0.033445
Sum of atomic charges:   -0.0000000

LOEWDIN ATOMIC CHARGES
----------------------
   0 O :   -0.099619
   1 C :    0.034713
   2 C :   -0.055341
   3 C :   -0.061363
   4 C :    0.046677
   5 C :    0.058148
   6 O :   -0.156939
   7 H :    0.074864
   8 H :    0.010139
   9 H :    0.028375
  10 H :    0.030644
  11 H :    0.038590
  12 H :    0.018240
  13 H :    0.016379
  14 H :    0.016493

  Mayer bond orders larger than 0.1
B(  0-O ,  1-C ) :   1.1375 B(  0-O ,  7-H ) :   0.9805 B(  1-C ,  2-C ) :   0.9881
B(  1-C ,  3-C ) :   0.9254 B(  1-C ,  8-H ) :   0.9370 B(  2-C ,  3-C ) :   0.9902
B(  2-C ,  9-H ) :   0.9292 B(  2-C , 10-H ) :   0.9350 B(  3-C ,  4-C ) :   1.0399
B(  3-C , 11-H ) :   0.9325 B(  4-C ,  5-C ) :   1.0888 B(  4-C ,  6-O ) :   0.9840
B(  4-C , 12-H ) :   0.9377 B(  5-C ,  6-O ) :   0.9924 B(  5-C , 13-H ) :   0.9275
B(  5-C , 14-H ) :   0.9394

FINAL SINGLE POINT ENERGY      -345.039278792908

DIPOLE MOMENT
-------------
                                X             Y             Z
Electronic contribution:      0.05764       0.51530       0.85969
Nuclear contribution   :     -0.27676      -0.63510      -0.99568
                        -----------------------------------------
Total Dipole Moment    :     -0.21912      -0.11980      -0.13599
                        -----------------------------------------
Magnitude (a.u.)       :      0.28436
Magnitude (Debye)      :      0.72278

                             ****ORCA TERMINATED NORMALLY****
TOTAL RUN TIME: 0 days 0 hours 0 minutes 6 seconds 835 msec
