                         Program Version 3.0.3 - RELEASE   -
|  1> ! RI PBE def2-SVP def2-SVP/J NBO PAL2
|  2> % maxcore 2000
|  3> % output
|  4>     # printlevel mini
|  5>     print[ P_Basis ] 0
|  6>     print[ P_SCFInfo ] 1
|  7>     print[ P_SCFIterInfo ] 1
|  8>     print[ P_OrbEn ] 0
|  9>     print[ P_Cartesian ] 0
| 10> end
| 11> *xyz 0 1
| 12>  O        0.9451250000     0.3764420000    -0.2637710000
| 13>  C        2.2889140000     0.1524330000     0.0132290000
| 14>  C        3.0654420000    -0.7406940000    -0.9110650000
| 15>  C        3.2557750000     0.7525250000    -0.9427580000
| 16>  C        2.6149630000     0.1300840000     1.4663690000
| 17>  C        1.8222470000     0.8664840000     2.4423320000
| 18>  O        1.6650510000    -0.5415330000     2.2852900000
| 19>  H        0.4494080000    -0.2943350000     0.2206480000
| 20>  H        2.5099640000    -1.1854940000    -1.7264830000
| 21>  H        3.8567320000    -1.3552340000    -0.4983490000
| 22>  H        2.8225040000     1.2920260000    -1.7750990000
| 23>  H        4.1773030000     1.1693740000    -0.5545040000
| 24>  H        3.6538950000    -0.0937460000     1.7047130000
| 25>  H        0.9848940000     1.4638060000     2.0947210000
| 26>  H        2.2773930000     1.1754530000     3.3795960000
| 27> *
| 28>
| 29>                          ****END OF INPUT****
 Total Charge           Charge          ....    0
 Multiplicity           Mult            ....    1
 Number of Electrons    NEL             ....   54
 Basis Dimension        Dim             ....  138

MULLIKEN ATOMIC CHARGES
-----------------------
   0 O :   -0.229012
   1 C :   -0.001474
   2 C :   -0.037077
   3 C :   -0.022926
   4 C :    0.065245
   5 C :    0.162546
   6 O :   -0.303674
   7 H :    0.163045
   8 H :    0.036757
   9 H :    0.032238
  10 H :    0.045726
  11 H :    0.032346
  12 H :   -0.002330
  13 H :    0.029322
  14 H :    0.029270
Sum of atomic charges:   -0.0000000

LOEWDIN ATOMIC CHARGES
----------------------
   0 O :   -0.080116
   1 C :   -0.003785
   2 C :   -0.053089
   3 C :   -0.040241
   4 C :    0.035021
   5 C :    0.057766
   6 O :   -0.161469
   7 H :    0.072600
   8 H :    0.032237
   9 H :    0.025933
  10 H :    0.037269
  11 H :    0.027671
  12 H :    0.018211
  13 H :    0.015224
  14 H :    0.016769

  Mayer bond orders larger than 0.1
B(  0-O ,  1-C ) :   1.1248 B(  0-O ,  7-H ) :   0.9621 B(  1-C ,  2-C ) :   0.9527
B(  1-C ,  3-C ) :   0.9635 B(  1-C ,  4-C ) :   0.9974 B(  2-C ,  3-C ) :   1.0334
B(  2-C ,  8-H ) :   0.9348 B(  2-C ,  9-H ) :   0.9425 B(  3-C , 10-H ) :   0.9317
B(  3-C , 11-H ) :   0.9477 B(  4-C ,  5-C ) :   1.0805 B(  4-C ,  6-O ) :   0.9790
B(  4-C , 12-H ) :   0.9186 B(  5-C ,  6-O ) :   0.9791 B(  5-C , 13-H ) :   0.9225
B(  5-C , 14-H ) :   0.9357

FINAL SINGLE POINT ENERGY      -345.045034841976

DIPOLE MOMENT
-------------
                                X             Y             Z
Electronic contribution:     -2.59488      -0.86897       1.88072
Nuclear contribution   :      2.97879       1.01980      -1.82026
                        -----------------------------------------
Total Dipole Moment    :      0.38391       0.15083       0.06046
                        -----------------------------------------
Magnitude (a.u.)       :      0.41688
Magnitude (Debye)      :      1.05963

                             ****ORCA TERMINATED NORMALLY****
TOTAL RUN TIME: 0 days 0 hours 0 minutes 6 seconds 855 msec
