                         Program Version 3.0.3 - RELEASE   -
|  1> ! RI PBE def2-SVP def2-SVP/J NBO PAL2
|  2> % maxcore 2000
|  3> % output
|  4>     # printlevel mini
|  5>     print[ P_Basis ] 0
|  6>     print[ P_SCFInfo ] 1
|  7>     print[ P_SCFIterInfo ] 1
|  8>     print[ P_OrbEn ] 0
|  9>     print[ P_Cartesian ] 0
| 10> end
| 11> *xyz 0 1
| 12>  O        0.8170640000     0.1980920000    -1.1748090000
| 13>  C        1.8936540000     0.0292490000    -0.3076700000
| 14>  C        2.8017670000    -1.1514430000    -0.4737440000
| 15>  C        3.2490680000     0.2271950000    -0.8805100000
| 16>  C        4.3214890000     0.9474000000    -0.0999170000
| 17>  C        5.7004590000     0.5221520000    -0.4874270000
| 18>  C        6.6007500000     0.0091790000     0.3390010000
| 19>  H        0.1459910000    -0.4521380000    -0.9502060000
| 20>  H        1.7263940000     0.3936820000     0.7049730000
| 21>  H        2.5601960000    -1.8507720000    -1.2648620000
| 22>  H        3.2452890000    -1.5928480000     0.4117440000
| 23>  H        3.2494540000     0.4073310000    -1.9512310000
| 24>  H        4.1761180000     0.7781880000     0.9720550000
| 25>  H        4.2126500000     2.0268080000    -0.2670410000
| 26>  H        5.9588440000     0.6454610000    -1.5382140000
| 27>  H        6.3845970000    -0.1325700000     1.3938490000
| 28>  H        7.5864150000    -0.2837740000    -0.0037990000
| 29> *
| 30>
| 31>                          ****END OF INPUT****
 Total Charge           Charge          ....    0
 Multiplicity           Mult            ....    1
 Number of Electrons    NEL             ....   54
 Basis Dimension        Dim             ....  148

MULLIKEN ATOMIC CHARGES
-----------------------
   0 O :   -0.235477
   1 C :    0.048989
   2 C :   -0.003403
   3 C :   -0.145735
   4 C :    0.134069
   5 C :   -0.069082
   6 C :   -0.035705
   7 H :    0.159442
   8 H :    0.004954
   9 H :    0.029167
  10 H :    0.023153
  11 H :    0.027053
  12 H :   -0.009452
  13 H :    0.032102
  14 H :    0.002848
  15 H :    0.016083
  16 H :    0.020996
Sum of atomic charges:   -0.0000000

LOEWDIN ATOMIC CHARGES
----------------------
   0 O :   -0.099426
   1 C :    0.032472
   2 C :   -0.064508
   3 C :   -0.044070
   4 C :   -0.034879
   5 C :   -0.024265
   6 C :   -0.069256
   7 H :    0.073664
   8 H :    0.005996
   9 H :    0.029505
  10 H :    0.025425
  11 H :    0.031335
  12 H :    0.027699
  13 H :    0.040392
  14 H :    0.025602
  15 H :    0.020336
  16 H :    0.023978

  Mayer bond orders larger than 0.1
B(  0-O ,  1-C ) :   1.1393 B(  0-O ,  7-H ) :   0.9810 B(  1-C ,  2-C ) :   1.0016
B(  1-C ,  3-C ) :   0.9295 B(  1-C ,  8-H ) :   0.9358 B(  2-C ,  3-C ) :   0.9935
B(  2-C ,  9-H ) :   0.9302 B(  2-C , 10-H ) :   0.9328 B(  3-C ,  4-C ) :   1.0585
B(  3-C , 11-H ) :   0.9361 B(  4-C ,  5-C ) :   1.0603 B(  4-C , 12-H ) :   0.9140
B(  4-C , 13-H ) :   0.9055 B(  5-C ,  6-C ) :   2.0232 B(  5-C , 14-H ) :   0.9531
B(  6-C , 15-H ) :   0.9467 B(  6-C , 16-H ) :   0.9409

FINAL SINGLE POINT ENERGY      -309.187364872056

DIPOLE MOMENT
-------------
                                X             Y             Z
Electronic contribution:     -3.73475       0.68140      -1.60289
Nuclear contribution   :      3.54155      -1.02280       1.88082
                        -----------------------------------------
Total Dipole Moment    :     -0.19320      -0.34139       0.27793
                        -----------------------------------------
Magnitude (a.u.)       :      0.48075
Magnitude (Debye)      :      1.22197

                             ****ORCA TERMINATED NORMALLY****
TOTAL RUN TIME: 0 days 0 hours 0 minutes 7 seconds 676 msec
