                         Program Version 3.0.3 - RELEASE   -
|  1> ! RI PBE def2-SVP def2-SVP/J NBO PAL2
|  2> % maxcore 2000
|  3> % output
|  4>     # printlevel mini
|  5>     print[ P_Basis ] 0
|  6>     print[ P_SCFInfo ] 1
|  7>     print[ P_SCFIterInfo ] 1
|  8>     print[ P_OrbEn ] 0
|  9>     print[ P_Cartesian ] 0
| 10> end
| 11> *xyz 0 1
| 12>  O        0.8571270000     0.5986710000    -0.4134780000
| 13>  C        2.1926370000     0.5218420000    -0.0339170000
| 14>  C        3.0563080000    -0.5717680000    -0.5896120000
| 15>  C        3.1970840000     0.8457200000    -1.0762110000
| 16>  C        4.4359260000     1.6384230000    -0.7329690000
| 17>  C        4.2309710000     3.0779730000    -0.7890390000
| 18>  C        4.0500330000     4.2632670000    -0.8436780000
| 19>  H        0.3740550000    -0.0953610000     0.0431480000
| 20>  H        2.4044020000     0.8615470000     0.9788570000
| 21>  H        2.5841610000    -1.2797820000    -1.2594090000
| 22>  H        3.8380640000    -0.9822780000     0.0397440000
| 23>  H        2.7745320000     1.0487630000    -2.0540210000
| 24>  H        5.2486020000     1.3651210000    -1.4154830000
| 25>  H        4.7789510000     1.3642900000     0.2711080000
| 26>  H        3.8871370000     5.3137720000    -0.8909490000
| 27> *
| 28>
| 29>                          ****END OF INPUT****
 Total Charge           Charge          ....    0
 Multiplicity           Mult            ....    1
 Number of Electrons    NEL             ....   52
 Basis Dimension        Dim             ....  138

MULLIKEN ATOMIC CHARGES
-----------------------
   0 O :   -0.232435
   1 C :    0.062159
   2 C :   -0.004814
   3 C :   -0.144173
   4 C :    0.163870
   5 C :    0.339265
   6 C :   -0.494437
   7 H :    0.161114
   8 H :    0.007936
   9 H :    0.028893
  10 H :    0.023756
  11 H :    0.037192
  12 H :    0.040160
  13 H :    0.015200
  14 H :   -0.003685
Sum of atomic charges:    0.0000000

LOEWDIN ATOMIC CHARGES
----------------------
   0 O :   -0.095601
   1 C :    0.036510
   2 C :   -0.064943
   3 C :   -0.037862
   4 C :   -0.036666
   5 C :   -0.019866
   6 C :   -0.087620
   7 H :    0.074852
   8 H :    0.008022
   9 H :    0.030162
  10 H :    0.025195
  11 H :    0.036286
  12 H :    0.051693
  13 H :    0.046521
  14 H :    0.033319

  Mayer bond orders larger than 0.1
B(  0-O ,  1-C ) :   1.1431 B(  0-O ,  7-H ) :   0.9802 B(  1-C ,  2-C ) :   0.9986
B(  1-C ,  3-C ) :   0.9354 B(  1-C ,  8-H ) :   0.9392 B(  2-C ,  3-C ) :   0.9824
B(  2-C ,  9-H ) :   0.9285 B(  2-C , 10-H ) :   0.9294 B(  3-C ,  4-C ) :   1.0590
B(  3-C , 11-H ) :   0.9388 B(  4-C ,  5-C ) :   1.0634 B(  4-C , 12-H ) :   0.8879
B(  4-C , 13-H ) :   0.8850 B(  5-C ,  6-C ) :   2.3420 B(  5-C , 14-H ) :  -0.1123
B(  6-C , 14-H ) :   1.1035

FINAL SINGLE POINT ENERGY      -307.944022884244

DIPOLE MOMENT
-------------
                                X             Y             Z
Electronic contribution:     -1.23798       2.72048      -0.30325
Nuclear contribution   :      1.30238      -3.39824       0.64746
                        -----------------------------------------
Total Dipole Moment    :      0.06441      -0.67777       0.34420
                        -----------------------------------------
Magnitude (a.u.)       :      0.76288
Magnitude (Debye)      :      1.93910

                             ****ORCA TERMINATED NORMALLY****
TOTAL RUN TIME: 0 days 0 hours 0 minutes 6 seconds 899 msec
