                         Program Version 3.0.3 - RELEASE   -
|  1> ! RI PBE def2-SVP def2-SVP/J NBO PAL2
|  2> % maxcore 2000
|  3> % output
|  4>     # printlevel mini
|  5>     print[ P_Basis ] 0
|  6>     print[ P_SCFInfo ] 1
|  7>     print[ P_SCFIterInfo ] 1
|  8>     print[ P_OrbEn ] 0
|  9>     print[ P_Cartesian ] 0
| 10> end
| 11> *xyz 0 1
| 12>  O        0.8168080000     0.3860500000    -1.0562760000
| 13>  C        2.0086370000     0.2379340000    -0.3559510000
| 14>  C        2.8779590000    -0.9534740000    -0.6123290000
| 15>  C        3.2628660000     0.4041350000    -1.1399010000
| 16>  C        4.4421420000     1.1482140000    -0.5726520000
| 17>  C        4.3198300000     2.6347370000    -0.7667160000
| 18>  O        5.2019200000     3.3454000000    -1.1626930000
| 19>  H        0.1779420000    -0.2391670000    -0.7029770000
| 20>  H        1.9992040000     0.6383580000     0.6569250000
| 21>  H        2.5202100000    -1.6771060000    -1.3341370000
| 22>  H        3.4479140000    -1.3665150000     0.2119790000
| 23>  H        3.0963750000     0.5369940000    -2.2042450000
| 24>  H        5.3879960000     0.8142140000    -1.0058980000
| 25>  H        4.4970980000     0.9705450000     0.5099590000
| 26>  H        3.3226090000     3.0575600000    -0.5131880000
| 27> *
| 28>
| 29>                          ****END OF INPUT****
 Total Charge           Charge          ....    0
 Multiplicity           Mult            ....    1
 Number of Electrons    NEL             ....   54
 Basis Dimension        Dim             ....  138

MULLIKEN ATOMIC CHARGES
-----------------------
   0 O :   -0.232527
   1 C :    0.059094
   2 C :   -0.003333
   3 C :   -0.179808
   4 C :    0.127350
   5 C :    0.074472
   6 O :   -0.156865
   7 H :    0.162883
   8 H :    0.007077
   9 H :    0.035484
  10 H :    0.026145
  11 H :    0.043466
  12 H :    0.021956
  13 H :    0.022615
  14 H :   -0.008006
Sum of atomic charges:    0.0000000

LOEWDIN ATOMIC CHARGES
----------------------
   0 O :   -0.096090
   1 C :    0.033352
   2 C :   -0.060104
   3 C :   -0.048963
   4 C :   -0.067523
   5 C :    0.091850
   6 O :   -0.104218
   7 H :    0.076364
   8 H :    0.005883
   9 H :    0.032452
  10 H :    0.026743
  11 H :    0.036997
  12 H :    0.037423
  13 H :    0.046401
  14 H :   -0.010568

  Mayer bond orders larger than 0.1
B(  0-O ,  1-C ) :   1.1455 B(  0-O ,  7-H ) :   0.9794 B(  1-C ,  2-C ) :   1.0012
B(  1-C ,  3-C ) :   0.9193 B(  1-C ,  8-H ) :   0.9422 B(  2-C ,  3-C ) :   0.9841
B(  2-C ,  9-H ) :   0.9290 B(  2-C , 10-H ) :   0.9324 B(  3-C ,  4-C ) :   1.0440
B(  3-C , 11-H ) :   0.9414 B(  4-C ,  5-C ) :   0.9707 B(  4-C , 12-H ) :   0.9119
B(  4-C , 13-H ) :   0.8924 B(  5-C ,  6-O ) :   2.1806 B(  5-C , 14-H ) :   0.9226

FINAL SINGLE POINT ENERGY      -345.068851999774

DIPOLE MOMENT
-------------
                                X             Y             Z
Electronic contribution:      0.69272       4.07443      -1.31803
Nuclear contribution   :     -1.36267      -5.21776       1.97726
                        -----------------------------------------
Total Dipole Moment    :     -0.66995      -1.14333       0.65923
                        -----------------------------------------
Magnitude (a.u.)       :      1.48008
Magnitude (Debye)      :      3.76206

                             ****ORCA TERMINATED NORMALLY****
TOTAL RUN TIME: 0 days 0 hours 0 minutes 6 seconds 516 msec
