                         Program Version 3.0.3 - RELEASE   -
|  1> ! RI PBE def2-SVP def2-SVP/J NBO PAL2
|  2> % maxcore 2000
|  3> % output
|  4>     # printlevel mini
|  5>     print[ P_Basis ] 0
|  6>     print[ P_SCFInfo ] 1
|  7>     print[ P_SCFIterInfo ] 1
|  8>     print[ P_OrbEn ] 0
|  9>     print[ P_Cartesian ] 0
| 10> end
| 11> *xyz 0 1
| 12>  O        0.3463950000     0.4803490000    -0.9696390000
| 13>  C        1.3178910000    -0.3958390000    -0.5017690000
| 14>  C        2.1417670000    -1.1980300000    -1.4719170000
| 15>  C        2.7324800000    -0.0236830000    -0.7701970000
| 16>  O        3.7064480000    -0.2950570000     0.1876260000
| 17>  C        3.7695370000     0.5968020000     1.2082540000
| 18>  C        4.7292100000     0.5629650000     2.1206990000
| 19>  H       -0.3907230000    -0.0359120000    -1.3072580000
| 20>  H        1.1191500000    -0.8568550000     0.4635980000
| 21>  H        1.9349900000    -1.0868970000    -2.5289770000
| 22>  H        2.4700290000    -2.1798330000    -1.1542900000
| 23>  H        2.8950150000     0.8802750000    -1.3518830000
| 24>  H        2.9686540000     1.3326080000     1.2280620000
| 25>  H        5.5191460000    -0.1766030000     2.0851610000
| 26>  H        4.7258190000     1.2856000000     2.9240200000
| 27> *
| 28>
| 29>                          ****END OF INPUT****
 Total Charge           Charge          ....    0
 Multiplicity           Mult            ....    1
 Number of Electrons    NEL             ....   54
 Basis Dimension        Dim             ....  138

MULLIKEN ATOMIC CHARGES
-----------------------
   0 O :   -0.234212
   1 C :    0.031174
   2 C :   -0.008060
   3 C :    0.057244
   4 O :   -0.231827
   5 C :    0.092347
   6 C :   -0.073909
   7 H :    0.164202
   8 H :    0.024467
   9 H :    0.037820
  10 H :    0.044156
  11 H :    0.032232
  12 H :    0.012301
  13 H :    0.026875
  14 H :    0.025190
Sum of atomic charges:   -0.0000000

LOEWDIN ATOMIC CHARGES
----------------------
   0 O :   -0.096462
   1 C :    0.019040
   2 C :   -0.064403
   3 C :    0.033098
   4 O :   -0.059273
   5 C :    0.033800
   6 C :   -0.125770
   7 H :    0.076821
   8 H :    0.014160
   9 H :    0.034851
  10 H :    0.037224
  11 H :    0.020219
  12 H :    0.016759
  13 H :    0.028439
  14 H :    0.031498

  Mayer bond orders larger than 0.1
B(  0-O ,  1-C ) :   1.1368 B(  0-O ,  7-H ) :   0.9776 B(  1-C ,  2-C ) :   0.9836
B(  1-C ,  3-C ) :   0.9346 B(  1-C ,  8-H ) :   0.9363 B(  2-C ,  3-C ) :   0.9978
B(  2-C ,  9-H ) :   0.9252 B(  2-C , 10-H ) :   0.9302 B(  3-C ,  4-O ) :   1.0369
B(  3-C , 11-H ) :   0.9336 B(  4-O ,  5-C ) :   1.0919 B(  5-C ,  6-C ) :   1.9345
B(  5-C , 12-H ) :   0.9446 B(  6-C , 13-H ) :   0.9479 B(  6-C , 14-H ) :   0.9368

FINAL SINGLE POINT ENERGY      -345.040675005039

DIPOLE MOMENT
-------------
                                X             Y             Z
Electronic contribution:     -0.90726       0.22799      -1.05972
Nuclear contribution   :      0.21704      -0.52884       0.71026
                        -----------------------------------------
Total Dipole Moment    :     -0.69021      -0.30085      -0.34946
                        -----------------------------------------
Magnitude (a.u.)       :      0.83007
Magnitude (Debye)      :      2.10988

                             ****ORCA TERMINATED NORMALLY****
TOTAL RUN TIME: 0 days 0 hours 0 minutes 6 seconds 609 msec
