                         Program Version 3.0.3 - RELEASE   -
|  1> ! RI PBE def2-SVP def2-SVP/J NBO PAL2
|  2> % maxcore 2000
|  3> % output
|  4>     # printlevel mini
|  5>     print[ P_Basis ] 0
|  6>     print[ P_SCFInfo ] 1
|  7>     print[ P_SCFIterInfo ] 1
|  8>     print[ P_OrbEn ] 0
|  9>     print[ P_Cartesian ] 0
| 10> end
| 11> *xyz 0 1
| 12>  O        0.9455660000     0.1410560000     0.0727620000
| 13>  C        2.3566680000     0.0707170000     0.0599100000
| 14>  C        2.9533580000    -1.0599730000     0.9438950000
| 15>  C        3.7211190000    -0.2012310000     1.9494640000
| 16>  C        4.3961630000     0.8277290000     1.0147640000
| 17>  C        2.9385880000     1.2787870000     0.7831330000
| 18>  C        2.6997080000     0.9129380000     2.2640950000
| 19>  H        0.5982040000    -0.6508460000    -0.3443990000
| 20>  H        2.7197990000     0.0179380000    -0.9746700000
| 21>  H        3.6039880000    -1.7385190000     0.3865130000
| 22>  H        2.1566110000    -1.6438220000     1.4117190000
| 23>  H        4.2719010000    -0.7175530000     2.7356300000
| 24>  H        4.9669300000     0.4531090000     0.1599610000
| 25>  H        4.9753660000     1.5752400000     1.5585750000
| 26>  H        2.6844780000     2.2549340000     0.3722450000
| 27>  H        1.6902550000     0.6256090000     2.5618940000
| 28>  H        3.1048980000     1.6668870000     2.9407090000
| 29> *
| 30>
| 31>                          ****END OF INPUT****
 Total Charge           Charge          ....    0
 Multiplicity           Mult            ....    1
 Number of Electrons    NEL             ....   54
 Basis Dimension        Dim             ....  148

MULLIKEN ATOMIC CHARGES
-----------------------
   0 O :   -0.252376
   1 C :    0.074861
   2 C :    0.188052
   3 C :   -0.206151
   4 C :    0.065912
   5 C :   -0.134217
   6 C :    0.082530
   7 H :    0.154715
   8 H :   -0.007247
   9 H :    0.001695
  10 H :   -0.008488
  11 H :   -0.011810
  12 H :    0.007959
  13 H :    0.019066
  14 H :   -0.009492
  15 H :    0.015315
  16 H :    0.019676
Sum of atomic charges:   -0.0000000

LOEWDIN ATOMIC CHARGES
----------------------
   0 O :   -0.113714
   1 C :    0.049936
   2 C :   -0.046649
   3 C :   -0.020986
   4 C :   -0.021406
   5 C :   -0.026122
   6 C :   -0.019490
   7 H :    0.068370
   8 H :    0.002504
   9 H :    0.018605
  10 H :    0.019790
  11 H :    0.008058
  12 H :    0.010154
  13 H :    0.023426
  14 H :    0.011797
  15 H :    0.013243
  16 H :    0.022483

  Mayer bond orders larger than 0.1
B(  0-O ,  1-C ) :   1.1042 B(  0-O ,  7-H ) :   0.9802 B(  1-C ,  2-C ) :   1.0246
B(  1-C ,  5-C ) :   1.0340 B(  1-C ,  8-H ) :   0.9061 B(  2-C ,  3-C ) :   1.0762
B(  2-C ,  9-H ) :   0.9100 B(  2-C , 10-H ) :   0.8900 B(  3-C ,  4-C ) :   0.9813
B(  3-C ,  6-C ) :   0.9811 B(  3-C , 11-H ) :   0.9610 B(  4-C ,  5-C ) :   0.9778
B(  4-C , 12-H ) :   0.9382 B(  4-C , 13-H ) :   0.9406 B(  5-C ,  6-C ) :   0.9806
B(  5-C , 14-H ) :   0.9652 B(  6-C , 15-H ) :   0.9317 B(  6-C , 16-H ) :   0.9467

FINAL SINGLE POINT ENERGY      -309.212391426632

DIPOLE MOMENT
-------------
                                X             Y             Z
Electronic contribution:     -2.34082       0.34622      -1.11778
Nuclear contribution   :      2.54127      -0.76603       0.91932
                        -----------------------------------------
Total Dipole Moment    :      0.20045      -0.41981      -0.19846
                        -----------------------------------------
Magnitude (a.u.)       :      0.50577
Magnitude (Debye)      :      1.28557

                             ****ORCA TERMINATED NORMALLY****
TOTAL RUN TIME: 0 days 0 hours 0 minutes 7 seconds 348 msec
