                         Program Version 3.0.3 - RELEASE   -
|  1> ! RI PBE def2-SVP def2-SVP/J NBO PAL2
|  2> % maxcore 2000
|  3> % output
|  4>     # printlevel mini
|  5>     print[ P_Basis ] 0
|  6>     print[ P_SCFInfo ] 1
|  7>     print[ P_SCFIterInfo ] 1
|  8>     print[ P_OrbEn ] 0
|  9>     print[ P_Cartesian ] 0
| 10> end
| 11> *xyz 0 1
| 12>  O        1.1496680000     0.0301130000     0.1168930000
| 13>  C        2.3481640000     0.0413150000     0.0954790000
| 14>  C        3.3132570000    -1.1467760000     0.1312540000
| 15>  C        4.6178500000    -0.3506800000     0.0732250000
| 16>  C        4.3064070000     0.6909160000    -1.0232170000
| 17>  C        3.2896630000     1.2200890000     0.0268200000
| 18>  C        4.3431720000     0.7842420000     1.0834770000
| 19>  H        3.1535500000    -1.8077080000    -0.7243710000
| 20>  H        3.1844640000    -1.7292560000     1.0469840000
| 21>  H        5.5512960000    -0.9106850000     0.0817420000
| 22>  H        3.9219430000     0.3390930000    -1.9836120000
| 23>  H        5.1232020000     1.3978260000    -1.1752790000
| 24>  H        2.8419680000     2.2097550000    -0.0092100000
| 25>  H        3.9929300000     0.5192890000     2.0840170000
| 26>  H        5.1636750000     1.5005670000     1.1439160000
| 27> *
| 28>
| 29>                          ****END OF INPUT****
 Total Charge           Charge          ....    0
 Multiplicity           Mult            ....    1
 Number of Electrons    NEL             ....   52
 Basis Dimension        Dim             ....  138

MULLIKEN ATOMIC CHARGES
-----------------------
   0 O :   -0.129655
   1 C :   -0.007218
   2 C :    0.147460
   3 C :   -0.210163
   4 C :    0.081246
   5 C :   -0.131469
   6 C :    0.074617
   7 H :    0.036868
   8 H :    0.036279
   9 H :    0.003945
  10 H :    0.025669
  11 H :    0.028290
  12 H :   -0.012751
  13 H :    0.026948
  14 H :    0.029933
Sum of atomic charges:    0.0000000

LOEWDIN ATOMIC CHARGES
----------------------
   0 O :   -0.113199
   1 C :    0.056634
   2 C :   -0.056717
   3 C :   -0.022605
   4 C :   -0.009549
   5 C :   -0.044537
   6 C :   -0.010575
   7 H :    0.038935
   8 H :    0.038932
   9 H :    0.013610
  10 H :    0.017037
  11 H :    0.028046
  12 H :    0.018399
  13 H :    0.017221
  14 H :    0.028368

  Mayer bond orders larger than 0.1
B(  0-O ,  1-C ) :   2.2529 B(  1-C ,  2-C ) :   0.9208 B(  1-C ,  5-C ) :   0.9378
B(  2-C ,  3-C ) :   1.0190 B(  2-C ,  7-H ) :   0.9078 B(  2-C ,  8-H ) :   0.9075
B(  3-C ,  4-C ) :   0.9796 B(  3-C ,  6-C ) :   0.9797 B(  3-C ,  9-H ) :   0.9523
B(  4-C ,  5-C ) :   0.9443 B(  4-C , 10-H ) :   0.9436 B(  4-C , 11-H ) :   0.9364
B(  5-C ,  6-C ) :   0.9440 B(  5-C , 12-H ) :   0.9730 B(  6-C , 13-H ) :   0.9443
B(  6-C , 14-H ) :   0.9370

FINAL SINGLE POINT ENERGY      -308.024306053053

DIPOLE MOMENT
-------------
                                X             Y             Z
Electronic contribution:     -4.86275      -0.06973       0.08755
Nuclear contribution   :      6.00104       0.10367      -0.10936
                        -----------------------------------------
Total Dipole Moment    :      1.13829       0.03393      -0.02181
                        -----------------------------------------
Magnitude (a.u.)       :      1.13900
Magnitude (Debye)      :      2.89512

                             ****ORCA TERMINATED NORMALLY****
TOTAL RUN TIME: 0 days 0 hours 0 minutes 6 seconds 832 msec
