                         Program Version 3.0.3 - RELEASE   -
|  1> ! RI PBE def2-SVP def2-SVP/J NBO PAL2
|  2> % maxcore 2000
|  3> % output
|  4>     # printlevel mini
|  5>     print[ P_Basis ] 0
|  6>     print[ P_SCFInfo ] 1
|  7>     print[ P_SCFIterInfo ] 1
|  8>     print[ P_OrbEn ] 0
|  9>     print[ P_Cartesian ] 0
| 10> end
| 11> *xyz 0 1
| 12>  O        0.9933270000     0.1256590000     0.0517720000
| 13>  C        2.3946280000     0.0341470000     0.0582590000
| 14>  C        2.9840830000    -1.0964570000     0.9434060000
| 15>  C        3.7473630000    -0.1984380000     1.9211070000
| 16>  C        4.4571360000     0.8047590000     1.0027920000
| 17>  C        2.9879350000     1.2100880000     0.8365390000
| 18>  O        2.7653130000     0.8263170000     2.2161920000
| 19>  H        0.6335610000    -0.6863410000    -0.3125390000
| 20>  H        2.7855340000     0.0062980000    -0.9673650000
| 21>  H        3.6253010000    -1.7941780000     0.4011970000
| 22>  H        2.1907690000    -1.6474750000     1.4512620000
| 23>  H        4.2085020000    -0.6431050000     2.8020170000
| 24>  H        5.0151160000     0.4375750000     0.1387390000
| 25>  H        5.0197890000     1.5493210000     1.5630920000
| 26>  H        2.6491340000     2.2126300000     0.5822410000
| 27> *
| 28>
| 29>                          ****END OF INPUT****
 Total Charge           Charge          ....    0
 Multiplicity           Mult            ....    1
 Number of Electrons    NEL             ....   54
 Basis Dimension        Dim             ....  138

MULLIKEN ATOMIC CHARGES
-----------------------
   0 O :   -0.246458
   1 C :    0.094936
   2 C :    0.185509
   3 C :   -0.020221
   4 C :    0.048229
   5 C :    0.048080
   6 O :   -0.322614
   7 H :    0.156812
   8 H :   -0.008623
   9 H :    0.005508
  10 H :    0.004304
  11 H :    0.002282
  12 H :    0.016797
  13 H :    0.031209
  14 H :    0.004250
Sum of atomic charges:   -0.0000000

LOEWDIN ATOMIC CHARGES
----------------------
   0 O :   -0.105551
   1 C :    0.033451
   2 C :   -0.059479
   3 C :    0.076520
   4 C :   -0.042254
   5 C :    0.071477
   6 O :   -0.166333
   7 H :    0.070055
   8 H :    0.002965
   9 H :    0.022011
  10 H :    0.026933
  11 H :    0.009889
  12 H :    0.014932
  13 H :    0.031201
  14 H :    0.014184

  Mayer bond orders larger than 0.1
B(  0-O ,  1-C ) :   1.1231 B(  0-O ,  7-H ) :   0.9797 B(  1-C ,  2-C ) :   1.0512
B(  1-C ,  5-C ) :   0.9856 B(  1-C ,  8-H ) :   0.8861 B(  2-C ,  3-C ) :   1.0586
B(  2-C ,  9-H ) :   0.8996 B(  2-C , 10-H ) :   0.8784 B(  3-C ,  4-C ) :   1.0151
B(  3-C ,  6-O ) :   0.9665 B(  3-C , 11-H ) :   0.9634 B(  4-C ,  5-C ) :   1.0131
B(  4-C , 12-H ) :   0.9381 B(  4-C , 13-H ) :   0.9197 B(  5-C ,  6-O ) :   0.9899
B(  5-C , 14-H ) :   0.9662

FINAL SINGLE POINT ENERGY      -345.057296798558

DIPOLE MOMENT
-------------
                                X             Y             Z
Electronic contribution:     -2.52738       1.65459       1.46898
Nuclear contribution   :      3.08018      -2.30134      -2.12263
                        -----------------------------------------
Total Dipole Moment    :      0.55280      -0.64675      -0.65365
                        -----------------------------------------
Magnitude (a.u.)       :      1.07291
Magnitude (Debye)      :      2.72712

                             ****ORCA TERMINATED NORMALLY****
TOTAL RUN TIME: 0 days 0 hours 0 minutes 7 seconds 55 msec
