                         Program Version 3.0.3 - RELEASE   -
|  1> ! RI PBE def2-SVP def2-SVP/J NBO PAL2
|  2> % maxcore 2000
|  3> % output
|  4>     # printlevel mini
|  5>     print[ P_Basis ] 0
|  6>     print[ P_SCFInfo ] 1
|  7>     print[ P_SCFIterInfo ] 1
|  8>     print[ P_OrbEn ] 0
|  9>     print[ P_Cartesian ] 0
| 10> end
| 11> *xyz 0 1
| 12>  O        1.0409100000    -0.0194870000    -0.1373100000
| 13>  C        2.2356930000    -0.0367140000    -0.1211180000
| 14>  C        3.2054740000    -1.2215490000    -0.0681780000
| 15>  C        4.4783490000    -0.3786550000    -0.1381090000
| 16>  C        4.2039390000     0.6401920000    -1.2522080000
| 17>  C        3.2327560000     1.1204880000    -0.1621980000
| 18>  O        4.1855130000     0.6651370000     0.8371770000
| 19>  H        3.0492370000    -1.9092710000    -0.9019520000
| 20>  H        3.1190050000    -1.7685130000     0.8720540000
| 21>  H        5.4427120000    -0.8624790000     0.0026840000
| 22>  H        3.8075310000     0.2918720000    -2.2080770000
| 23>  H        5.0269260000     1.3412760000    -1.3838350000
| 24>  H        2.8705560000     2.1383150000    -0.0453290000
| 25> *
| 26>
| 27>                          ****END OF INPUT****
 Total Charge           Charge          ....    0
 Multiplicity           Mult            ....    1
 Number of Electrons    NEL             ....   52
 Basis Dimension        Dim             ....  128

MULLIKEN ATOMIC CHARGES
-----------------------
   0 O :   -0.117046
   1 C :   -0.000790
   2 C :    0.155347
   3 C :   -0.023647
   4 C :    0.057715
   5 C :    0.058160
   6 O :   -0.318328
   7 H :    0.042088
   8 H :    0.052090
   9 H :    0.016319
  10 H :    0.037208
  11 H :    0.039383
  12 H :    0.001503
Sum of atomic charges:   -0.0000000

LOEWDIN ATOMIC CHARGES
----------------------
   0 O :   -0.098315
   1 C :    0.048167
   2 C :   -0.071028
   3 C :    0.080626
   4 C :   -0.032228
   5 C :    0.052676
   6 O :   -0.162641
   7 H :    0.041087
   8 H :    0.047669
   9 H :    0.014901
  10 H :    0.023428
  11 H :    0.036200
  12 H :    0.019458

  Mayer bond orders larger than 0.1
B(  0-O ,  1-C ) :   2.2564 B(  1-C ,  2-C ) :   0.9281 B(  1-C ,  5-C ) :   0.9059
B(  2-C ,  3-C ) :   1.0009 B(  2-C ,  7-H ) :   0.9018 B(  2-C ,  8-H ) :   0.8945
B(  3-C ,  4-C ) :   1.0219 B(  3-C ,  6-O ) :   0.9534 B(  3-C ,  9-H ) :   0.9594
B(  4-C ,  5-C ) :   0.9817 B(  4-C , 10-H ) :   0.9442 B(  4-C , 11-H ) :   0.9108
B(  5-C ,  6-O ) :   0.9453 B(  5-C , 12-H ) :   0.9787

FINAL SINGLE POINT ENERGY      -343.866750665805

DIPOLE MOMENT
-------------
                                X             Y             Z
Electronic contribution:     -2.87537       1.13958       2.03576
Nuclear contribution   :      3.74826      -1.34860      -2.65361
                        -----------------------------------------
Total Dipole Moment    :      0.87290      -0.20902      -0.61785
                        -----------------------------------------
Magnitude (a.u.)       :      1.08967
Magnitude (Debye)      :      2.76972

                             ****ORCA TERMINATED NORMALLY****
TOTAL RUN TIME: 0 days 0 hours 0 minutes 6 seconds 517 msec
