                         Program Version 3.0.3 - RELEASE   -
|  1> ! RI PBE def2-SVP def2-SVP/J NBO PAL2
|  2> % maxcore 2000
|  3> % output
|  4>     # printlevel mini
|  5>     print[ P_Basis ] 0
|  6>     print[ P_SCFInfo ] 1
|  7>     print[ P_SCFIterInfo ] 1
|  8>     print[ P_OrbEn ] 0
|  9>     print[ P_Cartesian ] 0
| 10> end
| 11> *xyz 0 1
| 12>  O        1.1009820000     0.2587620000     0.5241250000
| 13>  C        2.4562190000     0.0806090000     0.1429270000
| 14>  C        2.6960000000    -1.3219450000    -0.4319360000
| 15>  C        2.3193710000    -1.2198150000    -1.8996200000
| 16>  C        3.3596410000    -0.6838040000    -2.8348280000
| 17>  C        2.3251290000     0.2399180000    -2.2697490000
| 18>  C        2.7021630000     1.0303750000    -1.0284190000
| 19>  H        0.8790390000    -0.4133180000     1.1734410000
| 20>  H        3.1149300000     0.2949930000     0.9957180000
| 21>  H        2.0965510000    -2.0681370000     0.0968350000
| 22>  H        3.7449220000    -1.6114270000    -0.3051890000
| 23>  H        1.5655530000    -1.8871420000    -2.2979080000
| 24>  H        3.2854610000    -0.9505080000    -3.8825470000
| 25>  H        4.3776290000    -0.5947810000    -2.4668100000
| 26>  H        1.5738560000     0.6404080000    -2.9385070000
| 27>  H        2.0932170000     1.9270710000    -0.9055130000
| 28>  H        3.7505280000     1.3433400000    -1.0537210000
| 29> *
| 30>
| 31>                          ****END OF INPUT****
 Total Charge           Charge          ....    0
 Multiplicity           Mult            ....    1
 Number of Electrons    NEL             ....   54
 Basis Dimension        Dim             ....  148

MULLIKEN ATOMIC CHARGES
-----------------------
   0 O :   -0.260336
   1 C :    0.052028
   2 C :    0.103802
   3 C :   -0.142956
   4 C :    0.046931
   5 C :   -0.149703
   6 C :    0.130261
   7 H :    0.148391
   8 H :   -0.015329
   9 H :   -0.005205
  10 H :   -0.001495
  11 H :    0.014246
  12 H :    0.025009
  13 H :    0.017840
  14 H :    0.018520
  15 H :    0.016918
  16 H :    0.001076
Sum of atomic charges:   -0.0000000

LOEWDIN ATOMIC CHARGES
----------------------
   0 O :   -0.118034
   1 C :    0.054844
   2 C :   -0.046972
   3 C :   -0.039859
   4 C :   -0.039797
   5 C :   -0.037703
   6 C :   -0.034871
   7 H :    0.063959
   8 H :   -0.000805
   9 H :    0.023192
  10 H :    0.024498
  11 H :    0.021923
  12 H :    0.027443
  13 H :    0.019574
  14 H :    0.023561
  15 H :    0.033684
  16 H :    0.025363

  Mayer bond orders larger than 0.1
B(  0-O ,  1-C ) :   1.0958 B(  0-O ,  7-H ) :   0.9825 B(  1-C ,  2-C ) :   1.0494
B(  1-C ,  6-C ) :   1.0612 B(  1-C ,  8-H ) :   0.9234 B(  2-C ,  3-C ) :   1.0653
B(  2-C ,  9-H ) :   0.9282 B(  2-C , 10-H ) :   0.9035 B(  3-C ,  4-C ) :   0.9947
B(  3-C ,  5-C ) :   0.9631 B(  3-C , 11-H ) :   0.9482 B(  4-C ,  5-C ) :   0.9953
B(  4-C , 12-H ) :   0.9388 B(  4-C , 13-H ) :   0.9335 B(  5-C ,  6-C ) :   1.0742
B(  5-C , 14-H ) :   0.9484 B(  6-C , 15-H ) :   0.9219 B(  6-C , 16-H ) :   0.9126

FINAL SINGLE POINT ENERGY      -309.217335946774

DIPOLE MOMENT
-------------
                                X             Y             Z
Electronic contribution:     -2.19562       0.62498       1.19679
Nuclear contribution   :      2.38211      -1.03069      -0.97568
                        -----------------------------------------
Total Dipole Moment    :      0.18650      -0.40570       0.22111
                        -----------------------------------------
Magnitude (a.u.)       :      0.49826
Magnitude (Debye)      :      1.26648

                             ****ORCA TERMINATED NORMALLY****
TOTAL RUN TIME: 0 days 0 hours 0 minutes 7 seconds 839 msec
