                         Program Version 3.0.3 - RELEASE   -
|  1> ! RI PBE def2-SVP def2-SVP/J NBO PAL2
|  2> % maxcore 2000
|  3> % output
|  4>     # printlevel mini
|  5>     print[ P_Basis ] 0
|  6>     print[ P_SCFInfo ] 1
|  7>     print[ P_SCFIterInfo ] 1
|  8>     print[ P_OrbEn ] 0
|  9>     print[ P_Cartesian ] 0
| 10> end
| 11> *xyz 0 1
| 12>  O        2.0391400000     0.0832460000     1.7088190000
| 13>  C        2.6024590000     0.0525490000     0.6498750000
| 14>  C        2.9899370000    -1.2115870000    -0.1078410000
| 15>  C        3.9646030000    -0.7645290000    -1.1632630000
| 16>  C        5.1762610000    -0.0226740000    -0.6890670000
| 17>  C        3.9941950000     0.7477860000    -1.1913770000
| 18>  C        3.0384220000     1.2715200000    -0.1540910000
| 19>  H        2.0756910000    -1.6229160000    -0.5514750000
| 20>  H        3.3723950000    -1.9605220000     0.5895500000
| 21>  H        4.0358670000    -1.3264990000    -2.0857640000
| 22>  H        6.0596040000    -0.0514550000    -1.3144460000
| 23>  H        5.3845940000    -0.0065630000     0.3767700000
| 24>  H        4.0869220000     1.2720240000    -2.1339560000
| 25>  H        2.1406550000     1.7014430000    -0.6134590000
| 26>  H        3.4503550000     2.0303680000     0.5152250000
| 27> *
| 28>
| 29>                          ****END OF INPUT****
 Total Charge           Charge          ....    0
 Multiplicity           Mult            ....    1
 Number of Electrons    NEL             ....   52
 Basis Dimension        Dim             ....  138

MULLIKEN ATOMIC CHARGES
-----------------------
   0 O :   -0.135123
   1 C :   -0.176220
   2 C :    0.174481
   3 C :   -0.160344
   4 C :    0.023834
   5 C :   -0.162439
   6 C :    0.176960
   7 H :    0.043277
   8 H :    0.037318
   9 H :    0.017245
  10 H :    0.030975
  11 H :    0.033555
  12 H :    0.016929
  13 H :    0.043019
  14 H :    0.036532
Sum of atomic charges:   -0.0000000

LOEWDIN ATOMIC CHARGES
----------------------
   0 O :   -0.110296
   1 C :    0.059006
   2 C :   -0.060775
   3 C :   -0.041271
   4 C :   -0.040856
   5 C :   -0.041281
   6 C :   -0.060330
   7 H :    0.051733
   8 H :    0.042952
   9 H :    0.024267
  10 H :    0.032482
  11 H :    0.025806
  12 H :    0.024152
  13 H :    0.051678
  14 H :    0.042734

  Mayer bond orders larger than 0.1
B(  0-O ,  1-C ) :   2.2284 B(  1-C ,  2-C ) :   0.9460 B(  1-C ,  6-C ) :   0.9462
B(  2-C ,  3-C ) :   1.0445 B(  2-C ,  7-H ) :   0.8998 B(  2-C ,  8-H ) :   0.9101
B(  3-C ,  4-C ) :   0.9859 B(  3-C ,  5-C ) :   0.9498 B(  3-C ,  9-H ) :   0.9477
B(  4-C ,  5-C ) :   0.9859 B(  4-C , 10-H ) :   0.9354 B(  4-C , 11-H ) :   0.9473
B(  5-C ,  6-C ) :   1.0439 B(  5-C , 12-H ) :   0.9481 B(  6-C , 13-H ) :   0.8997
B(  6-C , 14-H ) :   0.9104

FINAL SINGLE POINT ENERGY      -308.035657876838

DIPOLE MOMENT
-------------
                                X             Y             Z
Electronic contribution:     -2.90921       0.11599       3.16837
Nuclear contribution   :      3.32664      -0.14078      -4.10163
                        -----------------------------------------
Total Dipole Moment    :      0.41743      -0.02479      -0.93325
                        -----------------------------------------
Magnitude (a.u.)       :      1.02266
Magnitude (Debye)      :      2.59939

                             ****ORCA TERMINATED NORMALLY****
TOTAL RUN TIME: 0 days 0 hours 0 minutes 6 seconds 271 msec
