                         Program Version 3.0.3 - RELEASE   -
|  1> ! RI PBE def2-SVP def2-SVP/J NBO PAL2
|  2> % maxcore 2000
|  3> % output
|  4>     # printlevel mini
|  5>     print[ P_Basis ] 0
|  6>     print[ P_SCFInfo ] 1
|  7>     print[ P_SCFIterInfo ] 1
|  8>     print[ P_OrbEn ] 0
|  9>     print[ P_Cartesian ] 0
| 10> end
| 11> *xyz 0 1
| 12>  O        1.5963900000     0.2650900000     1.2506990000
| 13>  C        2.3646410000     0.0479790000     0.3674220000
| 14>  C        2.9677240000    -1.2865940000    -0.0428960000
| 15>  C        3.9464900000    -0.9453240000    -1.1289440000
| 16>  C        5.0535260000     0.0144070000    -0.7759750000
| 17>  C        3.7801790000     0.5246980000    -1.3523330000
| 18>  O        2.8409280000     1.0335600000    -0.4372080000
| 19>  H        2.1595890000    -1.9304530000    -0.3985840000
| 20>  H        3.4011080000    -1.7642080000     0.8380970000
| 21>  H        4.0857150000    -1.6227070000    -1.9604810000
| 22>  H        5.9280180000     0.0178030000    -1.4143680000
| 23>  H        5.2476640000     0.2232010000     0.2704660000
| 24>  H        3.7232280000     0.9998570000    -2.3214940000
| 25> *
| 26>
| 27>                          ****END OF INPUT****
 Total Charge           Charge          ....    0
 Multiplicity           Mult            ....    1
 Number of Electrons    NEL             ....   52
 Basis Dimension        Dim             ....  128

MULLIKEN ATOMIC CHARGES
-----------------------
   0 O :   -0.138488
   1 C :    0.064519
   2 C :    0.089718
   3 C :   -0.179508
   4 C :    0.011422
   5 C :    0.082991
   6 O :   -0.206880
   7 H :    0.059075
   8 H :    0.056419
   9 H :    0.032817
  10 H :    0.044515
  11 H :    0.045865
  12 H :    0.037536
Sum of atomic charges:    0.0000000

LOEWDIN ATOMIC CHARGES
----------------------
   0 O :   -0.120911
   1 C :    0.045414
   2 C :   -0.061885
   3 C :   -0.054230
   4 C :   -0.046705
   5 C :    0.054330
   6 O :   -0.049769
   7 H :    0.054785
   8 H :    0.050876
   9 H :    0.031003
  10 H :    0.038142
  11 H :    0.034725
  12 H :    0.024226

  Mayer bond orders larger than 0.1
B(  0-O ,  1-C ) :   2.1999 B(  1-C ,  2-C ) :   0.9560 B(  1-C ,  6-O ) :   1.1145
B(  2-C ,  3-C ) :   1.0812 B(  2-C ,  7-H ) :   0.9089 B(  2-C ,  8-H ) :   0.9112
B(  3-C ,  4-C ) :   0.9670 B(  3-C ,  5-C ) :   0.9385 B(  3-C ,  9-H ) :   0.9387
B(  4-C ,  5-C ) :   0.9914 B(  4-C , 10-H ) :   0.9364 B(  4-C , 11-H ) :   0.9327
B(  5-C ,  6-O ) :   0.9971 B(  5-C , 12-H ) :   0.9617

FINAL SINGLE POINT ENERGY      -343.911044180432

DIPOLE MOMENT
-------------
                                X             Y             Z
Electronic contribution:     -4.03371       2.87882       2.10598
Nuclear contribution   :      5.02268      -3.62715      -3.09503
                        -----------------------------------------
Total Dipole Moment    :      0.98898      -0.74833      -0.98905
                        -----------------------------------------
Magnitude (a.u.)       :      1.58628
Magnitude (Debye)      :      4.03200

                             ****ORCA TERMINATED NORMALLY****
TOTAL RUN TIME: 0 days 0 hours 0 minutes 6 seconds 64 msec
