                         Program Version 3.0.3 - RELEASE   -
|  1> ! RI PBE def2-SVP def2-SVP/J NBO PAL2
|  2> % maxcore 2000
|  3> % output
|  4>     # printlevel mini
|  5>     print[ P_Basis ] 0
|  6>     print[ P_SCFInfo ] 1
|  7>     print[ P_SCFIterInfo ] 1
|  8>     print[ P_OrbEn ] 0
|  9>     print[ P_Cartesian ] 0
| 10> end
| 11> *xyz 0 1
| 12>  O        1.7168080000     0.2620780000     1.1031180000
| 13>  C        2.6662400000    -0.0478920000     0.1035690000
| 14>  C        2.4848220000    -1.4448100000    -0.5213750000
| 15>  C        2.9100450000    -1.2681540000    -1.9507320000
| 16>  O        4.1425740000    -0.5671200000    -2.0958130000
| 17>  C        2.9265120000     0.1571040000    -2.2696740000
| 18>  C        2.5137920000     0.9396640000    -1.0572900000
| 19>  H        1.9304830000    -0.2383590000     1.8941480000
| 20>  H        3.6792580000     0.0334740000     0.5102100000
| 21>  H        1.4244320000    -1.7162900000    -0.4881710000
| 22>  H        3.0522390000    -2.2189140000     0.0023220000
| 23>  H        2.7216840000    -2.0358420000    -2.6953960000
| 24>  H        2.7522700000     0.5371200000    -3.2716630000
| 25>  H        1.4603280000     1.2251260000    -1.1450460000
| 26>  H        3.0978020000     1.8499360000    -0.9072080000
| 27> *
| 28>
| 29>                          ****END OF INPUT****
 Total Charge           Charge          ....    0
 Multiplicity           Mult            ....    1
 Number of Electrons    NEL             ....   54
 Basis Dimension        Dim             ....  138

MULLIKEN ATOMIC CHARGES
-----------------------
   0 O :   -0.254439
   1 C :   -0.039783
   2 C :    0.154733
   3 C :   -0.005232
   4 O :   -0.279134
   5 C :   -0.005261
   6 C :    0.164648
   7 H :    0.155134
   8 H :    0.011823
   9 H :    0.011171
  10 H :    0.014272
  11 H :    0.016743
  12 H :    0.014469
  13 H :    0.018221
  14 H :    0.022633
Sum of atomic charges:    0.0000000

LOEWDIN ATOMIC CHARGES
----------------------
   0 O :   -0.112123
   1 C :    0.052809
   2 C :   -0.063035
   3 C :    0.043130
   4 O :   -0.158717
   5 C :    0.044697
   6 C :   -0.046218
   7 H :    0.070605
   8 H :    0.011457
   9 H :    0.032204
  10 H :    0.026754
  11 H :    0.014783
  12 H :    0.014876
  13 H :    0.036515
  14 H :    0.032263

  Mayer bond orders larger than 0.1
B(  0-O ,  1-C ) :   1.1121 B(  0-O ,  7-H ) :   0.9812 B(  1-C ,  2-C ) :   1.0217
B(  1-C ,  6-C ) :   1.0364 B(  1-C ,  8-H ) :   0.9125 B(  2-C ,  3-C ) :   1.0141
B(  2-C ,  9-H ) :   0.9024 B(  2-C , 10-H ) :   0.9142 B(  3-C ,  4-O ) :   0.9954
B(  3-C ,  5-C ) :   1.0313 B(  3-C , 11-H ) :   0.9544 B(  4-O ,  5-C ) :   0.9866
B(  5-C ,  6-C ) :   1.0148 B(  5-C , 12-H ) :   0.9590 B(  6-C , 13-H ) :   0.9081
B(  6-C , 14-H ) :   0.9170

FINAL SINGLE POINT ENERGY      -345.078419741978

DIPOLE MOMENT
-------------
                                X             Y             Z
Electronic contribution:      1.51694       0.02905      -0.82053
Nuclear contribution   :     -1.82515      -0.34367       1.06840
                        -----------------------------------------
Total Dipole Moment    :     -0.30821      -0.31462       0.24787
                        -----------------------------------------
Magnitude (a.u.)       :      0.50539
Magnitude (Debye)      :      1.28459

                             ****ORCA TERMINATED NORMALLY****
TOTAL RUN TIME: 0 days 0 hours 0 minutes 6 seconds 976 msec
