                         Program Version 3.0.3 - RELEASE   -
|  1> ! RI PBE def2-SVP def2-SVP/J NBO PAL2
|  2> % maxcore 2000
|  3> % output
|  4>     # printlevel mini
|  5>     print[ P_Basis ] 0
|  6>     print[ P_SCFInfo ] 1
|  7>     print[ P_SCFIterInfo ] 1
|  8>     print[ P_OrbEn ] 0
|  9>     print[ P_Cartesian ] 0
| 10> end
| 11> *xyz 0 1
| 12>  O        1.6026340000     0.0531490000     1.5102440000
| 13>  C        2.3876920000     0.0286680000     0.6058700000
| 14>  C        2.9406100000    -1.2362390000    -0.0461740000
| 15>  C        4.0263200000    -0.7501420000    -0.9580940000
| 16>  O        5.0326290000    -0.0144280000    -0.2745490000
| 17>  C        4.0413410000     0.7164090000    -0.9847540000
| 18>  C        2.9661520000     1.2574550000    -0.0915070000
| 19>  H        2.1338530000    -1.7317900000    -0.5971160000
| 20>  H        3.2927630000    -1.9308180000     0.7193600000
| 21>  H        4.3716680000    -1.3502120000    -1.7938100000
| 22>  H        4.3985930000     1.2785150000    -1.8415970000
| 23>  H        2.1695060000     1.7490720000    -0.6603930000
| 24>  H        3.3327390000     1.9720400000     0.6484110000
| 25> *
| 26>
| 27>                          ****END OF INPUT****
 Total Charge           Charge          ....    0
 Multiplicity           Mult            ....    1
 Number of Electrons    NEL             ....   52
 Basis Dimension        Dim             ....  128

MULLIKEN ATOMIC CHARGES
-----------------------
   0 O :   -0.128432
   1 C :   -0.150680
   2 C :    0.154933
   3 C :   -0.001939
   4 O :   -0.272924
   5 C :   -0.002129
   6 C :    0.157111
   7 H :    0.047698
   8 H :    0.053364
   9 H :    0.021525
  10 H :    0.021171
  11 H :    0.047339
  12 H :    0.052962
Sum of atomic charges:   -0.0000000

LOEWDIN ATOMIC CHARGES
----------------------
   0 O :   -0.102996
   1 C :    0.067632
   2 C :   -0.075192
   3 C :    0.043353
   4 O :   -0.147148
   5 C :    0.043404
   6 C :   -0.074844
   7 H :    0.052435
   8 H :    0.053218
   9 H :    0.017360
  10 H :    0.017300
  11 H :    0.052377
  12 H :    0.053102

  Mayer bond orders larger than 0.1
B(  0-O ,  1-C ) :   2.2392 B(  1-C ,  2-C ) :   0.9415 B(  1-C ,  6-C ) :   0.9417
B(  2-C ,  3-C ) :   0.9987 B(  2-C ,  7-H ) :   0.8996 B(  2-C ,  8-H ) :   0.8913
B(  3-C ,  4-O ) :   0.9806 B(  3-C ,  5-C ) :   1.0394 B(  3-C ,  9-H ) :   0.9545
B(  4-O ,  5-C ) :   0.9803 B(  5-C ,  6-C ) :   0.9984 B(  5-C , 10-H ) :   0.9546
B(  6-C , 11-H ) :   0.8996 B(  6-C , 12-H ) :   0.8914

FINAL SINGLE POINT ENERGY      -343.891027178281

DIPOLE MOMENT
-------------
                                X             Y             Z
Electronic contribution:      0.03383       0.03903       2.14312
Nuclear contribution   :     -0.02527      -0.05796      -3.20266
                        -----------------------------------------
Total Dipole Moment    :      0.00857      -0.01894      -1.05955
                        -----------------------------------------
Magnitude (a.u.)       :      1.05975
Magnitude (Debye)      :      2.69368

                             ****ORCA TERMINATED NORMALLY****
TOTAL RUN TIME: 0 days 0 hours 0 minutes 6 seconds 438 msec
