                         Program Version 3.0.3 - RELEASE   -
|  1> ! RI PBE def2-SVP def2-SVP/J NBO PAL2
|  2> % maxcore 2000
|  3> % output
|  4>     # printlevel mini
|  5>     print[ P_Basis ] 0
|  6>     print[ P_SCFInfo ] 1
|  7>     print[ P_SCFIterInfo ] 1
|  8>     print[ P_OrbEn ] 0
|  9>     print[ P_Cartesian ] 0
| 10> end
| 11> *xyz 0 1
| 12>  O        1.5968090000    -0.0466320000     1.3546150000
| 13>  C        2.4188150000    -0.0459890000     0.4915280000
| 14>  C        3.1740710000     1.0544290000    -0.2409820000
| 15>  C        4.1383570000    -0.0447560000    -0.7780510000
| 16>  C        3.1753070000    -1.1452480000    -0.2414450000
| 17>  C        4.4242070000    -0.0443000000    -2.1939480000
| 18>  C        4.6441500000    -0.0439540000    -3.3746390000
| 19>  H        3.6003370000     1.8499370000     0.3710040000
| 20>  H        2.5636330000     1.4976360000    -1.0316400000
| 21>  H        5.0731700000    -0.0443480000    -0.2125780000
| 22>  H        3.6024640000    -1.9405390000     0.3702000000
| 23>  H        2.5653650000    -1.5887990000    -1.0322930000
| 24>  H        4.8438250000    -0.0434370000    -4.4200800000
| 25> *
| 26>
| 27>                          ****END OF INPUT****
 Total Charge           Charge          ....    0
 Multiplicity           Mult            ....    1
 Number of Electrons    NEL             ....   50
 Basis Dimension        Dim             ....  128

MULLIKEN ATOMIC CHARGES
-----------------------
   0 O :   -0.111757
   1 C :   -0.089781
   2 C :    0.128939
   3 C :   -0.248982
   4 C :    0.128939
   5 C :    0.446405
   6 C :   -0.496188
   7 H :    0.049418
   8 H :    0.047527
   9 H :    0.047618
  10 H :    0.049425
  11 H :    0.047518
  12 H :    0.000920
Sum of atomic charges:   -0.0000000

LOEWDIN ATOMIC CHARGES
----------------------
   0 O :   -0.090377
   1 C :    0.050841
   2 C :   -0.043493
   3 C :   -0.042617
   4 C :   -0.043491
   5 C :   -0.026177
   6 C :   -0.081159
   7 H :    0.041058
   8 H :    0.053618
   9 H :    0.051329
  10 H :    0.041058
  11 H :    0.053617
  12 H :    0.035793

  Mayer bond orders larger than 0.1
B(  0-O ,  1-C ) :   2.2458 B(  1-C ,  2-C ) :   0.9845 B(  1-C ,  4-C ) :   0.9845
B(  2-C ,  3-C ) :   1.0622 B(  2-C ,  4-C ) :  -0.1297 B(  2-C ,  7-H ) :   0.9184
B(  2-C ,  8-H ) :   0.8886 B(  3-C ,  4-C ) :   1.0622 B(  3-C ,  5-C ) :   0.9582
B(  3-C ,  9-H ) :   0.8558 B(  4-C , 10-H ) :   0.9184 B(  4-C , 11-H ) :   0.8886
B(  5-C ,  6-C ) :   2.2830 B(  5-C , 12-H ) :  -0.1173 B(  6-C , 12-H ) :   1.1075

FINAL SINGLE POINT ENERGY      -306.763603879499

DIPOLE MOMENT
-------------
                                X             Y             Z
Electronic contribution:     -1.61943      -0.00131       1.45982
Nuclear contribution   :      2.19174       0.00181      -1.94201
                        -----------------------------------------
Total Dipole Moment    :      0.57232       0.00049      -0.48219
                        -----------------------------------------
Magnitude (a.u.)       :      0.74837
Magnitude (Debye)      :      1.90220

                             ****ORCA TERMINATED NORMALLY****
TOTAL RUN TIME: 0 days 0 hours 0 minutes 6 seconds 309 msec
