                         Program Version 3.0.3 - RELEASE   -
|  1> ! RI PBE def2-SVP def2-SVP/J NBO PAL2
|  2> % maxcore 2000
|  3> % output
|  4>     # printlevel mini
|  5>     print[ P_Basis ] 0
|  6>     print[ P_SCFInfo ] 1
|  7>     print[ P_SCFIterInfo ] 1
|  8>     print[ P_OrbEn ] 0
|  9>     print[ P_Cartesian ] 0
| 10> end
| 11> *xyz 0 1
| 12>  O        1.6902140000     1.0728730000    -1.1252420000
| 13>  C        2.5234490000     0.5296640000    -0.4765600000
| 14>  C        3.7158360000     0.9991080000     0.3430320000
| 15>  C        4.2677720000    -0.4415290000     0.2708300000
| 16>  C        2.8918470000    -0.9574920000    -0.2417890000
| 17>  C        2.8258900000    -1.8838530000    -1.3412520000
| 18>  C        2.7847430000    -2.6329870000    -2.2786000000
| 19>  H        3.4067580000     1.2985200000     1.3483570000
| 20>  H        4.3046010000     1.8046370000    -0.0967620000
| 21>  H        5.0368350000    -0.5520850000    -0.4923260000
| 22>  H        4.6159890000    -0.8822560000     1.2028640000
| 23>  H        2.2840880000    -1.3141580000     0.5991780000
| 24>  H        2.7419970000    -3.2977330000    -3.1086400000
| 25> *
| 26>
| 27>                          ****END OF INPUT****
 Total Charge           Charge          ....    0
 Multiplicity           Mult            ....    1
 Number of Electrons    NEL             ....   50
 Basis Dimension        Dim             ....  128

MULLIKEN ATOMIC CHARGES
-----------------------
   0 O :   -0.092843
   1 C :    0.012946
   2 C :   -0.017742
   3 C :    0.085424
   4 C :   -0.184633
   5 C :    0.463451
   6 C :   -0.485191
   7 H :    0.052124
   8 H :    0.048469
   9 H :    0.033268
  10 H :    0.016706
  11 H :    0.066355
  12 H :    0.001667
Sum of atomic charges:    0.0000000

LOEWDIN ATOMIC CHARGES
----------------------
   0 O :   -0.075412
   1 C :    0.067894
   2 C :   -0.062411
   3 C :   -0.011734
   4 C :   -0.081678
   5 C :   -0.021588
   6 C :   -0.070818
   7 H :    0.049532
   8 H :    0.041426
   9 H :    0.035646
  10 H :    0.027400
  11 H :    0.065694
  12 H :    0.036050

  Mayer bond orders larger than 0.1
B(  0-O ,  1-C ) :   2.2914 B(  1-C ,  2-C ) :   0.9947 B(  1-C ,  4-C ) :   0.8780
B(  2-C ,  3-C ) :   1.1229 B(  2-C ,  7-H ) :   0.9062 B(  2-C ,  8-H ) :   0.9212
B(  3-C ,  4-C ) :   1.0777 B(  3-C ,  9-H ) :   0.9267 B(  3-C , 10-H ) :   0.9039
B(  4-C ,  5-C ) :   1.0187 B(  4-C , 11-H ) :   0.8337 B(  5-C ,  6-C ) :   2.2750
B(  5-C , 12-H ) :  -0.1131 B(  6-C , 12-H ) :   1.1037

FINAL SINGLE POINT ENERGY      -306.762973381985

DIPOLE MOMENT
-------------
                                X             Y             Z
Electronic contribution:     -3.65205       0.23979      -2.56745
Nuclear contribution   :      4.36360      -0.43675       3.26514
                        -----------------------------------------
Total Dipole Moment    :      0.71155      -0.19696       0.69769
                        -----------------------------------------
Magnitude (a.u.)       :      1.01581
Magnitude (Debye)      :      2.58197

                             ****ORCA TERMINATED NORMALLY****
TOTAL RUN TIME: 0 days 0 hours 0 minutes 6 seconds 308 msec
