                         Program Version 3.0.3 - RELEASE   -
|  1> ! RI PBE def2-SVP def2-SVP/J NBO PAL2
|  2> % maxcore 2000
|  3> % output
|  4>     # printlevel mini
|  5>     print[ P_Basis ] 0
|  6>     print[ P_SCFInfo ] 1
|  7>     print[ P_SCFIterInfo ] 1
|  8>     print[ P_OrbEn ] 0
|  9>     print[ P_Cartesian ] 0
| 10> end
| 11> *xyz 0 1
| 12>  O        1.1523680000     0.5126370000     0.0447830000
| 13>  C        2.5160330000     0.2293670000     0.1772830000
| 14>  C        3.3083930000     0.9719850000     1.2894130000
| 15>  C        4.0453430000    -0.3437370000     1.5958180000
| 16>  C        2.9182530000    -1.1016100000     0.8722920000
| 17>  C        3.1694740000     0.3746230000    -1.1563880000
| 18>  C        2.5529450000     0.7160960000    -2.2775730000
| 19>  H        0.7420410000     0.4161360000     0.9073540000
| 20>  H        2.6318490000     1.2464730000     2.1038670000
| 21>  H        3.8871950000     1.8501430000     1.0005020000
| 22>  H        4.2200140000    -0.5873410000     2.6436500000
| 23>  H        4.9953300000    -0.4155260000     1.0640670000
| 24>  H        2.1328920000    -1.4055150000     1.5703070000
| 25>  H        3.1723290000    -1.9501590000     0.2358600000
| 26>  H        4.2385310000     0.1752200000    -1.1648270000
| 27>  H        1.4893590000     0.9191730000    -2.2917760000
| 28>  H        3.0987700000     0.8009440000    -3.2098450000
| 29> *
| 30>
| 31>                          ****END OF INPUT****
 Total Charge           Charge          ....    0
 Multiplicity           Mult            ....    1
 Number of Electrons    NEL             ....   54
 Basis Dimension        Dim             ....  148

MULLIKEN ATOMIC CHARGES
-----------------------
   0 O :   -0.215247
   1 C :   -0.153365
   2 C :    0.094796
   3 C :   -0.039611
   4 C :    0.100842
   5 C :   -0.014481
   6 C :   -0.018692
   7 H :    0.152873
   8 H :   -0.008439
   9 H :    0.019250
  10 H :    0.011679
  11 H :    0.026063
  12 H :   -0.008978
  13 H :    0.015414
  14 H :   -0.008151
  15 H :    0.029967
  16 H :    0.016081
Sum of atomic charges:   -0.0000000

LOEWDIN ATOMIC CHARGES
----------------------
   0 O :   -0.084460
   1 C :    0.016491
   2 C :   -0.036036
   3 C :   -0.035882
   4 C :   -0.035534
   5 C :   -0.034412
   6 C :   -0.057373
   7 H :    0.065553
   8 H :    0.021553
   9 H :    0.019702
  10 H :    0.019863
  11 H :    0.024544
  12 H :    0.021357
  13 H :    0.018999
  14 H :    0.026287
  15 H :    0.026068
  16 H :    0.023279

  Mayer bond orders larger than 0.1
B(  0-O ,  1-C ) :   1.1465 B(  0-O ,  7-H ) :   0.9688 B(  1-C ,  2-C ) :   1.0100
B(  1-C ,  4-C ) :   1.0089 B(  1-C ,  5-C ) :   0.9676 B(  2-C ,  3-C ) :   1.1134
B(  2-C ,  8-H ) :   0.9026 B(  2-C ,  9-H ) :   0.9323 B(  3-C ,  4-C ) :   1.1137
B(  3-C , 10-H ) :   0.9233 B(  3-C , 11-H ) :   0.9382 B(  4-C , 12-H ) :   0.9035
B(  4-C , 13-H ) :   0.9316 B(  5-C ,  6-C ) :   2.0206 B(  5-C , 14-H ) :   0.9490
B(  6-C , 15-H ) :   0.9353 B(  6-C , 16-H ) :   0.9354

FINAL SINGLE POINT ENERGY      -309.196587222477

DIPOLE MOMENT
-------------
                                X             Y             Z
Electronic contribution:     -2.57811       0.71573      -1.11479
Nuclear contribution   :      2.72783      -0.86798       1.76258
                        -----------------------------------------
Total Dipole Moment    :      0.14972      -0.15225       0.64779
                        -----------------------------------------
Magnitude (a.u.)       :      0.68208
Magnitude (Debye)      :      1.73370

                             ****ORCA TERMINATED NORMALLY****
TOTAL RUN TIME: 0 days 0 hours 0 minutes 7 seconds 665 msec
