                         Program Version 3.0.3 - RELEASE   -
|  1> ! RI PBE def2-SVP def2-SVP/J NBO PAL2
|  2> % maxcore 2000
|  3> % output
|  4>     # printlevel mini
|  5>     print[ P_Basis ] 0
|  6>     print[ P_SCFInfo ] 1
|  7>     print[ P_SCFIterInfo ] 1
|  8>     print[ P_OrbEn ] 0
|  9>     print[ P_Cartesian ] 0
| 10> end
| 11> *xyz 0 1
| 12>  O        0.8892350000     0.0424690000     0.2431610000
| 13>  C        2.2901190000     0.0425830000     0.1696680000
| 14>  C        3.0770590000     1.1172620000     0.9688820000
| 15>  C        4.1276250000     0.0427230000     1.2997420000
| 16>  C        3.0772470000    -1.0319810000     0.9688170000
| 17>  C        2.6623960000     0.0426550000    -1.2388250000
| 18>  C        3.0099470000     0.0428000000    -2.3872080000
| 19>  H        0.6470410000     0.0399650000     1.1736490000
| 20>  H        2.5012860000     1.3961010000     1.8560890000
| 21>  H        3.3825350000     2.0186160000     0.4388790000
| 22>  H        4.5470390000     0.0427060000     2.3052410000
| 23>  H        4.9430440000     0.0427970000     0.5756370000
| 24>  H        2.5016130000    -1.3109840000     1.8560840000
| 25>  H        3.3828530000    -1.9332780000     0.4387910000
| 26>  H        3.3038580000     0.0429640000    -3.4101170000
| 27> *
| 28>
| 29>                          ****END OF INPUT****
 Total Charge           Charge          ....    0
 Multiplicity           Mult            ....    1
 Number of Electrons    NEL             ....   52
 Basis Dimension        Dim             ....  138

MULLIKEN ATOMIC CHARGES
-----------------------
   0 O :   -0.209856
   1 C :   -0.204503
   2 C :    0.100724
   3 C :   -0.028659
   4 C :    0.100577
   5 C :    0.512285
   6 C :   -0.512138
   7 H :    0.152254
   8 H :   -0.004093
   9 H :    0.023803
  10 H :    0.013042
  11 H :    0.036949
  12 H :   -0.004089
  13 H :    0.023828
  14 H :   -0.000122
Sum of atomic charges:   -0.0000000

LOEWDIN ATOMIC CHARGES
----------------------
   0 O :   -0.082689
   1 C :    0.005700
   2 C :   -0.028229
   3 C :   -0.034222
   4 C :   -0.028231
   5 C :   -0.005323
   6 C :   -0.073435
   7 H :    0.065344
   8 H :    0.023084
   9 H :    0.023972
  10 H :    0.020124
  11 H :    0.031194
  12 H :    0.023073
  13 H :    0.023979
  14 H :    0.035659

  Mayer bond orders larger than 0.1
B(  0-O ,  1-C ) :   1.1576 B(  0-O ,  7-H ) :   0.9706 B(  1-C ,  2-C ) :   1.0280
B(  1-C ,  4-C ) :   1.0282 B(  1-C ,  5-C ) :   0.8742 B(  2-C ,  3-C ) :   1.1080
B(  2-C ,  8-H ) :   0.9043 B(  2-C ,  9-H ) :   0.9294 B(  3-C ,  4-C ) :   1.1081
B(  3-C , 10-H ) :   0.9265 B(  3-C , 11-H ) :   0.9388 B(  4-C , 12-H ) :   0.9043
B(  4-C , 13-H ) :   0.9294 B(  5-C ,  6-C ) :   2.3020 B(  5-C , 14-H ) :  -0.1164
B(  6-C , 14-H ) :   1.1053

FINAL SINGLE POINT ENERGY      -307.948032896662

DIPOLE MOMENT
-------------
                                X             Y             Z
Electronic contribution:     -3.09519       0.00045      -3.74030
Nuclear contribution   :      3.42014      -0.00190       4.40286
                        -----------------------------------------
Total Dipole Moment    :      0.32495      -0.00144       0.66256
                        -----------------------------------------
Magnitude (a.u.)       :      0.73796
Magnitude (Debye)      :      1.87573

                             ****ORCA TERMINATED NORMALLY****
TOTAL RUN TIME: 0 days 0 hours 0 minutes 6 seconds 719 msec
