                         Program Version 3.0.3 - RELEASE   -
|  1> ! RI PBE def2-SVP def2-SVP/J NBO PAL2
|  2> % maxcore 2000
|  3> % output
|  4>     # printlevel mini
|  5>     print[ P_Basis ] 0
|  6>     print[ P_SCFInfo ] 1
|  7>     print[ P_SCFIterInfo ] 1
|  8>     print[ P_OrbEn ] 0
|  9>     print[ P_Cartesian ] 0
| 10> end
| 11> *xyz 0 1
| 12>  O        0.8617940000    -0.3221220000     0.3073450000
| 13>  C        2.2383310000    -0.1381670000     0.1063980000
| 14>  C        2.9279570000     1.0903690000     0.7259110000
| 15>  C        4.0899580000     0.1641670000     1.1793270000
| 16>  C        3.1218100000    -1.0332470000     0.9727330000
| 17>  C        5.2605160000     0.1650720000     0.2623550000
| 18>  C        6.5210810000     0.3337670000     0.6389290000
| 19>  H        0.3800640000     0.2351020000    -0.3091050000
| 20>  H        2.4919040000    -0.2395710000    -0.9565360000
| 21>  H        2.3546500000     1.4426560000     1.5858900000
| 22>  H        3.1742070000     1.9349840000     0.0794780000
| 23>  H        4.4299200000     0.3144840000     2.2055520000
| 24>  H        2.5989400000    -1.2745710000     1.9002830000
| 25>  H        3.5218590000    -1.9481460000     0.5337660000
| 26>  H        5.0460120000     0.0138740000    -0.7956290000
| 27>  H        6.7828590000     0.4867620000     1.6816130000
| 28>  H        7.3347270000     0.3246750000    -0.0769110000
| 29> *
| 30>
| 31>                          ****END OF INPUT****
 Total Charge           Charge          ....    0
 Multiplicity           Mult            ....    1
 Number of Electrons    NEL             ....   54
 Basis Dimension        Dim             ....  148

MULLIKEN ATOMIC CHARGES
-----------------------
   0 O :   -0.237294
   1 C :   -0.040973
   2 C :    0.134357
   3 C :   -0.176177
   4 C :    0.136245
   5 C :    0.010647
   6 C :   -0.040705
   7 H :    0.155965
   8 H :   -0.000327
   9 H :   -0.000733
  10 H :    0.011833
  11 H :   -0.006903
  12 H :    0.010748
  13 H :    0.012625
  14 H :   -0.006873
  15 H :    0.015956
  16 H :    0.021608
Sum of atomic charges:    0.0000000

LOEWDIN ATOMIC CHARGES
----------------------
   0 O :   -0.109641
   1 C :    0.041694
   2 C :   -0.042722
   3 C :   -0.030874
   4 C :   -0.025404
   5 C :   -0.024939
   6 C :   -0.068555
   7 H :    0.071217
   8 H :    0.005355
   9 H :    0.028405
  10 H :    0.015166
  11 H :    0.021429
  12 H :    0.032538
  13 H :    0.018436
  14 H :    0.022631
  15 H :    0.021254
  16 H :    0.024008

  Mayer bond orders larger than 0.1
B(  0-O ,  1-C ) :   1.1520 B(  0-O ,  7-H ) :   0.9800 B(  1-C ,  2-C ) :   1.0637
B(  1-C ,  4-C ) :   1.0751 B(  1-C ,  8-H ) :   0.9210 B(  2-C ,  3-C ) :   1.0599
B(  2-C ,  9-H ) :   0.8800 B(  2-C , 10-H ) :   0.9323 B(  3-C ,  4-C ) :   1.0426
B(  3-C ,  5-C ) :   1.0211 B(  3-C , 11-H ) :   0.9107 B(  4-C , 12-H ) :   0.8932
B(  4-C , 13-H ) :   0.9304 B(  5-C ,  6-C ) :   2.0027 B(  5-C , 14-H ) :   0.9512
B(  6-C , 15-H ) :   0.9504 B(  6-C , 16-H ) :   0.9392

FINAL SINGLE POINT ENERGY      -309.194078392143

DIPOLE MOMENT
-------------
                                X             Y             Z
Electronic contribution:     -3.07347      -0.56673      -0.36494
Nuclear contribution   :      2.99057       0.90539      -0.01213
                        -----------------------------------------
Total Dipole Moment    :     -0.08290       0.33866      -0.37707
                        -----------------------------------------
Magnitude (a.u.)       :      0.51356
Magnitude (Debye)      :      1.30537

                             ****ORCA TERMINATED NORMALLY****
TOTAL RUN TIME: 0 days 0 hours 0 minutes 7 seconds 269 msec
