                         Program Version 3.0.3 - RELEASE   -
|  1> ! RI PBE def2-SVP def2-SVP/J NBO PAL2
|  2> % maxcore 2000
|  3> % output
|  4>     # printlevel mini
|  5>     print[ P_Basis ] 0
|  6>     print[ P_SCFInfo ] 1
|  7>     print[ P_SCFIterInfo ] 1
|  8>     print[ P_OrbEn ] 0
|  9>     print[ P_Cartesian ] 0
| 10> end
| 11> *xyz 0 1
| 12>  O        1.0169620000     0.0097730000     0.1690870000
| 13>  C        2.4149090000     0.0694560000     0.0936140000
| 14>  C        3.1631450000     1.1374490000     0.9124050000
| 15>  C        4.2001060000     0.0451600000     1.2969240000
| 16>  C        3.1331870000    -1.0126750000     0.8970250000
| 17>  C        5.3850990000     0.0363440000     0.4648630000
| 18>  C        6.3643030000     0.0302900000    -0.2317900000
| 19>  H        0.6426360000     0.6369670000    -0.4543260000
| 20>  H        2.7573070000     0.0705520000    -0.9479310000
| 21>  H        2.5702420000     1.4211510000     1.7840370000
| 22>  H        3.5337400000     2.0275960000     0.4042480000
| 23>  H        4.4958100000     0.0332640000     2.3476350000
| 24>  H        2.5303040000    -1.2883710000     1.7642640000
| 25>  H        3.4721840000    -1.9086100000     0.3789800000
| 26>  H        7.2343750000     0.0237640000    -0.8443450000
| 27> *
| 28>
| 29>                          ****END OF INPUT****
 Total Charge           Charge          ....    0
 Multiplicity           Mult            ....    1
 Number of Electrons    NEL             ....   52
 Basis Dimension        Dim             ....  138

MULLIKEN ATOMIC CHARGES
-----------------------
   0 O :   -0.236160
   1 C :   -0.018131
   2 C :    0.141901
   3 C :   -0.250261
   4 C :    0.134179
   5 C :    0.478673
   6 C :   -0.513648
   7 H :    0.157410
   8 H :    0.009883
   9 H :    0.001896
  10 H :    0.019066
  11 H :    0.041680
  12 H :    0.013947
  13 H :    0.024921
  14 H :   -0.005356
Sum of atomic charges:   -0.0000000

LOEWDIN ATOMIC CHARGES
----------------------
   0 O :   -0.107251
   1 C :    0.044530
   2 C :   -0.031756
   3 C :   -0.042338
   4 C :   -0.015800
   5 C :   -0.017251
   6 C :   -0.096301
   7 H :    0.072777
   8 H :    0.012594
   9 H :    0.028528
  10 H :    0.020221
  11 H :    0.042039
  12 H :    0.032783
  13 H :    0.024082
  14 H :    0.033144

  Mayer bond orders larger than 0.1
B(  0-O ,  1-C ) :   1.1590 B(  0-O ,  7-H ) :   0.9797 B(  1-C ,  2-C ) :   1.0559
B(  1-C ,  4-C ) :   1.0723 B(  1-C ,  8-H ) :   0.9231 B(  2-C ,  3-C ) :   1.0753
B(  2-C ,  9-H ) :   0.8842 B(  2-C , 10-H ) :   0.9319 B(  3-C ,  4-C ) :   1.0590
B(  3-C ,  5-C ) :   0.9491 B(  3-C , 11-H ) :   0.8875 B(  4-C , 12-H ) :   0.8957
B(  4-C , 13-H ) :   0.9308 B(  5-C ,  6-C ) :   2.2603 B(  5-C , 14-H ) :  -0.1173
B(  6-C , 14-H ) :   1.1072

FINAL SINGLE POINT ENERGY      -307.951646457460

DIPOLE MOMENT
-------------
                                X             Y             Z
Electronic contribution:      0.85640      -0.21223      -0.64170
Nuclear contribution   :     -1.02467       0.57370       0.37409
                        -----------------------------------------
Total Dipole Moment    :     -0.16827       0.36148      -0.26760
                        -----------------------------------------
Magnitude (a.u.)       :      0.48020
Magnitude (Debye)      :      1.22057

                             ****ORCA TERMINATED NORMALLY****
TOTAL RUN TIME: 0 days 0 hours 0 minutes 6 seconds 906 msec
