                         Program Version 3.0.3 - RELEASE   -
|  1> ! RI PBE def2-SVP def2-SVP/J NBO PAL2
|  2> % maxcore 2000
|  3> % output
|  4>     # printlevel mini
|  5>     print[ P_Basis ] 0
|  6>     print[ P_SCFInfo ] 1
|  7>     print[ P_SCFIterInfo ] 1
|  8>     print[ P_OrbEn ] 0
|  9>     print[ P_Cartesian ] 0
| 10> end
| 11> *xyz 0 1
| 12>  O        1.1090460000    -0.2893380000     0.2690680000
| 13>  C        2.4745050000     0.0140770000     0.2083750000
| 14>  C        3.0401080000     1.1801680000     1.0365560000
| 15>  C        4.2522890000     0.2815740000     1.3419830000
| 16>  C        3.3783150000    -0.9494820000     0.9960310000
| 17>  C        3.9828360000    -2.1133170000     0.3055050000
| 18>  C        3.8668490000    -3.3772780000     0.6904410000
| 19>  H        0.6349160000     0.2722210000    -0.3488980000
| 20>  H        2.8214720000     0.0793540000    -0.8324620000
| 21>  H        2.4250620000     1.3322510000     1.9262240000
| 22>  H        3.2080880000     2.1385700000     0.5426250000
| 23>  H        4.6832220000     0.3199360000     2.3420830000
| 24>  H        5.0526850000     0.4144150000     0.6100370000
| 25>  H        2.8270240000    -1.2705220000     1.8853010000
| 26>  H        4.5634220000    -1.8845420000    -0.5884190000
| 27>  H        3.2966030000    -3.6480740000     1.5737130000
| 28>  H        4.3318590000    -4.1856240000     0.1379380000
| 29> *
| 30>
| 31>                          ****END OF INPUT****
 Total Charge           Charge          ....    0
 Multiplicity           Mult            ....    1
 Number of Electrons    NEL             ....   54
 Basis Dimension        Dim             ....  148

MULLIKEN ATOMIC CHARGES
-----------------------
   0 O :   -0.231511
   1 C :    0.074740
   2 C :    0.046179
   3 C :    0.042159
   4 C :   -0.125780
   5 C :    0.017927
   6 C :   -0.023054
   7 H :    0.156061
   8 H :   -0.014185
   9 H :    0.006797
  10 H :    0.004112
  11 H :    0.016315
  12 H :    0.007439
  13 H :    0.000630
  14 H :   -0.013084
  15 H :    0.017053
  16 H :    0.018203
Sum of atomic charges:   -0.0000000

LOEWDIN ATOMIC CHARGES
----------------------
   0 O :   -0.106130
   1 C :    0.051041
   2 C :   -0.053499
   3 C :   -0.020023
   4 C :   -0.042428
   5 C :   -0.029914
   6 C :   -0.058997
   7 H :    0.072254
   8 H :    0.005128
   9 H :    0.026329
  10 H :    0.012849
  11 H :    0.020197
  12 H :    0.022509
  13 H :    0.033151
  14 H :    0.021729
  15 H :    0.022500
  16 H :    0.023304

  Mayer bond orders larger than 0.1
B(  0-O ,  1-C ) :   1.1722 B(  0-O ,  7-H ) :   0.9786 B(  1-C ,  2-C ) :   1.0594
B(  1-C ,  4-C ) :   1.0053 B(  1-C ,  8-H ) :   0.9119 B(  2-C ,  3-C ) :   1.1186
B(  2-C ,  9-H ) :   0.9000 B(  2-C , 10-H ) :   0.9302 B(  3-C ,  4-C ) :   1.0409
B(  3-C , 11-H ) :   0.9271 B(  3-C , 12-H ) :   0.9255 B(  4-C ,  5-C ) :   1.0510
B(  4-C , 13-H ) :   0.8968 B(  5-C ,  6-C ) :   2.0018 B(  5-C , 14-H ) :   0.9428
B(  6-C , 15-H ) :   0.9487 B(  6-C , 16-H ) :   0.9350

FINAL SINGLE POINT ENERGY      -309.196117104671

DIPOLE MOMENT
-------------
                                X             Y             Z
Electronic contribution:     -2.61824      -0.25026      -0.78646
Nuclear contribution   :      2.66022       0.73395       0.42686
                        -----------------------------------------
Total Dipole Moment    :      0.04198       0.48369      -0.35960
                        -----------------------------------------
Magnitude (a.u.)       :      0.60418
Magnitude (Debye)      :      1.53569

                             ****ORCA TERMINATED NORMALLY****
TOTAL RUN TIME: 0 days 0 hours 0 minutes 7 seconds 251 msec
