                         Program Version 3.0.3 - RELEASE   -
|  1> ! RI PBE def2-SVP def2-SVP/J NBO PAL2
|  2> % maxcore 2000
|  3> % output
|  4>     # printlevel mini
|  5>     print[ P_Basis ] 0
|  6>     print[ P_SCFInfo ] 1
|  7>     print[ P_SCFIterInfo ] 1
|  8>     print[ P_OrbEn ] 0
|  9>     print[ P_Cartesian ] 0
| 10> end
| 11> *xyz 0 1
| 12>  O        1.0087780000    -0.1485500000     0.0056220000
| 13>  C        2.4024900000    -0.0454150000     0.0254740000
| 14>  C        3.0741370000     0.9999350000     0.9340540000
| 15>  C        4.1230760000    -0.0676700000     1.2934490000
| 16>  C        3.1115140000    -1.1488790000     0.8339800000
| 17>  C        3.5803950000    -2.3368150000     0.1606190000
| 18>  C        3.9883800000    -3.3082640000    -0.4170220000
| 19>  H        0.6605190000     0.3935840000    -0.7056740000
| 20>  H        2.8193880000    -0.0084940000    -0.9877350000
| 21>  H        2.4222760000     1.2209830000     1.7819110000
| 22>  H        3.4152890000     1.9327470000     0.4840290000
| 23>  H        4.4670780000    -0.1243410000     2.3250850000
| 24>  H        4.9873300000    -0.0373200000     0.6290240000
| 25>  H        2.4576010000    -1.4177810000     1.6697880000
| 26>  H        4.3435480000    -4.1734410000    -0.9245950000
| 27> *
| 28>
| 29>                          ****END OF INPUT****
 Total Charge           Charge          ....    0
 Multiplicity           Mult            ....    1
 Number of Electrons    NEL             ....   52
 Basis Dimension        Dim             ....  138

MULLIKEN ATOMIC CHARGES
-----------------------
   0 O :   -0.225821
   1 C :    0.062293
   2 C :    0.057029
   3 C :    0.043835
   4 C :   -0.130289
   5 C :    0.475430
   6 C :   -0.527915
   7 H :    0.159356
   8 H :   -0.001204
   9 H :    0.007309
  10 H :    0.008896
  11 H :    0.021949
  12 H :    0.018760
  13 H :    0.034215
  14 H :   -0.003843
Sum of atomic charges:   -0.0000000

LOEWDIN ATOMIC CHARGES
----------------------
   0 O :   -0.101259
   1 C :    0.059450
   2 C :   -0.051964
   3 C :   -0.011311
   4 C :   -0.051800
   5 C :   -0.019551
   6 C :   -0.090638
   7 H :    0.075105
   8 H :    0.012250
   9 H :    0.027904
  10 H :    0.016279
  11 H :    0.022973
  12 H :    0.028673
  13 H :    0.050779
  14 H :    0.033111

  Mayer bond orders larger than 0.1
B(  0-O ,  1-C ) :   1.1782 B(  0-O ,  7-H ) :   0.9771 B(  1-C ,  2-C ) :   1.0634
B(  1-C ,  4-C ) :   1.0111 B(  1-C ,  8-H ) :   0.9110 B(  2-C ,  3-C ) :   1.1307
B(  2-C ,  9-H ) :   0.8944 B(  2-C , 10-H ) :   0.9312 B(  3-C ,  4-C ) :   1.0631
B(  3-C , 11-H ) :   0.9239 B(  3-C , 12-H ) :   0.9243 B(  4-C ,  5-C ) :   1.0065
B(  4-C , 13-H ) :   0.8409 B(  5-C ,  6-C ) :   2.2507 B(  5-C , 14-H ) :  -0.1128
B(  6-C , 14-H ) :   1.1027

FINAL SINGLE POINT ENERGY      -307.953479331845

DIPOLE MOMENT
-------------
                                X             Y             Z
Electronic contribution:     -1.61978      -3.21642      -1.31762
Nuclear contribution   :      1.67218       3.83160       1.00426
                        -----------------------------------------
Total Dipole Moment    :      0.05240       0.61518      -0.31335
                        -----------------------------------------
Magnitude (a.u.)       :      0.69238
Magnitude (Debye)      :      1.75989

                             ****ORCA TERMINATED NORMALLY****
TOTAL RUN TIME: 0 days 0 hours 0 minutes 7 seconds 19 msec
