                         Program Version 3.0.3 - RELEASE   -
|  1> ! RI PBE def2-SVP def2-SVP/J NBO PAL2
|  2> % maxcore 2000
|  3> % output
|  4>     # printlevel mini
|  5>     print[ P_Basis ] 0
|  6>     print[ P_SCFInfo ] 1
|  7>     print[ P_SCFIterInfo ] 1
|  8>     print[ P_OrbEn ] 0
|  9>     print[ P_Cartesian ] 0
| 10> end
| 11> *xyz 0 1
| 12>  O        0.9674080000    -0.1090940000     0.0590110000
| 13>  C        2.3616840000     0.0117350000     0.0378660000
| 14>  C        3.0349230000     1.1606880000     0.8307720000
| 15>  C        4.1412070000     0.1771940000     1.2530170000
| 16>  C        3.2215580000    -0.9896140000     0.8502480000
| 17>  C        2.7398740000     0.0313080000    -1.4249760000
| 18>  O        3.8628800000     0.1251140000    -1.8361900000
| 19>  H        0.6729060000    -0.1262930000     0.9728700000
| 20>  H        2.3973530000     1.4504340000     1.6705060000
| 21>  H        3.3196590000     2.0535690000     0.2732580000
| 22>  H        4.4684900000     0.2150100000     2.2918590000
| 23>  H        5.0078050000     0.2464760000     0.5976010000
| 24>  H        2.6421220000    -1.3697190000     1.6960460000
| 25>  H        3.6567320000    -1.8299680000     0.3084340000
| 26>  H        1.8694980000    -0.0504510000    -2.1098220000
| 27> *
| 28>
| 29>                          ****END OF INPUT****
 Total Charge           Charge          ....    0
 Multiplicity           Mult            ....    1
 Number of Electrons    NEL             ....   54
 Basis Dimension        Dim             ....  138

MULLIKEN ATOMIC CHARGES
-----------------------
   0 O :   -0.221332
   1 C :   -0.214882
   2 C :    0.104583
   3 C :   -0.021681
   4 C :    0.101584
   5 C :    0.155781
   6 O :   -0.151325
   7 H :    0.157924
   8 H :   -0.001905
   9 H :    0.023027
  10 H :    0.010387
  11 H :    0.038322
  12 H :   -0.002165
  13 H :    0.024177
  14 H :   -0.002494
Sum of atomic charges:   -0.0000000

LOEWDIN ATOMIC CHARGES
----------------------
   0 O :   -0.088997
   1 C :   -0.031108
   2 C :   -0.027309
   3 C :   -0.032045
   4 C :   -0.027845
   5 C :    0.100637
   6 O :   -0.100813
   7 H :    0.069213
   8 H :    0.023860
   9 H :    0.022899
  10 H :    0.019165
  11 H :    0.030691
  12 H :    0.023965
  13 H :    0.023128
  14 H :   -0.005442

  Mayer bond orders larger than 0.1
B(  0-O ,  1-C ) :   1.1172 B(  0-O ,  7-H ) :   0.9684 B(  1-C ,  2-C ) :   1.0135
B(  1-C ,  4-C ) :   1.0160 B(  1-C ,  5-C ) :   0.8601 B(  2-C ,  3-C ) :   1.1293
B(  2-C ,  8-H ) :   0.9054 B(  2-C ,  9-H ) :   0.9273 B(  3-C ,  4-C ) :   1.1309
B(  3-C , 10-H ) :   0.9208 B(  3-C , 11-H ) :   0.9254 B(  4-C , 12-H ) :   0.9040
B(  4-C , 13-H ) :   0.9272 B(  5-C ,  6-O ) :   2.1990 B(  5-C , 14-H ) :   0.9263

FINAL SINGLE POINT ENERGY      -345.078740260036

DIPOLE MOMENT
-------------
                                X             Y             Z
Electronic contribution:     -1.41183      -0.16520      -4.60157
Nuclear contribution   :      0.96967       0.13517       5.63110
                        -----------------------------------------
Total Dipole Moment    :     -0.44216      -0.03004       1.02953
                        -----------------------------------------
Magnitude (a.u.)       :      1.12087
Magnitude (Debye)      :      2.84902

                             ****ORCA TERMINATED NORMALLY****
TOTAL RUN TIME: 0 days 0 hours 0 minutes 6 seconds 227 msec
