                         Program Version 3.0.3 - RELEASE   -
|  1> ! RI PBE def2-SVP def2-SVP/J NBO PAL2
|  2> % maxcore 2000
|  3> % output
|  4>     # printlevel mini
|  5>     print[ P_Basis ] 0
|  6>     print[ P_SCFInfo ] 1
|  7>     print[ P_SCFIterInfo ] 1
|  8>     print[ P_OrbEn ] 0
|  9>     print[ P_Cartesian ] 0
| 10> end
| 11> *xyz 0 1
| 12>  O        0.9991500000     0.2206130000     0.2058660000
| 13>  C        2.3856650000     0.1037750000     0.0452790000
| 14>  C        3.2010660000     1.0792930000     0.8957730000
| 15>  C        4.1901280000    -0.0571490000     1.1948320000
| 16>  C        3.1053680000    -1.0743910000     0.7345850000
| 17>  C        5.3946010000    -0.1112090000     0.3095440000
| 18>  O        5.6687040000     0.6833570000    -0.5484980000
| 19>  H        0.5593470000    -0.3114050000    -0.4617400000
| 20>  H        2.6726010000     0.1747770000    -1.0101810000
| 21>  H        2.6358230000     1.3583890000     1.7863830000
| 22>  H        3.5991920000     1.9670560000     0.4062900000
| 23>  H        4.5251330000    -0.1831120000     2.2284430000
| 24>  H        2.5216710000    -1.4331770000     1.5835870000
| 25>  H        3.4217930000    -1.9231370000     0.1236090000
| 26>  H        6.0494590000    -0.9942900000     0.4862270000
| 27> *
| 28>
| 29>                          ****END OF INPUT****
 Total Charge           Charge          ....    0
 Multiplicity           Mult            ....    1
 Number of Electrons    NEL             ....   54
 Basis Dimension        Dim             ....  138

MULLIKEN ATOMIC CHARGES
-----------------------
   0 O :   -0.234105
   1 C :   -0.040983
   2 C :    0.158672
   3 C :   -0.222828
   4 C :    0.110245
   5 C :    0.134740
   6 O :   -0.157051
   7 H :    0.158039
   8 H :    0.012306
   9 H :    0.008670
  10 H :    0.025944
  11 H :    0.029250
  12 H :    0.009113
  13 H :    0.019099
  14 H :   -0.011112
Sum of atomic charges:   -0.0000000

LOEWDIN ATOMIC CHARGES
----------------------
   0 O :   -0.104907
   1 C :    0.047596
   2 C :   -0.026569
   3 C :   -0.076888
   4 C :   -0.033543
   5 C :    0.089982
   6 O :   -0.109409
   7 H :    0.073243
   8 H :    0.012322
   9 H :    0.033291
  10 H :    0.023946
  11 H :    0.035770
  12 H :    0.029811
  13 H :    0.016380
  14 H :   -0.011025

  Mayer bond orders larger than 0.1
B(  0-O ,  1-C ) :   1.1582 B(  0-O ,  7-H ) :   0.9792 B(  1-C ,  2-C ) :   1.0812
B(  1-C ,  4-C ) :   1.0563 B(  1-C ,  8-H ) :   0.9201 B(  2-C ,  3-C ) :   1.0705
B(  2-C ,  9-H ) :   0.8877 B(  2-C , 10-H ) :   0.9204 B(  3-C ,  4-C ) :   1.0670
B(  3-C ,  5-C ) :   0.9191 B(  3-C , 11-H ) :   0.8854 B(  4-C , 12-H ) :   0.8857
B(  4-C , 13-H ) :   0.9347 B(  5-C ,  6-O ) :   2.1915 B(  5-C , 14-H ) :   0.9237

FINAL SINGLE POINT ENERGY      -345.078180115698

DIPOLE MOMENT
-------------
                                X             Y             Z
Electronic contribution:      1.65041       1.36369      -1.74941
Nuclear contribution   :     -2.04474      -2.18089       1.96741
                        -----------------------------------------
Total Dipole Moment    :     -0.39434      -0.81719       0.21800
                        -----------------------------------------
Magnitude (a.u.)       :      0.93318
Magnitude (Debye)      :      2.37196

                             ****ORCA TERMINATED NORMALLY****
TOTAL RUN TIME: 0 days 0 hours 0 minutes 6 seconds 655 msec
