                         Program Version 3.0.3 - RELEASE   -
|  1> ! RI PBE def2-SVP def2-SVP/J NBO PAL2
|  2> % maxcore 2000
|  3> % output
|  4>     # printlevel mini
|  5>     print[ P_Basis ] 0
|  6>     print[ P_SCFInfo ] 1
|  7>     print[ P_SCFIterInfo ] 1
|  8>     print[ P_OrbEn ] 0
|  9>     print[ P_Cartesian ] 0
| 10> end
| 11> *xyz 0 1
| 12>  O        0.9468110000     0.2712050000     0.1804140000
| 13>  C        2.3413000000     0.1864050000     0.1369800000
| 14>  C        3.0859460000     1.2171580000     0.9849060000
| 15>  C        4.1176720000     0.1263300000     1.3403400000
| 16>  C        3.0513190000    -0.9227450000     0.9289300000
| 17>  C        3.4932790000    -2.1571980000     0.2209570000
| 18>  O        3.1608870000    -2.4509860000    -0.8972320000
| 19>  H        0.5854840000    -0.3347590000    -0.4721880000
| 20>  H        2.7098370000     0.1838480000    -0.8958020000
| 21>  H        2.4810530000     1.4820450000     1.8547240000
| 22>  H        3.4379480000     2.1262030000     0.4974170000
| 23>  H        4.4877510000     0.0917460000     2.3638940000
| 24>  H        4.9680260000     0.1272760000     0.6552420000
| 25>  H        2.4572370000    -1.2050550000     1.8061400000
| 26>  H        4.1833320000    -2.8176820000     0.7921980000
| 27> *
| 28>
| 29>                          ****END OF INPUT****
 Total Charge           Charge          ....    0
 Multiplicity           Mult            ....    1
 Number of Electrons    NEL             ....   54
 Basis Dimension        Dim             ....  138

MULLIKEN ATOMIC CHARGES
-----------------------
   0 O :   -0.234238
   1 C :    0.063681
   2 C :    0.051225
   3 C :   -0.001165
   4 C :   -0.111707
   5 C :    0.131835
   6 O :   -0.167694
   7 H :    0.160860
   8 H :    0.002110
   9 H :    0.019303
  10 H :    0.016730
  11 H :    0.024845
  12 H :    0.025084
  13 H :    0.029369
  14 H :   -0.010239
Sum of atomic charges:   -0.0000000

LOEWDIN ATOMIC CHARGES
----------------------
   0 O :   -0.105940
   1 C :    0.050543
   2 C :   -0.032858
   3 C :   -0.015548
   4 C :   -0.096617
   5 C :    0.090674
   6 O :   -0.113506
   7 H :    0.076430
   8 H :    0.010656
   9 H :    0.032043
  10 H :    0.020199
  11 H :    0.022864
  12 H :    0.027047
  13 H :    0.045554
  14 H :   -0.011542

  Mayer bond orders larger than 0.1
B(  0-O ,  1-C ) :   1.1707 B(  0-O ,  7-H ) :   0.9776 B(  1-C ,  2-C ) :   1.0853
B(  1-C ,  4-C ) :   1.0093 B(  1-C ,  8-H ) :   0.9165 B(  2-C ,  3-C ) :   1.1173
B(  2-C ,  9-H ) :   0.9089 B(  2-C , 10-H ) :   0.9301 B(  3-C ,  4-C ) :   1.0656
B(  3-C , 11-H ) :   0.9293 B(  3-C , 12-H ) :   0.9320 B(  4-C ,  5-C ) :   0.9345
B(  4-C , 13-H ) :   0.8484 B(  5-C ,  6-O ) :   2.1871 B(  5-C , 14-H ) :   0.9267

FINAL SINGLE POINT ENERGY      -345.079171713761

DIPOLE MOMENT
-------------
                                X             Y             Z
Electronic contribution:     -2.09789      -3.56934      -2.82000
Nuclear contribution   :      2.39588       3.69498       3.27995
                        -----------------------------------------
Total Dipole Moment    :      0.29799       0.12564       0.45995
                        -----------------------------------------
Magnitude (a.u.)       :      0.56226
Magnitude (Debye)      :      1.42915

                             ****ORCA TERMINATED NORMALLY****
TOTAL RUN TIME: 0 days 0 hours 0 minutes 6 seconds 621 msec
