                         Program Version 3.0.3 - RELEASE   -
|  1> ! RI PBE def2-SVP def2-SVP/J NBO PAL2
|  2> % maxcore 2000
|  3> % output
|  4>     # printlevel mini
|  5>     print[ P_Basis ] 0
|  6>     print[ P_SCFInfo ] 1
|  7>     print[ P_SCFIterInfo ] 1
|  8>     print[ P_OrbEn ] 0
|  9>     print[ P_Cartesian ] 0
| 10> end
| 11> *xyz 0 1
| 12>  O        1.1607880000     0.1878350000     0.1313450000
| 13>  C        2.5365210000    -0.1264820000    -0.0362780000
| 14>  C        2.7780650000    -1.6198430000    -0.2886590000
| 15>  C        2.7031380000    -1.8101610000    -1.8084280000
| 16>  C        3.1748330000    -0.4809130000    -2.3791070000
| 17>  C        2.1602420000     0.6116300000    -2.4737620000
| 18>  C        3.0691870000     0.5532470000    -1.2853260000
| 19>  H        0.8427540000    -0.2852710000     0.9042440000
| 20>  H        3.0957740000     0.2171870000     0.8431230000
| 21>  H        2.0868600000    -2.2559880000     0.2733500000
| 22>  H        3.7904890000    -1.8608870000     0.0510940000
| 23>  H        1.6813500000    -2.0329180000    -2.1283440000
| 24>  H        3.3302710000    -2.6386080000    -2.1438200000
| 25>  H        4.0137210000    -0.4708560000    -3.0646820000
| 26>  H        1.1182670000     0.3599510000    -2.3196590000
| 27>  H        2.3361500000     1.4094950000    -3.1854510000
| 28>  H        3.8153690000     1.3291600000    -1.1689480000
| 29> *
| 30>
| 31>                          ****END OF INPUT****
 Total Charge           Charge          ....    0
 Multiplicity           Mult            ....    1
 Number of Electrons    NEL             ....   54
 Basis Dimension        Dim             ....  148

MULLIKEN ATOMIC CHARGES
-----------------------
   0 O :   -0.253126
   1 C :    0.095810
   2 C :    0.056535
   3 C :    0.092912
   4 C :   -0.167232
   5 C :    0.050239
   6 C :   -0.110385
   7 H :    0.150466
   8 H :   -0.013694
   9 H :   -0.012611
  10 H :    0.000941
  11 H :    0.008182
  12 H :    0.009891
  13 H :    0.012901
  14 H :    0.040702
  15 H :    0.022361
  16 H :    0.016107
Sum of atomic charges:    0.0000000

LOEWDIN ATOMIC CHARGES
----------------------
   0 O :   -0.116492
   1 C :    0.051819
   2 C :   -0.047938
   3 C :   -0.031740
   4 C :   -0.039913
   5 C :   -0.029757
   6 C :   -0.048010
   7 H :    0.064953
   8 H :    0.006743
   9 H :    0.015822
  10 H :    0.025675
  11 H :    0.025065
  12 H :    0.026617
  13 H :    0.021002
  14 H :    0.025572
  15 H :    0.027879
  16 H :    0.022703

  Mayer bond orders larger than 0.1
B(  0-O ,  1-C ) :   1.0818 B(  0-O ,  7-H ) :   0.9792 B(  1-C ,  2-C ) :   1.0515
B(  1-C ,  6-C ) :   1.0432 B(  1-C ,  8-H ) :   0.9259 B(  2-C ,  3-C ) :   1.0808
B(  2-C ,  9-H ) :   0.9199 B(  2-C , 10-H ) :   0.9225 B(  3-C ,  4-C ) :   1.0750
B(  3-C , 11-H ) :   0.9188 B(  3-C , 12-H ) :   0.9391 B(  4-C ,  5-C ) :   1.0074
B(  4-C ,  6-C ) :   0.9526 B(  4-C , 13-H ) :   0.9470 B(  5-C ,  6-C ) :   0.9890
B(  5-C , 14-H ) :   0.9323 B(  5-C , 15-H ) :   0.9340 B(  6-C , 16-H ) :   0.9549

FINAL SINGLE POINT ENERGY      -309.216666401853

DIPOLE MOMENT
-------------
                                X             Y             Z
Electronic contribution:     -1.07760       1.86007       1.08651
Nuclear contribution   :      1.33144      -2.22421      -0.73612
                        -----------------------------------------
Total Dipole Moment    :      0.25384      -0.36414       0.35040
                        -----------------------------------------
Magnitude (a.u.)       :      0.56552
Magnitude (Debye)      :      1.43744

                             ****ORCA TERMINATED NORMALLY****
TOTAL RUN TIME: 0 days 0 hours 0 minutes 7 seconds 580 msec
