                         Program Version 3.0.3 - RELEASE   -
|  1> ! RI PBE def2-SVP def2-SVP/J NBO PAL2
|  2> % maxcore 2000
|  3> % output
|  4>     # printlevel mini
|  5>     print[ P_Basis ] 0
|  6>     print[ P_SCFInfo ] 1
|  7>     print[ P_SCFIterInfo ] 1
|  8>     print[ P_OrbEn ] 0
|  9>     print[ P_Cartesian ] 0
| 10> end
| 11> *xyz 0 1
| 12>  O        1.7927210000     0.2684640000     1.2114670000
| 13>  C        2.5963550000     0.0868420000     0.3346740000
| 14>  C        2.7907330000    -1.2165850000    -0.4334800000
| 15>  C        4.2345330000    -1.1804430000    -0.9387140000
| 16>  C        4.6193510000     0.2889760000    -0.9580600000
| 17>  C        3.6880520000     1.2119430000    -1.6476330000
| 18>  C        3.6082220000     1.0627060000    -0.1422940000
| 19>  H        2.0613750000    -1.2450220000    -1.2492890000
| 20>  H        2.5676560000    -2.0624330000     0.2161120000
| 21>  H        4.3563700000    -1.6489900000    -1.9185620000
| 22>  H        4.8859040000    -1.7125600000    -0.2405480000
| 23>  H        5.6680230000     0.5543590000    -0.9074810000
| 24>  H        2.8848700000     0.8068360000    -2.2528750000
| 25>  H        4.0783930000     2.1586890000    -1.9986150000
| 26>  H        3.8545330000     1.9071990000     0.4865970000
| 27> *
| 28>
| 29>                          ****END OF INPUT****
 Total Charge           Charge          ....    0
 Multiplicity           Mult            ....    1
 Number of Electrons    NEL             ....   52
 Basis Dimension        Dim             ....  138

MULLIKEN ATOMIC CHARGES
-----------------------
   0 O :   -0.144539
   1 C :    0.065274
   2 C :   -0.069253
   3 C :    0.134829
   4 C :   -0.151931
   5 C :    0.025306
   6 C :   -0.119780
   7 H :    0.053564
   8 H :    0.033365
   9 H :    0.014921
  10 H :    0.026735
  11 H :    0.028641
  12 H :    0.042077
  13 H :    0.038200
  14 H :    0.022593
Sum of atomic charges:    0.0000000

LOEWDIN ATOMIC CHARGES
----------------------
   0 O :   -0.123461
   1 C :    0.056293
   2 C :   -0.070606
   3 C :   -0.028185
   4 C :   -0.028409
   5 C :   -0.020905
   6 C :   -0.059900
   7 H :    0.046743
   8 H :    0.042333
   9 H :    0.027343
  10 H :    0.033314
  11 H :    0.028455
  12 H :    0.026924
  13 H :    0.036571
  14 H :    0.033490

  Mayer bond orders larger than 0.1
B(  0-O ,  1-C ) :   2.2168 B(  1-C ,  2-C ) :   0.9695 B(  1-C ,  6-C ) :   0.9959
B(  2-C ,  3-C ) :   1.0753 B(  2-C ,  7-H ) :   0.9083 B(  2-C ,  8-H ) :   0.9173
B(  3-C ,  4-C ) :   1.0712 B(  3-C ,  9-H ) :   0.9256 B(  3-C , 10-H ) :   0.9293
B(  4-C ,  5-C ) :   1.0042 B(  4-C ,  6-C ) :   0.8755 B(  4-C , 11-H ) :   0.9436
B(  5-C ,  6-C ) :   0.9346 B(  5-C , 12-H ) :   0.9461 B(  5-C , 13-H ) :   0.9372
B(  6-C , 14-H ) :   0.9616

FINAL SINGLE POINT ENERGY      -308.037429954371

DIPOLE MOMENT
-------------
                                X             Y             Z
Electronic contribution:     -2.81934       1.50247       3.85600
Nuclear contribution   :      3.63231      -1.63739      -4.69967
                        -----------------------------------------
Total Dipole Moment    :      0.81297      -0.13492      -0.84368
                        -----------------------------------------
Magnitude (a.u.)       :      1.17937
Magnitude (Debye)      :      2.99771

                             ****ORCA TERMINATED NORMALLY****
TOTAL RUN TIME: 0 days 0 hours 0 minutes 7 seconds 263 msec
