                         Program Version 3.0.3 - RELEASE   -
|  1> ! RI PBE def2-SVP def2-SVP/J NBO PAL2
|  2> % maxcore 2000
|  3> % output
|  4>     # printlevel mini
|  5>     print[ P_Basis ] 0
|  6>     print[ P_SCFInfo ] 1
|  7>     print[ P_SCFIterInfo ] 1
|  8>     print[ P_OrbEn ] 0
|  9>     print[ P_Cartesian ] 0
| 10> end
| 11> *xyz 0 1
| 12>  O        1.0818830000    -0.1835790000    -0.0807320000
| 13>  C        2.2681290000     0.0132960000     0.0053190000
| 14>  C        2.9959310000     1.2633090000    -0.3257750000
| 15>  C        4.2868410000     1.1342970000    -0.0065180000
| 16>  C        4.6020650000    -0.2218520000     0.5113650000
| 17>  C        4.3862860000    -1.3190580000    -0.4941920000
| 18>  C        3.3029150000    -0.9635840000     0.4947400000
| 19>  H        2.5151170000     2.1193800000    -0.7787710000
| 20>  H        5.0488110000     1.8920990000    -0.1486220000
| 21>  H        5.3360780000    -0.3565570000     1.2952660000
| 22>  H        4.8916300000    -2.2643520000    -0.3342090000
| 23>  H        4.2551610000    -1.0322240000    -1.5308840000
| 24>  H        3.0235650000    -1.6899650000     1.2451220000
| 25> *
| 26>
| 27>                          ****END OF INPUT****
 Total Charge           Charge          ....    0
 Multiplicity           Mult            ....    1
 Number of Electrons    NEL             ....   50
 Basis Dimension        Dim             ....  128

MULLIKEN ATOMIC CHARGES
-----------------------
   0 O :   -0.142882
   1 C :    0.145121
   2 C :   -0.072018
   3 C :    0.070858
   4 C :   -0.064983
   5 C :    0.015365
   6 C :   -0.130716
   7 H :   -0.005100
   8 H :    0.011579
   9 H :    0.035595
  10 H :    0.046648
  11 H :    0.056378
  12 H :    0.034155
Sum of atomic charges:    0.0000000

LOEWDIN ATOMIC CHARGES
----------------------
   0 O :   -0.119820
   1 C :    0.044459
   2 C :   -0.061585
   3 C :    0.027111
   4 C :   -0.039573
   5 C :    0.003372
   6 C :   -0.055093
   7 H :    0.030988
   8 H :    0.030869
   9 H :    0.034414
  10 H :    0.035058
  11 H :    0.031657
  12 H :    0.038142

  Mayer bond orders larger than 0.1
B(  0-O ,  1-C ) :   2.1658 B(  1-C ,  2-C ) :   0.9982 B(  1-C ,  6-C ) :   0.9711
B(  2-C ,  3-C ) :   1.6880 B(  2-C ,  7-H ) :   0.9995 B(  3-C ,  4-C ) :   1.0335
B(  3-C ,  8-H ) :   0.9910 B(  4-C ,  5-C ) :   0.9702 B(  4-C ,  6-C ) :   0.8923
B(  4-C ,  9-H ) :   0.9433 B(  5-C ,  6-C ) :   0.9566 B(  5-C , 10-H ) :   0.9396
B(  5-C , 11-H ) :   0.9452 B(  6-C , 12-H ) :   0.9518

FINAL SINGLE POINT ENERGY      -306.819793817711

DIPOLE MOMENT
-------------
                                X             Y             Z
Electronic contribution:     -3.90421       0.95736       0.37494
Nuclear contribution   :      5.25035      -0.92797      -0.27822
                        -----------------------------------------
Total Dipole Moment    :      1.34614       0.02939       0.09672
                        -----------------------------------------
Magnitude (a.u.)       :      1.34993
Magnitude (Debye)      :      3.43125

                             ****ORCA TERMINATED NORMALLY****
TOTAL RUN TIME: 0 days 0 hours 0 minutes 6 seconds 497 msec
