                         Program Version 3.0.3 - RELEASE   -
|  1> ! RI PBE def2-SVP def2-SVP/J NBO PAL2
|  2> % maxcore 2000
|  3> % output
|  4>     # printlevel mini
|  5>     print[ P_Basis ] 0
|  6>     print[ P_SCFInfo ] 1
|  7>     print[ P_SCFIterInfo ] 1
|  8>     print[ P_OrbEn ] 0
|  9>     print[ P_Cartesian ] 0
| 10> end
| 11> *xyz 0 1
| 12>  O        0.9842330000     0.2726310000    -0.0244030000
| 13>  C        2.3948450000     0.1319150000     0.0789960000
| 14>  C        3.0915240000     1.3950390000     0.5149510000
| 15>  C        3.6024620000     1.2804560000     1.7398850000
| 16>  C        3.4142760000    -0.0807800000     2.2882420000
| 17>  C        4.1083490000    -1.1668650000     1.5017540000
| 18>  C        2.6845260000    -0.8358920000     1.2057610000
| 19>  H        0.7957020000     0.9997960000    -0.6232300000
| 20>  H        2.7960150000    -0.2372530000    -0.8770750000
| 21>  H        3.1734910000     2.2694660000    -0.1213870000
| 22>  H        4.1373660000     2.0611520000     2.2689600000
| 23>  H        3.2207160000    -0.2340150000     3.3427090000
| 24>  H        4.2992340000    -2.1077890000     2.0048440000
| 25>  H        4.8764520000    -0.8567470000     0.8018330000
| 26>  H        1.9135200000    -1.5571240000     1.4433590000
| 27> *
| 28>
| 29>                          ****END OF INPUT****
 Total Charge           Charge          ....    0
 Multiplicity           Mult            ....    1
 Number of Electrons    NEL             ....   52
 Basis Dimension        Dim             ....  138

MULLIKEN ATOMIC CHARGES
-----------------------
   0 O :   -0.264295
   1 C :    0.271748
   2 C :   -0.123339
   3 C :    0.055775
   4 C :   -0.088682
   5 C :    0.051438
   6 C :   -0.133174
   7 H :    0.148396
   8 H :   -0.001919
   9 H :   -0.012207
  10 H :   -0.007969
  11 H :    0.022786
  12 H :    0.026020
  13 H :    0.028510
  14 H :    0.026911
Sum of atomic charges:   -0.0000000

LOEWDIN ATOMIC CHARGES
----------------------
   0 O :   -0.116202
   1 C :    0.054924
   2 C :   -0.065509
   3 C :   -0.008589
   4 C :   -0.040195
   5 C :   -0.022332
   6 C :   -0.033853
   7 H :    0.066653
   8 H :    0.009374
   9 H :    0.017594
  10 H :    0.024638
  11 H :    0.026628
  12 H :    0.029535
  13 H :    0.025337
  14 H :    0.031996

  Mayer bond orders larger than 0.1
B(  0-O ,  1-C ) :   1.0628 B(  0-O ,  7-H ) :   0.9776 B(  1-C ,  2-C ) :   0.9962
B(  1-C ,  6-C ) :   1.0274 B(  1-C ,  8-H ) :   0.8950 B(  2-C ,  3-C ) :   1.7985
B(  2-C ,  9-H ) :   0.9770 B(  3-C ,  4-C ) :   1.0341 B(  3-C , 10-H ) :   0.9933
B(  4-C ,  5-C ) :   0.9714 B(  4-C ,  6-C ) :   0.9274 B(  4-C , 11-H ) :   0.9542
B(  5-C ,  6-C ) :   0.9860 B(  5-C , 12-H ) :   0.9328 B(  5-C , 13-H ) :   0.9389
B(  6-C , 14-H ) :   0.9386

FINAL SINGLE POINT ENERGY      -307.999805847675

DIPOLE MOMENT
-------------
                                X             Y             Z
Electronic contribution:     -2.00066       0.97192      -0.39412
Nuclear contribution   :      2.31732      -0.72735       0.22393
                        -----------------------------------------
Total Dipole Moment    :      0.31667       0.24457      -0.17018
                        -----------------------------------------
Magnitude (a.u.)       :      0.43480
Magnitude (Debye)      :      1.10518

                             ****ORCA TERMINATED NORMALLY****
TOTAL RUN TIME: 0 days 0 hours 0 minutes 6 seconds 515 msec
