                         Program Version 3.0.3 - RELEASE   -
|  1> ! RI PBE def2-SVP def2-SVP/J NBO PAL2
|  2> % maxcore 2000
|  3> % output
|  4>     # printlevel mini
|  5>     print[ P_Basis ] 0
|  6>     print[ P_SCFInfo ] 1
|  7>     print[ P_SCFIterInfo ] 1
|  8>     print[ P_OrbEn ] 0
|  9>     print[ P_Cartesian ] 0
| 10> end
| 11> *xyz 0 1
| 12>  O        1.5617700000     0.5501170000     0.7884250000
| 13>  C        2.5472710000     0.0007750000    -0.0543300000
| 14>  C        2.3444890000    -1.4787300000    -0.4072430000
| 15>  C        3.0142430000    -1.6617140000    -1.7735450000
| 16>  C        2.8600620000    -0.3070390000    -2.4186950000
| 17>  O        1.5496190000     0.2271800000    -2.2879680000
| 18>  C        2.5549390000     0.6860130000    -1.3943670000
| 19>  H        1.5667370000     0.0687850000     1.6193790000
| 20>  H        3.5480980000     0.1496380000     0.3838810000
| 21>  H        1.2705410000    -1.6528260000    -0.4890550000
| 22>  H        2.7437810000    -2.1504740000     0.3552260000
| 23>  H        2.5644280000    -2.4640490000    -2.3635110000
| 24>  H        4.0811500000    -1.8864120000    -1.6718410000
| 25>  H        3.3774220000    -0.0577470000    -3.3403780000
| 26>  H        2.8156400000     1.7365930000    -1.4748790000
| 27> *
| 28>
| 29>                          ****END OF INPUT****
 Total Charge           Charge          ....    0
 Multiplicity           Mult            ....    1
 Number of Electrons    NEL             ....   54
 Basis Dimension        Dim             ....  138

MULLIKEN ATOMIC CHARGES
-----------------------
   0 O :   -0.249982
   1 C :    0.143648
   2 C :   -0.037142
   3 C :    0.091799
   4 C :    0.010818
   5 O :   -0.262798
   6 C :    0.047061
   7 H :    0.156492
   8 H :   -0.007355
   9 H :    0.031721
  10 H :    0.005759
  11 H :    0.023811
  12 H :    0.017624
  13 H :    0.012300
  14 H :    0.016244
Sum of atomic charges:   -0.0000000

LOEWDIN ATOMIC CHARGES
----------------------
   0 O :   -0.108250
   1 C :    0.033135
   2 C :   -0.055021
   3 C :   -0.043864
   4 C :    0.046916
   5 O :   -0.142847
   6 C :    0.041718
   7 H :    0.070551
   8 H :    0.008686
   9 H :    0.032063
  10 H :    0.022234
  11 H :    0.031513
  12 H :    0.030504
  13 H :    0.014865
  14 H :    0.017797

  Mayer bond orders larger than 0.1
B(  0-O ,  1-C ) :   1.1249 B(  0-O ,  7-H ) :   0.9805 B(  1-C ,  2-C ) :   1.0420
B(  1-C ,  6-C ) :   0.9747 B(  1-C ,  8-H ) :   0.9019 B(  2-C ,  3-C ) :   1.0738
B(  2-C ,  9-H ) :   0.9094 B(  2-C , 10-H ) :   0.9262 B(  3-C ,  4-C ) :   1.0279
B(  3-C , 11-H ) :   0.9196 B(  3-C , 12-H ) :   0.9196 B(  4-C ,  5-O ) :   0.9933
B(  4-C ,  6-C ) :   1.0261 B(  4-C , 13-H ) :   0.9544 B(  5-O ,  6-C ) :   1.0140
B(  6-C , 14-H ) :   0.9585

FINAL SINGLE POINT ENERGY      -345.076241148943

DIPOLE MOMENT
-------------
                                X             Y             Z
Electronic contribution:     -2.31003       3.28915      -0.79563
Nuclear contribution   :      3.20087      -3.82392       1.23086
                        -----------------------------------------
Total Dipole Moment    :      0.89083      -0.53477       0.43523
                        -----------------------------------------
Magnitude (a.u.)       :      1.12650
Magnitude (Debye)      :      2.86333

                             ****ORCA TERMINATED NORMALLY****
TOTAL RUN TIME: 0 days 0 hours 0 minutes 6 seconds 805 msec
