                         Program Version 3.0.3 - RELEASE   -
|  1> ! RI PBE def2-SVP def2-SVP/J NBO PAL2
|  2> % maxcore 2000
|  3> % output
|  4>     # printlevel mini
|  5>     print[ P_Basis ] 0
|  6>     print[ P_SCFInfo ] 1
|  7>     print[ P_SCFIterInfo ] 1
|  8>     print[ P_OrbEn ] 0
|  9>     print[ P_Cartesian ] 0
| 10> end
| 11> *xyz 0 1
| 12>  O        1.8748860000     0.2505000000     1.3998990000
| 13>  C        2.5757720000     0.0212010000     0.4528900000
| 14>  C        2.8288640000    -1.3361010000    -0.1863350000
| 15>  C        4.2118500000    -1.2282050000    -0.8401200000
| 16>  C        4.4165740000     0.2538020000    -1.0428890000
| 17>  O        3.3193950000     0.8740340000    -1.6807950000
| 18>  C        3.4354370000     1.0188470000    -0.2643670000
| 19>  H        2.0439620000    -1.5127670000    -0.9265150000
| 20>  H        2.7525860000    -2.1195540000     0.5667650000
| 21>  H        4.2873890000    -1.7739080000    -1.7830130000
| 22>  H        4.9895070000    -1.6103460000    -0.1729160000
| 23>  H        5.3926120000     0.6648280000    -1.2820010000
| 24>  H        3.5840660000     2.0211700000     0.1203080000
| 25> *
| 26>
| 27>                          ****END OF INPUT****
 Total Charge           Charge          ....    0
 Multiplicity           Mult            ....    1
 Number of Electrons    NEL             ....   52
 Basis Dimension        Dim             ....  128

MULLIKEN ATOMIC CHARGES
-----------------------
   0 O :   -0.126574
   1 C :    0.054965
   2 C :   -0.045425
   3 C :    0.108741
   4 C :    0.016129
   5 O :   -0.258966
   6 C :    0.040900
   7 H :    0.065055
   8 H :    0.040752
   9 H :    0.027707
  10 H :    0.030894
  11 H :    0.029139
  12 H :    0.016682
Sum of atomic charges:   -0.0000000

LOEWDIN ATOMIC CHARGES
----------------------
   0 O :   -0.103176
   1 C :    0.045518
   2 C :   -0.065281
   3 C :   -0.042041
   4 C :    0.054503
   5 O :   -0.130864
   6 C :    0.025274
   7 H :    0.055039
   8 H :    0.043668
   9 H :    0.035679
  10 H :    0.036526
  11 H :    0.020971
  12 H :    0.024185

  Mayer bond orders larger than 0.1
B(  0-O ,  1-C ) :   2.2284 B(  1-C ,  2-C ) :   0.9727 B(  1-C ,  6-C ) :   0.9194
B(  2-C ,  3-C ) :   1.0658 B(  2-C ,  7-H ) :   0.9001 B(  2-C ,  8-H ) :   0.9205
B(  3-C ,  4-C ) :   1.0371 B(  3-C ,  9-H ) :   0.9126 B(  3-C , 10-H ) :   0.9248
B(  4-C ,  5-O ) :   0.9928 B(  4-C ,  6-C ) :   0.9661 B(  4-C , 11-H ) :   0.9475
B(  5-O ,  6-C ) :   0.9616 B(  6-C , 12-H ) :   0.9707

FINAL SINGLE POINT ENERGY      -343.887028531299

DIPOLE MOMENT
-------------
                                X             Y             Z
Electronic contribution:     -2.50659       3.49868       1.19446
Nuclear contribution   :      3.46570      -3.95201      -1.50207
                        -----------------------------------------
Total Dipole Moment    :      0.95912      -0.45333      -0.30761
                        -----------------------------------------
Magnitude (a.u.)       :      1.10455
Magnitude (Debye)      :      2.80755

                             ****ORCA TERMINATED NORMALLY****
TOTAL RUN TIME: 0 days 0 hours 0 minutes 6 seconds 437 msec
