                         Program Version 3.0.3 - RELEASE   -
|  1> ! RI PBE def2-SVP def2-SVP/J NBO PAL2
|  2> % maxcore 2000
|  3> % output
|  4>     # printlevel mini
|  5>     print[ P_Basis ] 0
|  6>     print[ P_SCFInfo ] 1
|  7>     print[ P_SCFIterInfo ] 1
|  8>     print[ P_OrbEn ] 0
|  9>     print[ P_Cartesian ] 0
| 10> end
| 11> *xyz 0 1
| 12>  O        0.9623680000    -0.0174200000    -0.1362020000
| 13>  C        2.1461240000     0.1802210000    -0.0784200000
| 14>  C        2.8441210000     1.4900550000     0.0127920000
| 15>  C        4.1635490000     1.3131320000    -0.0775850000
| 16>  C        4.4992960000    -0.1421160000    -0.1597360000
| 17>  O        4.0845410000    -0.8564280000     1.0042550000
| 18>  C        3.2393680000    -0.8728650000    -0.1436930000
| 19>  H        2.3149560000     2.4231610000     0.1514370000
| 20>  H        4.9147380000     2.0924580000    -0.0449140000
| 21>  H        5.3970240000    -0.5044570000    -0.6469070000
| 22>  H        3.0624140000    -1.8335300000    -0.6135370000
| 23> *
| 24>
| 25>                          ****END OF INPUT****
 Total Charge           Charge          ....    0
 Multiplicity           Mult            ....    1
 Number of Electrons    NEL             ....   50
 Basis Dimension        Dim             ....  118

MULLIKEN ATOMIC CHARGES
-----------------------
   0 O :   -0.118304
   1 C :    0.151554
   2 C :   -0.064422
   3 C :    0.091146
   4 C :    0.086436
   5 O :   -0.258668
   6 C :    0.030747
   7 H :    0.006973
   8 H :    0.016367
   9 H :    0.030863
  10 H :    0.027308
Sum of atomic charges:   -0.0000000

LOEWDIN ATOMIC CHARGES
----------------------
   0 O :   -0.090880
   1 C :    0.039150
   2 C :   -0.034494
   3 C :    0.015182
   4 C :    0.046030
   5 O :   -0.125905
   6 C :    0.031473
   7 H :    0.034750
   8 H :    0.033297
   9 H :    0.024941
  10 H :    0.026454

  Mayer bond orders larger than 0.1
B(  0-O ,  1-C ) :   2.1854 B(  1-C ,  2-C ) :   0.9819 B(  1-C ,  6-C ) :   0.8994
B(  2-C ,  3-C ) :   1.6919 B(  2-C ,  7-H ) :   0.9940 B(  3-C ,  4-C ) :   0.9751
B(  3-C ,  8-H ) :   0.9957 B(  4-C ,  5-O ) :   0.9677 B(  4-C ,  6-C ) :   0.9953
B(  4-C ,  9-H ) :   0.9492 B(  5-O ,  6-C ) :   0.9636 B(  6-C , 10-H ) :   0.9558

FINAL SINGLE POINT ENERGY      -342.659587194928

DIPOLE MOMENT
-------------
                                X             Y             Z
Electronic contribution:     -2.00572      -1.11109       0.79856
Nuclear contribution   :      3.00607       1.56334      -1.35947
                        -----------------------------------------
Total Dipole Moment    :      1.00035       0.45225      -0.56091
                        -----------------------------------------
Magnitude (a.u.)       :      1.23282
Magnitude (Debye)      :      3.13358

                             ****ORCA TERMINATED NORMALLY****
TOTAL RUN TIME: 0 days 0 hours 0 minutes 5 seconds 729 msec
