                         Program Version 3.0.3 - RELEASE   -
|  1> ! RI PBE def2-SVP def2-SVP/J NBO PAL2
|  2> % maxcore 2000
|  3> % output
|  4>     # printlevel mini
|  5>     print[ P_Basis ] 0
|  6>     print[ P_SCFInfo ] 1
|  7>     print[ P_SCFIterInfo ] 1
|  8>     print[ P_OrbEn ] 0
|  9>     print[ P_Cartesian ] 0
| 10> end
| 11> *xyz 0 1
| 12>  O        1.0552640000     0.0313770000    -0.0627020000
| 13>  C        2.4620950000     0.1791990000    -0.0832850000
| 14>  C        2.9538130000     1.4865720000     0.4887290000
| 15>  C        3.6512410000     1.3119650000     1.6090560000
| 16>  C        3.7744190000    -0.1351290000     1.9167550000
| 17>  O        4.4567630000    -0.8705440000     0.8873890000
| 18>  C        3.0455900000    -0.8467800000     0.8676350000
| 19>  H        0.6640900000     0.7173030000    -0.6092300000
| 20>  H        2.8561530000     0.0212170000    -1.0978020000
| 21>  H        2.7822010000     2.4382950000    -0.0024880000
| 22>  H        4.1113210000     2.0944280000     2.1993450000
| 23>  H        3.9130300000    -0.5132040000     2.9232390000
| 24>  H        2.5281210000    -1.7898000000     1.0129610000
| 25> *
| 26>
| 27>                          ****END OF INPUT****
 Total Charge           Charge          ....    0
 Multiplicity           Mult            ....    1
 Number of Electrons    NEL             ....   52
 Basis Dimension        Dim             ....  128

MULLIKEN ATOMIC CHARGES
-----------------------
   0 O :   -0.262153
   1 C :    0.257315
   2 C :   -0.100975
   3 C :    0.068796
   4 C :    0.074180
   5 O :   -0.269378
   6 C :    0.023597
   7 H :    0.156277
   8 H :    0.018423
   9 H :   -0.003653
  10 H :   -0.005257
  11 H :    0.018908
  12 H :    0.023920
Sum of atomic charges:    0.0000000

LOEWDIN ATOMIC CHARGES
----------------------
   0 O :   -0.108737
   1 C :    0.038125
   2 C :   -0.032931
   3 C :   -0.027311
   4 C :    0.046920
   5 O :   -0.142660
   6 C :    0.048326
   7 H :    0.071746
   8 H :    0.019564
   9 H :    0.020927
  10 H :    0.026961
  11 H :    0.018603
  12 H :    0.020468

  Mayer bond orders larger than 0.1
B(  0-O ,  1-C ) :   1.0658 B(  0-O ,  7-H ) :   0.9766 B(  1-C ,  2-C ) :   0.9954
B(  1-C ,  6-C ) :   0.9605 B(  1-C ,  8-H ) :   0.8781 B(  2-C ,  3-C ) :   1.7958
B(  2-C ,  9-H ) :   0.9698 B(  3-C ,  4-C ) :   0.9837 B(  3-C , 10-H ) :   0.9985
B(  4-C ,  5-O ) :   0.9540 B(  4-C ,  6-C ) :   1.0244 B(  4-C , 11-H ) :   0.9621
B(  5-O ,  6-C ) :   1.0070 B(  6-C , 12-H ) :   0.9461

FINAL SINGLE POINT ENERGY      -343.849287250386

DIPOLE MOMENT
-------------
                                X             Y             Z
Electronic contribution:      0.78252      -1.32218       0.09779
Nuclear contribution   :     -1.17924       1.99142      -0.17856
                        -----------------------------------------
Total Dipole Moment    :     -0.39672       0.66924      -0.08078
                        -----------------------------------------
Magnitude (a.u.)       :      0.78217
Magnitude (Debye)      :      1.98813

                             ****ORCA TERMINATED NORMALLY****
TOTAL RUN TIME: 0 days 0 hours 0 minutes 6 seconds 234 msec
