                         Program Version 3.0.3 - RELEASE   -
|  1> ! RI PBE def2-SVP def2-SVP/J NBO PAL2
|  2> % maxcore 2000
|  3> % output
|  4>     # printlevel mini
|  5>     print[ P_Basis ] 0
|  6>     print[ P_SCFInfo ] 1
|  7>     print[ P_SCFIterInfo ] 1
|  8>     print[ P_OrbEn ] 0
|  9>     print[ P_Cartesian ] 0
| 10> end
| 11> *xyz 0 1
| 12>  O        0.9039900000     0.1018490000    -0.1144590000
| 13>  C        2.3138450000     0.0398250000     0.0173420000
| 14>  C        2.9595780000    -1.1808790000    -0.5798410000
| 15>  C        3.9533220000    -0.8667070000    -1.4021850000
| 16>  C        4.1430730000     0.6159760000    -1.5229970000
| 17>  C        2.9659830000     1.1682400000    -0.7552760000
| 18>  C        2.5012890000     2.4062710000    -0.7980210000
| 19>  H        0.5137500000    -0.4624630000     0.5574820000
| 20>  H        2.5762470000     0.1168720000     1.0856420000
| 21>  H        2.6491350000    -2.1870170000    -0.3218800000
| 22>  H        4.5815460000    -1.5813540000    -1.9213830000
| 23>  H        4.1596830000     0.9585060000    -2.5626830000
| 24>  H        5.0975510000     0.9283070000    -1.0795900000
| 25>  H        2.9766810000     3.1701550000    -1.4037650000
| 26>  H        1.6127260000     2.6865210000    -0.2446950000
| 27> *
| 28>
| 29>                          ****END OF INPUT****
 Total Charge           Charge          ....    0
 Multiplicity           Mult            ....    1
 Number of Electrons    NEL             ....   52
 Basis Dimension        Dim             ....  138

MULLIKEN ATOMIC CHARGES
-----------------------
   0 O :   -0.256968
   1 C :    0.221055
   2 C :   -0.032029
   3 C :   -0.079648
   4 C :    0.165990
   5 C :   -0.227116
   6 C :   -0.007571
   7 H :    0.150997
   8 H :    0.016992
   9 H :   -0.020547
  10 H :   -0.011264
  11 H :    0.030799
  12 H :    0.034410
  13 H :    0.002297
  14 H :    0.012600
Sum of atomic charges:    0.0000000

LOEWDIN ATOMIC CHARGES
----------------------
   0 O :   -0.109788
   1 C :    0.047207
   2 C :   -0.052754
   3 C :   -0.022330
   4 C :   -0.032934
   5 C :   -0.032476
   6 C :   -0.053997
   7 H :    0.067506
   8 H :    0.019354
   9 H :    0.019016
  10 H :    0.022081
  11 H :    0.038707
  12 H :    0.042437
  13 H :    0.022244
  14 H :    0.025728

  Mayer bond orders larger than 0.1
B(  0-O ,  1-C ) :   1.0913 B(  0-O ,  7-H ) :   0.9797 B(  1-C ,  2-C ) :   0.9836
B(  1-C ,  5-C ) :   0.9843 B(  1-C ,  8-H ) :   0.8777 B(  2-C ,  3-C ) :   1.8486
B(  2-C ,  9-H ) :   0.9824 B(  3-C ,  4-C ) :   1.0256 B(  3-C , 10-H ) :   0.9835
B(  4-C ,  5-C ) :   1.0340 B(  4-C , 11-H ) :   0.9112 B(  4-C , 12-H ) :   0.8915
B(  5-C ,  6-C ) :   2.0440 B(  6-C , 13-H ) :   0.9302 B(  6-C , 14-H ) :   0.9221

FINAL SINGLE POINT ENERGY      -308.002581971693

DIPOLE MOMENT
-------------
                                X             Y             Z
Electronic contribution:     -1.65647      -1.31311       0.55661
Nuclear contribution   :      1.94961       0.94202      -0.18396
                        -----------------------------------------
Total Dipole Moment    :      0.29314      -0.37109       0.37266
                        -----------------------------------------
Magnitude (a.u.)       :      0.60209
Magnitude (Debye)      :      1.53040

                             ****ORCA TERMINATED NORMALLY****
TOTAL RUN TIME: 0 days 0 hours 0 minutes 6 seconds 845 msec
