                         Program Version 3.0.3 - RELEASE   -
|  1> ! RI PBE def2-SVP def2-SVP/J NBO PAL2
|  2> % maxcore 2000
|  3> % output
|  4>     # printlevel mini
|  5>     print[ P_Basis ] 0
|  6>     print[ P_SCFInfo ] 1
|  7>     print[ P_SCFIterInfo ] 1
|  8>     print[ P_OrbEn ] 0
|  9>     print[ P_Cartesian ] 0
| 10> end
| 11> *xyz 0 1
| 12>  O        1.0547420000     0.0237590000    -0.1031620000
| 13>  C        2.4559590000     0.1003290000     0.0022900000
| 14>  C        3.0018810000     1.2167620000     0.8906910000
| 15>  C        4.4232700000     0.7453500000     1.1807450000
| 16>  C        4.2735320000    -0.7692860000     1.3900740000
| 17>  C        3.0282170000    -1.1492100000     0.6239550000
| 18>  C        2.4673320000    -2.3460650000     0.5461840000
| 19>  H        0.7530370000     0.7474440000    -0.6570740000
| 20>  H        2.9010100000     0.2120910000    -1.0016230000
| 21>  H        2.4065770000     1.2452300000     1.8093190000
| 22>  H        2.9543630000     2.2026770000     0.4217530000
| 23>  H        4.8757780000     1.2493790000     2.0360160000
| 24>  H        5.0626530000     0.9449180000     0.3150870000
| 25>  H        4.1314290000    -0.9958640000     2.4514090000
| 26>  H        5.1526980000    -1.3297040000     1.0637400000
| 27>  H        2.9034360000    -3.2108120000     1.0348750000
| 28>  H        1.5407760000    -2.4875980000     0.0025320000
| 29> *
| 30>
| 31>                          ****END OF INPUT****
 Total Charge           Charge          ....    0
 Multiplicity           Mult            ....    1
 Number of Electrons    NEL             ....   54
 Basis Dimension        Dim             ....  148

MULLIKEN ATOMIC CHARGES
-----------------------
   0 O :   -0.238287
   1 C :    0.142680
   2 C :    0.010060
   3 C :   -0.039763
   4 C :    0.113637
   5 C :   -0.225687
   6 C :   -0.026869
   7 H :    0.154864
   8 H :    0.006833
   9 H :    0.017659
  10 H :   -0.000739
  11 H :    0.014244
  12 H :    0.013748
  13 H :    0.026687
  14 H :    0.015760
  15 H :    0.000540
  16 H :    0.014633
Sum of atomic charges:   -0.0000000

LOEWDIN ATOMIC CHARGES
----------------------
   0 O :   -0.101065
   1 C :    0.044031
   2 C :   -0.055290
   3 C :   -0.040325
   4 C :   -0.033831
   5 C :   -0.045125
   6 C :   -0.066136
   7 H :    0.071095
   8 H :    0.016526
   9 H :    0.026794
  10 H :    0.017741
  11 H :    0.025344
  12 H :    0.023923
  13 H :    0.038304
  14 H :    0.033384
  15 H :    0.020315
  16 H :    0.024314

  Mayer bond orders larger than 0.1
B(  0-O ,  1-C ) :   1.1324 B(  0-O ,  7-H ) :   0.9773 B(  1-C ,  2-C ) :   1.0297
B(  1-C ,  5-C ) :   0.9990 B(  1-C ,  8-H ) :   0.8967 B(  2-C ,  3-C ) :   1.0815
B(  2-C ,  9-H ) :   0.9230 B(  2-C , 10-H ) :   0.9284 B(  3-C ,  4-C ) :   1.1008
B(  3-C , 11-H ) :   0.9330 B(  3-C , 12-H ) :   0.9310 B(  4-C ,  5-C ) :   1.0502
B(  4-C , 13-H ) :   0.9125 B(  4-C , 14-H ) :   0.9135 B(  5-C ,  6-C ) :   2.0400
B(  6-C , 15-H ) :   0.9334 B(  6-C , 16-H ) :   0.9211

FINAL SINGLE POINT ENERGY      -309.224394285133

DIPOLE MOMENT
-------------
                                X             Y             Z
Electronic contribution:     -3.00864      -0.72120      -1.34926
Nuclear contribution   :      3.31043       1.29924       1.12003
                        -----------------------------------------
Total Dipole Moment    :      0.30179       0.57803      -0.22922
                        -----------------------------------------
Magnitude (a.u.)       :      0.69119
Magnitude (Debye)      :      1.75685

                             ****ORCA TERMINATED NORMALLY****
TOTAL RUN TIME: 0 days 0 hours 0 minutes 7 seconds 668 msec
