                         Program Version 3.0.3 - RELEASE   -
|  1> ! RI PBE def2-SVP def2-SVP/J NBO PAL2
|  2> % maxcore 2000
|  3> % output
|  4>     # printlevel mini
|  5>     print[ P_Basis ] 0
|  6>     print[ P_SCFInfo ] 1
|  7>     print[ P_SCFIterInfo ] 1
|  8>     print[ P_OrbEn ] 0
|  9>     print[ P_Cartesian ] 0
| 10> end
| 11> *xyz 0 1
| 12>  O        1.0807120000    -0.1370080000    -0.2910930000
| 13>  C        2.4659690000    -0.0677430000    -0.0626680000
| 14>  C        2.9163830000     1.0805260000     0.8319390000
| 15>  C        4.2703920000     0.6288680000     1.4117170000
| 16>  C        4.3426130000    -0.8905160000     1.1644970000
| 17>  C        2.9461540000    -1.2972610000     0.6967080000
| 18>  O        2.8860630000    -2.5106140000    -0.0061500000
| 19>  H        0.8070670000     0.6522600000    -0.7643960000
| 20>  H        3.0114590000    -0.0309620000    -1.0230040000
| 21>  H        2.1699720000     1.1929390000     1.6239410000
| 22>  H        2.9753650000     2.0345160000     0.3026740000
| 23>  H        4.3383540000     0.8703550000     2.4735810000
| 24>  H        5.1024410000     1.1410250000     0.9250420000
| 25>  H        4.6622070000    -1.4590690000     2.0384510000
| 26>  H        5.0552600000    -1.1177800000     0.3636560000
| 27>  H        2.2772830000    -1.4300970000     1.5541660000
| 28>  H        3.4279970000    -2.4293300000    -0.7965500000
| 29> *
| 30>
| 31>                          ****END OF INPUT****
 Total Charge           Charge          ....    0
 Multiplicity           Mult            ....    1
 Number of Electrons    NEL             ....   56
 Basis Dimension        Dim             ....  148

MULLIKEN ATOMIC CHARGES
-----------------------
   0 O :   -0.234810
   1 C :    0.059684
   2 C :    0.015126
   3 C :    0.003261
   4 C :    0.028168
   5 C :    0.072970
   6 O :   -0.250222
   7 H :    0.154517
   8 H :   -0.031312
   9 H :    0.007858
  10 H :    0.001650
  11 H :    0.010283
  12 H :    0.005479
  13 H :    0.016395
  14 H :   -0.014329
  15 H :    0.006884
  16 H :    0.148398
Sum of atomic charges:    0.0000000

LOEWDIN ATOMIC CHARGES
----------------------
   0 O :   -0.102994
   1 C :    0.020945
   2 C :   -0.059381
   3 C :   -0.038895
   4 C :   -0.054918
   5 C :    0.031132
   6 O :   -0.098259
   7 H :    0.070426
   8 H :   -0.002727
   9 H :    0.026183
  10 H :    0.019730
  11 H :    0.027223
  12 H :    0.025422
  13 H :    0.027896
  14 H :    0.018957
  15 H :    0.025482
  16 H :    0.063777

  Mayer bond orders larger than 0.1
B(  0-O ,  1-C ) :   1.1447 B(  0-O ,  7-H ) :   0.9804 B(  1-C ,  2-C ) :   1.0546
B(  1-C ,  5-C ) :   0.9754 B(  1-C ,  8-H ) :   0.8998 B(  2-C ,  3-C ) :   1.1124
B(  2-C ,  9-H ) :   0.9062 B(  2-C , 10-H ) :   0.9230 B(  3-C ,  4-C ) :   1.1074
B(  3-C , 11-H ) :   0.9255 B(  3-C , 12-H ) :   0.9229 B(  4-C ,  5-C ) :   1.0578
B(  4-C , 13-H ) :   0.9256 B(  4-C , 14-H ) :   0.9085 B(  5-C ,  6-O ) :   1.0921
B(  5-C , 15-H ) :   0.8978 B(  6-O , 16-H ) :   0.9807

FINAL SINGLE POINT ENERGY      -346.299580239879

DIPOLE MOMENT
-------------
                                X             Y             Z
Electronic contribution:     -3.50373      -3.08418      -1.97575
Nuclear contribution   :      4.05389       3.98160       1.62136
                        -----------------------------------------
Total Dipole Moment    :      0.55016       0.89743      -0.35439
                        -----------------------------------------
Magnitude (a.u.)       :      1.11069
Magnitude (Debye)      :      2.82316

                             ****ORCA TERMINATED NORMALLY****
TOTAL RUN TIME: 0 days 0 hours 0 minutes 7 seconds 173 msec
