                         Program Version 3.0.3 - RELEASE   -
|  1> ! RI PBE def2-SVP def2-SVP/J NBO PAL2
|  2> % maxcore 2000
|  3> % output
|  4>     # printlevel mini
|  5>     print[ P_Basis ] 0
|  6>     print[ P_SCFInfo ] 1
|  7>     print[ P_SCFIterInfo ] 1
|  8>     print[ P_OrbEn ] 0
|  9>     print[ P_Cartesian ] 0
| 10> end
| 11> *xyz 0 1
| 12>  O        1.1713220000     0.1018810000     0.5785510000
| 13>  C        2.3078060000     0.0708500000     0.2138720000
| 14>  C        3.1677610000    -1.1523010000    -0.0389530000
| 15>  C        4.4744980000    -0.5637480000    -0.4704660000
| 16>  C        4.4893150000     0.7745490000    -0.5011360000
| 17>  C        3.1878310000     1.3130140000    -0.0932130000
| 18>  O        2.8276220000     2.4546020000     0.0005260000
| 19>  H        2.7153830000    -1.7929060000    -0.8030290000
| 20>  H        3.2524820000    -1.7605500000     0.8675180000
| 21>  H        5.3224850000    -1.1874730000    -0.7310160000
| 22>  H        5.3264950000     1.3991930000    -0.7823730000
| 23> *
| 24>
| 25>                          ****END OF INPUT****
 Total Charge           Charge          ....    0
 Multiplicity           Mult            ....    1
 Number of Electrons    NEL             ....   50
 Basis Dimension        Dim             ....  118

MULLIKEN ATOMIC CHARGES
-----------------------
   0 O :   -0.089320
   1 C :   -0.053778
   2 C :    0.075386
   3 C :   -0.052572
   4 C :   -0.006867
   5 C :    0.055283
   6 O :   -0.101595
   7 H :    0.071072
   8 H :    0.071269
   9 H :    0.023082
  10 H :    0.008040
Sum of atomic charges:   -0.0000000

LOEWDIN ATOMIC CHARGES
----------------------
   0 O :   -0.057572
   1 C :    0.038499
   2 C :   -0.073654
   3 C :    0.036790
   4 C :   -0.056789
   5 C :    0.002080
   6 O :   -0.075689
   7 H :    0.059092
   8 H :    0.059350
   9 H :    0.031976
  10 H :    0.035916

  Mayer bond orders larger than 0.1
B(  0-O ,  1-C ) :   2.2575 B(  1-C ,  2-C ) :   0.9441 B(  1-C ,  5-C ) :   0.8337
B(  2-C ,  3-C ) :   1.0365 B(  2-C ,  7-H ) :   0.8931 B(  2-C ,  8-H ) :   0.8920
B(  3-C ,  4-C ) :   1.6899 B(  3-C ,  6-O ) :   0.1032 B(  3-C ,  9-H ) :   0.9749
B(  4-C ,  5-C ) :   0.9888 B(  4-C , 10-H ) :   0.9975 B(  5-C ,  6-O ) :   2.1798

FINAL SINGLE POINT ENERGY      -342.701575675463

DIPOLE MOMENT
-------------
                                X             Y             Z
Electronic contribution:     -2.89333       3.50770       0.86041
Nuclear contribution   :      4.13672      -4.78391      -1.23722
                        -----------------------------------------
Total Dipole Moment    :      1.24339      -1.27622      -0.37681
                        -----------------------------------------
Magnitude (a.u.)       :      1.82119
Magnitude (Debye)      :      4.62909

                             ****ORCA TERMINATED NORMALLY****
TOTAL RUN TIME: 0 days 0 hours 0 minutes 5 seconds 324 msec
