                         Program Version 3.0.3 - RELEASE   -
|  1> ! RI PBE def2-SVP def2-SVP/J NBO PAL2
|  2> % maxcore 2000
|  3> % output
|  4>     # printlevel mini
|  5>     print[ P_Basis ] 0
|  6>     print[ P_SCFInfo ] 1
|  7>     print[ P_SCFIterInfo ] 1
|  8>     print[ P_OrbEn ] 0
|  9>     print[ P_Cartesian ] 0
| 10> end
| 11> *xyz 0 1
| 12>  O        1.0634040000    -0.0604370000     0.5315200000
| 13>  C        2.2112120000     0.0014880000     0.2017430000
| 14>  C        3.0924310000     1.2188470000     0.0855840000
| 15>  C        4.2376450000     0.7897960000    -0.8384370000
| 16>  C        4.4477170000    -0.7009720000    -0.5505340000
| 17>  C        3.0777080000    -1.2258780000    -0.2047250000
| 18>  O        2.6830870000    -2.3545050000    -0.2276510000
| 19>  H        3.4706310000     1.4404920000     1.0919120000
| 20>  H        2.5301050000     2.0912260000    -0.2475220000
| 21>  H        5.1423330000     1.3778100000    -0.6855550000
| 22>  H        3.9377490000     0.9236370000    -1.8812870000
| 23>  H        5.0790640000    -0.8377120000     0.3369050000
| 24>  H        4.9027030000    -1.2699910000    -1.3613520000
| 25> *
| 26>
| 27>                          ****END OF INPUT****
 Total Charge           Charge          ....    0
 Multiplicity           Mult            ....    1
 Number of Electrons    NEL             ....   52
 Basis Dimension        Dim             ....  128

MULLIKEN ATOMIC CHARGES
-----------------------
   0 O :   -0.096109
   1 C :   -0.035751
   2 C :    0.030522
   3 C :   -0.048360
   4 C :    0.014940
   5 C :   -0.036922
   6 O :   -0.094612
   7 H :    0.052698
   8 H :    0.041238
   9 H :    0.028237
  10 H :    0.041467
  11 H :    0.057469
  12 H :    0.045181
Sum of atomic charges:    0.0000000

LOEWDIN ATOMIC CHARGES
----------------------
   0 O :   -0.065175
   1 C :    0.023489
   2 C :   -0.070066
   3 C :   -0.035861
   4 C :   -0.072681
   5 C :    0.023290
   6 O :   -0.064986
   7 H :    0.054348
   8 H :    0.044173
   9 H :    0.030778
  10 H :    0.032660
  11 H :    0.055209
  12 H :    0.044823

  Mayer bond orders larger than 0.1
B(  0-O ,  1-C ) :   2.2424 B(  1-C ,  2-C ) :   0.9805 B(  1-C ,  5-C ) :   0.8085
B(  2-C ,  3-C ) :   1.0599 B(  2-C ,  7-H ) :   0.8994 B(  2-C ,  8-H ) :   0.9148
B(  3-C ,  4-C ) :   1.0650 B(  3-C ,  9-H ) :   0.9325 B(  3-C , 10-H ) :   0.9456
B(  4-C ,  5-C ) :   0.9770 B(  4-C , 11-H ) :   0.8995 B(  4-C , 12-H ) :   0.9144
B(  5-C ,  6-O ) :   2.2447

FINAL SINGLE POINT ENERGY      -343.914226269559

DIPOLE MOMENT
-------------
                                X             Y             Z
Electronic contribution:     -5.51784      -4.40740       1.55884
Nuclear contribution   :      6.82978       5.41375      -1.78822
                        -----------------------------------------
Total Dipole Moment    :      1.31194       1.00635      -0.22938
                        -----------------------------------------
Magnitude (a.u.)       :      1.66930
Magnitude (Debye)      :      4.24302

                             ****ORCA TERMINATED NORMALLY****
TOTAL RUN TIME: 0 days 0 hours 0 minutes 6 seconds 179 msec
