                         Program Version 3.0.3 - RELEASE   -
|  1> ! RI PBE def2-SVP def2-SVP/J NBO PAL2
|  2> % maxcore 2000
|  3> % output
|  4>     # printlevel mini
|  5>     print[ P_Basis ] 0
|  6>     print[ P_SCFInfo ] 1
|  7>     print[ P_SCFIterInfo ] 1
|  8>     print[ P_OrbEn ] 0
|  9>     print[ P_Cartesian ] 0
| 10> end
| 11> *xyz 0 1
| 12>  O        0.9367810000    -0.2337050000     0.1110740000
| 13>  C        2.3334920000    -0.1844260000     0.0530030000
| 14>  C        2.9770530000    -1.2990090000    -0.7104430000
| 15>  C        3.9341950000    -0.8560010000    -1.5225680000
| 16>  C        4.0639230000     0.6385100000    -1.5074730000
| 17>  C        2.8400000000     1.0405820000    -0.7086060000
| 18>  O        2.2654720000     2.0936970000    -0.7211750000
| 19>  H        0.6295250000     0.6818860000     0.0864590000
| 20>  H        2.7582110000    -0.1397050000     1.0735200000
| 21>  H        2.7039600000    -2.3359480000    -0.5627160000
| 22>  H        4.5646180000    -1.4890490000    -2.1350370000
| 23>  H        4.0620990000     1.1100310000    -2.4937630000
| 24>  H        4.9701720000     0.9832260000    -0.9933660000
| 25> *
| 26>
| 27>                          ****END OF INPUT****
 Total Charge           Charge          ....    0
 Multiplicity           Mult            ....    1
 Number of Electrons    NEL             ....   52
 Basis Dimension        Dim             ....  128

MULLIKEN ATOMIC CHARGES
-----------------------
   0 O :   -0.251807
   1 C :    0.176112
   2 C :   -0.023572
   3 C :   -0.086965
   4 C :    0.113992
   5 C :   -0.087382
   6 O :   -0.140166
   7 H :    0.153110
   8 H :    0.030162
   9 H :    0.007318
  10 H :    0.004374
  11 H :    0.047222
  12 H :    0.057602
Sum of atomic charges:    0.0000000

LOEWDIN ATOMIC CHARGES
----------------------
   0 O :   -0.105661
   1 C :    0.010586
   2 C :   -0.030677
   3 C :   -0.025804
   4 C :   -0.063747
   5 C :    0.061319
   6 O :   -0.100692
   7 H :    0.065022
   8 H :    0.030126
   9 H :    0.029861
  10 H :    0.026193
  11 H :    0.047129
  12 H :    0.056346

  Mayer bond orders larger than 0.1
B(  0-O ,  1-C ) :   1.1341 B(  0-O ,  7-H ) :   0.9583 B(  1-C ,  2-C ) :   0.9809
B(  1-C ,  5-C ) :   0.9214 B(  1-C ,  8-H ) :   0.8555 B(  2-C ,  3-C ) :   1.8462
B(  2-C ,  9-H ) :   0.9907 B(  3-C ,  4-C ) :   1.0211 B(  3-C , 10-H ) :   0.9849
B(  4-C ,  5-C ) :   0.9642 B(  4-C , 11-H ) :   0.9082 B(  4-C , 12-H ) :   0.8849
B(  5-C ,  6-O ) :   2.2169

FINAL SINGLE POINT ENERGY      -343.893929871004

DIPOLE MOMENT
-------------
                                X             Y             Z
Electronic contribution:     -2.39877       2.01447       0.72556
Nuclear contribution   :      3.23072      -2.27834      -0.82240
                        -----------------------------------------
Total Dipole Moment    :      0.83196      -0.26387      -0.09683
                        -----------------------------------------
Magnitude (a.u.)       :      0.87816
Magnitude (Debye)      :      2.23210

                             ****ORCA TERMINATED NORMALLY****
TOTAL RUN TIME: 0 days 0 hours 0 minutes 6 seconds 372 msec
