                         Program Version 3.0.3 - RELEASE   -
|  1> ! RI PBE def2-SVP def2-SVP/J NBO PAL2
|  2> % maxcore 2000
|  3> % output
|  4>     # printlevel mini
|  5>     print[ P_Basis ] 0
|  6>     print[ P_SCFInfo ] 1
|  7>     print[ P_SCFIterInfo ] 1
|  8>     print[ P_OrbEn ] 0
|  9>     print[ P_Cartesian ] 0
| 10> end
| 11> *xyz 0 1
| 12>  O        0.9955590000     0.1128710000     0.1333510000
| 13>  C        2.4050230000    -0.0060400000     0.0783520000
| 14>  C        2.8462170000    -1.2293570000    -0.7446690000
| 15>  C        3.2171640000    -0.6458000000    -2.0749120000
| 16>  C        3.2243690000     0.6827780000    -2.0582840000
| 17>  C        2.9224500000     1.2240880000    -0.6939040000
| 18>  O        4.0593360000     1.8324970000    -0.1034010000
| 19>  H        0.6409880000    -0.6619970000     0.5758260000
| 20>  H        2.8315070000    -0.0034220000     1.0880890000
| 21>  H        2.0294880000    -1.9545740000    -0.8234900000
| 22>  H        3.6913060000    -1.7618590000    -0.2923310000
| 23>  H        3.4544970000    -1.2575180000    -2.9385510000
| 24>  H        3.4706280000     1.3244660000    -2.8960150000
| 25>  H        2.1430120000     1.9898590000    -0.6909780000
| 26>  H        4.8276560000     1.3018100000    -0.3333860000
| 27> *
| 28>
| 29>                          ****END OF INPUT****
 Total Charge           Charge          ....    0
 Multiplicity           Mult            ....    1
 Number of Electrons    NEL             ....   54
 Basis Dimension        Dim             ....  138

MULLIKEN ATOMIC CHARGES
-----------------------
   0 O :   -0.260426
   1 C :    0.072242
   2 C :    0.083759
   3 C :   -0.070922
   4 C :   -0.053286
   5 C :    0.147499
   6 O :   -0.259972
   7 H :    0.153329
   8 H :   -0.011035
   9 H :    0.013304
  10 H :    0.022688
  11 H :   -0.002195
  12 H :   -0.002697
  13 H :    0.020587
  14 H :    0.147125
Sum of atomic charges:   -0.0000000

LOEWDIN ATOMIC CHARGES
----------------------
   0 O :   -0.111013
   1 C :    0.044315
   2 C :   -0.060792
   3 C :   -0.022505
   4 C :   -0.055547
   5 C :    0.041801
   6 O :   -0.107159
   7 H :    0.066272
   8 H :    0.003937
   9 H :    0.031393
  10 H :    0.031772
  11 H :    0.022339
  12 H :    0.024587
  13 H :    0.027623
  14 H :    0.062977

  Mayer bond orders larger than 0.1
B(  0-O ,  1-C ) :   1.0839 B(  0-O ,  7-H ) :   0.9789 B(  1-C ,  2-C ) :   1.0256
B(  1-C ,  5-C ) :   0.9807 B(  1-C ,  8-H ) :   0.9151 B(  2-C ,  3-C ) :   1.0267
B(  2-C ,  9-H ) :   0.9102 B(  2-C , 10-H ) :   0.9069 B(  3-C ,  4-C ) :   1.8191
B(  3-C , 11-H ) :   0.9804 B(  4-C ,  5-C ) :   1.0171 B(  4-C , 12-H ) :   0.9911
B(  5-C ,  6-O ) :   1.0694 B(  5-C , 13-H ) :   0.9023 B(  6-O , 14-H ) :   0.9817

FINAL SINGLE POINT ENERGY      -345.081199931566

DIPOLE MOMENT
-------------
                                X             Y             Z
Electronic contribution:     -0.42219       2.19814       0.42168
Nuclear contribution   :      0.68637      -3.21923      -0.51165
                        -----------------------------------------
Total Dipole Moment    :      0.26418      -1.02109      -0.08997
                        -----------------------------------------
Magnitude (a.u.)       :      1.05854
Magnitude (Debye)      :      2.69060

                             ****ORCA TERMINATED NORMALLY****
TOTAL RUN TIME: 0 days 0 hours 0 minutes 6 seconds 976 msec
