                         Program Version 3.0.3 - RELEASE   -
|  1> ! RI PBE def2-SVP def2-SVP/J NBO PAL2
|  2> % maxcore 2000
|  3> % output
|  4>     # printlevel mini
|  5>     print[ P_Basis ] 0
|  6>     print[ P_SCFInfo ] 1
|  7>     print[ P_SCFIterInfo ] 1
|  8>     print[ P_OrbEn ] 0
|  9>     print[ P_Cartesian ] 0
| 10> end
| 11> *xyz 0 1
| 12>  O        1.3310440000    -0.2945470000     0.6096190000
| 13>  C        2.5742060000    -0.1761380000    -0.0133260000
| 14>  C        2.8993040000    -1.2940730000    -0.9984480000
| 15>  C        3.5566410000    -0.5698860000    -2.1343820000
| 16>  C        3.4457830000     0.7603510000    -2.0533210000
| 17>  C        2.6782670000     1.0962680000    -0.8496430000
| 18>  O        2.1513950000     2.1380830000    -0.5405320000
| 19>  H        1.0185870000     0.6086360000     0.7571760000
| 20>  H        3.3850040000    -0.1169250000     0.7328650000
| 21>  H        1.9710320000    -1.7710050000    -1.3306410000
| 22>  H        3.5333030000    -2.0809780000    -0.5830930000
| 23>  H        4.0500370000    -1.0977720000    -2.9431830000
| 24>  H        3.7925160000     1.4888850000    -2.7736830000
| 25> *
| 26>
| 27>                          ****END OF INPUT****
 Total Charge           Charge          ....    0
 Multiplicity           Mult            ....    1
 Number of Electrons    NEL             ....   52
 Basis Dimension        Dim             ....  128

MULLIKEN ATOMIC CHARGES
-----------------------
   0 O :   -0.241235
   1 C :    0.053955
   2 C :    0.111188
   3 C :   -0.076253
   4 C :    0.010030
   5 C :    0.017170
   6 O :   -0.161806
   7 H :    0.153645
   8 H :    0.029197
   9 H :    0.049060
  10 H :    0.035814
  11 H :    0.018245
  12 H :    0.000989
Sum of atomic charges:   -0.0000000

LOEWDIN ATOMIC CHARGES
----------------------
   0 O :   -0.103846
   1 C :    0.019434
   2 C :   -0.042298
   3 C :    0.037306
   4 C :   -0.058965
   5 C :    0.025235
   6 O :   -0.124715
   7 H :    0.065426
   8 H :    0.029049
   9 H :    0.051581
  10 H :    0.038352
  11 H :    0.029905
  12 H :    0.033535

  Mayer bond orders larger than 0.1
B(  0-O ,  1-C ) :   1.1653 B(  0-O ,  7-H ) :   0.9542 B(  1-C ,  2-C ) :   1.0336
B(  1-C ,  5-C ) :   0.9446 B(  1-C ,  8-H ) :   0.8733 B(  2-C ,  3-C ) :   1.0507
B(  2-C ,  9-H ) :   0.8840 B(  2-C , 10-H ) :   0.9177 B(  3-C ,  4-C ) :   1.7057
B(  3-C , 11-H ) :   0.9767 B(  4-C ,  5-C ) :   0.9993 B(  4-C , 12-H ) :   0.9971
B(  5-C ,  6-O ) :   2.1339

FINAL SINGLE POINT ENERGY      -343.904450895350

DIPOLE MOMENT
-------------
                                X             Y             Z
Electronic contribution:     -1.26890       3.49774       0.73230
Nuclear contribution   :      1.95968      -4.15989      -1.27571
                        -----------------------------------------
Total Dipole Moment    :      0.69077      -0.66214      -0.54340
                        -----------------------------------------
Magnitude (a.u.)       :      1.10041
Magnitude (Debye)      :      2.79701

                             ****ORCA TERMINATED NORMALLY****
TOTAL RUN TIME: 0 days 0 hours 0 minutes 6 seconds 392 msec
