                         Program Version 3.0.3 - RELEASE   -
|  1> ! RI PBE def2-SVP def2-SVP/J NBO PAL2
|  2> % maxcore 2000
|  3> % output
|  4>     # printlevel mini
|  5>     print[ P_Basis ] 0
|  6>     print[ P_SCFInfo ] 1
|  7>     print[ P_SCFIterInfo ] 1
|  8>     print[ P_OrbEn ] 0
|  9>     print[ P_Cartesian ] 0
| 10> end
| 11> *xyz 0 1
| 12>  O        1.0035410000    -0.1172640000     0.0498170000
| 13>  C        2.3964560000    -0.0356140000     0.1071970000
| 14>  C        2.9921480000     1.0697330000     0.9721440000
| 15>  C        4.4088130000     0.5661410000     1.2592970000
| 16>  C        4.2263410000    -0.9324320000     1.4952960000
| 17>  C        2.9905470000    -1.3142300000     0.7021530000
| 18>  O        2.5383780000    -2.4152370000     0.5728320000
| 19>  H        0.6744190000     0.5866640000    -0.5133650000
| 20>  H        2.8370510000     0.0327420000    -0.9040010000
| 21>  H        2.4105500000     1.1343620000     1.8978110000
| 22>  H        2.9726690000     2.0502850000     0.4923310000
| 23>  H        4.8735940000     1.0784200000     2.1022390000
| 24>  H        5.0476590000     0.7365490000     0.3873370000
| 25>  H        4.0029080000    -1.1463590000     2.5464160000
| 26>  H        5.0777270000    -1.5568670000     1.2203860000
| 27> *
| 28>
| 29>                          ****END OF INPUT****
 Total Charge           Charge          ....    0
 Multiplicity           Mult            ....    1
 Number of Electrons    NEL             ....   54
 Basis Dimension        Dim             ....  138

MULLIKEN ATOMIC CHARGES
-----------------------
   0 O :   -0.223148
   1 C :    0.085529
   2 C :    0.007303
   3 C :   -0.044223
   4 C :    0.043753
   5 C :   -0.081352
   6 O :   -0.128035
   7 H :    0.159496
   8 H :    0.020726
   9 H :    0.022825
  10 H :    0.009742
  11 H :    0.022399
  12 H :    0.022275
  13 H :    0.046701
  14 H :    0.036008
Sum of atomic charges:   -0.0000000

LOEWDIN ATOMIC CHARGES
----------------------
   0 O :   -0.090400
   1 C :    0.003619
   2 C :   -0.055365
   3 C :   -0.041050
   4 C :   -0.069320
   5 C :    0.046598
   6 O :   -0.096459
   7 H :    0.075246
   8 H :    0.026108
   9 H :    0.028252
  10 H :    0.021826
  11 H :    0.028731
  12 H :    0.026575
  13 H :    0.052620
  14 H :    0.043017

  Mayer bond orders larger than 0.1
B(  0-O ,  1-C ) :   1.1497 B(  0-O ,  7-H ) :   0.9765 B(  1-C ,  2-C ) :   1.0345
B(  1-C ,  5-C ) :   0.9053 B(  1-C ,  8-H ) :   0.8879 B(  2-C ,  3-C ) :   1.0630
B(  2-C ,  9-H ) :   0.9248 B(  2-C , 10-H ) :   0.9285 B(  3-C ,  4-C ) :   1.0922
B(  3-C , 11-H ) :   0.9303 B(  3-C , 12-H ) :   0.9336 B(  4-C ,  5-C ) :   0.9805
B(  4-C , 13-H ) :   0.9026 B(  4-C , 14-H ) :   0.9119 B(  5-C ,  6-O ) :   2.2502

FINAL SINGLE POINT ENERGY      -345.110174473564

DIPOLE MOMENT
-------------
                                X             Y             Z
Electronic contribution:     -3.87045      -4.78049      -1.54805
Nuclear contribution   :      4.46265       6.11062       1.39277
                        -----------------------------------------
Total Dipole Moment    :      0.59220       1.33013      -0.15528
                        -----------------------------------------
Magnitude (a.u.)       :      1.46426
Magnitude (Debye)      :      3.72185

                             ****ORCA TERMINATED NORMALLY****
TOTAL RUN TIME: 0 days 0 hours 0 minutes 6 seconds 893 msec
