                         Program Version 3.0.3 - RELEASE   -
|  1> ! RI PBE def2-SVP def2-SVP/J NBO PAL2
|  2> % maxcore 2000
|  3> % output
|  4>     # printlevel mini
|  5>     print[ P_Basis ] 0
|  6>     print[ P_SCFInfo ] 1
|  7>     print[ P_SCFIterInfo ] 1
|  8>     print[ P_OrbEn ] 0
|  9>     print[ P_Cartesian ] 0
| 10> end
| 11> *xyz 0 1
| 12>  O        0.9398430000    -0.1198840000     0.1298770000
| 13>  C        2.2889860000    -0.0459300000     0.0097370000
| 14>  C        2.9671410000     1.1661750000    -0.0558140000
| 15>  C        4.3481990000     1.1794590000    -0.1785020000
| 16>  C        5.0616920000    -0.0076690000    -0.2366210000
| 17>  C        4.3763820000    -1.2137380000    -0.1704570000
| 18>  C        2.9977680000    -1.2404440000    -0.0479370000
| 19>  H        0.5752400000     0.7691290000     0.1580690000
| 20>  H        2.4126680000     2.0995550000    -0.0106820000
| 21>  H        4.8676300000     2.1298950000    -0.2288140000
| 22>  H        6.1404930000     0.0060920000    -0.3324700000
| 23>  H        4.9215970000    -2.1499860000    -0.2147440000
| 24>  H        2.4539510000    -2.1760730000     0.0044590000
| 25> *
| 26>
| 27>                          ****END OF INPUT****
 Total Charge           Charge          ....    0
 Multiplicity           Mult            ....    1
 Number of Electrons    NEL             ....   50
 Basis Dimension        Dim             ....  128

MULLIKEN ATOMIC CHARGES
-----------------------
   0 O :   -0.152736
   1 C :    0.124072
   2 C :   -0.043407
   3 C :    0.007255
   4 C :    0.011118
   5 C :    0.013477
   6 C :   -0.015859
   7 H :    0.165262
   8 H :   -0.038449
   9 H :   -0.017862
  10 H :   -0.014765
  11 H :   -0.015463
  12 H :   -0.022644
Sum of atomic charges:   -0.0000000

LOEWDIN ATOMIC CHARGES
----------------------
   0 O :   -0.026052
   1 C :    0.032974
   2 C :   -0.083724
   3 C :   -0.019611
   4 C :   -0.055551
   5 C :   -0.017824
   6 C :   -0.055468
   7 H :    0.085153
   8 H :    0.023408
   9 H :    0.028294
  10 H :    0.027462
  11 H :    0.029082
  12 H :    0.031857

  Mayer bond orders larger than 0.1
B(  0-O ,  1-C ) :   1.2152 B(  0-O ,  7-H ) :   0.9666 B(  1-C ,  2-C ) :   1.3149
B(  1-C ,  6-C ) :   1.3447 B(  2-C ,  3-C ) :   1.3811 B(  2-C ,  8-H ) :   0.9784
B(  3-C ,  4-C ) :   1.3825 B(  3-C ,  9-H ) :   0.9779 B(  4-C ,  5-C ) :   1.3614
B(  4-C , 10-H ) :   0.9889 B(  5-C ,  6-C ) :   1.3905 B(  5-C , 11-H ) :   0.9817
B(  6-C , 12-H ) :   0.9891

FINAL SINGLE POINT ENERGY      -306.868312059192

DIPOLE MOMENT
-------------
                                X             Y             Z
Electronic contribution:     -2.15084      -0.31802       0.18989
Nuclear contribution   :      1.99539       0.82568      -0.18105
                        -----------------------------------------
Total Dipole Moment    :     -0.15545       0.50765       0.00884
                        -----------------------------------------
Magnitude (a.u.)       :      0.53099
Magnitude (Debye)      :      1.34968

                             ****ORCA TERMINATED NORMALLY****
TOTAL RUN TIME: 0 days 0 hours 0 minutes 5 seconds 990 msec
