                         Program Version 3.0.3 - RELEASE   -
|  1> ! RI PBE def2-SVP def2-SVP/J NBO PAL2
|  2> % maxcore 2000
|  3> % output
|  4>     # printlevel mini
|  5>     print[ P_Basis ] 0
|  6>     print[ P_SCFInfo ] 1
|  7>     print[ P_SCFIterInfo ] 1
|  8>     print[ P_OrbEn ] 0
|  9>     print[ P_Cartesian ] 0
| 10> end
| 11> *xyz 0 1
| 12>  O        1.1029430000     0.1284520000     0.0623570000
| 13>  C        2.5221130000     0.0509520000     0.0078130000
| 14>  C        2.9931760000    -1.3483120000    -0.3739530000
| 15>  C        2.5882670000    -1.7240690000    -1.7927280000
| 16>  C        3.0809150000    -0.6883690000    -2.7957420000
| 17>  C        2.5833520000     0.7046170000    -2.4310130000
| 18>  C        2.9832310000     1.0808570000    -1.0103500000
| 19>  H        0.7879990000    -0.5495910000     0.6655490000
| 20>  H        2.9380010000     0.3138010000     0.9914810000
| 21>  H        2.6016890000    -2.0764280000     0.3469600000
| 22>  H        4.0854580000    -1.3807500000    -0.2787070000
| 23>  H        1.4965560000    -1.7892130000    -1.8505680000
| 24>  H        2.9775030000    -2.7158470000    -2.0415770000
| 25>  H        2.7581860000    -0.9557970000    -3.8064340000
| 26>  H        4.1790330000    -0.6908050000    -2.8081160000
| 27>  H        1.4923560000     0.7335210000    -2.5143820000
| 28>  H        2.9743630000     1.4461300000    -3.1340610000
| 29>  H        2.5707010000     2.0558750000    -0.7367910000
| 30>  H        4.0742290000     1.1621450000    -0.9415380000
| 31> *
| 32>
| 33>                          ****END OF INPUT****
 Total Charge           Charge          ....    0
 Multiplicity           Mult            ....    1
 Number of Electrons    NEL             ....   56
 Basis Dimension        Dim             ....  158

MULLIKEN ATOMIC CHARGES
-----------------------
   0 O :   -0.264828
   1 C :    0.052055
   2 C :   -0.009671
   3 C :    0.025687
   4 C :   -0.010636
   5 C :   -0.008644
   6 C :    0.036630
   7 H :    0.149744
   8 H :   -0.014519
   9 H :   -0.001967
  10 H :    0.003128
  11 H :    0.003309
  12 H :    0.000625
  13 H :    0.001998
  14 H :    0.000410
  15 H :    0.018858
  16 H :    0.006681
  17 H :    0.008001
  18 H :    0.003140
Sum of atomic charges:   -0.0000000

LOEWDIN ATOMIC CHARGES
----------------------
   0 O :   -0.118393
   1 C :    0.046845
   2 C :   -0.059620
   3 C :   -0.043090
   4 C :   -0.042503
   5 C :   -0.044443
   6 C :   -0.045372
   7 H :    0.065952
   8 H :    0.004120
   9 H :    0.018844
  10 H :    0.025821
  11 H :    0.021731
  12 H :    0.022585
  13 H :    0.023367
  14 H :    0.020182
  15 H :    0.026949
  16 H :    0.024142
  17 H :    0.027428
  18 H :    0.025453

  Mayer bond orders larger than 0.1
B(  0-O ,  1-C ) :   1.0511 B(  0-O ,  7-H ) :   0.9798 B(  1-C ,  2-C ) :   1.0702
B(  1-C ,  6-C ) :   1.0690 B(  1-C ,  8-H ) :   0.9158 B(  2-C ,  3-C ) :   1.0837
B(  2-C ,  9-H ) :   0.9203 B(  2-C , 10-H ) :   0.9149 B(  3-C ,  4-C ) :   1.1087
B(  3-C , 11-H ) :   0.9217 B(  3-C , 12-H ) :   0.9277 B(  4-C ,  5-C ) :   1.1115
B(  4-C , 13-H ) :   0.9258 B(  4-C , 14-H ) :   0.9246 B(  5-C ,  6-C ) :   1.0949
B(  5-C , 15-H ) :   0.9251 B(  5-C , 16-H ) :   0.9279 B(  6-C , 17-H ) :   0.9170
B(  6-C , 18-H ) :   0.9240

FINAL SINGLE POINT ENERGY      -310.454443105555

DIPOLE MOMENT
-------------
                                X             Y             Z
Electronic contribution:     -2.33133       0.91679       2.32342
Nuclear contribution   :      2.54932      -1.29561      -2.04645
                        -----------------------------------------
Total Dipole Moment    :      0.21799      -0.37882       0.27696
                        -----------------------------------------
Magnitude (a.u.)       :      0.51743
Magnitude (Debye)      :      1.31520

                             ****ORCA TERMINATED NORMALLY****
TOTAL RUN TIME: 0 days 0 hours 0 minutes 8 seconds 379 msec
