                         Program Version 3.0.3 - RELEASE   -
|  1> ! RI PBE def2-SVP def2-SVP/J NBO PAL2
|  2> % maxcore 2000
|  3> % output
|  4>     # printlevel mini
|  5>     print[ P_Basis ] 0
|  6>     print[ P_SCFInfo ] 1
|  7>     print[ P_SCFIterInfo ] 1
|  8>     print[ P_OrbEn ] 0
|  9>     print[ P_Cartesian ] 0
| 10> end
| 11> *xyz 0 1
| 12>  O        1.1383540000     0.0517430000     0.1426100000
| 13>  C        2.3371610000     0.0259420000     0.0087000000
| 14>  C        3.1171570000    -1.2660870000    -0.0555170000
| 15>  C        4.0903370000    -1.2867360000    -1.2356480000
| 16>  C        4.9757400000    -0.0496990000    -1.2507950000
| 17>  C        4.1388180000     1.2202800000    -1.2846420000
| 18>  C        3.1664630000     1.2833650000    -0.1053370000
| 19>  H        2.4109670000    -2.0969960000    -0.0852880000
| 20>  H        3.6881790000    -1.3458990000     0.8791960000
| 21>  H        3.5192750000    -1.3336630000    -2.1701310000
| 22>  H        4.6961140000    -2.1961840000    -1.1965620000
| 23>  H        5.6480350000    -0.0795500000    -2.1129940000
| 24>  H        5.6129410000    -0.0445630000    -0.3574750000
| 25>  H        3.5692890000     1.2527080000    -2.2206740000
| 26>  H        4.7793200000     2.1064690000    -1.2806500000
| 27>  H        2.4928920000     2.1391500000    -0.1680670000
| 28>  H        3.7408520000     1.3774890000     0.8259740000
| 29> *
| 30>
| 31>                          ****END OF INPUT****
 Total Charge           Charge          ....    0
 Multiplicity           Mult            ....    1
 Number of Electrons    NEL             ....   54
 Basis Dimension        Dim             ....  148

MULLIKEN ATOMIC CHARGES
-----------------------
   0 O :   -0.152745
   1 C :   -0.096130
   2 C :    0.066285
   3 C :   -0.009745
   4 C :   -0.024341
   5 C :   -0.012329
   6 C :    0.069006
   7 H :    0.014324
   8 H :    0.022501
   9 H :    0.012738
  10 H :    0.015576
  11 H :    0.019446
  12 H :    0.010019
  13 H :    0.012430
  14 H :    0.016777
  15 H :    0.013389
  16 H :    0.022799
Sum of atomic charges:   -0.0000000

LOEWDIN ATOMIC CHARGES
----------------------
   0 O :   -0.119928
   1 C :    0.055554
   2 C :   -0.064416
   3 C :   -0.035721
   4 C :   -0.044411
   5 C :   -0.036108
   6 C :   -0.064090
   7 H :    0.033497
   8 H :    0.040910
   9 H :    0.026041
  10 H :    0.027964
  11 H :    0.029736
  12 H :    0.022467
  13 H :    0.025991
  14 H :    0.028192
  15 H :    0.033302
  16 H :    0.041021

  Mayer bond orders larger than 0.1
B(  0-O ,  1-C ) :   2.2105 B(  1-C ,  2-C ) :   0.9902 B(  1-C ,  6-C ) :   0.9900
B(  2-C ,  3-C ) :   1.0773 B(  2-C ,  7-H ) :   0.9098 B(  2-C ,  8-H ) :   0.9027
B(  3-C ,  4-C ) :   1.0918 B(  3-C ,  9-H ) :   0.9312 B(  3-C , 10-H ) :   0.9273
B(  4-C ,  5-C ) :   1.0917 B(  4-C , 11-H ) :   0.9278 B(  4-C , 12-H ) :   0.9357
B(  5-C ,  6-C ) :   1.0774 B(  5-C , 13-H ) :   0.9310 B(  5-C , 14-H ) :   0.9273
B(  6-C , 15-H ) :   0.9098 B(  6-C , 16-H ) :   0.9025

FINAL SINGLE POINT ENERGY      -309.263554180250

DIPOLE MOMENT
-------------
                                X             Y             Z
Electronic contribution:     -5.85117       0.15538       2.15623
Nuclear contribution   :      6.97430      -0.18066      -2.34277
                        -----------------------------------------
Total Dipole Moment    :      1.12313      -0.02528      -0.18654
                        -----------------------------------------
Magnitude (a.u.)       :      1.13879
Magnitude (Debye)      :      2.89459

                             ****ORCA TERMINATED NORMALLY****
TOTAL RUN TIME: 0 days 0 hours 0 minutes 7 seconds 774 msec
