                         Program Version 3.0.3 - RELEASE   -
|  1> ! RI PBE def2-SVP def2-SVP/J NBO PAL2
|  2> % maxcore 2000
|  3> % output
|  4>     # printlevel mini
|  5>     print[ P_Basis ] 0
|  6>     print[ P_SCFInfo ] 1
|  7>     print[ P_SCFIterInfo ] 1
|  8>     print[ P_OrbEn ] 0
|  9>     print[ P_Cartesian ] 0
| 10> end
| 11> *xyz 0 1
| 12>  O        1.0085780000     0.0045230000     0.8348860000
| 13>  C        2.0569550000    -0.0495030000     0.2423500000
| 14>  C        2.7653140000     1.1719650000    -0.2802790000
| 15>  C        4.2307180000     1.2039540000     0.1531670000
| 16>  C        4.8989110000    -0.1189860000    -0.0493830000
| 17>  C        4.2317300000    -1.2622770000    -0.1576040000
| 18>  C        2.7423990000    -1.3663900000    -0.0461470000
| 19>  H        2.2179640000     2.0607940000     0.0347340000
| 20>  H        2.7288230000     1.1161500000    -1.3757770000
| 21>  H        4.3029390000     1.4957110000     1.2087600000
| 22>  H        4.7612910000     1.9821580000    -0.4034320000
| 23>  H        5.9836000000    -0.1293810000    -0.1015810000
| 24>  H        4.7765610000    -2.1898160000    -0.3079120000
| 25>  H        2.4464810000    -2.0777240000     0.7306360000
| 26>  H        2.3151150000    -1.7583780000    -0.9802280000
| 27> *
| 28>
| 29>                          ****END OF INPUT****
 Total Charge           Charge          ....    0
 Multiplicity           Mult            ....    1
 Number of Electrons    NEL             ....   52
 Basis Dimension        Dim             ....  138

MULLIKEN ATOMIC CHARGES
-----------------------
   0 O :   -0.153516
   1 C :   -0.085692
   2 C :    0.027969
   3 C :    0.054320
   4 C :   -0.085218
   5 C :   -0.079898
   6 C :    0.116547
   7 H :    0.012255
   8 H :    0.044457
   9 H :    0.036758
  10 H :    0.019227
  11 H :    0.005551
  12 H :   -0.001560
  13 H :    0.039489
  14 H :    0.049312
Sum of atomic charges:   -0.0000000

LOEWDIN ATOMIC CHARGES
----------------------
   0 O :   -0.118048
   1 C :    0.060384
   2 C :   -0.061362
   3 C :   -0.037471
   4 C :   -0.047139
   5 C :   -0.044023
   6 C :   -0.069658
   7 H :    0.033641
   8 H :    0.047116
   9 H :    0.039935
  10 H :    0.035700
  11 H :    0.028675
  12 H :    0.026589
  13 H :    0.048489
  14 H :    0.057173

  Mayer bond orders larger than 0.1
B(  0-O ,  1-C ) :   2.2089 B(  1-C ,  2-C ) :   1.0055 B(  1-C ,  6-C ) :   0.9552
B(  2-C ,  3-C ) :   1.0793 B(  2-C ,  7-H ) :   0.9101 B(  2-C ,  8-H ) :   0.9162
B(  3-C ,  4-C ) :   1.0390 B(  3-C ,  9-H ) :   0.9128 B(  3-C , 10-H ) :   0.9141
B(  4-C ,  5-C ) :   1.9319 B(  4-C , 11-H ) :   0.9589 B(  5-C ,  6-C ) :   1.0213
B(  5-C , 12-H ) :   0.9538 B(  6-C , 13-H ) :   0.9011 B(  6-C , 14-H ) :   0.8886

FINAL SINGLE POINT ENERGY      -308.043766693823

DIPOLE MOMENT
-------------
                                X             Y             Z
Electronic contribution:     -3.60198      -0.82430       1.42680
Nuclear contribution   :      4.46808       0.81945      -1.92975
                        -----------------------------------------
Total Dipole Moment    :      0.86611      -0.00485      -0.50295
                        -----------------------------------------
Magnitude (a.u.)       :      1.00156
Magnitude (Debye)      :      2.54577

                             ****ORCA TERMINATED NORMALLY****
TOTAL RUN TIME: 0 days 0 hours 0 minutes 7 seconds 362 msec
