                         Program Version 3.0.3 - RELEASE   -
|  1> ! RI PBE def2-SVP def2-SVP/J NBO PAL2
|  2> % maxcore 2000
|  3> % output
|  4>     # printlevel mini
|  5>     print[ P_Basis ] 0
|  6>     print[ P_SCFInfo ] 1
|  7>     print[ P_SCFIterInfo ] 1
|  8>     print[ P_OrbEn ] 0
|  9>     print[ P_Cartesian ] 0
| 10> end
| 11> *xyz 0 1
| 12>  O        0.8882580000     0.0190500000     0.2164180000
| 13>  C        2.0850650000     0.0545420000     0.0307930000
| 14>  C        2.8059190000     1.3336140000    -0.3303090000
| 15>  C        4.2383950000     1.3532500000     0.1816740000
| 16>  C        5.0079830000     0.1301000000    -0.2933130000
| 17>  C        4.2358930000    -1.1296770000    -0.0831360000
| 18>  C        2.9125430000    -1.1615750000     0.0946760000
| 19>  H        2.2168690000     2.1736110000     0.0411120000
| 20>  H        2.7991020000     1.3982490000    -1.4268440000
| 21>  H        4.2265480000     1.3586530000     1.2769730000
| 22>  H        4.7441120000     2.2696710000    -0.1326890000
| 23>  H        5.9738510000     0.0570180000     0.2159130000
| 24>  H        5.2479880000     0.2190430000    -1.3627960000
| 25>  H        4.7948780000    -2.0623520000    -0.0807170000
| 26>  H        2.3810060000    -2.0915760000     0.2652370000
| 27> *
| 28>
| 29>                          ****END OF INPUT****
 Total Charge           Charge          ....    0
 Multiplicity           Mult            ....    1
 Number of Electrons    NEL             ....   52
 Basis Dimension        Dim             ....  138

MULLIKEN ATOMIC CHARGES
-----------------------
   0 O :   -0.163992
   1 C :   -0.023381
   2 C :    0.040417
   3 C :   -0.035695
   4 C :    0.066170
   5 C :   -0.060505
   6 C :    0.011650
   7 H :    0.018073
   8 H :    0.039430
   9 H :    0.034133
  10 H :    0.009777
  11 H :    0.026174
  12 H :    0.034836
  13 H :    0.009297
  14 H :   -0.006384
Sum of atomic charges:   -0.0000000

LOEWDIN ATOMIC CHARGES
----------------------
   0 O :   -0.127296
   1 C :    0.040627
   2 C :   -0.065071
   3 C :   -0.037712
   4 C :   -0.044382
   5 C :    0.013119
   6 C :   -0.068331
   7 H :    0.037300
   8 H :    0.045566
   9 H :    0.031047
  10 H :    0.028224
  11 H :    0.038308
  12 H :    0.044593
  13 H :    0.030189
  14 H :    0.033820

  Mayer bond orders larger than 0.1
B(  0-O ,  1-C ) :   2.1273 B(  1-C ,  2-C ) :   1.0024 B(  1-C ,  6-C ) :   1.0254
B(  2-C ,  3-C ) :   1.0697 B(  2-C ,  7-H ) :   0.9068 B(  2-C ,  8-H ) :   0.9071
B(  3-C ,  4-C ) :   1.0948 B(  3-C ,  9-H ) :   0.9433 B(  3-C , 10-H ) :   0.9217
B(  4-C ,  5-C ) :   1.0526 B(  4-C , 11-H ) :   0.9183 B(  4-C , 12-H ) :   0.8963
B(  5-C ,  6-C ) :   1.7703 B(  5-C , 13-H ) :   0.9518 B(  6-C , 14-H ) :   0.9648

FINAL SINGLE POINT ENERGY      -308.050063763055

DIPOLE MOMENT
-------------
                                X             Y             Z
Electronic contribution:     -5.35254      -2.22615       0.68952
Nuclear contribution   :      6.72927       2.28615      -0.92664
                        -----------------------------------------
Total Dipole Moment    :      1.37673       0.06001      -0.23712
                        -----------------------------------------
Magnitude (a.u.)       :      1.39829
Magnitude (Debye)      :      3.55417

                             ****ORCA TERMINATED NORMALLY****
TOTAL RUN TIME: 0 days 0 hours 0 minutes 7 seconds 374 msec
