                         Program Version 3.0.3 - RELEASE   -
|  1> ! RI PBE def2-SVP def2-SVP/J NBO PAL2
|  2> % maxcore 2000
|  3> % output
|  4>     # printlevel mini
|  5>     print[ P_Basis ] 0
|  6>     print[ P_SCFInfo ] 1
|  7>     print[ P_SCFIterInfo ] 1
|  8>     print[ P_OrbEn ] 0
|  9>     print[ P_Cartesian ] 0
| 10> end
| 11> *xyz 0 1
| 12>  O        0.9620240000     0.0114580000    -0.5485570000
| 13>  C        2.3340380000     0.0676900000    -0.1561710000
| 14>  C        2.6322920000     1.3017500000     0.6374170000
| 15>  C        3.1689500000     1.2883530000     1.8504140000
| 16>  C        3.5410680000     0.0344050000     2.5642260000
| 17>  C        3.1712660000    -1.1984800000     1.8128540000
| 18>  C        2.6266640000    -1.1831710000     0.6037380000
| 19>  H        0.7947810000     0.7345250000    -1.1590890000
| 20>  H        2.9536760000     0.0722690000    -1.0693320000
| 21>  H        2.3832720000     2.2499070000     0.1662920000
| 22>  H        3.3552320000     2.2257980000     2.3669000000
| 23>  H        3.0654830000     0.0186390000     3.5548230000
| 24>  H        4.6191860000     0.0338530000     2.7800820000
| 25>  H        3.3618080000    -2.1497610000     2.3013520000
| 26>  H        2.3587800000    -2.1093350000     0.1053720000
| 27> *
| 28>
| 29>                          ****END OF INPUT****
 Total Charge           Charge          ....    0
 Multiplicity           Mult            ....    1
 Number of Electrons    NEL             ....   52
 Basis Dimension        Dim             ....  138

MULLIKEN ATOMIC CHARGES
-----------------------
   0 O :   -0.280013
   1 C :    0.257537
   2 C :   -0.064105
   3 C :   -0.110382
   4 C :    0.177732
   5 C :   -0.103046
   6 C :   -0.050545
   7 H :    0.146373
   8 H :    0.005505
   9 H :   -0.020953
  10 H :   -0.008760
  11 H :    0.030468
  12 H :    0.035163
  13 H :   -0.007538
  14 H :   -0.007437
Sum of atomic charges:   -0.0000000

LOEWDIN ATOMIC CHARGES
----------------------
   0 O :   -0.119666
   1 C :    0.043061
   2 C :   -0.055051
   3 C :   -0.030418
   4 C :   -0.044407
   5 C :   -0.030403
   6 C :   -0.037843
   7 H :    0.063603
   8 H :    0.017726
   9 H :    0.020626
  10 H :    0.025202
  11 H :    0.047158
  12 H :    0.046145
  13 H :    0.026161
  14 H :    0.028105

  Mayer bond orders larger than 0.1
B(  0-O ,  1-C ) :   1.0167 B(  0-O ,  7-H ) :   0.9810 B(  1-C ,  2-C ) :   0.9866
B(  1-C ,  6-C ) :   1.0016 B(  1-C ,  8-H ) :   0.8638 B(  2-C ,  3-C ) :   1.9232
B(  2-C ,  9-H ) :   0.9580 B(  3-C ,  4-C ) :   1.0372 B(  3-C , 10-H ) :   0.9635
B(  4-C ,  5-C ) :   1.0343 B(  4-C , 11-H ) :   0.8814 B(  4-C , 12-H ) :   0.8834
B(  5-C ,  6-C ) :   1.9142 B(  5-C , 13-H ) :   0.9657 B(  6-C , 14-H ) :   0.9680

FINAL SINGLE POINT ENERGY      -308.011615351945

DIPOLE MOMENT
-------------
                                X             Y             Z
Electronic contribution:     -1.64095      -0.22599      -1.61032
Nuclear contribution   :      2.06265       0.61857       1.58124
                        -----------------------------------------
Total Dipole Moment    :      0.42170       0.39258      -0.02908
                        -----------------------------------------
Magnitude (a.u.)       :      0.57688
Magnitude (Debye)      :      1.46631

                             ****ORCA TERMINATED NORMALLY****
TOTAL RUN TIME: 0 days 0 hours 0 minutes 6 seconds 354 msec
