                         Program Version 3.0.3 - RELEASE   -
|  1> ! RI PBE def2-SVP def2-SVP/J NBO PAL2
|  2> % maxcore 2000
|  3> % output
|  4>     # printlevel mini
|  5>     print[ P_Basis ] 0
|  6>     print[ P_SCFInfo ] 1
|  7>     print[ P_SCFIterInfo ] 1
|  8>     print[ P_OrbEn ] 0
|  9>     print[ P_Cartesian ] 0
| 10> end
| 11> *xyz 0 1
| 12>  O        1.0399990000    -0.0970530000     0.5962970000
| 13>  C        2.3238640000    -0.0174490000     0.0065920000
| 14>  C        2.4952500000     1.2335360000    -0.8415620000
| 15>  C        3.7254160000     1.1572480000    -1.6972640000
| 16>  C        4.1590750000    -0.0236780000    -2.1439100000
| 17>  C        3.4436620000    -1.2473190000    -1.7990350000
| 18>  C        2.5432910000    -1.2497290000    -0.8148850000
| 19>  H        0.9327440000     0.6515310000     1.1884200000
| 20>  H        3.0958320000    -0.0120960000     0.7986620000
| 21>  H        2.5181210000     2.1198600000    -0.2004400000
| 22>  H        1.6100910000     1.3337070000    -1.4887130000
| 23>  H        4.2109350000     2.0782640000    -2.0012970000
| 24>  H        5.0185940000    -0.0839520000    -2.8025530000
| 25>  H        3.6558210000    -2.1539280000    -2.3552050000
| 26>  H        1.9964960000    -2.1412330000    -0.5288150000
| 27> *
| 28>
| 29>                          ****END OF INPUT****
 Total Charge           Charge          ....    0
 Multiplicity           Mult            ....    1
 Number of Electrons    NEL             ....   52
 Basis Dimension        Dim             ....  138

MULLIKEN ATOMIC CHARGES
-----------------------
   0 O :   -0.257466
   1 C :    0.103072
   2 C :    0.094105
   3 C :   -0.088291
   4 C :    0.009711
   5 C :    0.018762
   6 C :   -0.044304
   7 H :    0.151168
   8 H :    0.012039
   9 H :    0.001299
  10 H :    0.025827
  11 H :   -0.006725
  12 H :   -0.008589
  13 H :   -0.011561
  14 H :    0.000952
Sum of atomic charges:   -0.0000000

LOEWDIN ATOMIC CHARGES
----------------------
   0 O :   -0.113046
   1 C :    0.044273
   2 C :   -0.056269
   3 C :   -0.024525
   4 C :   -0.045793
   5 C :   -0.042444
   6 C :   -0.021852
   7 H :    0.068558
   8 H :    0.016461
   9 H :    0.025931
  10 H :    0.039162
  11 H :    0.023970
  12 H :    0.027830
  13 H :    0.028070
  14 H :    0.029674

  Mayer bond orders larger than 0.1
B(  0-O ,  1-C ) :   1.0818 B(  0-O ,  7-H ) :   0.9798 B(  1-C ,  2-C ) :   1.0706
B(  1-C ,  6-C ) :   0.9980 B(  1-C ,  8-H ) :   0.8947 B(  2-C ,  3-C ) :   1.0265
B(  2-C ,  9-H ) :   0.9170 B(  2-C , 10-H ) :   0.8802 B(  3-C ,  4-C ) :   1.8068
B(  3-C , 11-H ) :   0.9629 B(  4-C ,  5-C ) :   1.0898 B(  4-C , 12-H ) :   0.9730
B(  5-C ,  6-C ) :   1.7859 B(  5-C , 13-H ) :   0.9692 B(  6-C , 14-H ) :   0.9666

FINAL SINGLE POINT ENERGY      -308.015064400362

DIPOLE MOMENT
-------------
                                X             Y             Z
Electronic contribution:     -0.69840      -1.30607       0.42980
Nuclear contribution   :      0.94918       1.79856      -0.23792
                        -----------------------------------------
Total Dipole Moment    :      0.25078       0.49249       0.19188
                        -----------------------------------------
Magnitude (a.u.)       :      0.58502
Magnitude (Debye)      :      1.48702

                             ****ORCA TERMINATED NORMALLY****
TOTAL RUN TIME: 0 days 0 hours 0 minutes 6 seconds 652 msec
