                         Program Version 3.0.3 - RELEASE   -
|  1> ! RI PBE def2-SVP def2-SVP/J NBO PAL2
|  2> % maxcore 2000
|  3> % output
|  4>     # printlevel mini
|  5>     print[ P_Basis ] 0
|  6>     print[ P_SCFInfo ] 1
|  7>     print[ P_SCFIterInfo ] 1
|  8>     print[ P_OrbEn ] 0
|  9>     print[ P_Cartesian ] 0
| 10> end
| 11> *xyz 0 1
| 12>  O        1.1838320000     0.0688970000    -0.5870520000
| 13>  C        2.4427700000    -0.1191280000     0.0326100000
| 14>  C        2.5559570000    -1.4081610000     0.8684040000
| 15>  C        3.1794080000    -0.9791300000     2.1756140000
| 16>  C        3.7021580000    -1.7658080000     3.1150560000
| 17>  C        3.1148780000     0.4760600000     2.2026140000
| 18>  C        2.6865160000     0.9646160000     1.0372450000
| 19>  H        1.1257370000    -0.5216830000    -1.3420330000
| 20>  H        3.2318420000    -0.0843520000    -0.7349650000
| 21>  H        3.1188640000    -2.2024980000     0.3745270000
| 22>  H        1.5397080000    -1.7731890000     1.0469180000
| 23>  H        3.7185040000    -2.8445450000     3.0109010000
| 24>  H        4.1326070000    -1.3488430000     4.0184540000
| 25>  H        3.4021450000     1.0640420000     3.0661880000
| 26>  H        2.5517630000     2.0100210000     0.7893300000
| 27> *
| 28>
| 29>                          ****END OF INPUT****
 Total Charge           Charge          ....    0
 Multiplicity           Mult            ....    1
 Number of Electrons    NEL             ....   52
 Basis Dimension        Dim             ....  138

MULLIKEN ATOMIC CHARGES
-----------------------
   0 O :   -0.261718
   1 C :    0.079121
   2 C :    0.158291
   3 C :   -0.144157
   4 C :   -0.047439
   5 C :    0.050649
   6 C :   -0.035230
   7 H :    0.151936
   8 H :    0.014500
   9 H :    0.011276
  10 H :    0.024780
  11 H :    0.009749
  12 H :    0.005540
  13 H :   -0.016357
  14 H :   -0.000942
Sum of atomic charges:    0.0000000

LOEWDIN ATOMIC CHARGES
----------------------
   0 O :   -0.115767
   1 C :    0.045947
   2 C :   -0.043041
   3 C :   -0.030370
   4 C :   -0.077078
   5 C :   -0.015806
   6 C :   -0.019657
   7 H :    0.068100
   8 H :    0.016295
   9 H :    0.029284
  10 H :    0.042349
  11 H :    0.022665
  12 H :    0.023109
  13 H :    0.027703
  14 H :    0.026266

  Mayer bond orders larger than 0.1
B(  0-O ,  1-C ) :   1.0880 B(  0-O ,  7-H ) :   0.9809 B(  1-C ,  2-C ) :   1.0426
B(  1-C ,  6-C ) :   1.0275 B(  1-C ,  8-H ) :   0.8889 B(  2-C ,  3-C ) :   1.0302
B(  2-C ,  9-H ) :   0.9106 B(  2-C , 10-H ) :   0.8803 B(  3-C ,  4-C ) :   1.9241
B(  3-C ,  5-C ) :   1.0857 B(  4-C ,  6-C ) :   0.1298 B(  4-C , 11-H ) :   0.9365
B(  4-C , 12-H ) :   0.9244 B(  5-C ,  6-C ) :   1.7146 B(  5-C , 13-H ) :   0.9949
B(  6-C , 14-H ) :   0.9865

FINAL SINGLE POINT ENERGY      -308.013017008692

DIPOLE MOMENT
-------------
                                X             Y             Z
Electronic contribution:     -1.27516       2.03527      -1.06354
Nuclear contribution   :      1.53237      -2.32364       0.65423
                        -----------------------------------------
Total Dipole Moment    :      0.25721      -0.28838      -0.40930
                        -----------------------------------------
Magnitude (a.u.)       :      0.56289
Magnitude (Debye)      :      1.43076

                             ****ORCA TERMINATED NORMALLY****
TOTAL RUN TIME: 0 days 0 hours 0 minutes 6 seconds 851 msec
