                         Program Version 3.0.3 - RELEASE   -
|  1> ! RI PBE def2-SVP def2-SVP/J NBO PAL2
|  2> % maxcore 2000
|  3> % output
|  4>     # printlevel mini
|  5>     print[ P_Basis ] 0
|  6>     print[ P_SCFInfo ] 1
|  7>     print[ P_SCFIterInfo ] 1
|  8>     print[ P_OrbEn ] 0
|  9>     print[ P_Cartesian ] 0
| 10> end
| 11> *xyz 0 1
| 12>  O        1.2641140000    -0.1028710000     0.9504810000
| 13>  C        2.4460300000    -0.0322160000     0.1745840000
| 14>  C        2.4407660000     1.1460140000    -0.7844260000
| 15>  C        3.7424650000     1.2103350000    -1.5743650000
| 16>  C        4.1455320000    -0.1365250000    -2.0876380000
| 17>  C        3.6060730000    -1.2717930000    -1.6564940000
| 18>  C        2.5591810000    -1.3366610000    -0.5886940000
| 19>  H        1.1765380000     0.7172840000     1.4430050000
| 20>  H        3.3230050000     0.0606410000     0.8354320000
| 21>  H        2.2840840000     2.0792480000    -0.2318510000
| 22>  H        1.5915070000     1.0286190000    -1.4662390000
| 23>  H        4.5481510000     1.6185620000    -0.9493720000
| 24>  H        3.6406840000     1.9104500000    -2.4101570000
| 25>  H        4.9168090000    -0.1687120000    -2.8521920000
| 26>  H        3.9337110000    -2.2141400000    -2.0861830000
| 27>  H        2.7754030000    -2.1531430000     0.1073620000
| 28>  H        1.5794460000    -1.5677020000    -1.0262540000
| 29> *
| 30>
| 31>                          ****END OF INPUT****
 Total Charge           Charge          ....    0
 Multiplicity           Mult            ....    1
 Number of Electrons    NEL             ....   54
 Basis Dimension        Dim             ....  148

MULLIKEN ATOMIC CHARGES
-----------------------
   0 O :   -0.253436
   1 C :    0.023127
   2 C :    0.018571
   3 C :    0.050691
   4 C :   -0.094262
   5 C :   -0.071880
   6 C :    0.114882
   7 H :    0.150009
   8 H :   -0.006652
   9 H :   -0.009800
  10 H :    0.011879
  11 H :    0.022821
  12 H :    0.019579
  13 H :   -0.003779
  14 H :   -0.011852
  15 H :    0.017001
  16 H :    0.023101
Sum of atomic charges:   -0.0000000

LOEWDIN ATOMIC CHARGES
----------------------
   0 O :   -0.114208
   1 C :    0.045451
   2 C :   -0.053283
   3 C :   -0.045378
   4 C :   -0.050676
   5 C :   -0.040938
   6 C :   -0.045887
   7 H :    0.066295
   8 H :    0.005839
   9 H :    0.018377
  10 H :    0.026493
  11 H :    0.033482
  12 H :    0.034502
  13 H :    0.024399
  14 H :    0.023785
  15 H :    0.034872
  16 H :    0.036876

  Mayer bond orders larger than 0.1
B(  0-O ,  1-C ) :   1.1000 B(  0-O ,  7-H ) :   0.9789 B(  1-C ,  2-C ) :   1.0509
B(  1-C ,  6-C ) :   1.0501 B(  1-C ,  8-H ) :   0.9232 B(  2-C ,  3-C ) :   1.0796
B(  2-C ,  9-H ) :   0.9197 B(  2-C , 10-H ) :   0.9234 B(  3-C ,  4-C ) :   1.0427
B(  3-C , 11-H ) :   0.9090 B(  3-C , 12-H ) :   0.9156 B(  4-C ,  5-C ) :   1.9243
B(  4-C , 13-H ) :   0.9604 B(  5-C ,  6-C ) :   1.0219 B(  5-C , 14-H ) :   0.9574
B(  6-C , 15-H ) :   0.9143 B(  6-C , 16-H ) :   0.8989

FINAL SINGLE POINT ENERGY      -309.234788572352

DIPOLE MOMENT
-------------
                                X             Y             Z
Electronic contribution:     -1.10231      -1.23899       1.27908
Nuclear contribution   :      1.35815       1.74352      -1.21662
                        -----------------------------------------
Total Dipole Moment    :      0.25584       0.50454       0.06247
                        -----------------------------------------
Magnitude (a.u.)       :      0.56913
Magnitude (Debye)      :      1.44662

                             ****ORCA TERMINATED NORMALLY****
TOTAL RUN TIME: 0 days 0 hours 0 minutes 7 seconds 440 msec
