                         Program Version 3.0.3 - RELEASE   -
|  1> ! RI PBE def2-SVP def2-SVP/J NBO PAL2
|  2> % maxcore 2000
|  3> % output
|  4>     # printlevel mini
|  5>     print[ P_Basis ] 0
|  6>     print[ P_SCFInfo ] 1
|  7>     print[ P_SCFIterInfo ] 1
|  8>     print[ P_OrbEn ] 0
|  9>     print[ P_Cartesian ] 0
| 10> end
| 11> *xyz 0 1
| 12>  O        1.0283490000    -0.0947570000    -0.0826560000
| 13>  C        2.4237540000    -0.0516490000     0.1132430000
| 14>  C        2.9189630000     1.0963490000     0.9908110000
| 15>  C        4.3019790000     0.6267110000     1.4352540000
| 16>  C        4.1804200000    -0.8818810000     1.5171960000
| 17>  C        5.0711560000    -1.7000960000     2.0599950000
| 18>  C        2.8799310000    -1.2889690000     0.8729580000
| 19>  H        0.7661100000     0.6778690000    -0.5890300000
| 20>  H        2.9414130000    -0.0106620000    -0.8578030000
| 21>  H        2.2434870000     1.1797300000     1.8484520000
| 22>  H        2.9307690000     2.0598990000     0.4752130000
| 23>  H        4.6310500000     1.0725850000     2.3758630000
| 24>  H        5.0524030000     0.8885760000     0.6806660000
| 25>  H        5.9767190000    -1.3235880000     2.5239000000
| 26>  H        4.9276050000    -2.7751450000     2.0624290000
| 27>  H        2.1252070000    -1.4987190000     1.6407390000
| 28>  H        2.9650050000    -2.1782540000     0.2465790000
| 29> *
| 30>
| 31>                          ****END OF INPUT****
 Total Charge           Charge          ....    0
 Multiplicity           Mult            ....    1
 Number of Electrons    NEL             ....   54
 Basis Dimension        Dim             ....  148

MULLIKEN ATOMIC CHARGES
-----------------------
   0 O :   -0.244993
   1 C :    0.005469
   2 C :    0.002970
   3 C :    0.088183
   4 C :   -0.221252
   5 C :   -0.054227
   6 C :    0.152758
   7 H :    0.154323
   8 H :   -0.002565
   9 H :    0.015193
  10 H :    0.001072
  11 H :    0.017217
  12 H :    0.026558
  13 H :    0.003292
  14 H :    0.009744
  15 H :    0.027570
  16 H :    0.018687
Sum of atomic charges:   -0.0000000

LOEWDIN ATOMIC CHARGES
----------------------
   0 O :   -0.110573
   1 C :    0.042028
   2 C :   -0.058846
   3 C :   -0.033560
   4 C :   -0.027241
   5 C :   -0.084612
   6 C :   -0.037658
   7 H :    0.070259
   8 H :    0.006231
   9 H :    0.026211
  10 H :    0.018685
  11 H :    0.033248
  12 H :    0.037196
  13 H :    0.020756
  14 H :    0.022118
  15 H :    0.042176
  16 H :    0.033582

  Mayer bond orders larger than 0.1
B(  0-O ,  1-C ) :   1.1243 B(  0-O ,  7-H ) :   0.9798 B(  1-C ,  2-C ) :   1.0460
B(  1-C ,  6-C ) :   1.0339 B(  1-C ,  8-H ) :   0.9206 B(  2-C ,  3-C ) :   1.0831
B(  2-C ,  9-H ) :   0.9203 B(  2-C , 10-H ) :   0.9265 B(  3-C ,  4-C ) :   1.0401
B(  3-C , 11-H ) :   0.9211 B(  3-C , 12-H ) :   0.9079 B(  4-C ,  5-C ) :   2.0297
B(  4-C ,  6-C ) :   1.0416 B(  5-C , 13-H ) :   0.9302 B(  5-C , 14-H ) :   0.9352
B(  6-C , 15-H ) :   0.8900 B(  6-C , 16-H ) :   0.9187

FINAL SINGLE POINT ENERGY      -309.226091502577

DIPOLE MOMENT
-------------
                                X             Y             Z
Electronic contribution:     -2.37443      -0.49816      -1.14691
Nuclear contribution   :      2.48632       1.06744       0.84711
                        -----------------------------------------
Total Dipole Moment    :      0.11189       0.56929      -0.29980
                        -----------------------------------------
Magnitude (a.u.)       :      0.65306
Magnitude (Debye)      :      1.65995

                             ****ORCA TERMINATED NORMALLY****
TOTAL RUN TIME: 0 days 0 hours 0 minutes 7 seconds 654 msec
