                         Program Version 3.0.3 - RELEASE   -
|  1> ! RI PBE def2-SVP def2-SVP/J NBO PAL2
|  2> % maxcore 2000
|  3> % output
|  4>     # printlevel mini
|  5>     print[ P_Basis ] 0
|  6>     print[ P_SCFInfo ] 1
|  7>     print[ P_SCFIterInfo ] 1
|  8>     print[ P_OrbEn ] 0
|  9>     print[ P_Cartesian ] 0
| 10> end
| 11> *xyz 0 1
| 12>  O        1.0941710000    -0.2673330000     0.6011730000
| 13>  C        2.4081100000    -0.0482740000     0.1106380000
| 14>  C        2.4914370000     1.1618150000    -0.8062330000
| 15>  C        3.8313700000     1.1933590000    -1.5260530000
| 16>  C        4.0061130000    -0.0383370000    -2.4066570000
| 17>  C        3.5321870000    -1.2871070000    -1.7311580000
| 18>  C        2.8233640000    -1.2929920000    -0.6082040000
| 19>  H        0.8288170000     0.5106400000     1.0986240000
| 20>  H        3.0894560000     0.1042720000     0.9654340000
| 21>  H        2.3381690000     2.0808510000    -0.2299720000
| 22>  H        1.6733460000     1.0896650000    -1.5312260000
| 23>  H        4.6373250000     1.2224770000    -0.7836320000
| 24>  H        3.9254000000     2.1041030000    -2.1232840000
| 25>  H        5.0556410000    -0.1521250000    -2.6988330000
| 26>  H        3.4538470000     0.0870290000    -3.3479410000
| 27>  H        3.7841980000    -2.2328430000    -2.2035420000
| 28>  H        2.5037480000    -2.2274190000    -0.1571440000
| 29> *
| 30>
| 31>                          ****END OF INPUT****
 Total Charge           Charge          ....    0
 Multiplicity           Mult            ....    1
 Number of Electrons    NEL             ....   54
 Basis Dimension        Dim             ....  148

MULLIKEN ATOMIC CHARGES
-----------------------
   0 O :   -0.262698
   1 C :    0.133321
   2 C :    0.004459
   3 C :   -0.030481
   4 C :    0.073840
   5 C :   -0.079008
   6 C :   -0.043434
   7 H :    0.148631
   8 H :    0.000047
   9 H :   -0.007903
  10 H :    0.014292
  11 H :    0.017506
  12 H :    0.005860
  13 H :    0.014186
  14 H :    0.023506
  15 H :   -0.007059
  16 H :   -0.005064
Sum of atomic charges:   -0.0000000

LOEWDIN ATOMIC CHARGES
----------------------
   0 O :   -0.116400
   1 C :    0.041043
   2 C :   -0.054624
   3 C :   -0.039272
   4 C :   -0.043817
   5 C :   -0.036471
   6 C :   -0.044991
   7 H :    0.065992
   8 H :    0.011413
   9 H :    0.018329
  10 H :    0.026235
  11 H :    0.025850
  12 H :    0.025727
  13 H :    0.032771
  14 H :    0.035698
  15 H :    0.024634
  16 H :    0.027883

  Mayer bond orders larger than 0.1
B(  0-O ,  1-C ) :   1.0813 B(  0-O ,  7-H ) :   0.9796 B(  1-C ,  2-C ) :   1.0687
B(  1-C ,  6-C ) :   0.9892 B(  1-C ,  8-H ) :   0.8942 B(  2-C ,  3-C ) :   1.0780
B(  2-C ,  9-H ) :   0.9192 B(  2-C , 10-H ) :   0.9233 B(  3-C ,  4-C ) :   1.1020
B(  3-C , 11-H ) :   0.9367 B(  3-C , 12-H ) :   0.9229 B(  4-C ,  5-C ) :   1.0381
B(  4-C , 13-H ) :   0.9177 B(  4-C , 14-H ) :   0.9079 B(  5-C ,  6-C ) :   1.9186
B(  5-C , 15-H ) :   0.9577 B(  6-C , 16-H ) :   0.9605

FINAL SINGLE POINT ENERGY      -309.231699671467

DIPOLE MOMENT
-------------
                                X             Y             Z
Electronic contribution:     -2.40431      -2.37486       2.18145
Nuclear contribution   :      2.72040       2.94089      -2.16754
                        -----------------------------------------
Total Dipole Moment    :      0.31609       0.56603       0.01391
                        -----------------------------------------
Magnitude (a.u.)       :      0.64846
Magnitude (Debye)      :      1.64825

                             ****ORCA TERMINATED NORMALLY****
TOTAL RUN TIME: 0 days 0 hours 0 minutes 7 seconds 443 msec
