                         Program Version 3.0.3 - RELEASE   -
|  1> ! RI PBE def2-SVP def2-SVP/J NBO PAL2
|  2> % maxcore 2000
|  3> % output
|  4>     # printlevel mini
|  5>     print[ P_Basis ] 0
|  6>     print[ P_SCFInfo ] 1
|  7>     print[ P_SCFIterInfo ] 1
|  8>     print[ P_OrbEn ] 0
|  9>     print[ P_Cartesian ] 0
| 10> end
| 11> *xyz 0 1
| 12>  O        0.9993950000     0.0840890000     0.1382590000
| 13>  C        2.1792180000    -0.0597600000    -0.0019180000
| 14>  O        2.9662830000     1.0941000000    -0.0708540000
| 15>  C        4.2897720000     1.0492620000    -0.2260320000
| 16>  C        4.9812390000    -0.0980750000    -0.3293620000
| 17>  C        4.2490410000    -1.3179760000    -0.2682270000
| 18>  C        2.9080880000    -1.3015770000    -0.1116230000
| 19>  H        4.7293020000     2.0387550000    -0.2576560000
| 20>  H        6.0541610000    -0.0761390000    -0.4539840000
| 21>  H        4.7748120000    -2.2633850000    -0.3482760000
| 22>  H        2.3144990000    -2.2042130000    -0.0604180000
| 23> *
| 24>
| 25>                          ****END OF INPUT****
 Total Charge           Charge          ....    0
 Multiplicity           Mult            ....    1
 Number of Electrons    NEL             ....   50
 Basis Dimension        Dim             ....  118

MULLIKEN ATOMIC CHARGES
-----------------------
   0 O :   -0.146657
   1 C :    0.154016
   2 O :   -0.173024
   3 C :    0.157827
   4 C :   -0.058679
   5 C :    0.085692
   6 C :   -0.089936
   7 H :    0.030660
   8 H :    0.016661
   9 H :    0.008582
  10 H :    0.014857
Sum of atomic charges:   -0.0000000

LOEWDIN ATOMIC CHARGES
----------------------
   0 O :   -0.132643
   1 C :    0.039594
   2 O :    0.004427
   3 C :    0.082664
   4 C :   -0.095074
   5 C :    0.013533
   6 C :   -0.066791
   7 H :    0.031597
   8 H :    0.041724
   9 H :    0.037797
  10 H :    0.043173

  Mayer bond orders larger than 0.1
B(  0-O ,  1-C ) :   2.1522 B(  1-C ,  2-O ) :   0.9833 B(  1-C ,  6-C ) :   1.0933
B(  2-O ,  3-C ) :   1.2027 B(  3-C ,  4-C ) :   1.6117 B(  3-C ,  7-H ) :   0.9713
B(  4-C ,  5-C ) :   1.1925 B(  4-C ,  8-H ) :   0.9680 B(  5-C ,  6-C ) :   1.6039
B(  5-C ,  9-H ) :   0.9695 B(  6-C , 10-H ) :   0.9738

FINAL SINGLE POINT ENERGY      -342.725030509628

DIPOLE MOMENT
-------------
                                X             Y             Z
Electronic contribution:     -3.21996       1.80986       0.40754
Nuclear contribution   :      4.82221      -2.15824      -0.60498
                        -----------------------------------------
Total Dipole Moment    :      1.60225      -0.34838      -0.19744
                        -----------------------------------------
Magnitude (a.u.)       :      1.65154
Magnitude (Debye)      :      4.19787

                             ****ORCA TERMINATED NORMALLY****
TOTAL RUN TIME: 0 days 0 hours 0 minutes 5 seconds 396 msec
