                         Program Version 3.0.3 - RELEASE   -
|  1> ! RI PBE def2-SVP def2-SVP/J NBO PAL2
|  2> % maxcore 2000
|  3> % output
|  4>     # printlevel mini
|  5>     print[ P_Basis ] 0
|  6>     print[ P_SCFInfo ] 1
|  7>     print[ P_SCFIterInfo ] 1
|  8>     print[ P_OrbEn ] 0
|  9>     print[ P_Cartesian ] 0
| 10> end
| 11> *xyz 0 1
| 12>  O        1.3317060000     0.2724680000     0.7290950000
| 13>  C        2.3503120000     0.1701330000     0.1074080000
| 14>  C        3.0459920000    -1.1588620000    -0.0857910000
| 15>  C        4.0666120000    -1.2125950000    -1.2094670000
| 16>  C        4.9135590000     0.0435320000    -1.1573880000
| 17>  C        4.0160890000     1.2471590000    -1.3044270000
| 18>  O        2.9349520000     1.2846170000    -0.3687160000
| 19>  H        2.2627160000    -1.9109040000    -0.1861260000
| 20>  H        3.5378140000    -1.3588190000     0.8736480000
| 21>  H        3.5585540000    -1.2689310000    -2.1785730000
| 22>  H        4.6775430000    -2.1139730000    -1.1211510000
| 23>  H        5.6572870000     0.0641920000    -1.9586120000
| 24>  H        5.4570790000     0.0947160000    -0.2075780000
| 25>  H        3.5836000000     1.2746100000    -2.3114600000
| 26>  H        4.5590050000     2.1803680000    -1.1481410000
| 27> *
| 28>
| 29>                          ****END OF INPUT****
 Total Charge           Charge          ....    0
 Multiplicity           Mult            ....    1
 Number of Electrons    NEL             ....   54
 Basis Dimension        Dim             ....  138

MULLIKEN ATOMIC CHARGES
-----------------------
   0 O :   -0.164163
   1 C :    0.082541
   2 C :   -0.039048
   3 C :    0.002343
   4 C :   -0.070608
   5 C :    0.195639
   6 O :   -0.244688
   7 H :    0.044512
   8 H :    0.050179
   9 H :    0.017087
  10 H :    0.018745
  11 H :    0.032653
  12 H :    0.027686
  13 H :    0.017382
  14 H :    0.029740
Sum of atomic charges:    0.0000000

LOEWDIN ATOMIC CHARGES
----------------------
   0 O :   -0.137847
   1 C :    0.037034
   2 C :   -0.075734
   3 C :   -0.042090
   4 C :   -0.058558
   5 C :    0.076343
   6 O :   -0.068651
   7 H :    0.047098
   8 H :    0.052163
   9 H :    0.026255
  10 H :    0.029918
  11 H :    0.038044
  12 H :    0.029500
  13 H :    0.019146
  14 H :    0.027378

  Mayer bond orders larger than 0.1
B(  0-O ,  1-C ) :   2.1529 B(  1-C ,  2-C ) :   0.9865 B(  1-C ,  6-O ) :   1.1573
B(  2-C ,  3-C ) :   1.0620 B(  2-C ,  7-H ) :   0.9229 B(  2-C ,  8-H ) :   0.9136
B(  3-C ,  4-C ) :   1.0765 B(  3-C ,  9-H ) :   0.9383 B(  3-C , 10-H ) :   0.9259
B(  4-C ,  5-C ) :   1.0959 B(  4-C , 11-H ) :   0.9253 B(  4-C , 12-H ) :   0.9329
B(  5-C ,  6-O ) :   0.9395 B(  5-C , 13-H ) :   0.9384 B(  5-C , 14-H ) :   0.9472

FINAL SINGLE POINT ENERGY      -345.135155498550

DIPOLE MOMENT
-------------
                                X             Y             Z
Electronic contribution:     -5.60052       3.13152       3.37560
Nuclear contribution   :      7.00872      -3.64904      -4.23314
                        -----------------------------------------
Total Dipole Moment    :      1.40819      -0.51752      -0.85754
                        -----------------------------------------
Magnitude (a.u.)       :      1.72806
Magnitude (Debye)      :      4.39239

                             ****ORCA TERMINATED NORMALLY****
TOTAL RUN TIME: 0 days 0 hours 0 minutes 6 seconds 463 msec
