                         Program Version 3.0.3 - RELEASE   -
|  1> ! RI PBE def2-SVP def2-SVP/J NBO PAL2
|  2> % maxcore 2000
|  3> % output
|  4>     # printlevel mini
|  5>     print[ P_Basis ] 0
|  6>     print[ P_SCFInfo ] 1
|  7>     print[ P_SCFIterInfo ] 1
|  8>     print[ P_OrbEn ] 0
|  9>     print[ P_Cartesian ] 0
| 10> end
| 11> *xyz 0 1
| 12>  O        0.9248400000     0.1724440000    -0.0769460000
| 13>  C        2.1193940000     0.0924370000    -0.0768160000
| 14>  C        2.8245550000    -1.2417570000    -0.0760120000
| 15>  C        4.3106690000    -1.1894440000    -0.0783980000
| 16>  C        4.9593330000    -0.0375120000    -0.0810540000
| 17>  C        4.2651780000     1.2719450000    -0.0820450000
| 18>  O        2.8429940000     1.2232170000    -0.0801230000
| 19>  H        2.4423420000    -1.7927640000    -0.9424180000
| 20>  H        2.4450540000    -1.7900910000     0.7932800000
| 21>  H        4.8523230000    -2.1297670000    -0.0779730000
| 22>  H        6.0437830000     0.0018670000    -0.0828340000
| 23>  H        4.5558180000     1.8567720000    -0.9625770000
| 24>  H        4.5581070000     1.8593630000     0.7960060000
| 25> *
| 26>
| 27>                          ****END OF INPUT****
 Total Charge           Charge          ....    0
 Multiplicity           Mult            ....    1
 Number of Electrons    NEL             ....   52
 Basis Dimension        Dim             ....  128

MULLIKEN ATOMIC CHARGES
-----------------------
   0 O :   -0.163511
   1 C :    0.087417
   2 C :    0.013416
   3 C :   -0.033970
   4 C :   -0.152460
   5 C :    0.251177
   6 O :   -0.236694
   7 H :    0.062560
   8 H :    0.062444
   9 H :    0.003564
  10 H :    0.018754
  11 H :    0.043634
  12 H :    0.043669
Sum of atomic charges:   -0.0000000

LOEWDIN ATOMIC CHARGES
----------------------
   0 O :   -0.136804
   1 C :    0.044099
   2 C :   -0.077268
   3 C :   -0.039151
   4 C :   -0.065878
   5 C :    0.074755
   6 O :   -0.058201
   7 H :    0.059546
   8 H :    0.059518
   9 H :    0.030193
  10 H :    0.037111
  11 H :    0.036047
  12 H :    0.036034

  Mayer bond orders larger than 0.1
B(  0-O ,  1-C ) :   2.1464 B(  1-C ,  2-C ) :   0.9855 B(  1-C ,  6-O ) :   1.1635
B(  2-C ,  3-C ) :   1.0165 B(  2-C ,  7-H ) :   0.9016 B(  2-C ,  8-H ) :   0.9015
B(  3-C ,  4-C ) :   1.9091 B(  3-C ,  9-H ) :   0.9615 B(  4-C ,  5-C ) :   1.0492
B(  4-C , 10-H ) :   0.9525 B(  5-C ,  6-O ) :   0.9616 B(  5-C , 11-H ) :   0.9259
B(  5-C , 12-H ) :   0.9259

FINAL SINGLE POINT ENERGY      -343.915182695467

DIPOLE MOMENT
-------------
                                X             Y             Z
Electronic contribution:     -4.15740       1.84198       0.00302
Nuclear contribution   :      5.68651      -2.25758      -0.00353
                        -----------------------------------------
Total Dipole Moment    :      1.52911      -0.41560      -0.00050
                        -----------------------------------------
Magnitude (a.u.)       :      1.58458
Magnitude (Debye)      :      4.02769

                             ****ORCA TERMINATED NORMALLY****
TOTAL RUN TIME: 0 days 0 hours 0 minutes 6 seconds 379 msec
