                         Program Version 3.0.3 - RELEASE   -
|  1> ! RI PBE def2-SVP def2-SVP/J NBO PAL2
|  2> % maxcore 2000
|  3> % output
|  4>     # printlevel mini
|  5>     print[ P_Basis ] 0
|  6>     print[ P_SCFInfo ] 1
|  7>     print[ P_SCFIterInfo ] 1
|  8>     print[ P_OrbEn ] 0
|  9>     print[ P_Cartesian ] 0
| 10> end
| 11> *xyz 0 1
| 12>  O        0.9560740000    -0.1486830000     0.6725410000
| 13>  C        2.0854990000    -0.0906540000     0.2942830000
| 14>  C        2.7844910000     1.1595930000    -0.1658560000
| 15>  C        4.2479280000     1.2161370000     0.2532260000
| 16>  C        4.8850420000    -0.1005280000    -0.0411030000
| 17>  C        4.1506540000    -1.2018710000    -0.0704670000
| 18>  O        2.8079420000    -1.2455690000     0.2111370000
| 19>  H        2.2027700000     2.0089730000     0.1889650000
| 20>  H        2.7255470000     1.1513410000    -1.2611080000
| 21>  H        4.3344570000     1.4533490000     1.3209890000
| 22>  H        4.7535120000     2.0242170000    -0.2804440000
| 23>  H        5.9475050000    -0.1779840000    -0.2323390000
| 24>  H        4.5315680000    -2.1920400000    -0.2816440000
| 25> *
| 26>
| 27>                          ****END OF INPUT****
 Total Charge           Charge          ....    0
 Multiplicity           Mult            ....    1
 Number of Electrons    NEL             ....   52
 Basis Dimension        Dim             ....  128

MULLIKEN ATOMIC CHARGES
-----------------------
   0 O :   -0.132399
   1 C :    0.099397
   2 C :   -0.053322
   3 C :    0.070036
   4 C :   -0.129801
   5 C :    0.132295
   6 O :   -0.191786
   7 H :    0.034288
   8 H :    0.065525
   9 H :    0.046326
  10 H :    0.024579
  11 H :    0.016500
  12 H :    0.018361
Sum of atomic charges:    0.0000000

LOEWDIN ATOMIC CHARGES
----------------------
   0 O :   -0.111079
   1 C :    0.055490
   2 C :   -0.068452
   3 C :   -0.036104
   4 C :   -0.091087
   5 C :    0.037051
   6 O :   -0.029381
   7 H :    0.044658
   8 H :    0.054905
   9 H :    0.040485
  10 H :    0.038855
  11 H :    0.036804
  12 H :    0.027857

  Mayer bond orders larger than 0.1
B(  0-O ,  1-C ) :   2.2042 B(  1-C ,  2-C ) :   1.0001 B(  1-C ,  6-O ) :   1.0774
B(  2-C ,  3-C ) :   1.0715 B(  2-C ,  7-H ) :   0.9193 B(  2-C ,  8-H ) :   0.9126
B(  3-C ,  4-C ) :   1.0403 B(  3-C ,  9-H ) :   0.9241 B(  3-C , 10-H ) :   0.9159
B(  4-C ,  5-C ) :   1.8358 B(  4-C , 11-H ) :   0.9579 B(  5-C ,  6-O ) :   1.0641
B(  5-C , 12-H ) :   0.9772

FINAL SINGLE POINT ENERGY      -343.921562965076

DIPOLE MOMENT
-------------
                                X             Y             Z
Electronic contribution:     -4.31149      -3.79946       1.04290
Nuclear contribution   :      5.56167       4.34111      -1.46968
                        -----------------------------------------
Total Dipole Moment    :      1.25017       0.54165      -0.42678
                        -----------------------------------------
Magnitude (a.u.)       :      1.42775
Magnitude (Debye)      :      3.62905

                             ****ORCA TERMINATED NORMALLY****
TOTAL RUN TIME: 0 days 0 hours 0 minutes 6 seconds 462 msec
