                         Program Version 3.0.3 - RELEASE   -
|  1> ! RI PBE def2-SVP def2-SVP/J NBO PAL2
|  2> % maxcore 2000
|  3> % output
|  4>     # printlevel mini
|  5>     print[ P_Basis ] 0
|  6>     print[ P_SCFInfo ] 1
|  7>     print[ P_SCFIterInfo ] 1
|  8>     print[ P_OrbEn ] 0
|  9>     print[ P_Cartesian ] 0
| 10> end
| 11> *xyz 0 1
| 12>  O        1.0420540000     0.1716530000     0.1609330000
| 13>  C        2.4504190000     0.0742280000     0.0609420000
| 14>  C        2.9043090000    -1.3364090000    -0.2983960000
| 15>  C        2.5211250000    -1.6750560000    -1.7314450000
| 16>  C        3.0279080000    -0.5909330000    -2.6646630000
| 17>  O        2.5266460000     0.6764510000    -2.3073310000
| 18>  C        2.9031330000     1.0532630000    -1.0075800000
| 19>  H        0.7385850000    -0.4812670000     0.7967470000
| 20>  H        2.9181640000     0.3828990000     1.0084240000
| 21>  H        2.4808500000    -2.0578950000     0.4093530000
| 22>  H        3.9934990000    -1.3902950000    -0.1826490000
| 23>  H        1.4332190000    -1.7370030000    -1.8220200000
| 24>  H        2.9349700000    -2.6438330000    -2.0266260000
| 25>  H        2.7070300000    -0.7685860000    -3.6930210000
| 26>  H        4.1316530000    -0.5722000000    -2.6533890000
| 27>  H        2.4533500000     2.0305680000    -0.8236820000
| 28>  H        3.9990860000     1.1544130000    -0.9417170000
| 29> *
| 30>
| 31>                          ****END OF INPUT****
 Total Charge           Charge          ....    0
 Multiplicity           Mult            ....    1
 Number of Electrons    NEL             ....   56
 Basis Dimension        Dim             ....  148

MULLIKEN ATOMIC CHARGES
-----------------------
   0 O :   -0.255737
   1 C :    0.030439
   2 C :   -0.033247
   3 C :    0.005262
   4 C :    0.181446
   5 O :   -0.338088
   6 C :    0.237518
   7 H :    0.150453
   8 H :   -0.009209
   9 H :    0.005643
  10 H :    0.006425
  11 H :    0.019072
  12 H :    0.006339
  13 H :    0.012426
  14 H :   -0.016953
  15 H :    0.014200
  16 H :   -0.015988
Sum of atomic charges:    0.0000000

LOEWDIN ATOMIC CHARGES
----------------------
   0 O :   -0.111797
   1 C :    0.025920
   2 C :   -0.059625
   3 C :   -0.058897
   4 C :    0.059816
   5 O :   -0.140102
   6 C :    0.054860
   7 H :    0.066836
   8 H :    0.007009
   9 H :    0.020608
  10 H :    0.025716
  11 H :    0.027513
  12 H :    0.026804
  13 H :    0.022197
  14 H :    0.001811
  15 H :    0.026053
  16 H :    0.005278

  Mayer bond orders larger than 0.1
B(  0-O ,  1-C ) :   1.0705 B(  0-O ,  7-H ) :   0.9802 B(  1-C ,  2-C ) :   1.0618
B(  1-C ,  6-C ) :   1.0404 B(  1-C ,  8-H ) :   0.9115 B(  2-C ,  3-C ) :   1.0702
B(  2-C ,  9-H ) :   0.9294 B(  2-C , 10-H ) :   0.9210 B(  3-C ,  4-C ) :   1.0980
B(  3-C , 11-H ) :   0.9173 B(  3-C , 12-H ) :   0.9244 B(  4-C ,  5-O ) :   1.0291
B(  4-C , 13-H ) :   0.9414 B(  4-C , 14-H ) :   0.9129 B(  5-O ,  6-C ) :   1.0413
B(  6-C , 15-H ) :   0.9278 B(  6-C , 16-H ) :   0.9128

FINAL SINGLE POINT ENERGY      -346.297981722851

DIPOLE MOMENT
-------------
                                X             Y             Z
Electronic contribution:     -2.58598       2.92669      -0.38441
Nuclear contribution   :      3.00121      -3.64067       0.98365
                        -----------------------------------------
Total Dipole Moment    :      0.41523      -0.71399       0.59924
                        -----------------------------------------
Magnitude (a.u.)       :      1.02043
Magnitude (Debye)      :      2.59372

                             ****ORCA TERMINATED NORMALLY****
TOTAL RUN TIME: 0 days 0 hours 0 minutes 7 seconds 545 msec
