                         Program Version 3.0.3 - RELEASE   -
|  1> ! RI PBE def2-SVP def2-SVP/J NBO PAL2
|  2> % maxcore 2000
|  3> % output
|  4>     # printlevel mini
|  5>     print[ P_Basis ] 0
|  6>     print[ P_SCFInfo ] 1
|  7>     print[ P_SCFIterInfo ] 1
|  8>     print[ P_OrbEn ] 0
|  9>     print[ P_Cartesian ] 0
| 10> end
| 11> *xyz 0 1
| 12>  O        1.1981420000     0.1117210000     0.6415900000
| 13>  C        2.3289020000     0.0212140000     0.2361330000
| 14>  C        3.0290350000    -1.3023410000     0.0485510000
| 15>  C        4.0518910000    -1.2805420000    -1.0828050000
| 16>  C        4.8732900000    -0.0093570000    -1.0249190000
| 17>  O        4.0445410000     1.1272170000    -1.1248970000
| 18>  C        3.1672950000     1.2576360000    -0.0344350000
| 19>  H        2.2757110000    -2.0833140000    -0.0662130000
| 20>  H        3.5438650000    -1.4945280000     1.0003850000
| 21>  H        3.5417100000    -1.3190430000    -2.0498560000
| 22>  H        4.7051750000    -2.1559750000    -1.0255910000
| 23>  H        5.5719610000     0.0495400000    -1.8612770000
| 24>  H        5.4581330000     0.0311010000    -0.0911450000
| 25>  H        2.5022550000     2.0971520000    -0.2363840000
| 26>  H        3.7263940000     1.4793100000     0.8926730000
| 27> *
| 28>
| 29>                          ****END OF INPUT****
 Total Charge           Charge          ....    0
 Multiplicity           Mult            ....    1
 Number of Electrons    NEL             ....   54
 Basis Dimension        Dim             ....  138

MULLIKEN ATOMIC CHARGES
-----------------------
   0 O :   -0.153302
   1 C :   -0.110868
   2 C :    0.030904
   3 C :   -0.014711
   4 C :    0.161280
   5 O :   -0.337949
   6 C :    0.250913
   7 H :    0.029935
   8 H :    0.040725
   9 H :    0.025649
  10 H :    0.016572
  11 H :    0.026888
  12 H :   -0.008984
  13 H :    0.030229
  14 H :    0.012720
Sum of atomic charges:    0.0000000

LOEWDIN ATOMIC CHARGES
----------------------
   0 O :   -0.111897
   1 C :    0.041288
   2 C :   -0.067171
   3 C :   -0.054334
   4 C :    0.058871
   5 O :   -0.141436
   6 C :    0.033101
   7 H :    0.039500
   8 H :    0.049503
   9 H :    0.030706
  10 H :    0.031297
  11 H :    0.027393
  12 H :    0.003501
  13 H :    0.035783
  14 H :    0.023895

  Mayer bond orders larger than 0.1
B(  0-O ,  1-C ) :   2.1833 B(  1-C ,  2-C ) :   1.0001 B(  1-C ,  6-C ) :   0.9479
B(  2-C ,  3-C ) :   1.0618 B(  2-C ,  7-H ) :   0.9183 B(  2-C ,  8-H ) :   0.9111
B(  3-C ,  4-C ) :   1.0861 B(  3-C ,  9-H ) :   0.9286 B(  3-C , 10-H ) :   0.9193
B(  4-C ,  5-O ) :   1.0132 B(  4-C , 11-H ) :   0.9409 B(  4-C , 12-H ) :   0.9223
B(  5-O ,  6-C ) :   1.0160 B(  6-C , 13-H ) :   0.9240 B(  6-C , 14-H ) :   0.8961

FINAL SINGLE POINT ENERGY      -345.105100383122

DIPOLE MOMENT
-------------
                                X             Y             Z
Electronic contribution:     -4.05498       2.71992       0.69801
Nuclear contribution   :      5.00221      -3.21444      -0.71021
                        -----------------------------------------
Total Dipole Moment    :      0.94723      -0.49452      -0.01220
                        -----------------------------------------
Magnitude (a.u.)       :      1.06862
Magnitude (Debye)      :      2.71621

                             ****ORCA TERMINATED NORMALLY****
TOTAL RUN TIME: 0 days 0 hours 0 minutes 6 seconds 431 msec
