                         Program Version 3.0.3 - RELEASE   -
|  1> ! RI PBE def2-SVP def2-SVP/J NBO PAL2
|  2> % maxcore 2000
|  3> % output
|  4>     # printlevel mini
|  5>     print[ P_Basis ] 0
|  6>     print[ P_SCFInfo ] 1
|  7>     print[ P_SCFIterInfo ] 1
|  8>     print[ P_OrbEn ] 0
|  9>     print[ P_Cartesian ] 0
| 10> end
| 11> *xyz 0 1
| 12>  O        1.1906450000    -0.0659070000     0.7239560000
| 13>  C        2.2704210000    -0.0343780000     0.2031590000
| 14>  C        3.0316220000     1.2411480000    -0.1364770000
| 15>  C        4.3460650000     0.8208740000    -0.7832890000
| 16>  C        4.3600360000    -0.7022730000    -0.8229670000
| 17>  O        5.2545540000    -1.3645950000    -1.2694030000
| 18>  C        3.0825150000    -1.2399360000    -0.2164820000
| 19>  H        3.1622660000     1.8134000000     0.7851770000
| 20>  H        2.3997990000     1.8502300000    -0.7874430000
| 21>  H        5.2294830000     1.1541090000    -0.2333190000
| 22>  H        4.4661250000     1.1876040000    -1.8055810000
| 23>  H        3.2952100000    -1.8881180000     0.6387740000
| 24>  H        2.5329580000    -1.8534490000    -0.9365040000
| 25> *
| 26>
| 27>                          ****END OF INPUT****
 Total Charge           Charge          ....    0
 Multiplicity           Mult            ....    1
 Number of Electrons    NEL             ....   52
 Basis Dimension        Dim             ....  128

MULLIKEN ATOMIC CHARGES
-----------------------
   0 O :   -0.135832
   1 C :   -0.107371
   2 C :    0.004980
   3 C :    0.035784
   4 C :   -0.109417
   5 O :   -0.135958
   6 C :    0.075225
   7 H :    0.056038
   8 H :    0.055465
   9 H :    0.049079
  10 H :    0.049571
  11 H :    0.081515
  12 H :    0.080922
Sum of atomic charges:   -0.0000000

LOEWDIN ATOMIC CHARGES
----------------------
   0 O :   -0.106681
   1 C :    0.053352
   2 C :   -0.075114
   3 C :   -0.071153
   4 C :    0.053138
   5 O :   -0.106886
   6 C :   -0.099492
   7 H :    0.053217
   8 H :    0.052837
   9 H :    0.051877
  10 H :    0.052056
  11 H :    0.071595
  12 H :    0.071254

  Mayer bond orders larger than 0.1
B(  0-O ,  1-C ) :   2.2232 B(  1-C ,  2-C ) :   1.0033 B(  1-C ,  6-C ) :   0.9359
B(  2-C ,  3-C ) :   1.0463 B(  2-C ,  7-H ) :   0.9039 B(  2-C ,  8-H ) :   0.9055
B(  3-C ,  4-C ) :   1.0010 B(  3-C ,  9-H ) :   0.9041 B(  3-C , 10-H ) :   0.9041
B(  4-C ,  5-O ) :   2.2240 B(  4-C ,  6-C ) :   0.9344 B(  6-C , 11-H ) :   0.8939
B(  6-C , 12-H ) :   0.8958

FINAL SINGLE POINT ENERGY      -343.925642191565

DIPOLE MOMENT
-------------
                                X             Y             Z
Electronic contribution:     -0.70774      -2.64517       0.28477
Nuclear contribution   :      0.86293       3.23199      -0.34638
                        -----------------------------------------
Total Dipole Moment    :      0.15520       0.58682      -0.06162
                        -----------------------------------------
Magnitude (a.u.)       :      0.61011
Magnitude (Debye)      :      1.55078

                             ****ORCA TERMINATED NORMALLY****
TOTAL RUN TIME: 0 days 0 hours 0 minutes 6 seconds 141 msec
