                         Program Version 3.0.3 - RELEASE   -
|  1> ! RI PBE def2-SVP def2-SVP/J NBO PAL2
|  2> % maxcore 2000
|  3> % output
|  4>     # printlevel mini
|  5>     print[ P_Basis ] 0
|  6>     print[ P_SCFInfo ] 1
|  7>     print[ P_SCFIterInfo ] 1
|  8>     print[ P_OrbEn ] 0
|  9>     print[ P_Cartesian ] 0
| 10> end
| 11> *xyz 0 1
| 12>  O        1.0709890000    -0.0014190000    -0.0096870000
| 13>  C        2.4746130000     0.0395270000     0.0966130000
| 14>  C        3.0116860000     1.1723400000     0.9783570000
| 15>  C        4.4039510000     0.7011940000     1.3775880000
| 16>  C        4.3005790000    -0.8171600000     1.4093340000
| 17>  O        5.1268090000    -1.5647990000     1.8549090000
| 18>  C        2.9811170000    -1.2181080000     0.7789790000
| 19>  H        0.7734700000     0.7893330000    -0.4672830000
| 20>  H        2.9282970000     0.1169220000    -0.9034180000
| 21>  H        2.3645400000     1.2476140000     1.8579140000
| 22>  H        3.0040480000     2.1407680000     0.4730840000
| 23>  H        4.7752540000     1.0877210000     2.3274480000
| 24>  H        5.1521980000     0.9534910000     0.6169790000
| 25>  H        2.2889030000    -1.4796500000     1.5892680000
| 26>  H        3.0845540000    -2.0932960000     0.1380250000
| 27> *
| 28>
| 29>                          ****END OF INPUT****
 Total Charge           Charge          ....    0
 Multiplicity           Mult            ....    1
 Number of Electrons    NEL             ....   54
 Basis Dimension        Dim             ....  138

MULLIKEN ATOMIC CHARGES
-----------------------
   0 O :   -0.242084
   1 C :    0.003672
   2 C :   -0.002080
   3 C :    0.039120
   4 C :   -0.109816
   5 O :   -0.141061
   6 C :    0.096789
   7 H :    0.155306
   8 H :    0.004129
   9 H :    0.021541
  10 H :    0.008547
  11 H :    0.034568
  12 H :    0.044203
  13 H :    0.047856
  14 H :    0.039308
Sum of atomic charges:   -0.0000000

LOEWDIN ATOMIC CHARGES
----------------------
   0 O :   -0.108314
   1 C :    0.040958
   2 C :   -0.059520
   3 C :   -0.067804
   4 C :    0.057574
   5 O :   -0.112840
   6 C :   -0.070554
   7 H :    0.070999
   8 H :    0.008207
   9 H :    0.028290
  10 H :    0.021956
  11 H :    0.042204
  12 H :    0.049824
  13 H :    0.056312
  14 H :    0.042708

  Mayer bond orders larger than 0.1
B(  0-O ,  1-C ) :   1.1249 B(  0-O ,  7-H ) :   0.9780 B(  1-C ,  2-C ) :   1.0396
B(  1-C ,  6-C ) :   1.0254 B(  1-C ,  8-H ) :   0.9199 B(  2-C ,  3-C ) :   1.0623
B(  2-C ,  9-H ) :   0.9232 B(  2-C , 10-H ) :   0.9238 B(  3-C ,  4-C ) :   0.9758
B(  3-C , 11-H ) :   0.9175 B(  3-C , 12-H ) :   0.9018 B(  4-C ,  5-O ) :   2.2196
B(  4-C ,  6-C ) :   0.9716 B(  6-C , 13-H ) :   0.8856 B(  6-C , 14-H ) :   0.9175

FINAL SINGLE POINT ENERGY      -345.116466822360

DIPOLE MOMENT
-------------
                                X             Y             Z
Electronic contribution:      1.41350      -3.27581       0.94568
Nuclear contribution   :     -1.87847       4.35570      -1.53322
                        -----------------------------------------
Total Dipole Moment    :     -0.46498       1.07989      -0.58754
                        -----------------------------------------
Magnitude (a.u.)       :      1.31437
Magnitude (Debye)      :      3.34086

                             ****ORCA TERMINATED NORMALLY****
TOTAL RUN TIME: 0 days 0 hours 0 minutes 7 seconds 350 msec
