                         Program Version 3.0.3 - RELEASE   -
|  1> ! RI PBE def2-SVP def2-SVP/J NBO PAL2
|  2> % maxcore 2000
|  3> % output
|  4>     # printlevel mini
|  5>     print[ P_Basis ] 0
|  6>     print[ P_SCFInfo ] 1
|  7>     print[ P_SCFIterInfo ] 1
|  8>     print[ P_OrbEn ] 0
|  9>     print[ P_Cartesian ] 0
| 10> end
| 11> *xyz 0 1
| 12>  O        1.2638130000    -0.1868680000     0.9323560000
| 13>  C        2.3393270000     0.0382870000     0.0329600000
| 14>  C        3.2251010000     1.2240250000     0.4729820000
| 15>  C        4.4261140000     0.6135990000     1.2136800000
| 16>  C        4.0966380000    -0.8739070000     1.3686840000
| 17>  O        5.2150770000    -1.7095700000     1.5479350000
| 18>  C        3.2519950000    -1.1692360000     0.1329290000
| 19>  H        0.7149260000     0.6009920000     0.9514960000
| 20>  H        1.9481730000     0.1801810000    -0.9820270000
| 21>  H        2.6466580000     1.8981780000     1.1098180000
| 22>  H        3.5468590000     1.8078690000    -0.3925720000
| 23>  H        4.6393940000     1.0928920000     2.1699560000
| 24>  H        5.3337210000     0.7010290000     0.6052800000
| 25>  H        3.4819920000    -1.0270540000     2.2590210000
| 26>  H        5.7899290000    -1.6098030000     0.7832080000
| 27>  H        2.6956390000    -2.1049700000     0.1935840000
| 28>  H        3.9048430000    -1.2099240000    -0.7481810000
| 29> *
| 30>
| 31>                          ****END OF INPUT****
 Total Charge           Charge          ....    0
 Multiplicity           Mult            ....    1
 Number of Electrons    NEL             ....   56
 Basis Dimension        Dim             ....  148

MULLIKEN ATOMIC CHARGES
-----------------------
   0 O :   -0.267849
   1 C :   -0.004436
   2 C :    0.066588
   3 C :    0.021470
   4 C :    0.061622
   5 O :   -0.258268
   6 C :    0.077314
   7 H :    0.151433
   8 H :   -0.012913
   9 H :   -0.007381
  10 H :    0.006859
  11 H :    0.010862
  12 H :   -0.016731
  13 H :    0.011973
  14 H :    0.146309
  15 H :    0.022201
  16 H :   -0.009052
Sum of atomic charges:    0.0000000

LOEWDIN ATOMIC CHARGES
----------------------
   0 O :   -0.118527
   1 C :    0.049687
   2 C :   -0.056656
   3 C :   -0.052511
   4 C :    0.041114
   5 O :   -0.106500
   6 C :   -0.058152
   7 H :    0.065323
   8 H :    0.002485
   9 H :    0.024298
  10 H :    0.026764
  11 H :    0.026851
  12 H :    0.018414
  13 H :    0.024439
  14 H :    0.061241
  15 H :    0.030299
  16 H :    0.021430

  Mayer bond orders larger than 0.1
B(  0-O ,  1-C ) :   1.0392 B(  0-O ,  7-H ) :   0.9819 B(  1-C ,  2-C ) :   1.0599
B(  1-C ,  6-C ) :   1.0615 B(  1-C ,  8-H ) :   0.9214 B(  2-C ,  3-C ) :   1.1100
B(  2-C ,  9-H ) :   0.9005 B(  2-C , 10-H ) :   0.9159 B(  3-C ,  4-C ) :   1.0832
B(  3-C , 11-H ) :   0.9189 B(  3-C , 12-H ) :   0.9124 B(  4-C ,  5-O ) :   1.0791
B(  4-C ,  6-C ) :   1.0195 B(  4-C , 13-H ) :   0.9047 B(  5-O , 14-H ) :   0.9825
B(  6-C , 15-H ) :   0.9188 B(  6-C , 16-H ) :   0.9191

FINAL SINGLE POINT ENERGY      -346.301263633204

DIPOLE MOMENT
-------------
                                X             Y             Z
Electronic contribution:     -0.73378      -2.40035       1.46704
Nuclear contribution   :      0.68677       3.23134      -2.15604
                        -----------------------------------------
Total Dipole Moment    :     -0.04701       0.83099      -0.68900
                        -----------------------------------------
Magnitude (a.u.)       :      1.08050
Magnitude (Debye)      :      2.74642

                             ****ORCA TERMINATED NORMALLY****
TOTAL RUN TIME: 0 days 0 hours 0 minutes 7 seconds 198 msec
