                         Program Version 3.0.3 - RELEASE   -
|  1> ! RI PBE def2-SVP def2-SVP/J NBO PAL2
|  2> % maxcore 2000
|  3> % output
|  4>     # printlevel mini
|  5>     print[ P_Basis ] 0
|  6>     print[ P_SCFInfo ] 1
|  7>     print[ P_SCFIterInfo ] 1
|  8>     print[ P_OrbEn ] 0
|  9>     print[ P_Cartesian ] 0
| 10> end
| 11> *xyz 0 1
| 12>  O        1.3632120000    -0.0223300000     0.8505270000
| 13>  C        2.3816800000     0.0791970000     0.2591020000
| 14>  C        3.3755110000     1.1681090000    -0.0888120000
| 15>  C        4.1393390000     0.0203690000    -0.7659670000
| 16>  O        3.0791800000    -0.9093570000    -0.3748710000
| 17>  C        4.3312980000     0.0931930000    -2.1958660000
| 18>  C        4.5059150000     0.1738980000    -3.3795950000
| 19>  H        3.8619170000     1.6303230000     0.7686070000
| 20>  H        2.9835890000     1.9293530000    -0.7609380000
| 21>  H        5.0668010000    -0.2612380000    -0.2631750000
| 22>  H        4.6564580000     0.2373720000    -4.4319010000
| 23> *
| 24>
| 25>                          ****END OF INPUT****
 Total Charge           Charge          ....    0
 Multiplicity           Mult            ....    1
 Number of Electrons    NEL             ....   50
 Basis Dimension        Dim             ....  118

MULLIKEN ATOMIC CHARGES
-----------------------
   0 O :   -0.116035
   1 C :    0.130870
   2 C :   -0.007810
   3 C :    0.039842
   4 O :   -0.230488
   5 C :    0.429652
   6 C :   -0.445223
   7 H :    0.062496
   8 H :    0.063694
   9 H :    0.056526
  10 H :    0.016475
Sum of atomic charges:   -0.0000000

LOEWDIN ATOMIC CHARGES
----------------------
   0 O :   -0.096026
   1 C :    0.039779
   2 C :   -0.051213
   3 C :    0.065373
   4 O :   -0.073936
   5 C :   -0.036084
   6 C :   -0.037217
   7 H :    0.050054
   8 H :    0.053692
   9 H :    0.043893
  10 H :    0.041684

  Mayer bond orders larger than 0.1
B(  0-O ,  1-C ) :   2.2294 B(  0-O ,  4-O ) :   0.1120 B(  1-C ,  2-C ) :   0.9532
B(  1-C ,  4-O ) :   1.1064 B(  2-C ,  3-C ) :   1.0896 B(  2-C ,  7-H ) :   0.9191
B(  2-C ,  8-H ) :   0.9182 B(  3-C ,  4-O ) :   1.0220 B(  3-C ,  5-C ) :   0.9559
B(  3-C ,  9-H ) :   0.8897 B(  5-C ,  6-C ) :   2.3326 B(  5-C , 10-H ) :  -0.1030
B(  6-C , 10-H ) :   1.0930

FINAL SINGLE POINT ENERGY      -342.646186894379

DIPOLE MOMENT
-------------
                                X             Y             Z
Electronic contribution:     -2.16155      -2.25797       1.08288
Nuclear contribution   :      3.29763       3.02426      -1.58643
                        -----------------------------------------
Total Dipole Moment    :      1.13608       0.76630      -0.50355
                        -----------------------------------------
Magnitude (a.u.)       :      1.45995
Magnitude (Debye)      :      3.71089

                             ****ORCA TERMINATED NORMALLY****
TOTAL RUN TIME: 0 days 0 hours 0 minutes 5 seconds 760 msec
