                         Program Version 3.0.3 - RELEASE   -
|  1> ! RI PBE def2-SVP def2-SVP/J NBO PAL2
|  2> % maxcore 2000
|  3> % output
|  4>     # printlevel mini
|  5>     print[ P_Basis ] 0
|  6>     print[ P_SCFInfo ] 1
|  7>     print[ P_SCFIterInfo ] 1
|  8>     print[ P_OrbEn ] 0
|  9>     print[ P_Cartesian ] 0
| 10> end
| 11> *xyz 0 1
| 12>  O        0.9659200000    -0.1012330000    -0.1385970000
| 13>  C        2.3731520000    -0.0691200000     0.0492040000
| 14>  C        3.1113620000    -1.2719700000    -0.4621290000
| 15>  C        3.9005810000    -0.8783280000    -1.4520830000
| 16>  O        3.8548530000     0.4593850000    -1.7164900000
| 17>  C        2.9622960000     1.0170390000    -0.8263280000
| 18>  C        2.7033050000     2.3126190000    -0.8156580000
| 19>  H        0.6019500000    -0.7602680000     0.4593550000
| 20>  H        2.5939150000     0.1301180000     1.1070190000
| 21>  H        3.0101700000    -2.2792820000    -0.0891450000
| 22>  H        4.5778010000    -1.4356680000    -2.0829690000
| 23>  H        3.1698620000     2.9861010000    -1.5221260000
| 24>  H        1.9927210000     2.7071970000    -0.1033530000
| 25> *
| 26>
| 27>                          ****END OF INPUT****
 Total Charge           Charge          ....    0
 Multiplicity           Mult            ....    1
 Number of Electrons    NEL             ....   52
 Basis Dimension        Dim             ....  128

MULLIKEN ATOMIC CHARGES
-----------------------
   0 O :   -0.254136
   1 C :    0.187450
   2 C :   -0.091440
   3 C :    0.145649
   4 O :   -0.209576
   5 C :    0.049788
   6 C :   -0.057614
   7 H :    0.150794
   8 H :    0.023554
   9 H :   -0.003798
  10 H :    0.008325
  11 H :    0.027491
  12 H :    0.023515
Sum of atomic charges:   -0.0000000

LOEWDIN ATOMIC CHARGES
----------------------
   0 O :   -0.110774
   1 C :    0.043157
   2 C :   -0.120729
   3 C :    0.057105
   4 O :   -0.029361
   5 C :    0.035115
   6 C :   -0.085601
   7 H :    0.067220
   8 H :    0.021598
   9 H :    0.026825
  10 H :    0.024985
  11 H :    0.033946
  12 H :    0.036513

  Mayer bond orders larger than 0.1
B(  0-O ,  1-C ) :   1.0873 B(  0-O ,  7-H ) :   0.9790 B(  1-C ,  2-C ) :   1.0097
B(  1-C ,  5-C ) :   0.9475 B(  1-C ,  8-H ) :   0.8838 B(  2-C ,  3-C ) :   1.7394
B(  2-C ,  4-O ) :   0.1048 B(  2-C ,  9-H ) :   0.9785 B(  3-C ,  4-O ) :   1.0784
B(  3-C , 10-H ) :   0.9946 B(  4-O ,  5-C ) :   1.0783 B(  5-C ,  6-C ) :   1.9814
B(  6-C , 11-H ) :   0.9249 B(  6-C , 12-H ) :   0.9238

FINAL SINGLE POINT ENERGY      -343.864928009438

DIPOLE MOMENT
-------------
                                X             Y             Z
Electronic contribution:      0.84395      -0.69588      -1.56539
Nuclear contribution   :     -0.77153       0.09204       2.15068
                        -----------------------------------------
Total Dipole Moment    :      0.07242      -0.60384       0.58529
                        -----------------------------------------
Magnitude (a.u.)       :      0.84406
Magnitude (Debye)      :      2.14542

                             ****ORCA TERMINATED NORMALLY****
TOTAL RUN TIME: 0 days 0 hours 0 minutes 6 seconds 365 msec
