                         Program Version 3.0.3 - RELEASE   -
|  1> ! RI PBE def2-SVP def2-SVP/J NBO PAL2
|  2> % maxcore 2000
|  3> % output
|  4>     # printlevel mini
|  5>     print[ P_Basis ] 0
|  6>     print[ P_SCFInfo ] 1
|  7>     print[ P_SCFIterInfo ] 1
|  8>     print[ P_OrbEn ] 0
|  9>     print[ P_Cartesian ] 0
| 10> end
| 11> *xyz 0 1
| 12>  O        0.9203930000     0.0325310000    -0.0451570000
| 13>  C        2.3209520000     0.1146090000    -0.0304540000
| 14>  C        2.9169580000     1.2197620000     0.8382290000
| 15>  C        4.2796340000     0.6376150000     1.1602590000
| 16>  O        4.0816020000    -0.7755280000     1.2271870000
| 17>  C        2.9295030000    -1.1161550000     0.5905430000
| 18>  C        2.4496640000    -2.3502260000     0.5575610000
| 19>  H        0.5832630000     0.6809670000    -0.6673910000
| 20>  H        2.7093720000     0.2081030000    -1.0565470000
| 21>  H        2.3083560000     1.3141230000     1.7411400000
| 22>  H        2.9720910000     2.1895890000     0.3416060000
| 23>  H        4.6873180000     0.9658160000     2.1170610000
| 24>  H        5.0128680000     0.8587150000     0.3753890000
| 25>  H        2.9598220000    -3.1664440000     1.0510290000
| 26>  H        1.5187040000    -2.5368780000     0.0423650000
| 27> *
| 28>
| 29>                          ****END OF INPUT****
 Total Charge           Charge          ....    0
 Multiplicity           Mult            ....    1
 Number of Electrons    NEL             ....   54
 Basis Dimension        Dim             ....  138

MULLIKEN ATOMIC CHARGES
-----------------------
   0 O :   -0.231434
   1 C :    0.083319
   2 C :   -0.020348
   3 C :    0.189712
   4 O :   -0.272644
   5 C :    0.042458
   6 C :   -0.079642
   7 H :    0.158193
   8 H :    0.019990
   9 H :    0.031479
  10 H :    0.011598
  11 H :    0.023993
  12 H :    0.019267
  13 H :    0.013385
  14 H :    0.010673
Sum of atomic charges:    0.0000000

LOEWDIN ATOMIC CHARGES
----------------------
   0 O :   -0.093260
   1 C :    0.035040
   2 C :   -0.067834
   3 C :    0.078502
   4 O :   -0.081062
   5 C :    0.008990
   6 C :   -0.130889
   7 H :    0.073914
   8 H :    0.020170
   9 H :    0.034675
  10 H :    0.026743
  11 H :    0.023275
  12 H :    0.014651
  13 H :    0.027489
  14 H :    0.029595

  Mayer bond orders larger than 0.1
B(  0-O ,  1-C ) :   1.1443 B(  0-O ,  7-H ) :   0.9770 B(  1-C ,  2-C ) :   1.0411
B(  1-C ,  5-C ) :   0.9451 B(  1-C ,  8-H ) :   0.9054 B(  2-C ,  3-C ) :   1.0826
B(  2-C ,  9-H ) :   0.9154 B(  2-C , 10-H ) :   0.9246 B(  3-C ,  4-O ) :   0.9684
B(  3-C , 11-H ) :   0.9457 B(  3-C , 12-H ) :   0.9416 B(  4-O ,  5-C ) :   1.1316
B(  5-C ,  6-C ) :   1.9532 B(  6-C , 13-H ) :   0.9265 B(  6-C , 14-H ) :   0.9164

FINAL SINGLE POINT ENERGY      -345.083405788473

DIPOLE MOMENT
-------------
                                X             Y             Z
Electronic contribution:     -0.17093      -1.48195       0.30255
Nuclear contribution   :      0.20398       2.67777      -0.82119
                        -----------------------------------------
Total Dipole Moment    :      0.03305       1.19583      -0.51864
                        -----------------------------------------
Magnitude (a.u.)       :      1.30387
Magnitude (Debye)      :      3.31418

                             ****ORCA TERMINATED NORMALLY****
TOTAL RUN TIME: 0 days 0 hours 0 minutes 6 seconds 949 msec
