                         Program Version 3.0.3 - RELEASE   -
|  1> ! RI PBE def2-SVP def2-SVP/J NBO PAL2
|  2> % maxcore 2000
|  3> % output
|  4>     # printlevel mini
|  5>     print[ P_Basis ] 0
|  6>     print[ P_SCFInfo ] 1
|  7>     print[ P_SCFIterInfo ] 1
|  8>     print[ P_OrbEn ] 0
|  9>     print[ P_Cartesian ] 0
| 10> end
| 11> *xyz 0 1
| 12>  O        0.9132420000     0.0966240000     0.0617290000
| 13>  C        2.1280880000     0.1074850000    -0.0317820000
| 14>  C        2.9256140000     1.3295260000    -0.0870560000
| 15>  C        4.2584150000     1.2786780000    -0.1899740000
| 16>  O        4.9624460000     0.1328250000    -0.2499730000
| 17>  C        4.2780060000    -1.0254410000    -0.2030780000
| 18>  C        2.9462720000    -1.1001110000    -0.1008730000
| 19>  H        2.4237760000     2.2873580000    -0.0435770000
| 20>  H        4.9098430000     2.1417760000    -0.2358070000
| 21>  H        4.9440100000    -1.8767610000    -0.2586610000
| 22>  H        2.4607970000    -2.0667690000    -0.0683390000
| 23> *
| 24>
| 25>                          ****END OF INPUT****
 Total Charge           Charge          ....    0
 Multiplicity           Mult            ....    1
 Number of Electrons    NEL             ....   50
 Basis Dimension        Dim             ....  118

MULLIKEN ATOMIC CHARGES
-----------------------
   0 O :   -0.189484
   1 C :    0.118423
   2 C :   -0.069008
   3 C :    0.143998
   4 O :   -0.159719
   5 C :    0.143887
   6 C :   -0.069556
   7 H :    0.012440
   8 H :    0.028116
   9 H :    0.028432
  10 H :    0.012471
Sum of atomic charges:   -0.0000000

LOEWDIN ATOMIC CHARGES
----------------------
   0 O :   -0.165254
   1 C :    0.008583
   2 C :   -0.077743
   3 C :    0.063458
   4 O :    0.031821
   5 C :    0.063412
   6 C :   -0.077809
   7 H :    0.045271
   8 H :    0.031475
   9 H :    0.031534
  10 H :    0.045251

  Mayer bond orders larger than 0.1
B(  0-O ,  1-C ) :   2.0608 B(  1-C ,  2-C ) :   1.0655 B(  1-C ,  6-C ) :   1.0656
B(  2-C ,  3-C ) :   1.6490 B(  2-C ,  7-H ) :   0.9579 B(  3-C ,  4-O ) :   1.1343
B(  3-C ,  8-H ) :   0.9651 B(  4-O ,  5-C ) :   1.1346 B(  5-C ,  6-C ) :   1.6490
B(  5-C ,  9-H ) :   0.9650 B(  6-C , 10-H ) :   0.9581

FINAL SINGLE POINT ENERGY      -342.708428582857

DIPOLE MOMENT
-------------
                                X             Y             Z
Electronic contribution:     -0.39347      -0.00356       0.03046
Nuclear contribution   :      1.81051       0.01619      -0.13935
                        -----------------------------------------
Total Dipole Moment    :      1.41704       0.01263      -0.10889
                        -----------------------------------------
Magnitude (a.u.)       :      1.42128
Magnitude (Debye)      :      3.61260

                             ****ORCA TERMINATED NORMALLY****
TOTAL RUN TIME: 0 days 0 hours 0 minutes 5 seconds 911 msec
