                         Program Version 3.0.3 - RELEASE   -
|  1> ! RI PBE def2-SVP def2-SVP/J NBO PAL2
|  2> % maxcore 2000
|  3> % output
|  4>     # printlevel mini
|  5>     print[ P_Basis ] 0
|  6>     print[ P_SCFInfo ] 1
|  7>     print[ P_SCFIterInfo ] 1
|  8>     print[ P_OrbEn ] 0
|  9>     print[ P_Cartesian ] 0
| 10> end
| 11> *xyz 0 1
| 12>  O        1.0693080000     0.0223840000     0.1738490000
| 13>  C        2.4850510000    -0.0602140000     0.0934860000
| 14>  C        2.9455770000    -1.4522040000    -0.3276250000
| 15>  C        2.5573750000    -1.7389620000    -1.7674320000
| 16>  O        3.0677100000    -0.7588410000    -2.6417630000
| 17>  C        2.5474800000     0.5192960000    -2.3417710000
| 18>  C        2.9297840000     0.9615260000    -0.9400110000
| 19>  H        0.7608160000    -0.6447110000     0.7923270000
| 20>  H        2.9248410000     0.1936420000     1.0680520000
| 21>  H        2.5181320000    -2.2117650000     0.3376500000
| 22>  H        4.0342820000    -1.5126070000    -0.2275780000
| 23>  H        1.4620440000    -1.7864840000    -1.8584010000
| 24>  H        2.9669440000    -2.6953210000    -2.0990000000
| 25>  H        1.4533780000     0.5106950000    -2.4466480000
| 26>  H        2.9561670000     1.2014650000    -3.0897840000
| 27>  H        2.4773220000     1.9304320000    -0.7118370000
| 28>  H        4.0164780000     1.0743590000    -0.8806240000
| 29> *
| 30>
| 31>                          ****END OF INPUT****
 Total Charge           Charge          ....    0
 Multiplicity           Mult            ....    1
 Number of Electrons    NEL             ....   56
 Basis Dimension        Dim             ....  148

MULLIKEN ATOMIC CHARGES
-----------------------
   0 O :   -0.259897
   1 C :    0.032525
   2 C :   -0.025883
   3 C :    0.210995
   4 O :   -0.348948
   5 C :    0.182254
   6 C :    0.008872
   7 H :    0.151091
   8 H :   -0.004800
   9 H :   -0.000595
  10 H :    0.015041
  11 H :   -0.012238
  12 H :    0.007894
  13 H :    0.001633
  14 H :    0.013219
  15 H :    0.013997
  16 H :    0.014838
Sum of atomic charges:   -0.0000000

LOEWDIN ATOMIC CHARGES
----------------------
   0 O :   -0.117236
   1 C :    0.044363
   2 C :   -0.074942
   3 C :    0.059255
   4 O :   -0.149765
   5 C :    0.059333
   6 C :   -0.061607
   7 H :    0.066971
   8 H :    0.005633
   9 H :    0.022070
  10 H :    0.029956
  11 H :    0.003842
  12 H :    0.020454
  13 H :    0.008774
  14 H :    0.021639
  15 H :    0.031573
  16 H :    0.029686

  Mayer bond orders larger than 0.1
B(  0-O ,  1-C ) :   1.0668 B(  0-O ,  7-H ) :   0.9794 B(  1-C ,  2-C ) :   1.0546
B(  1-C ,  6-C ) :   1.0583 B(  1-C ,  8-H ) :   0.9280 B(  2-C ,  3-C ) :   1.0806
B(  2-C ,  9-H ) :   0.9168 B(  2-C , 10-H ) :   0.9109 B(  3-C ,  4-O ) :   1.0261
B(  3-C , 11-H ) :   0.9138 B(  3-C , 12-H ) :   0.9426 B(  4-O ,  5-C ) :   1.0220
B(  5-C ,  6-C ) :   1.0903 B(  5-C , 13-H ) :   0.9189 B(  5-C , 14-H ) :   0.9431
B(  6-C , 15-H ) :   0.9136 B(  6-C , 16-H ) :   0.9197

FINAL SINGLE POINT ENERGY      -346.300532312259

DIPOLE MOMENT
-------------
                                X             Y             Z
Electronic contribution:     -0.69868       0.03113      -1.03095
Nuclear contribution   :      0.67332      -0.29622       1.74390
                        -----------------------------------------
Total Dipole Moment    :     -0.02536      -0.26509       0.71295
                        -----------------------------------------
Magnitude (a.u.)       :      0.76106
Magnitude (Debye)      :      1.93446

                             ****ORCA TERMINATED NORMALLY****
TOTAL RUN TIME: 0 days 0 hours 0 minutes 7 seconds 474 msec
