                         Program Version 3.0.3 - RELEASE   -
|  1> ! RI PBE def2-SVP def2-SVP/J NBO PAL2
|  2> % maxcore 2000
|  3> % output
|  4>     # printlevel mini
|  5>     print[ P_Basis ] 0
|  6>     print[ P_SCFInfo ] 1
|  7>     print[ P_SCFIterInfo ] 1
|  8>     print[ P_OrbEn ] 0
|  9>     print[ P_Cartesian ] 0
| 10> end
| 11> *xyz 0 1
| 12>  O        1.1443040000    -0.0050930000     0.2291250000
| 13>  C        2.3393890000    -0.0233620000     0.0712460000
| 14>  C        3.1379930000    -1.2993350000    -0.0262200000
| 15>  C        4.1149130000    -1.2317860000    -1.1993980000
| 16>  O        4.9164740000    -0.0781060000    -1.1415320000
| 17>  C        4.1450420000     1.0932000000    -1.2403180000
| 18>  C        3.1707430000     1.2272710000    -0.0706810000
| 19>  H        2.4575190000    -2.1476520000    -0.1153610000
| 20>  H        3.7133320000    -1.4094400000     0.9002340000
| 21>  H        3.5577170000    -1.2547140000    -2.1485150000
| 22>  H        4.7921110000    -2.0873160000    -1.1878560000
| 23>  H        3.5881880000     1.0971430000    -2.1899040000
| 24>  H        4.8441800000     1.9307770000    -1.2585820000
| 25>  H        2.5124390000     2.0892750000    -0.1899110000
| 26>  H        3.7491750000     1.3549490000     0.8515820000
| 27> *
| 28>
| 29>                          ****END OF INPUT****
 Total Charge           Charge          ....    0
 Multiplicity           Mult            ....    1
 Number of Electrons    NEL             ....   54
 Basis Dimension        Dim             ....  138

MULLIKEN ATOMIC CHARGES
-----------------------
   0 O :   -0.146732
   1 C :   -0.103847
   2 C :    0.044759
   3 C :    0.173537
   4 O :   -0.339042
   5 C :    0.171629
   6 C :    0.045197
   7 H :    0.020024
   8 H :    0.036782
   9 H :   -0.003210
  10 H :    0.023205
  11 H :   -0.003275
  12 H :    0.023933
  13 H :    0.019640
  14 H :    0.037399
Sum of atomic charges:   -0.0000000

LOEWDIN ATOMIC CHARGES
----------------------
   0 O :   -0.116476
   1 C :    0.049667
   2 C :   -0.079937
   3 C :    0.065611
   4 O :   -0.139911
   5 C :    0.065275
   6 C :   -0.079940
   7 H :    0.037865
   8 H :    0.045805
   9 H :    0.007780
  10 H :    0.026272
  11 H :    0.007799
  12 H :    0.026412
  13 H :    0.037817
  14 H :    0.045962

  Mayer bond orders larger than 0.1
B(  0-O ,  1-C ) :   2.2164 B(  1-C ,  2-C ) :   0.9912 B(  1-C ,  6-C ) :   0.9916
B(  2-C ,  3-C ) :   1.0596 B(  2-C ,  7-H ) :   0.9070 B(  2-C ,  8-H ) :   0.8991
B(  3-C ,  4-O ) :   1.0220 B(  3-C ,  9-H ) :   0.9206 B(  3-C , 10-H ) :   0.9406
B(  4-O ,  5-C ) :   1.0224 B(  5-C ,  6-C ) :   1.0602 B(  5-C , 11-H ) :   0.9206
B(  5-C , 12-H ) :   0.9405 B(  6-C , 13-H ) :   0.9067 B(  6-C , 14-H ) :   0.8990

FINAL SINGLE POINT ENERGY      -345.109555769648

DIPOLE MOMENT
-------------
                                X             Y             Z
Electronic contribution:     -2.07959       0.04701       1.13208
Nuclear contribution   :      2.69954      -0.05770      -1.28952
                        -----------------------------------------
Total Dipole Moment    :      0.61994      -0.01069      -0.15744
                        -----------------------------------------
Magnitude (a.u.)       :      0.63971
Magnitude (Debye)      :      1.62602

                             ****ORCA TERMINATED NORMALLY****
TOTAL RUN TIME: 0 days 0 hours 0 minutes 6 seconds 715 msec
