                         Program Version 3.0.3 - RELEASE   -
|  1> ! RI PBE def2-SVP def2-SVP/J NBO PAL2
|  2> % maxcore 2000
|  3> % output
|  4>     # printlevel mini
|  5>     print[ P_Basis ] 0
|  6>     print[ P_SCFInfo ] 1
|  7>     print[ P_SCFIterInfo ] 1
|  8>     print[ P_OrbEn ] 0
|  9>     print[ P_Cartesian ] 0
| 10> end
| 11> *xyz 0 1
| 12>  O        1.1070400000     0.0694120000    -0.5700490000
| 13>  C        2.2642590000     0.0502590000    -0.2438690000
| 14>  C        3.1368350000    -1.1717460000    -0.0453050000
| 15>  C        4.4805310000    -0.6000180000     0.3568400000
| 16>  O        5.4814600000    -1.2140910000     0.6156290000
| 17>  C        4.3440720000     0.8800640000     0.3763130000
| 18>  C        3.1030940000     1.2441810000     0.0399460000
| 19>  H        3.2126370000    -1.7606330000    -0.9624480000
| 20>  H        2.7342230000    -1.8271980000     0.7305590000
| 21>  H        5.1734310000     1.5260700000     0.6359850000
| 22>  H        2.7075080000     2.2495990000    -0.0324020000
| 23> *
| 24>
| 25>                          ****END OF INPUT****
 Total Charge           Charge          ....    0
 Multiplicity           Mult            ....    1
 Number of Electrons    NEL             ....   50
 Basis Dimension        Dim             ....  118

MULLIKEN ATOMIC CHARGES
-----------------------
   0 O :   -0.125953
   1 C :   -0.021417
   2 C :    0.077289
   3 C :   -0.023840
   4 O :   -0.124302
   5 C :    0.019869
   6 C :    0.018544
   7 H :    0.076373
   8 H :    0.076660
   9 H :    0.014578
  10 H :    0.012198
Sum of atomic charges:   -0.0000000

LOEWDIN ATOMIC CHARGES
----------------------
   0 O :   -0.096244
   1 C :    0.041227
   2 C :   -0.086076
   3 C :    0.040708
   4 O :   -0.095927
   5 C :   -0.006323
   6 C :   -0.006405
   7 H :    0.066053
   8 H :    0.065939
   9 H :    0.038810
  10 H :    0.038239

  Mayer bond orders larger than 0.1
B(  0-O ,  1-C ) :   2.1706 B(  1-C ,  2-C ) :   0.9495 B(  1-C ,  6-C ) :   1.0010
B(  2-C ,  3-C ) :   0.9465 B(  2-C ,  7-H ) :   0.8899 B(  2-C ,  8-H ) :   0.8907
B(  3-C ,  4-O ) :   2.1718 B(  3-C ,  5-C ) :   1.0018 B(  5-C ,  6-C ) :   1.5983
B(  5-C ,  9-H ) :   0.9881 B(  6-C , 10-H ) :   0.9919

FINAL SINGLE POINT ENERGY      -342.714499647718

DIPOLE MOMENT
-------------
                                X             Y             Z
Electronic contribution:     -0.03770      -0.14202      -0.01484
Nuclear contribution   :      0.17930       0.68233       0.07713
                        -----------------------------------------
Total Dipole Moment    :      0.14160       0.54031       0.06229
                        -----------------------------------------
Magnitude (a.u.)       :      0.56202
Magnitude (Debye)      :      1.42854

                             ****ORCA TERMINATED NORMALLY****
TOTAL RUN TIME: 0 days 0 hours 0 minutes 5 seconds 485 msec
