                         Program Version 3.0.3 - RELEASE   -
|  1> ! RI PBE def2-SVP def2-SVP/J NBO PAL2
|  2> % maxcore 2000
|  3> % output
|  4>     # printlevel mini
|  5>     print[ P_Basis ] 0
|  6>     print[ P_SCFInfo ] 1
|  7>     print[ P_SCFIterInfo ] 1
|  8>     print[ P_OrbEn ] 0
|  9>     print[ P_Cartesian ] 0
| 10> end
| 11> *xyz 0 1
| 12>  O        0.9446920000     0.0705420000     0.4822600000
| 13>  C        2.1178560000     0.0844690000     0.1790900000
| 14>  C        2.8247390000     1.3488820000    -0.2707920000
| 15>  C        4.2910710000     1.2935530000     0.0849360000
| 16>  O        4.9308390000     0.1178040000    -0.4210130000
| 17>  C        4.2515460000    -1.0115740000    -0.2360010000
| 18>  C        2.9597540000    -1.1017520000     0.1272240000
| 19>  H        2.3485030000     2.2160080000     0.1894400000
| 20>  H        2.6930780000     1.4348800000    -1.3556430000
| 21>  H        4.4161310000     1.2840000000     1.1747650000
| 22>  H        4.8516400000     2.1329890000    -0.3249130000
| 23>  H        4.8716410000    -1.8838580000    -0.4177020000
| 24>  H        2.5110290000    -2.0722530000     0.2911400000
| 25> *
| 26>
| 27>                          ****END OF INPUT****
 Total Charge           Charge          ....    0
 Multiplicity           Mult            ....    1
 Number of Electrons    NEL             ....   52
 Basis Dimension        Dim             ....  128

MULLIKEN ATOMIC CHARGES
-----------------------
   0 O :   -0.169530
   1 C :    0.002900
   2 C :   -0.004149
   3 C :    0.157972
   4 O :   -0.240486
   5 C :    0.147632
   6 C :   -0.068998
   7 H :    0.028188
   8 H :    0.054876
   9 H :    0.038273
  10 H :    0.027742
  11 H :    0.024064
  12 H :    0.001517
Sum of atomic charges:   -0.0000000

LOEWDIN ATOMIC CHARGES
----------------------
   0 O :   -0.136971
   1 C :    0.031137
   2 C :   -0.080788
   3 C :    0.079465
   4 O :   -0.044952
   5 C :    0.072643
   6 C :   -0.140180
   7 H :    0.046420
   8 H :    0.048724
   9 H :    0.025891
  10 H :    0.029735
  11 H :    0.029028
  12 H :    0.039847

  Mayer bond orders larger than 0.1
B(  0-O ,  1-C ) :   2.1241 B(  1-C ,  2-C ) :   0.9856 B(  1-C ,  6-C ) :   1.0813
B(  2-C ,  3-C ) :   1.0781 B(  2-C ,  7-H ) :   0.9010 B(  2-C ,  8-H ) :   0.9039
B(  3-C ,  4-O ) :   0.9402 B(  3-C ,  9-H ) :   0.9429 B(  3-C , 10-H ) :   0.9380
B(  4-O ,  5-C ) :   1.2166 B(  5-C ,  6-C ) :   1.5931 B(  5-C , 11-H ) :   0.9643
B(  6-C , 12-H ) :   0.9636

FINAL SINGLE POINT ENERGY      -343.908562307579

DIPOLE MOMENT
-------------
                                X             Y             Z
Electronic contribution:     -1.25530      -1.89160       0.15961
Nuclear contribution   :      2.36103       2.14233      -0.36534
                        -----------------------------------------
Total Dipole Moment    :      1.10574       0.25073      -0.20574
                        -----------------------------------------
Magnitude (a.u.)       :      1.15232
Magnitude (Debye)      :      2.92897

                             ****ORCA TERMINATED NORMALLY****
TOTAL RUN TIME: 0 days 0 hours 0 minutes 6 seconds 625 msec
