                         Program Version 3.0.3 - RELEASE   -
|  1> ! RI PBE def2-SVP def2-SVP/J NBO PAL2
|  2> % maxcore 2000
|  3> % output
|  4>     # printlevel mini
|  5>     print[ P_Basis ] 0
|  6>     print[ P_SCFInfo ] 1
|  7>     print[ P_SCFIterInfo ] 1
|  8>     print[ P_OrbEn ] 0
|  9>     print[ P_Cartesian ] 0
| 10> end
| 11> *xyz 0 1
| 12>  O        0.8521500000    -0.0221590000    -0.2736250000
| 13>  C        2.2802530000     0.0249310000    -0.1625340000
| 14>  C        2.7404160000     1.2265290000     0.5973260000
| 15>  C        3.3018470000     1.1409490000     1.7980230000
| 16>  O        3.5859270000    -0.0219740000     2.4327470000
| 17>  C        3.2823360000    -1.1598360000     1.7602890000
| 18>  C        2.7130670000    -1.2017810000     0.5615390000
| 19>  H        0.5796770000     0.6269290000    -0.9285470000
| 20>  H        2.6968800000     0.0294930000    -1.1807030000
| 21>  H        2.5812030000     2.2131130000     0.1773080000
| 22>  H        3.6083920000     1.9934520000     2.3900070000
| 23>  H        3.5782730000    -2.0355130000     2.3227220000
| 24>  H        2.5170590000    -2.1672220000     0.1126470000
| 25> *
| 26>
| 27>                          ****END OF INPUT****
 Total Charge           Charge          ....    0
 Multiplicity           Mult            ....    1
 Number of Electrons    NEL             ....   52
 Basis Dimension        Dim             ....  128

MULLIKEN ATOMIC CHARGES
-----------------------
   0 O :   -0.274142
   1 C :    0.257353
   2 C :   -0.113386
   3 C :    0.122947
   4 O :   -0.192655
   5 C :    0.125635
   6 C :   -0.095996
   7 H :    0.140986
   8 H :    0.001729
   9 H :   -0.002518
  10 H :    0.011099
  11 H :    0.011924
  12 H :    0.007025
Sum of atomic charges:    0.0000000

LOEWDIN ATOMIC CHARGES
----------------------
   0 O :   -0.125162
   1 C :    0.045287
   2 C :   -0.100744
   3 C :    0.040944
   4 O :   -0.008427
   5 C :    0.042487
   6 C :   -0.083522
   7 H :    0.060966
   8 H :    0.011972
   9 H :    0.029209
  10 H :    0.025518
  11 H :    0.026566
  12 H :    0.034907

  Mayer bond orders larger than 0.1
B(  0-O ,  1-C ) :   1.0383 B(  0-O ,  7-H ) :   0.9804 B(  1-C ,  2-C ) :   1.0042
B(  1-C ,  6-C ) :   1.0296 B(  1-C ,  8-H ) :   0.8972 B(  2-C ,  3-C ) :   1.7991
B(  2-C ,  9-H ) :   0.9470 B(  3-C ,  4-O ) :   1.1107 B(  3-C , 10-H ) :   0.9710
B(  4-O ,  5-C ) :   1.1056 B(  5-C ,  6-C ) :   1.8029 B(  5-C , 11-H ) :   0.9723
B(  6-C , 12-H ) :   0.9498

FINAL SINGLE POINT ENERGY      -343.874030913150

DIPOLE MOMENT
-------------
                                X             Y             Z
Electronic contribution:      0.50710      -0.25258       2.16120
Nuclear contribution   :     -0.25510       0.59979      -2.56982
                        -----------------------------------------
Total Dipole Moment    :      0.25200       0.34720      -0.40863
                        -----------------------------------------
Magnitude (a.u.)       :      0.59248
Magnitude (Debye)      :      1.50596

                             ****ORCA TERMINATED NORMALLY****
TOTAL RUN TIME: 0 days 0 hours 0 minutes 5 seconds 953 msec
