                         Program Version 3.0.3 - RELEASE   -
|  1> ! RI PBE def2-SVP def2-SVP/J NBO PAL2
|  2> % maxcore 2000
|  3> % output
|  4>     # printlevel mini
|  5>     print[ P_Basis ] 0
|  6>     print[ P_SCFInfo ] 1
|  7>     print[ P_SCFIterInfo ] 1
|  8>     print[ P_OrbEn ] 0
|  9>     print[ P_Cartesian ] 0
| 10> end
| 11> *xyz 0 1
| 12>  O        1.1371150000     0.0545330000    -0.4746780000
| 13>  C        2.4866260000    -0.0558160000    -0.0723450000
| 14>  C        2.8451580000    -1.3423540000     0.6741130000
| 15>  C        3.5842300000    -0.8842610000     1.9244410000
| 16>  O        4.1890980000    -1.5890640000     2.6910420000
| 17>  C        3.4161110000     0.5806200000     2.0064370000
| 18>  C        2.7876020000     1.0281330000     0.9210230000
| 19>  H        0.9894660000    -0.5369930000    -1.2167210000
| 20>  H        3.1460280000     0.0789110000    -0.9433070000
| 21>  H        3.4472990000    -2.0548660000     0.1086620000
| 22>  H        1.9256910000    -1.8447990000     0.9873400000
| 23>  H        3.7739500000     1.1642980000     2.8442320000
| 24>  H        2.5139270000     2.0562470000     0.7142700000
| 25> *
| 26>
| 27>                          ****END OF INPUT****
 Total Charge           Charge          ....    0
 Multiplicity           Mult            ....    1
 Number of Electrons    NEL             ....   52
 Basis Dimension        Dim             ....  128

MULLIKEN ATOMIC CHARGES
-----------------------
   0 O :   -0.257724
   1 C :    0.080872
   2 C :    0.076065
   3 C :   -0.027938
   4 O :   -0.146237
   5 C :    0.005369
   6 C :   -0.007003
   7 H :    0.157778
   8 H :    0.023848
   9 H :    0.032758
  10 H :    0.045109
  11 H :    0.001228
  12 H :    0.015876
Sum of atomic charges:    0.0000000

LOEWDIN ATOMIC CHARGES
----------------------
   0 O :   -0.111320
   1 C :    0.041892
   2 C :   -0.077974
   3 C :    0.040591
   4 O :   -0.120911
   5 C :   -0.047867
   6 C :    0.022970
   7 H :    0.072272
   8 H :    0.023094
   9 H :    0.039202
  10 H :    0.052385
  11 H :    0.034033
  12 H :    0.031633

  Mayer bond orders larger than 0.1
B(  0-O ,  1-C ) :   1.0890 B(  0-O ,  7-H ) :   0.9792 B(  1-C ,  2-C ) :   1.0344
B(  1-C ,  6-C ) :   1.0277 B(  1-C ,  8-H ) :   0.8832 B(  2-C ,  3-C ) :   0.9721
B(  2-C ,  9-H ) :   0.9083 B(  2-C , 10-H ) :   0.8849 B(  3-C ,  4-O ) :   2.1670
B(  3-C ,  5-C ) :   1.0056 B(  5-C ,  6-C ) :   1.7036 B(  5-C , 11-H ) :   0.9985
B(  6-C , 12-H ) :   0.9798

FINAL SINGLE POINT ENERGY      -343.900614512134

DIPOLE MOMENT
-------------
                                X             Y             Z
Electronic contribution:      1.09967      -0.50284       2.48835
Nuclear contribution   :     -1.41038       0.85941      -3.59576
                        -----------------------------------------
Total Dipole Moment    :     -0.31071       0.35656      -1.10741
                        -----------------------------------------
Magnitude (a.u.)       :      1.20417
Magnitude (Debye)      :      3.06076

                             ****ORCA TERMINATED NORMALLY****
TOTAL RUN TIME: 0 days 0 hours 0 minutes 6 seconds 175 msec
