                         Program Version 3.0.3 - RELEASE   -
|  1> ! RI PBE def2-SVP def2-SVP/J NBO PAL2
|  2> % maxcore 2000
|  3> % output
|  4>     # printlevel mini
|  5>     print[ P_Basis ] 0
|  6>     print[ P_SCFInfo ] 1
|  7>     print[ P_SCFIterInfo ] 1
|  8>     print[ P_OrbEn ] 0
|  9>     print[ P_Cartesian ] 0
| 10> end
| 11> *xyz 0 1
| 12>  O        1.0382010000     0.0929060000     0.0317490000
| 13>  C        2.4581200000     0.0068410000     0.0539340000
| 14>  C        2.9827940000    -1.2667310000     0.7306580000
| 15>  C        3.3185140000    -0.8799750000     2.1796960000
| 16>  O        4.4765230000    -1.5062900000     2.6953400000
| 17>  C        3.4069530000     0.6187340000     2.1094190000
| 18>  C        2.9630740000     1.0976700000     0.9550030000
| 19>  H        0.7119200000    -0.5169290000    -0.6350670000
| 20>  H        2.8410590000     0.1126050000    -0.9701070000
| 21>  H        3.9083630000    -1.5910260000     0.2451600000
| 22>  H        2.2691940000    -2.0895410000     0.6588360000
| 23>  H        2.5220950000    -1.1768200000     2.8697040000
| 24>  H        5.2287720000    -1.2126670000     2.1723140000
| 25>  H        3.7737250000     1.2068220000     2.9432950000
| 26>  H        2.8879840000     2.1443020000     0.6854570000
| 27> *
| 28>
| 29>                          ****END OF INPUT****
 Total Charge           Charge          ....    0
 Multiplicity           Mult            ....    1
 Number of Electrons    NEL             ....   54
 Basis Dimension        Dim             ....  138

MULLIKEN ATOMIC CHARGES
-----------------------
   0 O :   -0.267444
   1 C :    0.083263
   2 C :    0.073076
   3 C :    0.135879
   4 O :   -0.271507
   5 C :   -0.064472
   6 C :   -0.000107
   7 H :    0.151311
   8 H :   -0.005396
   9 H :   -0.006820
  10 H :    0.002205
  11 H :    0.023718
  12 H :    0.147793
  13 H :   -0.000306
  14 H :   -0.001192
Sum of atomic charges:   -0.0000000

LOEWDIN ATOMIC CHARGES
----------------------
   0 O :   -0.121399
   1 C :    0.045518
   2 C :   -0.062295
   3 C :    0.045608
   4 O :   -0.109661
   5 C :   -0.038698
   6 C :   -0.027008
   7 H :    0.066377
   8 H :    0.005641
   9 H :    0.025986
  10 H :    0.026185
  11 H :    0.031187
  12 H :    0.063068
  13 H :    0.025265
  14 H :    0.024226

  Mayer bond orders larger than 0.1
B(  0-O ,  1-C ) :   1.0719 B(  0-O ,  7-H ) :   0.9822 B(  1-C ,  2-C ) :   1.0284
B(  1-C ,  6-C ) :   1.0047 B(  1-C ,  8-H ) :   0.9155 B(  2-C ,  3-C ) :   1.0448
B(  2-C ,  9-H ) :   0.9091 B(  2-C , 10-H ) :   0.9109 B(  3-C ,  4-O ) :   1.0552
B(  3-C ,  5-C ) :   1.0165 B(  3-C , 11-H ) :   0.8874 B(  4-O , 12-H ) :   0.9819
B(  5-C ,  6-C ) :   1.8240 B(  5-C , 13-H ) :   0.9870 B(  6-C , 14-H ) :   0.9847

FINAL SINGLE POINT ENERGY      -345.079888841589

DIPOLE MOMENT
-------------
                                X             Y             Z
Electronic contribution:     -0.33778       0.62067       1.06095
Nuclear contribution   :      0.58353      -0.62945      -1.82089
                        -----------------------------------------
Total Dipole Moment    :      0.24575      -0.00878      -0.75994
                        -----------------------------------------
Magnitude (a.u.)       :      0.79874
Magnitude (Debye)      :      2.03023

                             ****ORCA TERMINATED NORMALLY****
TOTAL RUN TIME: 0 days 0 hours 0 minutes 6 seconds 884 msec
