                         Program Version 3.0.3 - RELEASE   -
|  1> ! RI PBE def2-SVP def2-SVP/J NBO PAL2
|  2> % maxcore 2000
|  3> % output
|  4>     # printlevel mini
|  5>     print[ P_Basis ] 0
|  6>     print[ P_SCFInfo ] 1
|  7>     print[ P_SCFIterInfo ] 1
|  8>     print[ P_OrbEn ] 0
|  9>     print[ P_Cartesian ] 0
| 10> end
| 11> *xyz 0 1
| 12>  O        0.9099420000     0.0317720000    -0.3505930000
| 13>  C        2.2666470000    -0.0750430000     0.0705730000
| 14>  C        3.0805640000     1.1561420000    -0.3167010000
| 15>  C        3.4218370000     1.0883780000    -1.7875160000
| 16>  O        4.2343190000    -0.0438380000    -2.0762360000
| 17>  C        3.8016860000    -1.1859700000    -1.5119630000
| 18>  C        2.8735520000    -1.2815890000    -0.5602620000
| 19>  H        0.4759630000     0.6840110000     0.2073610000
| 20>  H        2.2965890000    -0.1966990000     1.1627340000
| 21>  H        4.0010190000     1.1930940000     0.2750040000
| 22>  H        2.5151110000     2.0690630000    -0.1080830000
| 23>  H        3.9897400000     1.9556990000    -2.1241920000
| 24>  H        2.4990240000     1.0109620000    -2.3753290000
| 25>  H        4.3129640000    -2.0493480000    -1.9233530000
| 26>  H        2.5799440000    -2.2639330000    -0.2139350000
| 27> *
| 28>
| 29>                          ****END OF INPUT****
 Total Charge           Charge          ....    0
 Multiplicity           Mult            ....    1
 Number of Electrons    NEL             ....   54
 Basis Dimension        Dim             ....  138

MULLIKEN ATOMIC CHARGES
-----------------------
   0 O :   -0.261322
   1 C :    0.115916
   2 C :   -0.013545
   3 C :    0.185044
   4 O :   -0.263739
   5 C :    0.126422
   6 C :   -0.095811
   7 H :    0.143820
   8 H :    0.005529
   9 H :    0.021447
  10 H :   -0.001037
  11 H :    0.017656
  12 H :    0.021277
  13 H :    0.002197
  14 H :   -0.003853
Sum of atomic charges:   -0.0000000

LOEWDIN ATOMIC CHARGES
----------------------
   0 O :   -0.120366
   1 C :    0.042822
   2 C :   -0.068601
   3 C :    0.074353
   4 O :   -0.070798
   5 C :    0.038325
   6 C :   -0.125694
   7 H :    0.061935
   8 H :    0.015407
   9 H :    0.031745
  10 H :    0.027212
  11 H :    0.023279
  12 H :    0.018765
  13 H :    0.022708
  14 H :    0.028908

  Mayer bond orders larger than 0.1
B(  0-O ,  1-C ) :   1.0628 B(  0-O ,  7-H ) :   0.9792 B(  1-C ,  2-C ) :   1.0538
B(  1-C ,  6-C ) :   1.0241 B(  1-C ,  8-H ) :   0.9091 B(  2-C ,  3-C ) :   1.0759
B(  2-C ,  9-H ) :   0.9097 B(  2-C , 10-H ) :   0.9146 B(  3-C ,  4-O ) :   0.9722
B(  3-C , 11-H ) :   0.9459 B(  3-C , 12-H ) :   0.9321 B(  4-O ,  5-C ) :   1.1601
B(  4-O ,  6-C ) :   0.1107 B(  5-C ,  6-C ) :   1.7716 B(  5-C , 13-H ) :   0.9717
B(  6-C , 14-H ) :   0.9585

FINAL SINGLE POINT ENERGY      -345.088171262676

DIPOLE MOMENT
-------------
                                X             Y             Z
Electronic contribution:      0.47763      -1.78479      -1.65443
Nuclear contribution   :     -0.53044       2.35581       2.20026
                        -----------------------------------------
Total Dipole Moment    :     -0.05281       0.57102       0.54583
                        -----------------------------------------
Magnitude (a.u.)       :      0.79170
Magnitude (Debye)      :      2.01234

                             ****ORCA TERMINATED NORMALLY****
TOTAL RUN TIME: 0 days 0 hours 0 minutes 6 seconds 693 msec
