                         Program Version 3.0.3 - RELEASE   -
|  1> ! RI PBE def2-SVP def2-SVP/J NBO PAL2
|  2> % maxcore 2000
|  3> % output
|  4>     # printlevel mini
|  5>     print[ P_Basis ] 0
|  6>     print[ P_SCFInfo ] 1
|  7>     print[ P_SCFIterInfo ] 1
|  8>     print[ P_OrbEn ] 0
|  9>     print[ P_Cartesian ] 0
| 10> end
| 11> *xyz 0 1
| 12>  O        1.0430840000    -0.0091110000     0.5621030000
| 13>  C        2.1997880000    -0.0630300000     0.3195580000
| 14>  C        3.3090330000     0.9099630000    -0.0288780000
| 15>  O        4.2387700000    -0.1786920000    -0.1068130000
| 16>  C        3.2636410000    -1.1843530000     0.2321230000
| 17>  C        3.0632970000    -2.2028550000    -0.7711390000
| 18>  C        2.8670010000    -3.0434870000    -1.6043370000
| 19>  H        3.5548710000     1.6310540000     0.7579500000
| 20>  H        3.1816930000     1.4304520000    -0.9839780000
| 21>  H        3.4754510000    -1.6348310000     1.2105220000
| 22>  H        2.6990600000    -3.7902010000    -2.3445120000
| 23> *
| 24>
| 25>                          ****END OF INPUT****
 Total Charge           Charge          ....    0
 Multiplicity           Mult            ....    1
 Number of Electrons    NEL             ....   50
 Basis Dimension        Dim             ....  118

MULLIKEN ATOMIC CHARGES
-----------------------
   0 O :   -0.077063
   1 C :   -0.021391
   2 C :    0.185138
   3 O :   -0.322892
   4 C :    0.066831
   5 C :    0.436446
   6 C :   -0.453086
   7 H :    0.057027
   8 H :    0.054848
   9 H :    0.061187
  10 H :    0.012953
Sum of atomic charges:   -0.0000000

LOEWDIN ATOMIC CHARGES
----------------------
   0 O :   -0.056771
   1 C :    0.057535
   2 C :    0.051422
   3 O :   -0.159213
   4 C :    0.021963
   5 C :   -0.032902
   6 C :   -0.040938
   7 H :    0.034382
   8 H :    0.036311
   9 H :    0.047945
  10 H :    0.040267

  Mayer bond orders larger than 0.1
B(  0-O ,  1-C ) :   2.2824 B(  1-C ,  2-C ) :   0.9815 B(  1-C ,  4-C ) :   0.9147
B(  2-C ,  3-O ) :   1.0211 B(  2-C ,  7-H ) :   0.9183 B(  2-C ,  8-H ) :   0.9182
B(  3-O ,  4-C ) :   1.0781 B(  4-C ,  5-C ) :   0.9715 B(  4-C ,  9-H ) :   0.8613
B(  5-C ,  6-C ) :   2.3272 B(  5-C , 10-H ) :  -0.1043 B(  6-C , 10-H ) :   1.0942

FINAL SINGLE POINT ENERGY      -342.604512402387

DIPOLE MOMENT
-------------
                                X             Y             Z
Electronic contribution:     -1.20862      -0.53310       0.59170
Nuclear contribution   :      1.40079       0.63188      -0.62603
                        -----------------------------------------
Total Dipole Moment    :      0.19217       0.09878      -0.03433
                        -----------------------------------------
Magnitude (a.u.)       :      0.21878
Magnitude (Debye)      :      0.55609

                             ****ORCA TERMINATED NORMALLY****
TOTAL RUN TIME: 0 days 0 hours 0 minutes 5 seconds 931 msec
