                         Program Version 3.0.3 - RELEASE   -
|  1> ! RI PBE def2-SVP def2-SVP/J NBO PAL2
|  2> % maxcore 2000
|  3> % output
|  4>     # printlevel mini
|  5>     print[ P_Basis ] 0
|  6>     print[ P_SCFInfo ] 1
|  7>     print[ P_SCFIterInfo ] 1
|  8>     print[ P_OrbEn ] 0
|  9>     print[ P_Cartesian ] 0
| 10> end
| 11> *xyz 0 1
| 12>  O        1.0555910000     0.6344710000    -0.0521350000
| 13>  C        2.3961800000     0.2585750000     0.0111500000
| 14>  C        3.2655370000     0.8548890000     1.1435200000
| 15>  O        3.7460260000    -0.4431990000     1.5046980000
| 16>  C        2.7438630000    -1.0791330000     0.7063080000
| 17>  C        3.0211640000     0.3940030000    -1.3341690000
| 18>  C        2.3984990000     0.8084530000    -2.4263570000
| 19>  H        0.6687120000     0.5416060000     0.8223040000
| 20>  H        2.6597510000     1.3068360000     1.9413470000
| 21>  H        4.0716250000     1.5377270000     0.8643990000
| 22>  H        1.9128770000    -1.4615860000     1.3153930000
| 23>  H        3.1480610000    -1.8861790000     0.0904640000
| 24>  H        4.0724410000     0.1181830000    -1.3679140000
| 25>  H        1.3517070000     1.0855300000    -2.4041170000
| 26>  H        2.9223640000     0.8806410000    -3.3719710000
| 27> *
| 28>
| 29>                          ****END OF INPUT****
 Total Charge           Charge          ....    0
 Multiplicity           Mult            ....    1
 Number of Electrons    NEL             ....   54
 Basis Dimension        Dim             ....  138

MULLIKEN ATOMIC CHARGES
-----------------------
   0 O :   -0.208458
   1 C :   -0.201937
   2 C :    0.267285
   3 O :   -0.354749
   4 C :    0.281089
   5 C :   -0.011454
   6 C :   -0.008023
   7 H :    0.157620
   8 H :   -0.007200
   9 H :    0.021473
  10 H :   -0.011233
  11 H :    0.016408
  12 H :    0.002286
  13 H :    0.034056
  14 H :    0.022839
Sum of atomic charges:   -0.0000000

LOEWDIN ATOMIC CHARGES
----------------------
   0 O :   -0.077798
   1 C :   -0.005828
   2 C :    0.076553
   3 O :   -0.176463
   4 C :    0.078288
   5 C :   -0.037669
   6 C :   -0.049252
   7 H :    0.068089
   8 H :    0.005391
   9 H :    0.014887
  10 H :    0.004775
  11 H :    0.013824
  12 H :    0.030960
  13 H :    0.027883
  14 H :    0.026361

  Mayer bond orders larger than 0.1
B(  0-O ,  1-C ) :   1.1518 B(  0-O ,  7-H ) :   0.9655 B(  1-C ,  2-C ) :   1.0116
B(  1-C ,  4-C ) :   1.0095 B(  1-C ,  5-C ) :   0.9699 B(  2-C ,  3-O ) :   1.0359
B(  2-C ,  8-H ) :   0.9101 B(  2-C ,  9-H ) :   0.9340 B(  3-O ,  4-C ) :   1.0354
B(  4-C , 10-H ) :   0.9094 B(  4-C , 11-H ) :   0.9329 B(  5-C ,  6-C ) :   2.0061
B(  5-C , 12-H ) :   0.9480 B(  6-C , 13-H ) :   0.9362 B(  6-C , 14-H ) :   0.9352

FINAL SINGLE POINT ENERGY      -345.043344503760

DIPOLE MOMENT
-------------
                                X             Y             Z
Electronic contribution:     -0.04416      -0.42543       1.96341
Nuclear contribution   :     -0.26569       0.48498      -1.83000
                        -----------------------------------------
Total Dipole Moment    :     -0.30985       0.05955       0.13341
                        -----------------------------------------
Magnitude (a.u.)       :      0.34256
Magnitude (Debye)      :      0.87073

                             ****ORCA TERMINATED NORMALLY****
TOTAL RUN TIME: 0 days 0 hours 0 minutes 6 seconds 710 msec
