                         Program Version 3.0.3 - RELEASE   -
|  1> ! RI PBE def2-SVP def2-SVP/J NBO PAL2
|  2> % maxcore 2000
|  3> % output
|  4>     # printlevel mini
|  5>     print[ P_Basis ] 0
|  6>     print[ P_SCFInfo ] 1
|  7>     print[ P_SCFIterInfo ] 1
|  8>     print[ P_OrbEn ] 0
|  9>     print[ P_Cartesian ] 0
| 10> end
| 11> *xyz 0 1
| 12>  O        0.8145740000     0.0495010000     0.1804280000
| 13>  C        2.2030000000     0.0482620000    -0.0339700000
| 14>  C        2.9887640000     1.0739170000     0.8151510000
| 15>  O        3.4436350000     0.0465270000     1.7034010000
| 16>  C        2.9868190000    -0.9794050000     0.8144850000
| 17>  C        2.4500050000     0.0484970000    -1.4629070000
| 18>  C        2.7006310000     0.0486990000    -2.6356680000
| 19>  H        0.6614320000     0.0493150000     1.1307610000
| 20>  H        2.3696000000     1.8242690000     1.3156010000
| 21>  H        3.8149890000     1.5579800000     0.2861430000
| 22>  H        2.3662130000    -1.7288990000     1.3144420000
| 23>  H        3.8121190000    -1.4647130000     0.2851750000
| 24>  H        2.9108180000     0.0488410000    -3.6792520000
| 25> *
| 26>
| 27>                          ****END OF INPUT****
 Total Charge           Charge          ....    0
 Multiplicity           Mult            ....    1
 Number of Electrons    NEL             ....   52
 Basis Dimension        Dim             ....  128

MULLIKEN ATOMIC CHARGES
-----------------------
   0 O :   -0.206297
   1 C :   -0.299095
   2 C :    0.317705
   3 O :   -0.362199
   4 C :    0.317722
   5 C :    0.506150
   6 C :   -0.483297
   7 H :    0.160799
   8 H :    0.009806
   9 H :    0.010895
  10 H :    0.009789
  11 H :    0.010891
  12 H :    0.007131
Sum of atomic charges:   -0.0000000

LOEWDIN ATOMIC CHARGES
----------------------
   0 O :   -0.077429
   1 C :   -0.010815
   2 C :    0.086523
   3 O :   -0.182522
   4 C :    0.086518
   5 C :   -0.019411
   6 C :   -0.056943
   7 H :    0.073518
   8 H :    0.013560
   9 H :    0.017671
  10 H :    0.013556
  11 H :    0.017668
  12 H :    0.038105

  Mayer bond orders larger than 0.1
B(  0-O ,  1-C ) :   1.1357 B(  0-O ,  7-H ) :   0.9708 B(  1-C ,  2-C ) :   1.0376
B(  1-C ,  4-C ) :   1.0376 B(  1-C ,  5-C ) :   0.8597 B(  2-C ,  3-O ) :   1.0382
B(  2-C ,  8-H ) :   0.9133 B(  2-C ,  9-H ) :   0.9212 B(  3-O ,  4-C ) :   1.0382
B(  4-C , 10-H ) :   0.9133 B(  4-C , 11-H ) :   0.9212 B(  5-C ,  6-C ) :   2.3224
B(  5-C , 12-H ) :  -0.1116 B(  6-C , 12-H ) :   1.1009

FINAL SINGLE POINT ENERGY      -343.792955354856

DIPOLE MOMENT
-------------
                                X             Y             Z
Electronic contribution:     -0.88218       0.00105      -0.60258
Nuclear contribution   :      0.92208      -0.00107       0.59797
                        -----------------------------------------
Total Dipole Moment    :      0.03990      -0.00001      -0.00461
                        -----------------------------------------
Magnitude (a.u.)       :      0.04016
Magnitude (Debye)      :      0.10209

                             ****ORCA TERMINATED NORMALLY****
TOTAL RUN TIME: 0 days 0 hours 0 minutes 6 seconds 73 msec
