                         Program Version 3.0.3 - RELEASE   -
|  1> ! RI PBE def2-SVP def2-SVP/J NBO PAL2
|  2> % maxcore 2000
|  3> % output
|  4>     # printlevel mini
|  5>     print[ P_Basis ] 0
|  6>     print[ P_SCFInfo ] 1
|  7>     print[ P_SCFIterInfo ] 1
|  8>     print[ P_OrbEn ] 0
|  9>     print[ P_Cartesian ] 0
| 10> end
| 11> *xyz 0 1
| 12>  O        1.0604300000     0.0717210000     0.2220780000
| 13>  C        2.4170130000     0.0148220000    -0.0605250000
| 14>  C        2.9000070000    -0.4252530000    -1.4233420000
| 15>  O        1.9884710000    -0.7785380000    -2.4091130000
| 16>  C        2.9312920000     1.0182440000    -1.0532940000
| 17>  C        4.1724970000     1.7793290000    -0.8102320000
| 18>  C        5.3968840000     1.4128660000    -1.1650580000
| 19>  H        0.7434610000    -0.8175390000     0.4020780000
| 20>  H        3.0653880000    -0.2149790000     0.7838120000
| 21>  H        3.8459510000    -0.9624420000    -1.4512480000
| 22>  H        1.6731610000    -1.6689900000    -2.2330270000
| 23>  H        2.1115530000     1.5760210000    -1.4994340000
| 24>  H        4.0384790000     2.7202320000    -0.2796910000
| 25>  H        5.5851680000     0.4916290000    -1.7062260000
| 26>  H        6.2565380000     2.0300760000    -0.9329660000
| 27> *
| 28>
| 29>                          ****END OF INPUT****
 Total Charge           Charge          ....    0
 Multiplicity           Mult            ....    1
 Number of Electrons    NEL             ....   54
 Basis Dimension        Dim             ....  138

MULLIKEN ATOMIC CHARGES
-----------------------
   0 O :   -0.220921
   1 C :    0.066631
   2 C :    0.047847
   3 O :   -0.221796
   4 C :   -0.048217
   5 C :    0.006059
   6 C :   -0.040264
   7 H :    0.154537
   8 H :    0.007107
   9 H :    0.006491
  10 H :    0.153693
  11 H :    0.045889
  12 H :    0.003821
  13 H :    0.014864
  14 H :    0.024260
Sum of atomic charges:    0.0000000

LOEWDIN ATOMIC CHARGES
----------------------
   0 O :   -0.088223
   1 C :    0.023014
   2 C :    0.017611
   3 O :   -0.087445
   4 C :   -0.056113
   5 C :   -0.021359
   6 C :   -0.067835
   7 H :    0.072970
   8 H :    0.007069
   9 H :    0.006625
  10 H :    0.071970
  11 H :    0.047583
  12 H :    0.030079
  13 H :    0.019048
  14 H :    0.025004

  Mayer bond orders larger than 0.1
B(  0-O ,  1-C ) :   1.1604 B(  0-O ,  7-H ) :   0.9798 B(  1-C ,  2-C ) :   0.8850
B(  1-C ,  4-C ) :   0.9141 B(  1-C ,  8-H ) :   0.9357 B(  2-C ,  3-O ) :   1.1580
B(  2-C ,  4-C ) :   0.9296 B(  2-C ,  9-H ) :   0.9297 B(  3-O , 10-H ) :   0.9811
B(  4-C ,  5-C ) :   1.0657 B(  4-C , 11-H ) :   0.9104 B(  5-C ,  6-C ) :   1.9913
B(  5-C , 12-H ) :   0.9550 B(  6-C , 13-H ) :   0.9366 B(  6-C , 14-H ) :   0.9429

FINAL SINGLE POINT ENERGY      -345.041684239646

DIPOLE MOMENT
-------------
                                X             Y             Z
Electronic contribution:     -3.77996      -1.06503      -0.30838
Nuclear contribution   :      3.82532       0.12528       0.71586
                        -----------------------------------------
Total Dipole Moment    :      0.04536      -0.93975       0.40748
                        -----------------------------------------
Magnitude (a.u.)       :      1.02530
Magnitude (Debye)      :      2.60610

                             ****ORCA TERMINATED NORMALLY****
TOTAL RUN TIME: 0 days 0 hours 0 minutes 6 seconds 770 msec
