                         Program Version 3.0.3 - RELEASE   -
|  1> ! RI PBE def2-SVP def2-SVP/J NBO PAL2
|  2> % maxcore 2000
|  3> % output
|  4>     # printlevel mini
|  5>     print[ P_Basis ] 0
|  6>     print[ P_SCFInfo ] 1
|  7>     print[ P_SCFIterInfo ] 1
|  8>     print[ P_OrbEn ] 0
|  9>     print[ P_Cartesian ] 0
| 10> end
| 11> *xyz 0 1
| 12>  O        0.9565910000     0.0531200000    -0.1167020000
| 13>  C        2.3433580000    -0.0289350000     0.0089780000
| 14>  C        3.0590380000    -0.7682490000    -1.0715860000
| 15>  O        2.3162320000    -1.3954570000    -2.0490970000
| 16>  C        3.1110020000     0.7539830000    -1.0269350000
| 17>  C        4.3119590000     1.4344710000    -0.6657490000
| 18>  C        5.3346480000     1.9825270000    -0.3518090000
| 19>  H        0.5664050000    -0.6585930000     0.4001670000
| 20>  H        2.7313880000    -0.0326020000     1.0230540000
| 21>  H        3.9734750000    -1.2992170000    -0.8370530000
| 22>  H        1.4034840000    -1.0978360000    -1.9435250000
| 23>  H        2.4820500000     1.2380200000    -1.7685490000
| 24>  H        6.2379590000     2.4750680000    -0.0806030000
| 25> *
| 26>
| 27>                          ****END OF INPUT****
 Total Charge           Charge          ....    0
 Multiplicity           Mult            ....    1
 Number of Electrons    NEL             ....   52
 Basis Dimension        Dim             ....  128

MULLIKEN ATOMIC CHARGES
-----------------------
   0 O :   -0.230133
   1 C :    0.078190
   2 C :    0.104212
   3 O :   -0.207432
   4 C :   -0.147727
   5 C :    0.448330
   6 C :   -0.473806
   7 H :    0.170853
   8 H :    0.029546
   9 H :    0.030286
  10 H :    0.142907
  11 H :    0.056194
  12 H :   -0.001421
Sum of atomic charges:    0.0000000

LOEWDIN ATOMIC CHARGES
----------------------
   0 O :   -0.082506
   1 C :    0.032835
   2 C :    0.042541
   3 O :   -0.076699
   4 C :   -0.077859
   5 C :   -0.019722
   6 C :   -0.091617
   7 H :    0.083669
   8 H :    0.018599
   9 H :    0.027174
  10 H :    0.058353
  11 H :    0.051458
  12 H :    0.033773

  Mayer bond orders larger than 0.1
B(  0-O ,  1-C ) :   1.1255 B(  0-O ,  7-H ) :   0.9720 B(  1-C ,  2-C ) :   0.8998
B(  1-C ,  4-C ) :   0.8919 B(  1-C ,  8-H ) :   0.9410 B(  2-C ,  3-O ) :   1.1664
B(  2-C ,  4-C ) :   0.8718 B(  2-C ,  9-H ) :   0.9432 B(  3-O , 10-H ) :   0.9507
B(  4-C ,  5-C ) :   1.0280 B(  4-C , 11-H ) :   0.8992 B(  5-C ,  6-C ) :   2.2696
B(  5-C , 12-H ) :  -0.1051 B(  6-C , 12-H ) :   1.0954

FINAL SINGLE POINT ENERGY      -343.804934213261

DIPOLE MOMENT
-------------
                                X             Y             Z
Electronic contribution:     -0.25674       0.20312      -0.60106
Nuclear contribution   :     -0.24549      -0.56861       1.29749
                        -----------------------------------------
Total Dipole Moment    :     -0.50222      -0.36549       0.69643
                        -----------------------------------------
Magnitude (a.u.)       :      0.93318
Magnitude (Debye)      :      2.37195

                             ****ORCA TERMINATED NORMALLY****
TOTAL RUN TIME: 0 days 0 hours 0 minutes 6 seconds 56 msec
