                         Program Version 3.0.3 - RELEASE   -
|  1> ! RI PBE def2-SVP def2-SVP/J NBO PAL2
|  2> % maxcore 2000
|  3> % output
|  4>     # printlevel mini
|  5>     print[ P_Basis ] 0
|  6>     print[ P_SCFInfo ] 1
|  7>     print[ P_SCFIterInfo ] 1
|  8>     print[ P_OrbEn ] 0
|  9>     print[ P_Cartesian ] 0
| 10> end
| 11> *xyz 0 1
| 12>  O        0.8159690000    -0.1302910000     0.4145980000
| 13>  C        2.1728010000     0.0124740000     0.1179970000
| 14>  C        2.9689470000     1.1349040000     0.7895800000
| 15>  O        3.9706600000     0.1967090000     1.2069110000
| 16>  C        3.1012140000    -0.9173750000     0.9135070000
| 17>  C        3.7795120000    -2.0357510000     0.2184880000
| 18>  C        3.6352850000    -3.3096530000     0.5553580000
| 19>  H        0.2921000000     0.2238670000    -0.3065180000
| 20>  H        2.3642340000    -0.0498430000    -0.9583770000
| 21>  H        2.4315230000     1.5691840000     1.6412270000
| 22>  H        3.3826850000     1.9289660000     0.1622040000
| 23>  H        2.5913460000    -1.2703160000     1.8199740000
| 24>  H        4.4085530000    -1.7553340000    -0.6238610000
| 25>  H        3.0218960000    -3.6016860000     1.4020270000
| 26>  H        4.1181760000    -4.1045630000    -0.0009050000
| 27> *
| 28>
| 29>                          ****END OF INPUT****
 Total Charge           Charge          ....    0
 Multiplicity           Mult            ....    1
 Number of Electrons    NEL             ....   54
 Basis Dimension        Dim             ....  138

MULLIKEN ATOMIC CHARGES
-----------------------
   0 O :   -0.225522
   1 C :    0.011067
   2 C :    0.244348
   3 O :   -0.348044
   4 C :    0.124868
   5 C :   -0.003859
   6 C :   -0.015404
   7 H :    0.163057
   8 H :   -0.003043
   9 H :   -0.001833
  10 H :    0.011242
  11 H :   -0.006442
  12 H :   -0.003719
  13 H :    0.026906
  14 H :    0.026378
Sum of atomic charges:   -0.0000000

LOEWDIN ATOMIC CHARGES
----------------------
   0 O :   -0.097322
   1 C :    0.032032
   2 C :    0.064326
   3 O :   -0.175378
   4 C :    0.058618
   5 C :   -0.042942
   6 C :   -0.040158
   7 H :    0.076190
   8 H :    0.010629
   9 H :    0.008817
  10 H :    0.008853
  11 H :    0.017042
  12 H :    0.026636
  13 H :    0.025644
  14 H :    0.027014

  Mayer bond orders larger than 0.1
B(  0-O ,  1-C ) :   1.1653 B(  0-O ,  7-H ) :   0.9769 B(  1-C ,  2-C ) :   1.0478
B(  1-C ,  4-C ) :   1.0232 B(  1-C ,  8-H ) :   0.9056 B(  2-C ,  3-O ) :   1.0270
B(  2-C ,  9-H ) :   0.9097 B(  2-C , 10-H ) :   0.9366 B(  3-O ,  4-C ) :   1.0200
B(  4-C ,  5-C ) :   1.0520 B(  4-C , 11-H ) :   0.8971 B(  5-C ,  6-C ) :   1.9743
B(  5-C , 12-H ) :   0.9420 B(  6-C , 13-H ) :   0.9492 B(  6-C , 14-H ) :   0.9367

FINAL SINGLE POINT ENERGY      -345.043829255155

DIPOLE MOMENT
-------------
                                X             Y             Z
Electronic contribution:     -0.23836       1.69136       0.74902
Nuclear contribution   :     -0.34967      -1.54251      -1.57023
                        -----------------------------------------
Total Dipole Moment    :     -0.58804       0.14885      -0.82120
                        -----------------------------------------
Magnitude (a.u.)       :      1.02094
Magnitude (Debye)      :      2.59502

                             ****ORCA TERMINATED NORMALLY****
TOTAL RUN TIME: 0 days 0 hours 0 minutes 6 seconds 483 msec
