                         Program Version 3.0.3 - RELEASE   -
|  1> ! RI PBE def2-SVP def2-SVP/J NBO PAL2
|  2> % maxcore 2000
|  3> % output
|  4>     # printlevel mini
|  5>     print[ P_Basis ] 0
|  6>     print[ P_SCFInfo ] 1
|  7>     print[ P_SCFIterInfo ] 1
|  8>     print[ P_OrbEn ] 0
|  9>     print[ P_Cartesian ] 0
| 10> end
| 11> *xyz 0 1
| 12>  O        1.0298590000     0.4051720000     0.1189860000
| 13>  C        2.4041200000     0.2026200000     0.0426720000
| 14>  C        3.2321260000     1.0995820000     0.9521910000
| 15>  O        3.9803790000    -0.0260590000     1.4395850000
| 16>  C        3.0304910000    -0.9465170000     0.8734640000
| 17>  C        3.6229030000    -2.0679970000     0.1783390000
| 18>  C        4.0870090000    -2.9955740000    -0.4266050000
| 19>  H        0.5962510000    -0.0943880000    -0.5773200000
| 20>  H        2.7673690000     0.1897520000    -0.9890590000
| 21>  H        2.6236310000     1.5603870000     1.7384620000
| 22>  H        3.8733900000     1.8492060000     0.4843620000
| 23>  H        2.3227510000    -1.2995910000     1.6354400000
| 24>  H        4.5091290000    -3.8187010000    -0.9534270000
| 25> *
| 26>
| 27>                          ****END OF INPUT****
 Total Charge           Charge          ....    0
 Multiplicity           Mult            ....    1
 Number of Electrons    NEL             ....   52
 Basis Dimension        Dim             ....  128

MULLIKEN ATOMIC CHARGES
-----------------------
   0 O :   -0.223470
   1 C :   -0.000910
   2 C :    0.247327
   3 O :   -0.336739
   4 C :    0.133109
   5 C :    0.414822
   6 C :   -0.471480
   7 H :    0.166223
   8 H :    0.009649
   9 H :    0.013336
  10 H :    0.020732
  11 H :    0.019878
  12 H :    0.007522
Sum of atomic charges:   -0.0000000

LOEWDIN ATOMIC CHARGES
----------------------
   0 O :   -0.091609
   1 C :    0.040080
   2 C :    0.080885
   3 O :   -0.165524
   4 C :    0.038630
   5 C :   -0.033556
   6 C :   -0.062137
   7 H :    0.079644
   8 H :    0.015028
   9 H :    0.015451
  10 H :    0.015906
  11 H :    0.030027
  12 H :    0.037176

  Mayer bond orders larger than 0.1
B(  0-O ,  1-C ) :   1.1618 B(  0-O ,  7-H ) :   0.9765 B(  1-C ,  2-C ) :   1.0694
B(  1-C ,  4-C ) :   1.0074 B(  1-C ,  8-H ) :   0.9128 B(  2-C ,  3-O ) :   1.0178
B(  2-C ,  9-H ) :   0.9164 B(  2-C , 10-H ) :   0.9395 B(  3-O ,  4-C ) :   1.0814
B(  4-C ,  5-C ) :   0.9585 B(  4-C , 11-H ) :   0.8660 B(  5-C ,  6-C ) :   2.3261
B(  5-C , 12-H ) :  -0.1017 B(  6-C , 12-H ) :   1.0914

FINAL SINGLE POINT ENERGY      -343.797966566743

DIPOLE MOMENT
-------------
                                X             Y             Z
Electronic contribution:      0.67685      -1.60989       0.53994
Nuclear contribution   :     -1.20562       1.49765      -1.35979
                        -----------------------------------------
Total Dipole Moment    :     -0.52878      -0.11224      -0.81985
                        -----------------------------------------
Magnitude (a.u.)       :      0.98202
Magnitude (Debye)      :      2.49609

                             ****ORCA TERMINATED NORMALLY****
TOTAL RUN TIME: 0 days 0 hours 0 minutes 6 seconds 53 msec
