                         Program Version 3.0.3 - RELEASE   -
|  1> ! RI PBE def2-SVP def2-SVP/J NBO PAL2
|  2> % maxcore 2000
|  3> % output
|  4>     # printlevel mini
|  5>     print[ P_Basis ] 0
|  6>     print[ P_SCFInfo ] 1
|  7>     print[ P_SCFIterInfo ] 1
|  8>     print[ P_OrbEn ] 0
|  9>     print[ P_Cartesian ] 0
| 10> end
| 11> *xyz 0 1
| 12>  O        1.1094140000     0.1155080000     0.1898860000
| 13>  C        2.4918880000    -0.1288850000     0.0095450000
| 14>  C        2.8240470000    -1.5833910000    -0.3425370000
| 15>  O        2.8810200000    -1.6742910000    -1.7552230000
| 16>  C        3.2555470000    -0.4193170000    -2.2512220000
| 17>  C        2.1478110000     0.5543100000    -2.4458250000
| 18>  C        3.0016960000     0.6177650000    -1.2050970000
| 19>  H        0.8113660000    -0.3819100000     0.9555420000
| 20>  H        3.0465830000     0.1844070000     0.9030530000
| 21>  H        2.0682960000    -2.2861630000     0.0184510000
| 22>  H        3.7970470000    -1.8585480000     0.0898760000
| 23>  H        4.1350780000    -0.4232090000    -2.8858000000
| 24>  H        1.1371070000     0.1834740000    -2.3374890000
| 25>  H        2.2829530000     1.3475780000    -3.1713090000
| 26>  H        3.6611370000     1.4631630000    -1.0618610000
| 27> *
| 28>
| 29>                          ****END OF INPUT****
 Total Charge           Charge          ....    0
 Multiplicity           Mult            ....    1
 Number of Electrons    NEL             ....   54
 Basis Dimension        Dim             ....  138

MULLIKEN ATOMIC CHARGES
-----------------------
   0 O :   -0.246564
   1 C :    0.048239
   2 C :    0.298728
   3 O :   -0.326314
   4 C :    0.078099
   5 C :    0.038136
   6 C :   -0.128310
   7 H :    0.153980
   8 H :   -0.008347
   9 H :   -0.009519
  10 H :   -0.008067
  11 H :    0.016394
  12 H :    0.043078
  13 H :    0.027577
  14 H :    0.022890
Sum of atomic charges:   -0.0000000

LOEWDIN ATOMIC CHARGES
----------------------
   0 O :   -0.109201
   1 C :    0.037362
   2 C :    0.058992
   3 O :   -0.140926
   4 C :    0.048058
   5 C :   -0.040086
   6 C :   -0.058764
   7 H :    0.067012
   8 H :    0.011181
   9 H :    0.015580
  10 H :    0.006949
  11 H :    0.013659
  12 H :    0.032977
  13 H :    0.030739
  14 H :    0.026466

  Mayer bond orders larger than 0.1
B(  0-O ,  1-C ) :   1.0804 B(  0-O ,  7-H ) :   0.9793 B(  1-C ,  2-C ) :   1.0437
B(  1-C ,  6-C ) :   1.0707 B(  1-C ,  8-H ) :   0.9135 B(  2-C ,  3-O ) :   1.0054
B(  2-C ,  9-H ) :   0.9189 B(  2-C , 10-H ) :   0.9149 B(  3-O ,  4-C ) :   1.0480
B(  4-C ,  5-C ) :   1.0058 B(  4-C ,  6-C ) :   0.9523 B(  4-C , 11-H ) :   0.9449
B(  5-C ,  6-C ) :   0.9581 B(  5-C , 12-H ) :   0.9205 B(  5-C , 13-H ) :   0.9321
B(  6-C , 14-H ) :   0.9545

FINAL SINGLE POINT ENERGY      -345.062699578667

DIPOLE MOMENT
-------------
                                X             Y             Z
Electronic contribution:     -0.62004      -1.06507      -0.34478
Nuclear contribution   :      0.90716       1.19394       1.03975
                        -----------------------------------------
Total Dipole Moment    :      0.28713       0.12888       0.69497
                        -----------------------------------------
Magnitude (a.u.)       :      0.76291
Magnitude (Debye)      :      1.93918

                             ****ORCA TERMINATED NORMALLY****
TOTAL RUN TIME: 0 days 0 hours 0 minutes 6 seconds 959 msec
