                         Program Version 3.0.3 - RELEASE   -
|  1> ! RI PBE def2-SVP def2-SVP/J NBO PAL2
|  2> % maxcore 2000
|  3> % output
|  4>     # printlevel mini
|  5>     print[ P_Basis ] 0
|  6>     print[ P_SCFInfo ] 1
|  7>     print[ P_SCFIterInfo ] 1
|  8>     print[ P_OrbEn ] 0
|  9>     print[ P_Cartesian ] 0
| 10> end
| 11> *xyz 0 1
| 12>  O        1.4913860000     0.2317920000     0.9035290000
| 13>  C        2.5257680000     0.0649480000     0.3163020000
| 14>  C        3.0703290000    -1.2833580000    -0.1428540000
| 15>  O        4.4237480000    -1.0958520000    -0.4974870000
| 16>  C        4.7005670000     0.2755340000    -0.5658080000
| 17>  C        3.9200480000     1.0774430000    -1.5301030000
| 18>  C        3.5406490000     1.0784300000    -0.0520490000
| 19>  H        2.4777730000    -1.6559340000    -0.9880830000
| 20>  H        2.9988800000    -2.0110930000     0.6691030000
| 21>  H        5.7307090000     0.5101910000    -0.3324090000
| 22>  H        3.2714160000     0.5640590000    -2.2300540000
| 23>  H        4.3512200000     2.0003770000    -1.8962000000
| 24>  H        3.6153860000     1.9883620000     0.5263120000
| 25> *
| 26>
| 27>                          ****END OF INPUT****
 Total Charge           Charge          ....    0
 Multiplicity           Mult            ....    1
 Number of Electrons    NEL             ....   52
 Basis Dimension        Dim             ....  128

MULLIKEN ATOMIC CHARGES
-----------------------
   0 O :   -0.141293
   1 C :    0.019664
   2 C :    0.194844
   3 O :   -0.310267
   4 C :    0.129013
   5 C :    0.010264
   6 C :   -0.166797
   7 H :    0.047899
   8 H :    0.050956
   9 H :    0.032801
  10 H :    0.049824
  11 H :    0.048241
  12 H :    0.034851
Sum of atomic charges:    0.0000000

LOEWDIN ATOMIC CHARGES
----------------------
   0 O :   -0.114347
   1 C :    0.042405
   2 C :    0.039273
   3 O :   -0.131496
   4 C :    0.062570
   5 C :   -0.032986
   6 C :   -0.077482
   7 H :    0.033452
   8 H :    0.040872
   9 H :    0.025486
  10 H :    0.033799
  11 H :    0.039884
  12 H :    0.038569

  Mayer bond orders larger than 0.1
B(  0-O ,  1-C ) :   2.1992 B(  1-C ,  2-C ) :   0.9580 B(  1-C ,  6-C ) :   1.0064
B(  2-C ,  3-O ) :   1.0072 B(  2-C ,  7-H ) :   0.9115 B(  2-C ,  8-H ) :   0.9212
B(  3-O ,  4-C ) :   1.0548 B(  4-C ,  5-C ) :   0.9889 B(  4-C ,  6-C ) :   0.8665
B(  4-C ,  9-H ) :   0.9503 B(  5-C ,  6-C ) :   0.9199 B(  5-C , 10-H ) :   0.9318
B(  5-C , 11-H ) :   0.9365 B(  6-C , 12-H ) :   0.9615

FINAL SINGLE POINT ENERGY      -343.877982961629

DIPOLE MOMENT
-------------
                                X             Y             Z
Electronic contribution:     -1.46485      -0.87961       2.27992
Nuclear contribution   :      2.07881       1.17273      -2.74205
                        -----------------------------------------
Total Dipole Moment    :      0.61396       0.29312      -0.46214
                        -----------------------------------------
Magnitude (a.u.)       :      0.82245
Magnitude (Debye)      :      2.09051

                             ****ORCA TERMINATED NORMALLY****
TOTAL RUN TIME: 0 days 0 hours 0 minutes 6 seconds 273 msec
