                         Program Version 3.0.3 - RELEASE   -
|  1> ! RI PBE def2-SVP def2-SVP/J NBO PAL2
|  2> % maxcore 2000
|  3> % output
|  4>     # printlevel mini
|  5>     print[ P_Basis ] 0
|  6>     print[ P_SCFInfo ] 1
|  7>     print[ P_SCFIterInfo ] 1
|  8>     print[ P_OrbEn ] 0
|  9>     print[ P_Cartesian ] 0
| 10> end
| 11> *xyz 0 1
| 12>  O        0.9315390000    -0.0714780000    -0.0571330000
| 13>  C        2.3353170000    -0.0358410000    -0.0308570000
| 14>  C        2.9539940000     1.0372520000     0.8655170000
| 15>  O        4.2496900000     0.5549150000     1.1403550000
| 16>  C        4.1462990000    -0.8488060000     1.3320170000
| 17>  C        2.9140480000    -1.2810230000     0.5845160000
| 18>  C        2.3758900000    -2.4874370000     0.5314290000
| 19>  H        0.6203550000     0.5854810000    -0.6838650000
| 20>  H        2.7409260000     0.0783150000    -1.0473820000
| 21>  H        2.3462340000     1.1334460000     1.7778550000
| 22>  H        3.0501860000     2.0167050000     0.3934300000
| 23>  H        4.0543500000    -1.0845790000     2.4015010000
| 24>  H        5.0642170000    -1.3098870000     0.9586510000
| 25>  H        2.8257320000    -3.3360130000     1.0353550000
| 26>  H        1.4516130000    -2.6547400000    -0.0085890000
| 27> *
| 28>
| 29>                          ****END OF INPUT****
 Total Charge           Charge          ....    0
 Multiplicity           Mult            ....    1
 Number of Electrons    NEL             ....   54
 Basis Dimension        Dim             ....  138

MULLIKEN ATOMIC CHARGES
-----------------------
   0 O :   -0.237914
   1 C :    0.098565
   2 C :    0.217575
   3 O :   -0.359928
   4 C :    0.312771
   5 C :   -0.262823
   6 C :   -0.016942
   7 H :    0.159119
   8 H :    0.020022
   9 H :    0.002123
  10 H :    0.003548
  11 H :    0.013654
  12 H :    0.022713
  13 H :    0.007915
  14 H :    0.019600
Sum of atomic charges:   -0.0000000

LOEWDIN ATOMIC CHARGES
----------------------
   0 O :   -0.096111
   1 C :    0.030825
   2 C :    0.048625
   3 O :   -0.154238
   4 C :    0.073238
   5 C :   -0.062334
   6 C :   -0.057184
   7 H :    0.074345
   8 H :    0.021580
   9 H :    0.005581
  10 H :    0.016176
  11 H :    0.020389
  12 H :    0.027915
  13 H :    0.024012
  14 H :    0.027183

  Mayer bond orders larger than 0.1
B(  0-O ,  1-C ) :   1.1347 B(  0-O ,  7-H ) :   0.9778 B(  1-C ,  2-C ) :   1.0251
B(  1-C ,  5-C ) :   1.0013 B(  1-C ,  8-H ) :   0.8948 B(  2-C ,  3-O ) :   1.0090
B(  2-C ,  9-H ) :   0.9149 B(  2-C , 10-H ) :   0.9329 B(  3-O ,  4-C ) :   1.0134
B(  4-C ,  5-C ) :   1.0202 B(  4-C , 11-H ) :   0.9152 B(  4-C , 12-H ) :   0.9275
B(  5-C ,  6-C ) :   2.0289 B(  6-C , 13-H ) :   0.9352 B(  6-C , 14-H ) :   0.9240

FINAL SINGLE POINT ENERGY      -345.069184796983

DIPOLE MOMENT
-------------
                                X             Y             Z
Electronic contribution:      0.14754       1.40866      -0.35324
Nuclear contribution   :     -0.37028      -1.24820      -0.09335
                        -----------------------------------------
Total Dipole Moment    :     -0.22274       0.16046      -0.44659
                        -----------------------------------------
Magnitude (a.u.)       :      0.52422
Magnitude (Debye)      :      1.33246

                             ****ORCA TERMINATED NORMALLY****
TOTAL RUN TIME: 0 days 0 hours 0 minutes 6 seconds 862 msec
