                         Program Version 3.0.3 - RELEASE   -
|  1> ! RI PBE def2-SVP def2-SVP/J NBO PAL2
|  2> % maxcore 2000
|  3> % output
|  4>     # printlevel mini
|  5>     print[ P_Basis ] 0
|  6>     print[ P_SCFInfo ] 1
|  7>     print[ P_SCFIterInfo ] 1
|  8>     print[ P_OrbEn ] 0
|  9>     print[ P_Cartesian ] 0
| 10> end
| 11> *xyz 0 1
| 12>  O        0.9824930000     0.0022280000    -0.0402650000
| 13>  C        2.1825020000    -0.0955090000    -0.0278890000
| 14>  C        3.0016620000     1.1811060000    -0.0164070000
| 15>  O        4.4141550000     1.0953440000     0.0003160000
| 16>  C        4.9891890000    -0.1237620000     0.0054880000
| 17>  C        4.3694040000    -1.2976800000    -0.0032340000
| 18>  C        2.8849680000    -1.4248870000    -0.0208740000
| 19>  H        2.6843200000     1.7533480000     0.8611780000
| 20>  H        2.7052690000     1.7555250000    -0.8998740000
| 21>  H        6.0687440000    -0.0342640000     0.0184190000
| 22>  H        4.9784440000    -2.1925180000     0.0029930000
| 23>  H        2.5058310000    -1.9824940000     0.8445450000
| 24>  H        2.5263390000    -1.9806270000    -0.8961780000
| 25> *
| 26>
| 27>                          ****END OF INPUT****
 Total Charge           Charge          ....    0
 Multiplicity           Mult            ....    1
 Number of Electrons    NEL             ....   52
 Basis Dimension        Dim             ....  128

MULLIKEN ATOMIC CHARGES
-----------------------
   0 O :   -0.163765
   1 C :   -0.143653
   2 C :    0.217980
   3 O :   -0.262647
   4 C :    0.108670
   5 C :   -0.157153
   6 C :    0.151345
   7 H :    0.058333
   8 H :    0.058250
   9 H :    0.018548
  10 H :    0.001641
  11 H :    0.056284
  12 H :    0.056168
Sum of atomic charges:   -0.0000000

LOEWDIN ATOMIC CHARGES
----------------------
   0 O :   -0.112894
   1 C :    0.051963
   2 C :    0.039525
   3 O :   -0.074813
   4 C :    0.024998
   5 C :   -0.130371
   6 C :   -0.066667
   7 H :    0.047729
   8 H :    0.047718
   9 H :    0.027800
  10 H :    0.032002
  11 H :    0.056511
  12 H :    0.056501

  Mayer bond orders larger than 0.1
B(  0-O ,  1-C ) :   2.1518 B(  1-C ,  2-C ) :   0.9758 B(  1-C ,  6-C ) :   0.9784
B(  2-C ,  3-O ) :   0.9696 B(  2-C ,  7-H ) :   0.9216 B(  2-C ,  8-H ) :   0.9214
B(  3-O ,  4-C ) :   1.1383 B(  3-O ,  5-C ) :   0.1184 B(  4-C ,  5-C ) :   1.8026
B(  4-C ,  9-H ) :   0.9690 B(  5-C ,  6-C ) :   1.0047 B(  5-C , 10-H ) :   0.9453
B(  6-C , 11-H ) :   0.8969 B(  6-C , 12-H ) :   0.8967

FINAL SINGLE POINT ENERGY      -343.892324606508

DIPOLE MOMENT
-------------
                                X             Y             Z
Electronic contribution:     -1.38596       1.93884      -0.01358
Nuclear contribution   :      1.91870      -2.13620       0.01922
                        -----------------------------------------
Total Dipole Moment    :      0.53274      -0.19736       0.00564
                        -----------------------------------------
Magnitude (a.u.)       :      0.56815
Magnitude (Debye)      :      1.44413

                             ****ORCA TERMINATED NORMALLY****
TOTAL RUN TIME: 0 days 0 hours 0 minutes 6 seconds 339 msec
