                         Program Version 3.0.3 - RELEASE   -
|  1> ! RI PBE def2-SVP def2-SVP/J NBO PAL2
|  2> % maxcore 2000
|  3> % output
|  4>     # printlevel mini
|  5>     print[ P_Basis ] 0
|  6>     print[ P_SCFInfo ] 1
|  7>     print[ P_SCFIterInfo ] 1
|  8>     print[ P_OrbEn ] 0
|  9>     print[ P_Cartesian ] 0
| 10> end
| 11> *xyz 0 1
| 12>  O        0.9710330000     0.0231460000     0.0414530000
| 13>  C        2.1804900000     0.0168970000     0.0647860000
| 14>  C        2.9788030000     1.3035600000    -0.0096910000
| 15>  O        4.2537830000     1.1974960000     0.5738960000
| 16>  C        5.0264700000     0.1633630000     0.0303260000
| 17>  C        4.3077420000    -1.1409760000    -0.0143970000
| 18>  C        2.9784890000    -1.2145660000     0.0681870000
| 19>  H        2.4391260000     2.0886290000     0.5195490000
| 20>  H        3.0473440000     1.5937750000    -1.0722710000
| 21>  H        5.9185530000     0.0797060000     0.6568360000
| 22>  H        5.3753480000     0.4213780000    -0.9868810000
| 23>  H        4.9127500000    -2.0372750000    -0.1225200000
| 24>  H        2.4402690000    -2.1557340000     0.0631270000
| 25> *
| 26>
| 27>                          ****END OF INPUT****
 Total Charge           Charge          ....    0
 Multiplicity           Mult            ....    1
 Number of Electrons    NEL             ....   52
 Basis Dimension        Dim             ....  128

MULLIKEN ATOMIC CHARGES
-----------------------
   0 O :   -0.160562
   1 C :   -0.053031
   2 C :    0.230454
   3 O :   -0.331740
   4 C :    0.257079
   5 C :   -0.101488
   6 C :    0.030018
   7 H :    0.035023
   8 H :    0.016538
   9 H :    0.039177
  10 H :    0.016407
  11 H :    0.020474
  12 H :    0.001650
Sum of atomic charges:   -0.0000000

LOEWDIN ATOMIC CHARGES
----------------------
   0 O :   -0.118552
   1 C :    0.025567
   2 C :    0.037900
   3 O :   -0.136035
   4 C :    0.057115
   5 C :   -0.001693
   6 C :   -0.062498
   7 H :    0.038450
   8 H :    0.023768
   9 H :    0.038904
  10 H :    0.025043
  11 H :    0.035102
  12 H :    0.036927

  Mayer bond orders larger than 0.1
B(  0-O ,  1-C ) :   2.1155 B(  1-C ,  2-C ) :   0.9792 B(  1-C ,  6-C ) :   1.0337
B(  2-C ,  3-O ) :   1.0054 B(  2-C ,  7-H ) :   0.9204 B(  2-C ,  8-H ) :   0.8949
B(  3-O ,  4-C ) :   1.0457 B(  4-C ,  5-C ) :   1.0353 B(  4-C ,  9-H ) :   0.9253
B(  4-C , 10-H ) :   0.8953 B(  5-C ,  6-C ) :   1.7595 B(  5-C , 11-H ) :   0.9435
B(  6-C , 12-H ) :   0.9743

FINAL SINGLE POINT ENERGY      -343.889767341765

DIPOLE MOMENT
-------------
                                X             Y             Z
Electronic contribution:     -3.23029       0.15504       1.13324
Nuclear contribution   :      4.38887      -0.51285      -1.48435
                        -----------------------------------------
Total Dipole Moment    :      1.15858      -0.35781      -0.35111
                        -----------------------------------------
Magnitude (a.u.)       :      1.26238
Magnitude (Debye)      :      3.20872

                             ****ORCA TERMINATED NORMALLY****
TOTAL RUN TIME: 0 days 0 hours 0 minutes 6 seconds 395 msec
