                         Program Version 3.0.3 - RELEASE   -
|  1> ! RI PBE def2-SVP def2-SVP/J NBO PAL2
|  2> % maxcore 2000
|  3> % output
|  4>     # printlevel mini
|  5>     print[ P_Basis ] 0
|  6>     print[ P_SCFInfo ] 1
|  7>     print[ P_SCFIterInfo ] 1
|  8>     print[ P_OrbEn ] 0
|  9>     print[ P_Cartesian ] 0
| 10> end
| 11> *xyz 0 1
| 12>  O        1.1015280000     0.0691040000     0.7894860000
| 13>  C        2.3604380000     0.0221050000     0.1507830000
| 14>  C        2.5256760000     1.2002840000    -0.7981580000
| 15>  O        3.7865750000     1.1925400000    -1.4454950000
| 16>  C        4.1466560000    -0.0173850000    -1.9363070000
| 17>  C        3.5606980000    -1.1727320000    -1.6358190000
| 18>  C        2.4517390000    -1.2689510000    -0.6347480000
| 19>  H        1.0962770000     0.8006890000     1.4121150000
| 20>  H        3.1751190000     0.0535520000     0.8879660000
| 21>  H        2.4646280000     2.1509600000    -0.2635420000
| 22>  H        1.7256790000     1.1665630000    -1.5488000000
| 23>  H        4.9884700000     0.0645640000    -2.6136940000
| 24>  H        3.9317360000    -2.0718560000    -2.1113690000
| 25>  H        2.6171030000    -2.1079870000     0.0474270000
| 26>  H        1.4848890000    -1.4508400000    -1.1191560000
| 27> *
| 28>
| 29>                          ****END OF INPUT****
 Total Charge           Charge          ....    0
 Multiplicity           Mult            ....    1
 Number of Electrons    NEL             ....   54
 Basis Dimension        Dim             ....  138

MULLIKEN ATOMIC CHARGES
-----------------------
   0 O :   -0.251481
   1 C :   -0.021912
   2 C :    0.199391
   3 O :   -0.270228
   4 C :    0.118212
   5 C :   -0.155388
   6 C :    0.142000
   7 H :    0.154223
   8 H :    0.013853
   9 H :    0.005031
  10 H :    0.016541
  11 H :    0.005341
  12 H :   -0.002609
  13 H :    0.021006
  14 H :    0.026019
Sum of atomic charges:    0.0000000

LOEWDIN ATOMIC CHARGES
----------------------
   0 O :   -0.104718
   1 C :    0.028674
   2 C :    0.052882
   3 O :   -0.080280
   4 C :    0.020992
   5 C :   -0.117407
   6 C :   -0.041506
   7 H :    0.070736
   8 H :    0.012149
   9 H :    0.018242
  10 H :    0.017777
  11 H :    0.022722
  12 H :    0.029148
  13 H :    0.035679
  14 H :    0.034908

  Mayer bond orders larger than 0.1
B(  0-O ,  1-C ) :   1.0847 B(  0-O ,  7-H ) :   0.9792 B(  1-C ,  2-C ) :   1.0276
B(  1-C ,  6-C ) :   1.0526 B(  1-C ,  8-H ) :   0.9173 B(  2-C ,  3-O ) :   0.9798
B(  2-C ,  9-H ) :   0.9393 B(  2-C , 10-H ) :   0.9290 B(  3-O ,  4-C ) :   1.1299
B(  3-O ,  5-C ) :   0.1003 B(  4-C ,  5-C ) :   1.7950 B(  4-C , 11-H ) :   0.9719
B(  5-C ,  6-C ) :   1.0236 B(  5-C , 12-H ) :   0.9532 B(  6-C , 13-H ) :   0.9165
B(  6-C , 14-H ) :   0.9066

FINAL SINGLE POINT ENERGY      -345.087570982863

DIPOLE MOMENT
-------------
                                X             Y             Z
Electronic contribution:      0.87709       1.78556      -0.23538
Nuclear contribution   :     -0.88812      -1.58495       0.59024
                        -----------------------------------------
Total Dipole Moment    :     -0.01104       0.20060       0.35486
                        -----------------------------------------
Magnitude (a.u.)       :      0.40779
Magnitude (Debye)      :      1.03652

                             ****ORCA TERMINATED NORMALLY****
TOTAL RUN TIME: 0 days 0 hours 0 minutes 6 seconds 687 msec
