                         Program Version 3.0.3 - RELEASE   -
|  1> ! RI PBE def2-SVP def2-SVP/J NBO PAL2
|  2> % maxcore 2000
|  3> % output
|  4>     # printlevel mini
|  5>     print[ P_Basis ] 0
|  6>     print[ P_SCFInfo ] 1
|  7>     print[ P_SCFIterInfo ] 1
|  8>     print[ P_OrbEn ] 0
|  9>     print[ P_Cartesian ] 0
| 10> end
| 11> *xyz 0 1
| 12>  O        1.1056630000     0.0430240000    -0.1455430000
| 13>  C        2.4981840000     0.0396040000     0.0476480000
| 14>  C        3.0043810000     1.1320420000     0.9879790000
| 15>  O        4.1975000000     0.6149920000     1.5549280000
| 16>  C        4.1886000000    -0.7505780000     1.4861310000
| 17>  C        5.1833890000    -1.4823260000     1.9701920000
| 18>  C        2.9364680000    -1.2055130000     0.7984420000
| 19>  H        0.8747160000     0.7581720000    -0.7431270000
| 20>  H        3.0268000000     0.1031550000    -0.9125780000
| 21>  H        2.2538790000     1.3140250000     1.7674840000
| 22>  H        3.2452380000     2.0755520000     0.4940510000
| 23>  H        6.0300250000    -1.0207950000     2.4605700000
| 24>  H        5.1542220000    -2.5588760000     1.8810670000
| 25>  H        2.1599160000    -1.4481590000     1.5324920000
| 26>  H        3.0918190000    -2.0769090000     0.1643660000
| 27> *
| 28>
| 29>                          ****END OF INPUT****
 Total Charge           Charge          ....    0
 Multiplicity           Mult            ....    1
 Number of Electrons    NEL             ....   54
 Basis Dimension        Dim             ....  138

MULLIKEN ATOMIC CHARGES
-----------------------
   0 O :   -0.240454
   1 C :   -0.038490
   2 C :    0.237440
   3 O :   -0.270900
   4 C :    0.011230
   5 C :   -0.099263
   6 C :    0.107916
   7 H :    0.160004
   8 H :    0.012287
   9 H :    0.011955
  10 H :    0.013664
  11 H :    0.013918
  12 H :    0.007385
  13 H :    0.040778
  14 H :    0.032530
Sum of atomic charges:   -0.0000000

LOEWDIN ATOMIC CHARGES
----------------------
   0 O :   -0.102353
   1 C :    0.030671
   2 C :    0.055173
   3 O :   -0.079963
   4 C :    0.028889
   5 C :   -0.146790
   6 C :   -0.045902
   7 H :    0.074694
   8 H :    0.013538
   9 H :    0.013576
  10 H :    0.018094
  11 H :    0.027672
  12 H :    0.027572
  13 H :    0.045537
  14 H :    0.039594

  Mayer bond orders larger than 0.1
B(  0-O ,  1-C ) :   1.1219 B(  0-O ,  7-H ) :   0.9785 B(  1-C ,  2-C ) :   1.0295
B(  1-C ,  6-C ) :   1.0388 B(  1-C ,  8-H ) :   0.9193 B(  2-C ,  3-O ) :   0.9823
B(  2-C ,  9-H ) :   0.9242 B(  2-C , 10-H ) :   0.9402 B(  3-O ,  4-C ) :   1.1129
B(  4-C ,  5-C ) :   1.9472 B(  4-C ,  6-C ) :   1.0097 B(  5-C , 11-H ) :   0.9237
B(  5-C , 12-H ) :   0.9282 B(  6-C , 13-H ) :   0.8967 B(  6-C , 14-H ) :   0.9225

FINAL SINGLE POINT ENERGY      -345.084623865204

DIPOLE MOMENT
-------------
                                X             Y             Z
Electronic contribution:     -0.37893       1.59426       0.01708
Nuclear contribution   :     -0.12858      -1.19440      -0.72909
                        -----------------------------------------
Total Dipole Moment    :     -0.50751       0.39987      -0.71201
                        -----------------------------------------
Magnitude (a.u.)       :      0.96147
Magnitude (Debye)      :      2.44385

                             ****ORCA TERMINATED NORMALLY****
TOTAL RUN TIME: 0 days 0 hours 0 minutes 6 seconds 826 msec
