                         Program Version 3.0.3 - RELEASE   -
|  1> ! RI PBE def2-SVP def2-SVP/J NBO PAL2
|  2> % maxcore 2000
|  3> % output
|  4>     # printlevel mini
|  5>     print[ P_Basis ] 0
|  6>     print[ P_SCFInfo ] 1
|  7>     print[ P_SCFIterInfo ] 1
|  8>     print[ P_OrbEn ] 0
|  9>     print[ P_Cartesian ] 0
| 10> end
| 11> *xyz 0 1
| 12>  O        0.9381600000    -0.0278370000     0.5232990000
| 13>  C        2.3106210000     0.0283110000     0.1766440000
| 14>  C        2.6215530000     1.2492590000    -0.6798300000
| 15>  O        3.9271430000     1.1756180000    -1.1972640000
| 16>  C        4.0884090000     0.1140150000    -2.1068630000
| 17>  C        3.4444350000    -1.1555050000    -1.6572630000
| 18>  C        2.6403610000    -1.2023710000    -0.6038140000
| 19>  H        0.7579540000     0.6640140000     1.1648010000
| 20>  H        2.9281590000     0.0590360000     1.0874160000
| 21>  H        2.5692730000     2.1709900000    -0.0943050000
| 22>  H        1.8725560000     1.3050010000    -1.4834600000
| 23>  H        5.1668810000    -0.0267710000    -2.2268450000
| 24>  H        3.6906890000     0.3965430000    -3.0969090000
| 25>  H        3.6558130000    -2.0470860000    -2.2399920000
| 26>  H        2.1764930000    -2.1280960000    -0.2792140000
| 27> *
| 28>
| 29>                          ****END OF INPUT****
 Total Charge           Charge          ....    0
 Multiplicity           Mult            ....    1
 Number of Electrons    NEL             ....   54
 Basis Dimension        Dim             ....  138

MULLIKEN ATOMIC CHARGES
-----------------------
   0 O :   -0.262388
   1 C :    0.111007
   2 C :    0.185358
   3 O :   -0.339251
   4 C :    0.257157
   5 C :   -0.126469
   6 C :   -0.031587
   7 H :    0.152830
   8 H :    0.012002
   9 H :    0.000383
  10 H :   -0.002988
  11 H :    0.028454
  12 H :    0.011645
  13 H :    0.004275
  14 H :   -0.000428
Sum of atomic charges:   -0.0000000

LOEWDIN ATOMIC CHARGES
----------------------
   0 O :   -0.110380
   1 C :    0.024934
   2 C :    0.045211
   3 O :   -0.141874
   4 C :    0.058131
   5 C :   -0.056186
   6 C :   -0.041368
   7 H :    0.070140
   8 H :    0.015824
   9 H :    0.016689
  10 H :    0.007330
  11 H :    0.032402
  12 H :    0.019177
  13 H :    0.029970
  14 H :    0.029999

  Mayer bond orders larger than 0.1
B(  0-O ,  1-C ) :   1.0702 B(  0-O ,  7-H ) :   0.9802 B(  1-C ,  2-C ) :   1.0530
B(  1-C ,  6-C ) :   1.0006 B(  1-C ,  8-H ) :   0.8848 B(  2-C ,  3-O ) :   1.0119
B(  2-C ,  9-H ) :   0.9325 B(  2-C , 10-H ) :   0.9112 B(  3-O ,  4-C ) :   1.0338
B(  4-C ,  5-C ) :   1.0113 B(  4-C , 11-H ) :   0.9267 B(  4-C , 12-H ) :   0.9127
B(  5-C ,  6-C ) :   1.9126 B(  5-C , 13-H ) :   0.9523 B(  6-C , 14-H ) :   0.9670

FINAL SINGLE POINT ENERGY      -345.075233181793

DIPOLE MOMENT
-------------
                                X             Y             Z
Electronic contribution:     -0.21299       0.23476       1.10646
Nuclear contribution   :      0.23485      -0.15215      -0.97658
                        -----------------------------------------
Total Dipole Moment    :      0.02186       0.08261       0.12988
                        -----------------------------------------
Magnitude (a.u.)       :      0.15547
Magnitude (Debye)      :      0.39517

                             ****ORCA TERMINATED NORMALLY****
TOTAL RUN TIME: 0 days 0 hours 0 minutes 6 seconds 877 msec
