                         Program Version 3.0.3 - RELEASE   -
|  1> ! RI PBE def2-SVP def2-SVP/J NBO PAL2
|  2> % maxcore 2000
|  3> % output
|  4>     # printlevel mini
|  5>     print[ P_Basis ] 0
|  6>     print[ P_SCFInfo ] 1
|  7>     print[ P_SCFIterInfo ] 1
|  8>     print[ P_OrbEn ] 0
|  9>     print[ P_Cartesian ] 0
| 10> end
| 11> *xyz 0 1
| 12>  O        1.0959330000    -0.1589250000     0.1206660000
| 13>  C        2.2785880000    -0.0355160000     0.0879020000
| 14>  O        3.1666420000    -1.0727660000     0.1298790000
| 15>  C        4.4368670000    -0.3729650000     0.0615490000
| 16>  C        4.1906580000     0.6454640000    -1.0570640000
| 17>  C        3.1774610000     1.1786700000    -0.0024840000
| 18>  C        4.2361130000     0.7698210000     1.0629510000
| 19>  H        5.2494760000    -1.0932470000     0.0863980000
| 20>  H        3.8043420000     0.2687500000    -2.0048690000
| 21>  H        5.0258410000     1.3289070000    -1.2100270000
| 22>  H        2.6893160000     2.1468380000    -0.0487940000
| 23>  H        3.8915750000     0.5074270000     2.0639160000
| 24>  H        5.0753770000     1.4643310000     1.0991880000
| 25> *
| 26>
| 27>                          ****END OF INPUT****
 Total Charge           Charge          ....    0
 Multiplicity           Mult            ....    1
 Number of Electrons    NEL             ....   52
 Basis Dimension        Dim             ....  128

MULLIKEN ATOMIC CHARGES
-----------------------
   0 O :   -0.123414
   1 C :    0.181842
   2 O :   -0.232776
   3 C :    0.037809
   4 C :    0.083960
   5 C :   -0.211840
   6 C :    0.075524
   7 H :    0.019375
   8 H :    0.040635
   9 H :    0.035555
  10 H :    0.012690
  11 H :    0.043426
  12 H :    0.037214
Sum of atomic charges:   -0.0000000

LOEWDIN ATOMIC CHARGES
----------------------
   0 O :   -0.114628
   1 C :    0.044659
   2 O :   -0.081709
   3 C :    0.081454
   4 C :   -0.018026
   5 C :   -0.049650
   6 C :   -0.019413
   7 H :    0.016408
   8 H :    0.026555
   9 H :    0.031238
  10 H :    0.024494
  11 H :    0.027034
  12 H :    0.031584

  Mayer bond orders larger than 0.1
B(  0-O ,  1-C ) :   2.2539 B(  1-C ,  2-O ) :   1.0884 B(  1-C ,  5-C ) :   0.8973
B(  2-O ,  3-C ) :   0.9435 B(  3-C ,  4-C ) :   0.9850 B(  3-C ,  6-C ) :   0.9851
B(  3-C ,  7-H ) :   0.9561 B(  4-C ,  5-C ) :   0.9424 B(  4-C ,  8-H ) :   0.9317
B(  4-C ,  9-H ) :   0.9389 B(  5-C ,  6-C ) :   0.9423 B(  5-C , 10-H ) :   0.9570
B(  6-C , 11-H ) :   0.9323 B(  6-C , 12-H ) :   0.9393

FINAL SINGLE POINT ENERGY      -343.898041267582

DIPOLE MOMENT
-------------
                                X             Y             Z
Electronic contribution:     -4.60775      -2.94567       0.27099
Nuclear contribution   :      6.08563       3.67272      -0.34590
                        -----------------------------------------
Total Dipole Moment    :      1.47788       0.72705      -0.07491
                        -----------------------------------------
Magnitude (a.u.)       :      1.64874
Magnitude (Debye)      :      4.19075

                             ****ORCA TERMINATED NORMALLY****
TOTAL RUN TIME: 0 days 0 hours 0 minutes 6 seconds 150 msec
