                         Program Version 3.0.3 - RELEASE   -
|  1> ! RI PBE def2-SVP def2-SVP/J NBO PAL2
|  2> % maxcore 2000
|  3> % output
|  4>     # printlevel mini
|  5>     print[ P_Basis ] 0
|  6>     print[ P_SCFInfo ] 1
|  7>     print[ P_SCFIterInfo ] 1
|  8>     print[ P_OrbEn ] 0
|  9>     print[ P_Cartesian ] 0
| 10> end
| 11> *xyz 0 1
| 12>  O        1.1204100000     0.1685310000     0.2874800000
| 13>  C        2.2506380000     0.0484640000    -0.0284300000
| 14>  O        3.1114510000     1.0008860000    -0.4732020000
| 15>  C        4.1823560000     0.0393820000    -0.6631500000
| 16>  C        3.2957830000    -1.0807080000    -0.0988370000
| 17>  C        2.9971320000    -2.2220550000    -0.9257750000
| 18>  C        2.7471110000    -3.1637510000    -1.6251420000
| 19>  H        5.0552400000     0.3064020000    -0.0689400000
| 20>  H        4.4325520000    -0.0594000000    -1.7181720000
| 21>  H        3.5850220000    -1.3883960000     0.9098100000
| 22>  H        2.5191960000    -4.0004340000    -2.2427410000
| 23> *
| 24>
| 25>                          ****END OF INPUT****
 Total Charge           Charge          ....    0
 Multiplicity           Mult            ....    1
 Number of Electrons    NEL             ....   50
 Basis Dimension        Dim             ....  118

MULLIKEN ATOMIC CHARGES
-----------------------
   0 O :   -0.105425
   1 C :    0.188827
   2 O :   -0.250908
   3 C :    0.267124
   4 C :   -0.269972
   5 C :    0.459027
   6 C :   -0.462151
   7 H :    0.042131
   8 H :    0.042074
   9 H :    0.079452
  10 H :    0.009822
Sum of atomic charges:    0.0000000

LOEWDIN ATOMIC CHARGES
----------------------
   0 O :   -0.085746
   1 C :    0.049476
   2 O :   -0.073558
   3 C :    0.110293
   4 C :   -0.084642
   5 C :   -0.024132
   6 C :   -0.054129
   7 H :    0.026218
   8 H :    0.029338
   9 H :    0.066924
  10 H :    0.039957

  Mayer bond orders larger than 0.1
B(  0-O ,  1-C ) :   2.2517 B(  0-O ,  2-O ) :   0.1139 B(  1-C ,  2-O ) :   1.1304
B(  1-C ,  4-C ) :   0.8793 B(  2-O ,  3-C ) :   0.9781 B(  3-C ,  4-C ) :   1.0598
B(  3-C ,  7-H ) :   0.9364 B(  3-C ,  8-H ) :   0.9395 B(  4-C ,  5-C ) :   0.9822
B(  4-C ,  9-H ) :   0.8562 B(  5-C ,  6-C ) :   2.2998 B(  5-C , 10-H ) :  -0.1107
B(  6-C , 10-H ) :   1.1011

FINAL SINGLE POINT ENERGY      -342.644315922986

DIPOLE MOMENT
-------------
                                X             Y             Z
Electronic contribution:     -2.86391       1.74104       0.93612
Nuclear contribution   :      4.09116      -2.32327      -1.10935
                        -----------------------------------------
Total Dipole Moment    :      1.22726      -0.58223      -0.17323
                        -----------------------------------------
Magnitude (a.u.)       :      1.36936
Magnitude (Debye)      :      3.48065

                             ****ORCA TERMINATED NORMALLY****
TOTAL RUN TIME: 0 days 0 hours 0 minutes 5 seconds 960 msec
