                         Program Version 3.0.3 - RELEASE   -
|  1> ! RI PBE def2-SVP def2-SVP/J NBO PAL2
|  2> % maxcore 2000
|  3> % output
|  4>     # printlevel mini
|  5>     print[ P_Basis ] 0
|  6>     print[ P_SCFInfo ] 1
|  7>     print[ P_SCFIterInfo ] 1
|  8>     print[ P_OrbEn ] 0
|  9>     print[ P_Cartesian ] 0
| 10> end
| 11> *xyz 0 1
| 12>  O        1.2169630000     0.0390850000     0.4940960000
| 13>  C        2.2499600000    -0.1262100000    -0.0786070000
| 14>  O        2.4870520000    -1.2264610000    -0.8413100000
| 15>  C        3.8628220000    -1.3259400000    -1.2092570000
| 16>  C        4.4917340000     0.0067040000    -0.8828160000
| 17>  C        3.8428510000     1.1902490000    -1.5026500000
| 18>  C        3.4449710000     0.7573130000    -0.1141210000
| 19>  H        3.9096620000    -1.5799640000    -2.2707930000
| 20>  H        4.3173800000    -2.1349670000    -0.6304890000
| 21>  H        5.5364280000     0.0398400000    -0.6044130000
| 22>  H        3.1347880000     1.0393750000    -2.3101190000
| 23>  H        4.4198970000     2.1037170000    -1.5647530000
| 24>  H        3.6343910000     1.3964690000     0.7355410000
| 25> *
| 26>
| 27>                          ****END OF INPUT****
 Total Charge           Charge          ....    0
 Multiplicity           Mult            ....    1
 Number of Electrons    NEL             ....   52
 Basis Dimension        Dim             ....  128

MULLIKEN ATOMIC CHARGES
-----------------------
   0 O :   -0.140840
   1 C :    0.193315
   2 O :   -0.264248
   3 C :    0.287144
   4 C :   -0.178305
   5 C :    0.032876
   6 C :   -0.168807
   7 H :    0.030695
   8 H :    0.032122
   9 H :    0.038289
  10 H :    0.050726
  11 H :    0.045685
  12 H :    0.041349
Sum of atomic charges:   -0.0000000

LOEWDIN ATOMIC CHARGES
----------------------
   0 O :   -0.124883
   1 C :    0.044637
   2 O :   -0.075600
   3 C :    0.088984
   4 C :   -0.049142
   5 C :   -0.015488
   6 C :   -0.062501
   7 H :    0.025568
   8 H :    0.025153
   9 H :    0.033989
  10 H :    0.032112
  11 H :    0.037667
  12 H :    0.039504

  Mayer bond orders larger than 0.1
B(  0-O ,  1-C ) :   2.2005 B(  1-C ,  2-O ) :   1.1071 B(  1-C ,  6-C ) :   0.9555
B(  2-O ,  3-C ) :   0.9732 B(  3-C ,  4-C ) :   1.0618 B(  3-C ,  7-H ) :   0.9342
B(  3-C ,  8-H ) :   0.9359 B(  4-C ,  5-C ) :   0.9955 B(  4-C ,  6-C ) :   0.9114
B(  4-C ,  9-H ) :   0.9380 B(  5-C ,  6-C ) :   0.9516 B(  5-C , 10-H ) :   0.9434
B(  5-C , 11-H ) :   0.9409 B(  6-C , 12-H ) :   0.9642

FINAL SINGLE POINT ENERGY      -343.913004018297

DIPOLE MOMENT
-------------
                                X             Y             Z
Electronic contribution:     -4.57958      -1.28900       2.37386
Nuclear contribution   :      6.19951       1.49110      -2.90855
                        -----------------------------------------
Total Dipole Moment    :      1.61993       0.20210      -0.53469
                        -----------------------------------------
Magnitude (a.u.)       :      1.71782
Magnitude (Debye)      :      4.36635

                             ****ORCA TERMINATED NORMALLY****
TOTAL RUN TIME: 0 days 0 hours 0 minutes 6 seconds 487 msec
