                         Program Version 3.0.3 - RELEASE   -
|  1> ! RI PBE def2-SVP def2-SVP/J NBO PAL2
|  2> % maxcore 2000
|  3> % output
|  4>     # printlevel mini
|  5>     print[ P_Basis ] 0
|  6>     print[ P_SCFInfo ] 1
|  7>     print[ P_SCFIterInfo ] 1
|  8>     print[ P_OrbEn ] 0
|  9>     print[ P_Cartesian ] 0
| 10> end
| 11> *xyz 0 1
| 12>  O        1.0124040000    -0.0317550000     0.3687470000
| 13>  C        2.1876220000    -0.0147840000     0.1278260000
| 14>  O        2.8895020000     1.1250910000     0.3024550000
| 15>  C        4.2029450000     1.1992650000    -0.2481460000
| 16>  C        5.0415870000    -0.0117420000     0.0901020000
| 17>  C        4.2732550000    -1.2442780000    -0.2458580000
| 18>  C        2.9432760000    -1.2137060000    -0.2842630000
| 19>  H        4.6319030000     2.1184460000     0.1503900000
| 20>  H        4.1203810000     1.3000600000    -1.3365550000
| 21>  H        5.3147220000    -0.0190890000     1.1529860000
| 22>  H        5.9795400000     0.0295700000    -0.4709770000
| 23>  H        4.8103730000    -2.1677850000    -0.4403230000
| 24>  H        2.3403000000    -2.0832120000    -0.5118040000
| 25> *
| 26>
| 27>                          ****END OF INPUT****
 Total Charge           Charge          ....    0
 Multiplicity           Mult            ....    1
 Number of Electrons    NEL             ....   52
 Basis Dimension        Dim             ....  128

MULLIKEN ATOMIC CHARGES
-----------------------
   0 O :   -0.153149
   1 C :    0.154355
   2 O :   -0.246751
   3 C :    0.165517
   4 C :    0.030598
   5 C :   -0.044659
   6 C :   -0.073766
   7 H :    0.025798
   8 H :    0.031645
   9 H :    0.051482
  10 H :    0.032572
  11 H :    0.014743
  12 H :    0.011615
Sum of atomic charges:    0.0000000

LOEWDIN ATOMIC CHARGES
----------------------
   0 O :   -0.126488
   1 C :    0.030606
   2 O :   -0.071236
   3 C :    0.076863
   4 C :   -0.058310
   5 C :    0.006023
   6 C :   -0.073657
   7 H :    0.028827
   8 H :    0.021428
   9 H :    0.048007
  10 H :    0.044886
  11 H :    0.032168
  12 H :    0.040883

  Mayer bond orders larger than 0.1
B(  0-O ,  1-C ) :   2.1331 B(  1-C ,  2-O ) :   1.1396 B(  1-C ,  6-C ) :   0.9926
B(  2-O ,  3-C ) :   0.9501 B(  3-C ,  4-C ) :   1.1115 B(  3-C ,  7-H ) :   0.9418
B(  3-C ,  8-H ) :   0.9416 B(  4-C ,  5-C ) :   1.0488 B(  4-C ,  9-H ) :   0.8906
B(  4-C , 10-H ) :   0.9140 B(  5-C ,  6-C ) :   1.8008 B(  5-C , 11-H ) :   0.9615
B(  6-C , 12-H ) :   0.9702

FINAL SINGLE POINT ENERGY      -343.919974717874

DIPOLE MOMENT
-------------
                                X             Y             Z
Electronic contribution:     -5.68593       0.51736       1.07636
Nuclear contribution   :      7.47119      -0.82577      -1.50286
                        -----------------------------------------
Total Dipole Moment    :      1.78527      -0.30842      -0.42650
                        -----------------------------------------
Magnitude (a.u.)       :      1.86123
Magnitude (Debye)      :      4.73088

                             ****ORCA TERMINATED NORMALLY****
TOTAL RUN TIME: 0 days 0 hours 0 minutes 6 seconds 233 msec
