                         Program Version 3.0.3 - RELEASE   -
|  1> ! RI PBE def2-SVP def2-SVP/J NBO PAL2
|  2> % maxcore 2000
|  3> % output
|  4>     # printlevel mini
|  5>     print[ P_Basis ] 0
|  6>     print[ P_SCFInfo ] 1
|  7>     print[ P_SCFIterInfo ] 1
|  8>     print[ P_OrbEn ] 0
|  9>     print[ P_Cartesian ] 0
| 10> end
| 11> *xyz 0 1
| 12>  O        2.1292420000     1.0024220000     0.4857760000
| 13>  C        2.0434460000    -0.1141770000     0.0540290000
| 14>  C        3.1554900000    -1.0757460000    -0.0231380000
| 15>  C        2.8410120000    -2.5354850000     0.1495480000
| 16>  C        3.1539550000    -2.0270170000    -1.2169260000
| 17>  C        4.3988250000    -2.3377610000    -1.8481860000
| 18>  C        5.4430220000    -2.6019400000    -2.3790800000
| 19>  H        1.0720360000    -0.5069520000    -0.3286620000
| 20>  H        4.1172210000    -0.7136700000     0.3163920000
| 21>  H        1.8124270000    -2.8079920000     0.3542220000
| 22>  H        3.5891620000    -3.1374350000     0.6468480000
| 23>  H        2.3103290000    -1.9199840000    -1.8924520000
| 24>  H        6.3680230000    -2.8341630000    -2.8514610000
| 25> *
| 26>
| 27>                          ****END OF INPUT****
 Total Charge           Charge          ....    0
 Multiplicity           Mult            ....    1
 Number of Electrons    NEL             ....   50
 Basis Dimension        Dim             ....  128

MULLIKEN ATOMIC CHARGES
-----------------------
   0 O :   -0.154416
   1 C :    0.167695
   2 C :   -0.097476
   3 C :    0.051292
   4 C :   -0.145999
   5 C :    0.453917
   6 C :   -0.457413
   7 H :   -0.029691
   8 H :    0.041845
   9 H :    0.044522
  10 H :    0.057995
  11 H :    0.061349
  12 H :    0.006380
Sum of atomic charges:   -0.0000000

LOEWDIN ATOMIC CHARGES
----------------------
   0 O :   -0.106441
   1 C :    0.083932
   2 C :   -0.050252
   3 C :    0.000177
   4 C :   -0.030847
   5 C :   -0.017303
   6 C :   -0.070334
   7 H :   -0.014819
   8 H :    0.043291
   9 H :    0.033910
  10 H :    0.043564
  11 H :    0.047584
  12 H :    0.037537

  Mayer bond orders larger than 0.1
B(  0-O ,  1-C ) :   2.1698 B(  1-C ,  2-C ) :   1.0090 B(  1-C ,  7-H ) :   0.9164
B(  2-C ,  3-C ) :   0.9329 B(  2-C ,  4-C ) :   0.8361 B(  2-C ,  8-H ) :   0.9483
B(  3-C ,  4-C ) :   0.9816 B(  3-C ,  9-H ) :   0.9395 B(  3-C , 10-H ) :   0.9377
B(  4-C ,  5-C ) :   1.0377 B(  4-C , 11-H ) :   0.9197 B(  5-C ,  6-C ) :   2.2802
B(  5-C , 12-H ) :  -0.1039 B(  6-C , 12-H ) :   1.0945

FINAL SINGLE POINT ENERGY      -306.753611861303

DIPOLE MOMENT
-------------
                                X             Y             Z
Electronic contribution:      0.30011       2.72453      -0.20392
Nuclear contribution   :     -0.25003      -3.70824       0.03655
                        -----------------------------------------
Total Dipole Moment    :      0.05008      -0.98371      -0.16737
                        -----------------------------------------
Magnitude (a.u.)       :      0.99910
Magnitude (Debye)      :      2.53951

                             ****ORCA TERMINATED NORMALLY****
TOTAL RUN TIME: 0 days 0 hours 0 minutes 6 seconds 247 msec
