                         Program Version 3.0.3 - RELEASE   -
|  1> ! RI PBE def2-SVP def2-SVP/J NBO PAL2
|  2> % maxcore 2000
|  3> % output
|  4>     # printlevel mini
|  5>     print[ P_Basis ] 0
|  6>     print[ P_SCFInfo ] 1
|  7>     print[ P_SCFIterInfo ] 1
|  8>     print[ P_OrbEn ] 0
|  9>     print[ P_Cartesian ] 0
| 10> end
| 11> *xyz 0 1
| 12>  O        2.6255380000    -0.7988570000     0.9514190000
| 13>  C        1.9328640000    -0.0146660000    -0.0012530000
| 14>  C        2.6227780000    -0.1409290000    -1.3206890000
| 15>  C        2.3311660000    -1.3111380000    -2.2053050000
| 16>  C        1.8369480000     0.0662480000    -2.5760470000
| 17>  C        2.3850840000     0.7654030000    -3.7562190000
| 18>  C        3.4813070000     1.5115390000    -3.7957400000
| 19>  H        2.2297720000    -0.6509260000     1.8132260000
| 20>  H        1.9118540000     1.0407250000     0.3055160000
| 21>  H        0.8903310000    -0.3512170000    -0.1038970000
| 22>  H        3.6482740000     0.2116730000    -1.3204690000
| 23>  H        1.6062010000    -2.0398330000    -1.8621010000
| 24>  H        3.1487730000    -1.7153640000    -2.7887630000
| 25>  H        0.7667920000     0.2047500000    -2.4415300000
| 26>  H        1.8168220000     0.6273850000    -4.6747470000
| 27>  H        4.0829870000     1.6972500000    -2.9125300000
| 28>  H        3.8154300000     1.9666460000    -4.7205810000
| 29> *
| 30>
| 31>                          ****END OF INPUT****
 Total Charge           Charge          ....    0
 Multiplicity           Mult            ....    1
 Number of Electrons    NEL             ....   54
 Basis Dimension        Dim             ....  148

MULLIKEN ATOMIC CHARGES
-----------------------
   0 O :   -0.278445
   1 C :    0.232693
   2 C :   -0.140902
   3 C :    0.038081
   4 C :   -0.085116
   5 C :   -0.007194
   6 C :   -0.037708
   7 H :    0.151682
   8 H :    0.000849
   9 H :   -0.024120
  10 H :    0.023989
  11 H :    0.029321
  12 H :    0.031616
  13 H :    0.025145
  14 H :    0.002418
  15 H :    0.016203
  16 H :    0.021488
Sum of atomic charges:    0.0000000

LOEWDIN ATOMIC CHARGES
----------------------
   0 O :   -0.130707
   1 C :    0.063771
   2 C :   -0.043357
   3 C :   -0.022775
   4 C :   -0.043753
   5 C :   -0.022894
   6 C :   -0.068447
   7 H :    0.068762
   8 H :    0.007301
   9 H :    0.001790
  10 H :    0.029231
  11 H :    0.026870
  12 H :    0.029814
  13 H :    0.031442
  14 H :    0.028314
  15 H :    0.020058
  16 H :    0.024581

  Mayer bond orders larger than 0.1
B(  0-O ,  1-C ) :   1.0970 B(  0-O ,  7-H ) :   0.9792 B(  1-C ,  2-C ) :   1.0753
B(  1-C ,  8-H ) :   0.9307 B(  1-C ,  9-H ) :   0.9116 B(  2-C ,  3-C ) :   1.0025
B(  2-C ,  4-C ) :   0.9242 B(  2-C , 10-H ) :   0.9325 B(  3-C ,  4-C ) :   0.9817
B(  3-C , 11-H ) :   0.9365 B(  3-C , 12-H ) :   0.9413 B(  4-C ,  5-C ) :   1.0599
B(  4-C , 13-H ) :   0.9239 B(  5-C ,  6-C ) :   2.0026 B(  5-C , 14-H ) :   0.9549
B(  6-C , 15-H ) :   0.9364 B(  6-C , 16-H ) :   0.9415

FINAL SINGLE POINT ENERGY      -309.185993616460

DIPOLE MOMENT
-------------
                                X             Y             Z
Electronic contribution:      0.13997      -0.83706       1.75362
Nuclear contribution   :     -0.63046       1.03814      -1.48456
                        -----------------------------------------
Total Dipole Moment    :     -0.49049       0.20107       0.26906
                        -----------------------------------------
Magnitude (a.u.)       :      0.59447
Magnitude (Debye)      :      1.51103

                             ****ORCA TERMINATED NORMALLY****
TOTAL RUN TIME: 0 days 0 hours 0 minutes 7 seconds 432 msec
