                         Program Version 3.0.3 - RELEASE   -
|  1> ! RI PBE def2-SVP def2-SVP/J NBO PAL2
|  2> % maxcore 2000
|  3> % output
|  4>     # printlevel mini
|  5>     print[ P_Basis ] 0
|  6>     print[ P_SCFInfo ] 1
|  7>     print[ P_SCFIterInfo ] 1
|  8>     print[ P_OrbEn ] 0
|  9>     print[ P_Cartesian ] 0
| 10> end
| 11> *xyz 0 1
| 12>  O        2.1972720000     1.0745120000    -0.7434460000
| 13>  C        2.5310790000    -0.0834100000    -0.0070840000
| 14>  C        3.0771050000    -1.1114050000    -0.9429820000
| 15>  C        2.9468970000    -2.5566600000    -0.6020650000
| 16>  C        2.1153790000    -1.9762230000    -1.7207480000
| 17>  C        2.4015550000    -2.3284510000    -3.0772320000
| 18>  C        2.6462760000    -2.6287460000    -4.2148580000
| 19>  H        1.9234480000     1.7597960000    -0.1296980000
| 20>  H        1.6493800000    -0.4951360000     0.5071980000
| 21>  H        3.2843990000     0.1432150000     0.7611020000
| 22>  H        3.9712670000    -0.8139430000    -1.4791520000
| 23>  H        2.4249080000    -2.8246060000     0.3090770000
| 24>  H        3.7524970000    -3.2222640000    -0.8814000000
| 25>  H        1.0642950000    -1.8164950000    -1.5023980000
| 26>  H        2.8607210000    -2.8884930000    -5.2240130000
| 27> *
| 28>
| 29>                          ****END OF INPUT****
 Total Charge           Charge          ....    0
 Multiplicity           Mult            ....    1
 Number of Electrons    NEL             ....   52
 Basis Dimension        Dim             ....  138

MULLIKEN ATOMIC CHARGES
-----------------------
   0 O :   -0.273528
   1 C :    0.235486
   2 C :   -0.126238
   3 C :    0.038204
   4 C :   -0.142124
   5 C :    0.459780
   6 C :   -0.480491
   7 H :    0.154806
   8 H :   -0.022598
   9 H :    0.003288
  10 H :    0.036056
  11 H :    0.030112
  12 H :    0.041106
  13 H :    0.049545
  14 H :   -0.003402
Sum of atomic charges:   -0.0000000

LOEWDIN ATOMIC CHARGES
----------------------
   0 O :   -0.126209
   1 C :    0.062576
   2 C :   -0.029505
   3 C :   -0.017465
   4 C :   -0.045900
   5 C :   -0.012004
   6 C :   -0.092813
   7 H :    0.070825
   8 H :    0.002604
   9 H :    0.009537
  10 H :    0.036050
  11 H :    0.028294
  12 H :    0.035342
  13 H :    0.045714
  14 H :    0.032954

  Mayer bond orders larger than 0.1
B(  0-O ,  1-C ) :   1.1087 B(  0-O ,  7-H ) :   0.9791 B(  1-C ,  2-C ) :   1.0745
B(  1-C ,  8-H ) :   0.9095 B(  1-C ,  9-H ) :   0.9243 B(  2-C ,  3-C ) :   0.9857
B(  2-C ,  4-C ) :   0.9076 B(  2-C , 10-H ) :   0.9402 B(  3-C ,  4-C ) :   0.9743
B(  3-C , 11-H ) :   0.9352 B(  3-C , 12-H ) :   0.9382 B(  4-C ,  5-C ) :   1.0360
B(  4-C , 13-H ) :   0.9186 B(  5-C ,  6-C ) :   2.2757 B(  5-C , 14-H ) :  -0.1062
B(  6-C , 14-H ) :   1.0968

FINAL SINGLE POINT ENERGY      -307.944401623887

DIPOLE MOMENT
-------------
                                X             Y             Z
Electronic contribution:     -0.51442       0.19753      -3.37322
Nuclear contribution   :      0.49945      -0.01810       4.28202
                        -----------------------------------------
Total Dipole Moment    :     -0.01498       0.17943       0.90880
                        -----------------------------------------
Magnitude (a.u.)       :      0.92646
Magnitude (Debye)      :      2.35489

                             ****ORCA TERMINATED NORMALLY****
TOTAL RUN TIME: 0 days 0 hours 0 minutes 6 seconds 675 msec
