                         Program Version 3.0.3 - RELEASE   -
|  1> ! RI PBE def2-SVP def2-SVP/J NBO PAL2
|  2> % maxcore 2000
|  3> % output
|  4>     # printlevel mini
|  5>     print[ P_Basis ] 0
|  6>     print[ P_SCFInfo ] 1
|  7>     print[ P_SCFIterInfo ] 1
|  8>     print[ P_OrbEn ] 0
|  9>     print[ P_Cartesian ] 0
| 10> end
| 11> *xyz 0 1
| 12>  O        1.1982270000    -0.0066320000    -0.2323980000
| 13>  C        2.5189520000     0.3316160000    -0.6097480000
| 14>  C        3.2216740000     0.9078160000     0.5761990000
| 15>  C        4.3480060000     1.8750030000     0.3734320000
| 16>  C        3.0324510000     2.3488160000     0.9257010000
| 17>  C        2.9425280000     2.7684930000     2.3610560000
| 18>  O        3.3547190000     4.1038970000     2.5693390000
| 19>  H        0.7689110000    -0.4377410000    -0.9747820000
| 20>  H        2.5199220000     1.0704770000    -1.4246930000
| 21>  H        3.0610650000    -0.5558680000    -0.9662810000
| 22>  H        3.3209120000     0.2217470000     1.4122460000
| 23>  H        4.6079580000     2.1514090000    -0.6416790000
| 24>  H        5.1935490000     1.8065530000     1.0491710000
| 25>  H        2.4079650000     2.9227440000     0.2474750000
| 26>  H        3.5303970000     2.0737640000     2.9802890000
| 27>  H        1.9076480000     2.7183130000     2.7082720000
| 28>  H        4.2180280000     4.2083110000     2.1595910000
| 29> *
| 30>
| 31>                          ****END OF INPUT****
 Total Charge           Charge          ....    0
 Multiplicity           Mult            ....    1
 Number of Electrons    NEL             ....   56
 Basis Dimension        Dim             ....  148

MULLIKEN ATOMIC CHARGES
-----------------------
   0 O :   -0.277942
   1 C :    0.240371
   2 C :   -0.142463
   3 C :   -0.000125
   4 C :   -0.180372
   5 C :    0.278999
   6 O :   -0.288223
   7 H :    0.153331
   8 H :   -0.020525
   9 H :   -0.003324
  10 H :    0.022344
  11 H :    0.025423
  12 H :    0.025107
  13 H :    0.024786
  14 H :   -0.022317
  15 H :    0.016104
  16 H :    0.148825
Sum of atomic charges:    0.0000000

LOEWDIN ATOMIC CHARGES
----------------------
   0 O :   -0.130281
   1 C :    0.062888
   2 C :   -0.045444
   3 C :   -0.046152
   4 C :   -0.058554
   5 C :    0.063246
   6 O :   -0.124581
   7 H :    0.069489
   8 H :    0.003206
   9 H :    0.006496
  10 H :    0.027689
  11 H :    0.025602
  12 H :    0.024082
  13 H :    0.029112
  14 H :    0.002429
  15 H :    0.025943
  16 H :    0.064830

  Mayer bond orders larger than 0.1
B(  0-O ,  1-C ) :   1.1035 B(  0-O ,  7-H ) :   0.9793 B(  1-C ,  2-C ) :   1.0813
B(  1-C ,  8-H ) :   0.9120 B(  1-C ,  9-H ) :   0.9219 B(  2-C ,  3-C ) :   0.9862
B(  2-C ,  4-C ) :   0.9102 B(  2-C , 10-H ) :   0.9359 B(  3-C ,  4-C ) :   0.9863
B(  3-C , 11-H ) :   0.9382 B(  3-C , 12-H ) :   0.9387 B(  4-C ,  5-C ) :   1.0729
B(  4-C , 13-H ) :   0.9380 B(  5-C ,  6-O ) :   1.0642 B(  5-C , 14-H ) :   0.9168
B(  5-C , 15-H ) :   0.9321 B(  6-O , 16-H ) :   0.9855

FINAL SINGLE POINT ENERGY      -346.264917602396

DIPOLE MOMENT
-------------
                                X             Y             Z
Electronic contribution:     -1.79184       0.87344       1.02441
Nuclear contribution   :      2.23343      -1.41413      -1.88833
                        -----------------------------------------
Total Dipole Moment    :      0.44159      -0.54069      -0.86392
                        -----------------------------------------
Magnitude (a.u.)       :      1.11072
Magnitude (Debye)      :      2.82323

                             ****ORCA TERMINATED NORMALLY****
TOTAL RUN TIME: 0 days 0 hours 0 minutes 6 seconds 936 msec
