                         Program Version 3.0.3 - RELEASE   -
|  1> ! RI PBE def2-SVP def2-SVP/J NBO PAL2
|  2> % maxcore 2000
|  3> % output
|  4>     # printlevel mini
|  5>     print[ P_Basis ] 0
|  6>     print[ P_SCFInfo ] 1
|  7>     print[ P_SCFIterInfo ] 1
|  8>     print[ P_OrbEn ] 0
|  9>     print[ P_Cartesian ] 0
| 10> end
| 11> *xyz 0 1
| 12>  O        0.9910850000    -0.4532870000     0.1522020000
| 13>  C        2.1238490000    -0.1545260000    -0.1241500000
| 14>  C        3.0980410000    -1.0832520000    -0.7364450000
| 15>  C        3.0174590000    -2.5283560000    -0.3697560000
| 16>  C        2.5361690000    -2.1074110000    -1.7189760000
| 17>  C        3.3800960000    -2.4279030000    -2.8901490000
| 18>  O        4.5831560000    -2.4562860000    -2.8653020000
| 19>  H        2.5052220000     0.8668150000     0.0788450000
| 20>  H        4.0761140000    -0.6896590000    -0.9859710000
| 21>  H        2.2565910000    -2.8002590000     0.3506380000
| 22>  H        3.9532550000    -3.0717060000    -0.3402990000
| 23>  H        1.4643460000    -2.0644920000    -1.8711950000
| 24>  H        2.8280180000    -2.6532680000    -3.8251420000
| 25> *
| 26>
| 27>                          ****END OF INPUT****
 Total Charge           Charge          ....    0
 Multiplicity           Mult            ....    1
 Number of Electrons    NEL             ....   52
 Basis Dimension        Dim             ....  128

MULLIKEN ATOMIC CHARGES
-----------------------
   0 O :   -0.170765
   1 C :    0.151666
   2 C :   -0.100684
   3 C :    0.058633
   4 C :   -0.110480
   5 C :    0.150950
   6 O :   -0.169445
   7 H :   -0.007663
   8 H :    0.040076
   9 H :    0.061566
  10 H :    0.058051
  11 H :    0.045769
  12 H :   -0.007675
Sum of atomic charges:   -0.0000000

LOEWDIN ATOMIC CHARGES
----------------------
   0 O :   -0.117334
   1 C :    0.096086
   2 C :   -0.060419
   3 C :    0.018163
   4 C :   -0.061674
   5 C :    0.096084
   6 O :   -0.116709
   7 H :   -0.003973
   8 H :    0.036609
   9 H :    0.039977
  10 H :    0.039421
  11 H :    0.037705
  12 H :   -0.003936

  Mayer bond orders larger than 0.1
B(  0-O ,  1-C ) :   2.1456 B(  1-C ,  2-C ) :   0.9809 B(  1-C ,  7-H ) :   0.9394
B(  2-C ,  3-C ) :   0.9717 B(  2-C ,  4-C ) :   0.8521 B(  2-C ,  8-H ) :   0.9323
B(  3-C ,  4-C ) :   0.9781 B(  3-C ,  9-H ) :   0.9366 B(  3-C , 10-H ) :   0.9364
B(  4-C ,  5-C ) :   0.9808 B(  4-C , 11-H ) :   0.9316 B(  5-C ,  6-O ) :   2.1462
B(  5-C , 12-H ) :   0.9396

FINAL SINGLE POINT ENERGY      -343.884061503739

DIPOLE MOMENT
-------------
                                X             Y             Z
Electronic contribution:     -0.16450       0.77065      -0.71064
Nuclear contribution   :      0.16511      -0.76997       0.70717
                        -----------------------------------------
Total Dipole Moment    :      0.00061       0.00068      -0.00347
                        -----------------------------------------
Magnitude (a.u.)       :      0.00358
Magnitude (Debye)      :      0.00911

                             ****ORCA TERMINATED NORMALLY****
TOTAL RUN TIME: 0 days 0 hours 0 minutes 6 seconds 88 msec
