                         Program Version 3.0.3 - RELEASE   -
|  1> ! RI PBE def2-SVP def2-SVP/J NBO PAL2
|  2> % maxcore 2000
|  3> % output
|  4>     # printlevel mini
|  5>     print[ P_Basis ] 0
|  6>     print[ P_SCFInfo ] 1
|  7>     print[ P_SCFIterInfo ] 1
|  8>     print[ P_OrbEn ] 0
|  9>     print[ P_Cartesian ] 0
| 10> end
| 11> *xyz 0 1
| 12>  O        1.2474890000     0.6244080000     1.3094630000
| 13>  C        2.1906670000     0.1714770000     0.3613530000
| 14>  C        2.9661790000     1.3405050000    -0.1704190000
| 15>  C        2.3563710000     2.6746070000    -0.3196230000
| 16>  C        3.3901470000     2.4514800000     0.7691670000
| 17>  C        4.7286190000     3.0292950000     0.5728290000
| 18>  O        5.2616290000     3.1664680000    -0.5005840000
| 19>  H        0.7612580000    -0.1314010000     1.6436990000
| 20>  H        1.6905510000    -0.3293160000    -0.4800710000
| 21>  H        2.8861330000    -0.5493840000     0.8133200000
| 22>  H        3.7212380000     1.0794760000    -0.9053070000
| 23>  H        1.3390100000     2.8103310000     0.0225790000
| 24>  H        2.6808970000     3.2853970000    -1.1526740000
| 25>  H        3.0230860000     2.3975550000     1.7862210000
| 26>  H        5.2514260000     3.3463030000     1.4999480000
| 27> *
| 28>
| 29>                          ****END OF INPUT****
 Total Charge           Charge          ....    0
 Multiplicity           Mult            ....    1
 Number of Electrons    NEL             ....   54
 Basis Dimension        Dim             ....  138

MULLIKEN ATOMIC CHARGES
-----------------------
   0 O :   -0.273704
   1 C :    0.231988
   2 C :   -0.158682
   3 C :    0.055795
   4 C :   -0.128790
   5 C :    0.148328
   6 O :   -0.185531
   7 H :    0.162057
   8 H :    0.010775
   9 H :    0.008279
  10 H :    0.039909
  11 H :    0.041980
  12 H :    0.044942
  13 H :    0.024412
  14 H :   -0.021757
Sum of atomic charges:   -0.0000000

LOEWDIN ATOMIC CHARGES
----------------------
   0 O :   -0.120993
   1 C :    0.066175
   2 C :   -0.029590
   3 C :   -0.006017
   4 C :   -0.085709
   5 C :    0.088620
   6 O :   -0.133661
   7 H :    0.076092
   8 H :    0.013280
   9 H :    0.011065
  10 H :    0.036267
  11 H :    0.033188
  12 H :    0.032315
  13 H :    0.030205
  14 H :   -0.011237

  Mayer bond orders larger than 0.1
B(  0-O ,  1-C ) :   1.0908 B(  0-O ,  7-H ) :   0.9766 B(  1-C ,  2-C ) :   1.0675
B(  1-C ,  8-H ) :   0.9257 B(  1-C ,  9-H ) :   0.9272 B(  2-C ,  3-C ) :   1.0385
B(  2-C ,  4-C ) :   0.8892 B(  2-C , 10-H ) :   0.9289 B(  3-C ,  4-C ) :   0.9368
B(  3-C , 11-H ) :   0.9337 B(  3-C , 12-H ) :   0.9368 B(  4-C ,  5-C ) :   0.9981
B(  4-C , 13-H ) :   0.9351 B(  5-C ,  6-O ) :   2.1312 B(  5-C , 14-H ) :   0.9369

FINAL SINGLE POINT ENERGY      -345.076627820732

DIPOLE MOMENT
-------------
                                X             Y             Z
Electronic contribution:      2.60772       2.00528      -0.15576
Nuclear contribution   :     -3.45883      -2.97834       0.72449
                        -----------------------------------------
Total Dipole Moment    :     -0.85111      -0.97307       0.56872
                        -----------------------------------------
Magnitude (a.u.)       :      1.41233
Magnitude (Debye)      :      3.58987

                             ****ORCA TERMINATED NORMALLY****
TOTAL RUN TIME: 0 days 0 hours 0 minutes 7 seconds 203 msec
