                         Program Version 3.0.3 - RELEASE   -
|  1> ! RI PBE def2-SVP def2-SVP/J NBO PAL2
|  2> % maxcore 2000
|  3> % output
|  4>     # printlevel mini
|  5>     print[ P_Basis ] 0
|  6>     print[ P_SCFInfo ] 1
|  7>     print[ P_SCFIterInfo ] 1
|  8>     print[ P_OrbEn ] 0
|  9>     print[ P_Cartesian ] 0
| 10> end
| 11> *xyz 0 1
| 12>  O        3.4293130000     0.0033630000    -0.9197750000
| 13>  C        2.3680150000    -0.0099390000     0.0231810000
| 14>  C        2.7215110000    -1.0251250000     1.0705920000
| 15>  C        1.6669060000    -1.5128580000     2.0827080000
| 16>  C        2.2822870000    -2.9240620000     1.9661620000
| 17>  C        2.8759980000    -2.4899340000     0.6264990000
| 18>  O        4.1493380000    -2.9849770000     0.3306360000
| 19>  H        3.2154440000     0.6226030000    -1.6208580000
| 20>  H        1.4227810000    -0.2961290000    -0.4612890000
| 21>  H        2.2274370000     0.9834240000     0.4718400000
| 22>  H        3.6361650000    -0.7259770000     1.5922730000
| 23>  H        0.6586400000    -1.4752220000     1.6621190000
| 24>  H        1.6526000000    -1.0436600000     3.0662090000
| 25>  H        1.6199900000    -3.7898120000     1.9837980000
| 26>  H        3.0844330000    -3.0656850000     2.6933270000
| 27>  H        2.1687570000    -2.6994070000    -0.1910320000
| 28>  H        4.4860040000    -2.4778030000    -0.4147800000
| 29> *
| 30>
| 31>                          ****END OF INPUT****
 Total Charge           Charge          ....    0
 Multiplicity           Mult            ....    1
 Number of Electrons    NEL             ....   56
 Basis Dimension        Dim             ....  148

MULLIKEN ATOMIC CHARGES
-----------------------
   0 O :   -0.287984
   1 C :    0.245496
   2 C :   -0.185781
   3 C :    0.029766
   4 C :    0.043611
   5 C :    0.071663
   6 O :   -0.242121
   7 H :    0.157396
   8 H :   -0.021769
   9 H :   -0.001921
  10 H :    0.004862
  11 H :    0.007431
  12 H :    0.014906
  13 H :    0.012788
  14 H :    0.013561
  15 H :   -0.018899
  16 H :    0.156996
Sum of atomic charges:   -0.0000000

LOEWDIN ATOMIC CHARGES
----------------------
   0 O :   -0.133463
   1 C :    0.058485
   2 C :   -0.066587
   3 C :   -0.024220
   4 C :   -0.035777
   5 C :    0.048097
   6 O :   -0.111470
   7 H :    0.072090
   8 H :    0.000298
   9 H :    0.005306
  10 H :    0.027496
  11 H :    0.021355
  12 H :    0.018707
  13 H :    0.017047
  14 H :    0.029612
  15 H :    0.003063
  16 H :    0.069962

  Mayer bond orders larger than 0.1
B(  0-O ,  1-C ) :   1.0931 B(  0-O ,  7-H ) :   0.9777 B(  1-C ,  2-C ) :   1.0713
B(  1-C ,  8-H ) :   0.9110 B(  1-C ,  9-H ) :   0.9292 B(  2-C ,  3-C ) :   1.0715
B(  2-C ,  5-C ) :   1.0157 B(  2-C , 10-H ) :   0.8799 B(  3-C ,  4-C ) :   1.1151
B(  3-C , 11-H ) :   0.9203 B(  3-C , 12-H ) :   0.9280 B(  4-C ,  5-C ) :   1.0774
B(  4-C , 13-H ) :   0.9299 B(  4-C , 14-H ) :   0.9082 B(  5-C ,  6-O ) :   1.1634
B(  5-C , 15-H ) :   0.9121 B(  6-O , 16-H ) :   0.9738

FINAL SINGLE POINT ENERGY      -346.275238423310

DIPOLE MOMENT
-------------
                                X             Y             Z
Electronic contribution:      3.24911      -0.53797      -2.35049
Nuclear contribution   :     -3.81541       1.35703       1.89764
                        -----------------------------------------
Total Dipole Moment    :     -0.56629       0.81906      -0.45285
                        -----------------------------------------
Magnitude (a.u.)       :      1.09390
Magnitude (Debye)      :      2.78048

                             ****ORCA TERMINATED NORMALLY****
TOTAL RUN TIME: 0 days 0 hours 0 minutes 7 seconds 83 msec
