                         Program Version 3.0.3 - RELEASE   -
|  1> ! RI PBE def2-SVP def2-SVP/J NBO PAL2
|  2> % maxcore 2000
|  3> % output
|  4>     # printlevel mini
|  5>     print[ P_Basis ] 0
|  6>     print[ P_SCFInfo ] 1
|  7>     print[ P_SCFIterInfo ] 1
|  8>     print[ P_OrbEn ] 0
|  9>     print[ P_Cartesian ] 0
| 10> end
| 11> *xyz 0 1
| 12>  O        1.0237860000     0.3995010000    -0.4224670000
| 13>  C        1.9289310000     0.1141520000     0.3116710000
| 14>  C        3.0430990000     1.0477150000     0.6860540000
| 15>  C        2.9538680000     2.4859280000     0.1479140000
| 16>  C        2.5970340000     3.0197570000     1.5565320000
| 17>  C        2.8532780000     1.6311060000     2.1111750000
| 18>  O        2.9396850000     1.1583470000     3.1989880000
| 19>  H        1.9815300000    -0.8805570000     0.7982570000
| 20>  H        3.9957150000     0.5178460000     0.5890580000
| 21>  H        2.1784670000     2.6150160000    -0.6050810000
| 22>  H        3.9026350000     2.8606280000    -0.2326570000
| 23>  H        1.5494280000     3.3113850000     1.6714650000
| 24>  H        3.2248430000     3.8037750000     1.9835020000
| 25> *
| 26>
| 27>                          ****END OF INPUT****
 Total Charge           Charge          ....    0
 Multiplicity           Mult            ....    1
 Number of Electrons    NEL             ....   52
 Basis Dimension        Dim             ....  128

MULLIKEN ATOMIC CHARGES
-----------------------
   0 O :   -0.152838
   1 C :    0.150546
   2 C :   -0.210383
   3 C :    0.089692
   4 C :    0.001854
   5 C :    0.000719
   6 O :   -0.102441
   7 H :    0.008581
   8 H :    0.057227
   9 H :    0.026287
  10 H :    0.022734
  11 H :    0.056061
  12 H :    0.051961
Sum of atomic charges:    0.0000000

LOEWDIN ATOMIC CHARGES
----------------------
   0 O :   -0.100705
   1 C :    0.097373
   2 C :   -0.110028
   3 C :   -0.022332
   4 C :   -0.056339
   5 C :    0.063490
   6 O :   -0.081385
   7 H :   -0.000290
   8 H :    0.053384
   9 H :    0.029589
  10 H :    0.031510
  11 H :    0.051937
  12 H :    0.043797

  Mayer bond orders larger than 0.1
B(  0-O ,  1-C ) :   2.1748 B(  1-C ,  2-C ) :   0.9172 B(  1-C ,  7-H ) :   0.9279
B(  2-C ,  3-C ) :   1.0910 B(  2-C ,  4-C ) :  -0.1056 B(  2-C ,  5-C ) :   0.8994
B(  2-C ,  8-H ) :   0.8749 B(  3-C ,  4-C ) :   1.1531 B(  3-C ,  9-H ) :   0.8879
B(  3-C , 10-H ) :   0.9093 B(  4-C ,  5-C ) :   1.0349 B(  4-C , 11-H ) :   0.8979
B(  4-C , 12-H ) :   0.9139 B(  5-C ,  6-O ) :   2.2415

FINAL SINGLE POINT ENERGY      -343.892163331536

DIPOLE MOMENT
-------------
                                X             Y             Z
Electronic contribution:     -1.30842      -3.17288       1.88938
Nuclear contribution   :      1.94694       3.59707      -2.15587
                        -----------------------------------------
Total Dipole Moment    :      0.63852       0.42419      -0.26650
                        -----------------------------------------
Magnitude (a.u.)       :      0.81158
Magnitude (Debye)      :      2.06287

                             ****ORCA TERMINATED NORMALLY****
TOTAL RUN TIME: 0 days 0 hours 0 minutes 6 seconds 379 msec
