                         Program Version 3.0.3 - RELEASE   -
|  1> ! RI PBE def2-SVP def2-SVP/J NBO PAL2
|  2> % maxcore 2000
|  3> % output
|  4>     # printlevel mini
|  5>     print[ P_Basis ] 0
|  6>     print[ P_SCFInfo ] 1
|  7>     print[ P_SCFIterInfo ] 1
|  8>     print[ P_OrbEn ] 0
|  9>     print[ P_Cartesian ] 0
| 10> end
| 11> *xyz 0 1
| 12>  O        1.1236710000     0.3976930000     0.1286880000
| 13>  C        2.5085600000     0.1775850000     0.2164070000
| 14>  C        2.9775640000    -0.7874860000    -0.8551760000
| 15>  C        4.3933010000    -1.4166790000    -0.8003460000
| 16>  C        3.7852490000    -2.8295230000    -0.9935680000
| 17>  C        2.4309520000    -2.2006670000    -0.7164290000
| 18>  O        1.3707780000    -2.6220040000    -0.3500570000
| 19>  H        0.6932320000    -0.4649960000     0.1645810000
| 20>  H        2.7902700000    -0.2145900000     1.2056940000
| 21>  H        2.9958330000     1.1493380000     0.1012940000
| 22>  H        2.7431240000    -0.3844370000    -1.8462350000
| 23>  H        4.8524230000    -1.2991320000     0.1827800000
| 24>  H        5.0967210000    -1.0848850000    -1.5618080000
| 25>  H        4.0937040000    -3.6364420000    -0.3274600000
| 26>  H        3.8493160000    -3.1817640000    -2.0268540000
| 27> *
| 28>
| 29>                          ****END OF INPUT****
 Total Charge           Charge          ....    0
 Multiplicity           Mult            ....    1
 Number of Electrons    NEL             ....   54
 Basis Dimension        Dim             ....  138

MULLIKEN ATOMIC CHARGES
-----------------------
   0 O :   -0.286534
   1 C :    0.270253
   2 C :   -0.241566
   3 C :    0.063973
   4 C :    0.005620
   5 C :    0.001199
   6 O :   -0.140152
   7 H :    0.153732
   8 H :   -0.012025
   9 H :    0.013324
  10 H :    0.040986
  11 H :    0.021057
  12 H :    0.017643
  13 H :    0.043294
  14 H :    0.049196
Sum of atomic charges:   -0.0000000

LOEWDIN ATOMIC CHARGES
----------------------
   0 O :   -0.117081
   1 C :    0.067318
   2 C :   -0.091254
   3 C :   -0.024187
   4 C :   -0.057827
   5 C :    0.055795
   6 O :   -0.106652
   7 H :    0.060177
   8 H :    0.003248
   9 H :    0.022786
  10 H :    0.045037
  11 H :    0.028726
  12 H :    0.026579
  13 H :    0.037411
  14 H :    0.049926

  Mayer bond orders larger than 0.1
B(  0-O ,  1-C ) :   1.0733 B(  0-O ,  7-H ) :   0.9698 B(  1-C ,  2-C ) :   1.0358
B(  1-C ,  8-H ) :   0.9268 B(  1-C ,  9-H ) :   0.9353 B(  2-C ,  3-C ) :   1.0536
B(  2-C ,  5-C ) :   0.9368 B(  2-C , 10-H ) :   0.8778 B(  3-C ,  4-C ) :   1.1312
B(  3-C , 11-H ) :   0.9205 B(  3-C , 12-H ) :   0.9036 B(  4-C ,  5-C ) :   1.0304
B(  4-C , 13-H ) :   0.9211 B(  4-C , 14-H ) :   0.9022 B(  5-C ,  6-O ) :   2.1802

FINAL SINGLE POINT ENERGY      -345.089222173839

DIPOLE MOMENT
-------------
                                X             Y             Z
Electronic contribution:     -4.73861      -1.38381       0.12380
Nuclear contribution   :      5.86460       1.16291      -0.43240
                        -----------------------------------------
Total Dipole Moment    :      1.12599      -0.22090      -0.30860
                        -----------------------------------------
Magnitude (a.u.)       :      1.18823
Magnitude (Debye)      :      3.02024

                             ****ORCA TERMINATED NORMALLY****
TOTAL RUN TIME: 0 days 0 hours 0 minutes 7 seconds 114 msec
