                         Program Version 3.0.3 - RELEASE   -
|  1> ! RI PBE def2-SVP def2-SVP/J NBO PAL2
|  2> % maxcore 2000
|  3> % output
|  4>     # printlevel mini
|  5>     print[ P_Basis ] 0
|  6>     print[ P_SCFInfo ] 1
|  7>     print[ P_SCFIterInfo ] 1
|  8>     print[ P_OrbEn ] 0
|  9>     print[ P_Cartesian ] 0
| 10> end
| 11> *xyz 0 1
| 12>  O        2.3677320000     0.5363800000    -0.9960010000
| 13>  C        1.9830670000     0.1182310000     0.0607410000
| 14>  C        2.8295620000    -0.1077580000     1.2745390000
| 15>  C        2.3855090000     0.7782140000     2.4492810000
| 16>  C        2.8221510000    -0.0110430000     3.6770510000
| 17>  C        2.4403210000    -1.4433530000     3.3201630000
| 18>  C        2.6990730000    -1.5572280000     1.8068740000
| 19>  H        0.9063310000    -0.1384880000     0.2085320000
| 20>  H        3.8640190000     0.1172660000     1.0061880000
| 21>  H        1.2928800000     0.8788570000     2.4479100000
| 22>  H        2.8067590000     1.7832440000     2.3908820000
| 23>  H        2.3568840000     0.3409050000     4.6003310000
| 24>  H        3.9067840000     0.0736750000     3.8020010000
| 25>  H        1.3788580000    -1.6014890000     3.5318190000
| 26>  H        2.9936490000    -2.1890550000     3.8942030000
| 27>  H        1.8870710000    -2.0937340000     1.3065720000
| 28>  H        3.6132610000    -2.1122130000     1.5903050000
| 29> *
| 30>
| 31>                          ****END OF INPUT****
 Total Charge           Charge          ....    0
 Multiplicity           Mult            ....    1
 Number of Electrons    NEL             ....   54
 Basis Dimension        Dim             ....  148

MULLIKEN ATOMIC CHARGES
-----------------------
   0 O :   -0.153010
   1 C :    0.127051
   2 C :   -0.151867
   3 C :    0.028152
   4 C :   -0.005041
   5 C :   -0.010415
   6 C :    0.045633
   7 H :   -0.022238
   8 H :    0.009197
   9 H :    0.014859
  10 H :    0.024805
  11 H :    0.015240
  12 H :    0.017397
  13 H :    0.009205
  14 H :    0.014629
  15 H :    0.012831
  16 H :    0.023570
Sum of atomic charges:   -0.0000000

LOEWDIN ATOMIC CHARGES
----------------------
   0 O :   -0.105856
   1 C :    0.086642
   2 C :   -0.076529
   3 C :   -0.025651
   4 C :   -0.040461
   5 C :   -0.040306
   6 C :   -0.028866
   7 H :   -0.016596
   8 H :    0.031361
   9 H :    0.024376
  10 H :    0.029220
  11 H :    0.025603
  12 H :    0.025829
  13 H :    0.025109
  14 H :    0.027537
  15 H :    0.026288
  16 H :    0.032301

  Mayer bond orders larger than 0.1
B(  0-O ,  1-C ) :   2.1972 B(  1-C ,  2-C ) :   0.9380 B(  1-C ,  7-H ) :   0.9098
B(  2-C ,  3-C ) :   1.0565 B(  2-C ,  6-C ) :   1.0409 B(  2-C ,  8-H ) :   0.9001
B(  3-C ,  4-C ) :   1.0719 B(  3-C ,  9-H ) :   0.9295 B(  3-C , 10-H ) :   0.9358
B(  4-C ,  5-C ) :   1.1209 B(  4-C , 11-H ) :   0.9367 B(  4-C , 12-H ) :   0.9317
B(  5-C ,  6-C ) :   1.1123 B(  5-C , 13-H ) :   0.9300 B(  5-C , 14-H ) :   0.9301
B(  6-C , 15-H ) :   0.9284 B(  6-C , 16-H ) :   0.9262

FINAL SINGLE POINT ENERGY      -309.245172984825

DIPOLE MOMENT
-------------
                                X             Y             Z
Electronic contribution:     -0.08215       2.07692      -6.83533
Nuclear contribution   :      0.02249      -2.41612       7.89007
                        -----------------------------------------
Total Dipole Moment    :     -0.05967      -0.33920       1.05475
                        -----------------------------------------
Magnitude (a.u.)       :      1.10955
Magnitude (Debye)      :      2.82026

                             ****ORCA TERMINATED NORMALLY****
TOTAL RUN TIME: 0 days 0 hours 0 minutes 6 seconds 920 msec
