                         Program Version 3.0.3 - RELEASE   -
|  1> ! RI PBE def2-SVP def2-SVP/J NBO PAL2
|  2> % maxcore 2000
|  3> % output
|  4>     # printlevel mini
|  5>     print[ P_Basis ] 0
|  6>     print[ P_SCFInfo ] 1
|  7>     print[ P_SCFIterInfo ] 1
|  8>     print[ P_OrbEn ] 0
|  9>     print[ P_Cartesian ] 0
| 10> end
| 11> *xyz 0 1
| 12>  O        2.9180480000     1.6591460000     0.8736090000
| 13>  C        2.8019430000     0.5057250000     1.2118220000
| 14>  C        2.2666590000    -0.5518290000     0.3623310000
| 15>  C        2.1896070000    -1.8334640000     0.7376290000
| 16>  C        1.6499020000    -2.7014050000    -0.3518280000
| 17>  C        1.0787390000    -1.6846760000    -1.3574800000
| 18>  C        1.7885970000    -0.3556450000    -1.0474980000
| 19>  H        3.1079530000     0.1768250000     2.2283190000
| 20>  H        2.5160970000    -2.2099340000     1.7017720000
| 21>  H        0.9061360000    -3.4196060000     0.0044280000
| 22>  H        2.4649910000    -3.2971000000    -0.7843600000
| 23>  H        0.0062960000    -1.5716190000    -1.1804120000
| 24>  H        1.2028580000    -2.0011760000    -2.3937710000
| 25>  H        1.1384890000     0.5155550000    -1.1480570000
| 26>  H        2.6451570000    -0.1782180000    -1.7077130000
| 27> *
| 28>
| 29>                          ****END OF INPUT****
 Total Charge           Charge          ....    0
 Multiplicity           Mult            ....    1
 Number of Electrons    NEL             ....   52
 Basis Dimension        Dim             ....  138

MULLIKEN ATOMIC CHARGES
-----------------------
   0 O :   -0.165191
   1 C :    0.135254
   2 C :   -0.135979
   3 C :   -0.069761
   4 C :    0.046653
   5 C :   -0.042766
   6 C :    0.093404
   7 H :   -0.040287
   8 H :   -0.003289
   9 H :    0.030367
  10 H :    0.039045
  11 H :    0.034297
  12 H :    0.017103
  13 H :    0.027628
  14 H :    0.033523
Sum of atomic charges:    0.0000000

LOEWDIN ATOMIC CHARGES
----------------------
   0 O :   -0.119786
   1 C :    0.071172
   2 C :   -0.084911
   3 C :    0.015955
   4 C :   -0.040001
   5 C :   -0.033330
   6 C :   -0.027951
   7 H :   -0.014023
   8 H :    0.026035
   9 H :    0.034375
  10 H :    0.040751
  11 H :    0.031749
  12 H :    0.026367
  13 H :    0.035083
  14 H :    0.038516

  Mayer bond orders larger than 0.1
B(  0-O ,  1-C ) :   2.1437 B(  1-C ,  2-C ) :   1.0327 B(  1-C ,  7-H ) :   0.9334
B(  2-C ,  3-C ) :   1.7299 B(  2-C ,  6-C ) :   1.0339 B(  3-C ,  4-C ) :   1.0262
B(  3-C ,  8-H ) :   0.9782 B(  4-C ,  5-C ) :   1.1007 B(  4-C ,  9-H ) :   0.9266
B(  4-C , 10-H ) :   0.9076 B(  5-C ,  6-C ) :   1.0952 B(  5-C , 11-H ) :   0.9415
B(  5-C , 12-H ) :   0.9387 B(  6-C , 13-H ) :   0.9250 B(  6-C , 14-H ) :   0.9084

FINAL SINGLE POINT ENERGY      -308.038477173101

DIPOLE MOMENT
-------------
                                X             Y             Z
Electronic contribution:      2.37445       4.86238       3.33124
Nuclear contribution   :     -2.65343      -6.12972      -3.48073
                        -----------------------------------------
Total Dipole Moment    :     -0.27898      -1.26734      -0.14949
                        -----------------------------------------
Magnitude (a.u.)       :      1.30627
Magnitude (Debye)      :      3.32028

                             ****ORCA TERMINATED NORMALLY****
TOTAL RUN TIME: 0 days 0 hours 0 minutes 6 seconds 848 msec
