                         Program Version 3.0.3 - RELEASE   -
|  1> ! RI PBE def2-SVP def2-SVP/J NBO PAL2
|  2> % maxcore 2000
|  3> % output
|  4>     # printlevel mini
|  5>     print[ P_Basis ] 0
|  6>     print[ P_SCFInfo ] 1
|  7>     print[ P_SCFIterInfo ] 1
|  8>     print[ P_OrbEn ] 0
|  9>     print[ P_Cartesian ] 0
| 10> end
| 11> *xyz 0 1
| 12>  O        1.3965360000    -0.1366020000     0.8409830000
| 13>  C        2.1942110000     0.1865210000    -0.0097070000
| 14>  C        2.8124680000    -0.7264970000    -0.9503360000
| 15>  C        3.7046780000    -0.3841740000    -1.9098330000
| 16>  C        4.0967760000    -1.5655400000    -2.6506120000
| 17>  C        3.4447270000    -2.6299450000    -2.1445630000
| 18>  C        2.5706580000    -2.1967110000    -1.0204460000
| 19>  H        2.5057100000     1.2471820000    -0.1221310000
| 20>  H        4.0706470000     0.6185760000    -2.0967220000
| 21>  H        4.7994430000    -1.5751260000    -3.4731180000
| 22>  H        3.5272400000    -3.6531710000    -2.4860750000
| 23>  H        2.8218270000    -2.6974390000    -0.0772210000
| 24>  H        1.5132890000    -2.4287740000    -1.1982190000
| 25> *
| 26>
| 27>                          ****END OF INPUT****
 Total Charge           Charge          ....    0
 Multiplicity           Mult            ....    1
 Number of Electrons    NEL             ....   50
 Basis Dimension        Dim             ....  128

MULLIKEN ATOMIC CHARGES
-----------------------
   0 O :   -0.173898
   1 C :    0.127844
   2 C :   -0.150870
   3 C :    0.018061
   4 C :    0.028480
   5 C :   -0.071706
   6 C :    0.145745
   7 H :   -0.041440
   8 H :   -0.009589
   9 H :   -0.005973
  10 H :    0.004389
  11 H :    0.064549
  12 H :    0.064408
Sum of atomic charges:   -0.0000000

LOEWDIN ATOMIC CHARGES
----------------------
   0 O :   -0.132956
   1 C :    0.061619
   2 C :   -0.085639
   3 C :    0.010194
   4 C :   -0.036781
   5 C :    0.000288
   6 C :   -0.023795
   7 H :   -0.013757
   8 H :    0.028530
   9 H :    0.027745
  10 H :    0.026942
  11 H :    0.068806
  12 H :    0.068803

  Mayer bond orders larger than 0.1
B(  0-O ,  1-C ) :   2.1349 B(  1-C ,  2-C ) :   1.0531 B(  1-C ,  7-H ) :   0.9356
B(  2-C ,  3-C ) :   1.5931 B(  2-C ,  6-C ) :   1.0509 B(  3-C ,  4-C ) :   1.1024
B(  3-C ,  8-H ) :   0.9940 B(  4-C ,  5-C ) :   1.6772 B(  4-C ,  9-H ) :   1.0026
B(  5-C ,  6-C ) :   1.0612 B(  5-C , 10-H ) :   0.9917 B(  6-C , 11-H ) :   0.8767
B(  6-C , 12-H ) :   0.8756

FINAL SINGLE POINT ENERGY      -306.830226591650

DIPOLE MOMENT
-------------
                                X             Y             Z
Electronic contribution:     -1.29583       1.64802       1.90905
Nuclear contribution   :      2.00831      -2.05191      -2.83598
                        -----------------------------------------
Total Dipole Moment    :      0.71248      -0.40390      -0.92694
                        -----------------------------------------
Magnitude (a.u.)       :      1.23692
Magnitude (Debye)      :      3.14400

                             ****ORCA TERMINATED NORMALLY****
TOTAL RUN TIME: 0 days 0 hours 0 minutes 6 seconds 740 msec
