                         Program Version 3.0.3 - RELEASE   -
|  1> ! RI PBE def2-SVP def2-SVP/J NBO PAL2
|  2> % maxcore 2000
|  3> % output
|  4>     # printlevel mini
|  5>     print[ P_Basis ] 0
|  6>     print[ P_SCFInfo ] 1
|  7>     print[ P_SCFIterInfo ] 1
|  8>     print[ P_OrbEn ] 0
|  9>     print[ P_Cartesian ] 0
| 10> end
| 11> *xyz 0 1
| 12>  O        2.4025540000     1.1663550000     0.0235210000
| 13>  C        2.2040130000    -0.0234550000     0.0318150000
| 14>  C        2.8566250000    -0.9767070000    -0.8631940000
| 15>  C        2.6375820000    -2.3085470000    -0.8574510000
| 16>  C        3.4797540000    -2.9444290000    -1.9064220000
| 17>  C        4.2087980000    -1.7876150000    -2.5099280000
| 18>  C        3.8393360000    -0.6546010000    -1.8973930000
| 19>  H        1.4863570000    -0.4768820000     0.7481660000
| 20>  H        1.9617770000    -2.8427740000    -0.2020240000
| 21>  H        2.8705080000    -3.4862340000    -2.6423530000
| 22>  H        4.1609520000    -3.6934630000    -1.4806950000
| 23>  H        4.9211860000    -1.8817790000    -3.3180890000
| 24>  H        4.1865580000     0.3480310000    -2.1042530000
| 25> *
| 26>
| 27>                          ****END OF INPUT****
 Total Charge           Charge          ....    0
 Multiplicity           Mult            ....    1
 Number of Electrons    NEL             ....   50
 Basis Dimension        Dim             ....  128

MULLIKEN ATOMIC CHARGES
-----------------------
   0 O :   -0.160054
   1 C :    0.133196
   2 C :   -0.018853
   3 C :   -0.102552
   4 C :    0.092795
   5 C :   -0.082353
   6 C :    0.046899
   7 H :   -0.034662
   8 H :    0.003294
   9 H :    0.064270
  10 H :    0.063711
  11 H :    0.002062
  12 H :   -0.007754
Sum of atomic charges:   -0.0000000

LOEWDIN ATOMIC CHARGES
----------------------
   0 O :   -0.115010
   1 C :    0.075684
   2 C :   -0.086921
   3 C :    0.009056
   4 C :   -0.035827
   5 C :   -0.029454
   6 C :   -0.016164
   7 H :   -0.012465
   8 H :    0.027171
   9 H :    0.064031
  10 H :    0.063790
  11 H :    0.025204
  12 H :    0.030903

  Mayer bond orders larger than 0.1
B(  0-O ,  1-C ) :   2.1550 B(  1-C ,  2-C ) :   1.0066 B(  1-C ,  7-H ) :   0.9357
B(  2-C ,  3-C ) :   1.6346 B(  2-C ,  6-C ) :   1.0773 B(  3-C ,  4-C ) :   1.0397
B(  3-C ,  8-H ) :   0.9885 B(  4-C ,  5-C ) :   1.0651 B(  4-C ,  9-H ) :   0.8847
B(  4-C , 10-H ) :   0.8855 B(  5-C ,  6-C ) :   1.7237 B(  5-C , 11-H ) :   0.9919
B(  6-C , 12-H ) :   1.0115

FINAL SINGLE POINT ENERGY      -306.825106238153

DIPOLE MOMENT
-------------
                                X             Y             Z
Electronic contribution:     -0.95788       4.00124       1.77879
Nuclear contribution   :      1.07448      -5.40045      -2.15697
                        -----------------------------------------
Total Dipole Moment    :      0.11660      -1.39921      -0.37818
                        -----------------------------------------
Magnitude (a.u.)       :      1.45409
Magnitude (Debye)      :      3.69601

                             ****ORCA TERMINATED NORMALLY****
TOTAL RUN TIME: 0 days 0 hours 0 minutes 6 seconds 380 msec
