                         Program Version 3.0.3 - RELEASE   -
|  1> ! RI PBE def2-SVP def2-SVP/J NBO PAL2
|  2> % maxcore 2000
|  3> % output
|  4>     # printlevel mini
|  5>     print[ P_Basis ] 0
|  6>     print[ P_SCFInfo ] 1
|  7>     print[ P_SCFIterInfo ] 1
|  8>     print[ P_OrbEn ] 0
|  9>     print[ P_Cartesian ] 0
| 10> end
| 11> *xyz 0 1
| 12>  O        1.5649010000    -0.4787650000    -0.8841620000
| 13>  C        2.0141880000     0.1663130000     0.0182500000
| 14>  C        3.1027190000     1.2075730000    -0.1105180000
| 15>  C        2.7598210000     2.5041890000     0.5659650000
| 16>  C        2.9522230000     3.5042290000    -0.3060830000
| 17>  C        3.4050230000     2.9564710000    -1.5819030000
| 18>  C        3.4845700000     1.6209330000    -1.4913450000
| 19>  H        1.6543090000     0.0197850000     1.0596390000
| 20>  H        3.9746780000     0.7642790000     0.4041840000
| 21>  H        2.4289370000     2.5841800000     1.5922010000
| 22>  H        2.8007620000     4.5570380000    -0.1059210000
| 23>  H        3.6252440000     3.5483880000    -2.4606950000
| 24>  H        3.7571470000     0.9252860000    -2.2711110000
| 25> *
| 26>
| 27>                          ****END OF INPUT****
 Total Charge           Charge          ....    0
 Multiplicity           Mult            ....    1
 Number of Electrons    NEL             ....   50
 Basis Dimension        Dim             ....  128

MULLIKEN ATOMIC CHARGES
-----------------------
   0 O :   -0.142704
   1 C :    0.128235
   2 C :   -0.039771
   3 C :   -0.040654
   4 C :    0.021383
   5 C :    0.008716
   6 C :   -0.002019
   7 H :   -0.004780
   8 H :    0.080048
   9 H :   -0.000643
  10 H :   -0.005372
  11 H :   -0.006393
  12 H :    0.003953
Sum of atomic charges:   -0.0000000

LOEWDIN ATOMIC CHARGES
----------------------
   0 O :   -0.094774
   1 C :    0.107828
   2 C :   -0.079924
   3 C :   -0.032527
   4 C :   -0.029721
   5 C :   -0.029018
   6 C :   -0.018471
   7 H :   -0.008925
   8 H :    0.080888
   9 H :    0.023800
  10 H :    0.026677
  11 H :    0.026123
  12 H :    0.028043

  Mayer bond orders larger than 0.1
B(  0-O ,  1-C ) :   2.2205 B(  1-C ,  2-C ) :   0.8880 B(  1-C ,  7-H ) :   0.9263
B(  2-C ,  3-C ) :   1.0014 B(  2-C ,  6-C ) :   1.0163 B(  2-C ,  8-H ) :   0.8355
B(  3-C ,  4-C ) :   1.7257 B(  3-C ,  9-H ) :   0.9879 B(  4-C ,  5-C ) :   1.0945
B(  4-C , 10-H ) :   0.9992 B(  5-C ,  6-C ) :   1.7263 B(  5-C , 11-H ) :   0.9986
B(  6-C , 12-H ) :   0.9936

FINAL SINGLE POINT ENERGY      -306.811938162793

DIPOLE MOMENT
-------------
                                X             Y             Z
Electronic contribution:     -1.29657      -2.26769      -0.80155
Nuclear contribution   :      1.77000       2.72077       1.36426
                        -----------------------------------------
Total Dipole Moment    :      0.47342       0.45308       0.56271
                        -----------------------------------------
Magnitude (a.u.)       :      0.86375
Magnitude (Debye)      :      2.19547

                             ****ORCA TERMINATED NORMALLY****
TOTAL RUN TIME: 0 days 0 hours 0 minutes 6 seconds 394 msec
