                         Program Version 3.0.3 - RELEASE   -
|  1> ! RI PBE def2-SVP def2-SVP/J NBO PAL2
|  2> % maxcore 2000
|  3> % output
|  4>     # printlevel mini
|  5>     print[ P_Basis ] 0
|  6>     print[ P_SCFInfo ] 1
|  7>     print[ P_SCFIterInfo ] 1
|  8>     print[ P_OrbEn ] 0
|  9>     print[ P_Cartesian ] 0
| 10> end
| 11> *xyz 0 1
| 12>  O        2.4864990000     1.2132230000     0.0396650000
| 13>  C        2.2348170000     0.0445040000    -0.0617410000
| 14>  C        3.0776890000    -0.9679640000    -0.7792260000
| 15>  C        3.4811340000    -2.1004380000     0.2007170000
| 16>  C        2.7010660000    -3.2892370000    -0.2697040000
| 17>  C        2.0354810000    -3.0486160000    -1.3911520000
| 18>  C        2.2397200000    -1.6516460000    -1.8909540000
| 19>  H        1.3095820000    -0.3774020000     0.3968830000
| 20>  H        3.9458710000    -0.4468310000    -1.1826790000
| 21>  H        3.2525450000    -1.8444510000     1.2425620000
| 22>  H        4.5599290000    -2.2849480000     0.1685400000
| 23>  H        2.7113790000    -4.2376710000     0.2549090000
| 24>  H        1.4225000000    -3.7717200000    -1.9167280000
| 25>  H        1.2885010000    -1.1344150000    -2.0666760000
| 26>  H        2.7686970000    -1.6373880000    -2.8495250000
| 27> *
| 28>
| 29>                          ****END OF INPUT****
 Total Charge           Charge          ....    0
 Multiplicity           Mult            ....    1
 Number of Electrons    NEL             ....   52
 Basis Dimension        Dim             ....  138

MULLIKEN ATOMIC CHARGES
-----------------------
   0 O :   -0.157201
   1 C :    0.121628
   2 C :   -0.132431
   3 C :    0.079272
   4 C :   -0.064816
   5 C :   -0.062263
   6 C :    0.088871
   7 H :   -0.019165
   8 H :    0.012351
   9 H :    0.031413
  10 H :    0.039664
  11 H :   -0.000528
  12 H :   -0.000146
  13 H :    0.027341
  14 H :    0.036010
Sum of atomic charges:   -0.0000000

LOEWDIN ATOMIC CHARGES
----------------------
   0 O :   -0.106877
   1 C :    0.092429
   2 C :   -0.066011
   3 C :   -0.026831
   4 C :   -0.037346
   5 C :   -0.036933
   6 C :   -0.025844
   7 H :   -0.013487
   8 H :    0.032582
   9 H :    0.031155
  10 H :    0.038229
  11 H :    0.025227
  12 H :    0.025354
  13 H :    0.030649
  14 H :    0.037701

  Mayer bond orders larger than 0.1
B(  0-O ,  1-C ) :   2.1908 B(  1-C ,  2-C ) :   0.9342 B(  1-C ,  7-H ) :   0.9178
B(  2-C ,  3-C ) :   1.0394 B(  2-C ,  6-C ) :   1.0408 B(  2-C ,  8-H ) :   0.9006
B(  3-C ,  4-C ) :   1.0207 B(  3-C ,  9-H ) :   0.9290 B(  3-C , 10-H ) :   0.9140
B(  4-C ,  5-C ) :   1.8727 B(  4-C , 11-H ) :   0.9822 B(  5-C ,  6-C ) :   1.0200
B(  5-C , 12-H ) :   0.9828 B(  6-C , 13-H ) :   0.9276 B(  6-C , 14-H ) :   0.9132

FINAL SINGLE POINT ENERGY      -308.025958388175

DIPOLE MOMENT
-------------
                                X             Y             Z
Electronic contribution:     -0.34506       3.67559       0.99323
Nuclear contribution   :      0.37516      -4.67334      -1.22539
                        -----------------------------------------
Total Dipole Moment    :      0.03010      -0.99775      -0.23216
                        -----------------------------------------
Magnitude (a.u.)       :      1.02484
Magnitude (Debye)      :      2.60494

                             ****ORCA TERMINATED NORMALLY****
TOTAL RUN TIME: 0 days 0 hours 0 minutes 6 seconds 908 msec
