                         Program Version 3.0.3 - RELEASE   -
|  1> ! RI PBE def2-SVP def2-SVP/J NBO PAL2
|  2> % maxcore 2000
|  3> % output
|  4>     # printlevel mini
|  5>     print[ P_Basis ] 0
|  6>     print[ P_SCFInfo ] 1
|  7>     print[ P_SCFIterInfo ] 1
|  8>     print[ P_OrbEn ] 0
|  9>     print[ P_Cartesian ] 0
| 10> end
| 11> *xyz 0 1
| 12>  O        1.5565140000     0.6064190000     0.8459620000
| 13>  C        2.0198430000    -0.0855720000    -0.0161530000
| 14>  C        2.8898000000     0.3901250000    -1.1552990000
| 15>  C        4.2282990000    -0.3830000000    -1.2328430000
| 16>  C        5.2976030000     0.5965440000    -0.7181620000
| 17>  C        4.6156510000     1.9296750000    -0.7930880000
| 18>  C        3.3149660000     1.8224030000    -1.0314300000
| 19>  H        1.8176580000    -1.1816470000    -0.0310740000
| 20>  H        2.2907380000     0.1999970000    -2.0579360000
| 21>  H        4.4353840000    -0.6462190000    -2.2711400000
| 22>  H        4.2022260000    -1.3172590000    -0.6661570000
| 23>  H        6.2121360000     0.5543570000    -1.3163830000
| 24>  H        5.5953810000     0.3787550000     0.3146300000
| 25>  H        5.1366970000     2.8649550000    -0.6236660000
| 26>  H        2.6141820000     2.6458770000    -1.0761710000
| 27> *
| 28>
| 29>                          ****END OF INPUT****
 Total Charge           Charge          ....    0
 Multiplicity           Mult            ....    1
 Number of Electrons    NEL             ....   52
 Basis Dimension        Dim             ....  138

MULLIKEN ATOMIC CHARGES
-----------------------
   0 O :   -0.147670
   1 C :    0.117775
   2 C :   -0.099371
   3 C :    0.017100
   4 C :    0.059306
   5 C :   -0.075371
   6 C :    0.012075
   7 H :   -0.011368
   8 H :    0.038169
   9 H :    0.022100
  10 H :    0.011032
  11 H :    0.025160
  12 H :    0.030536
  13 H :   -0.001310
  14 H :    0.001835
Sum of atomic charges:    0.0000000

LOEWDIN ATOMIC CHARGES
----------------------
   0 O :   -0.102188
   1 C :    0.092106
   2 C :   -0.085029
   3 C :   -0.018400
   4 C :   -0.038814
   5 C :   -0.026043
   6 C :   -0.026746
   7 H :   -0.014311
   8 H :    0.046890
   9 H :    0.031239
  10 H :    0.024096
  11 H :    0.031076
  12 H :    0.034798
  13 H :    0.024241
  14 H :    0.027085

  Mayer bond orders larger than 0.1
B(  0-O ,  1-C ) :   2.2185 B(  1-C ,  2-C ) :   0.9067 B(  1-C ,  7-H ) :   0.9220
B(  2-C ,  3-C ) :   1.0606 B(  2-C ,  6-C ) :   0.9884 B(  2-C ,  8-H ) :   0.8771
B(  3-C ,  4-C ) :   1.0932 B(  3-C ,  9-H ) :   0.9302 B(  3-C , 10-H ) :   0.9368
B(  4-C ,  5-C ) :   1.0428 B(  4-C , 11-H ) :   0.9317 B(  4-C , 12-H ) :   0.9146
B(  5-C ,  6-C ) :   1.8703 B(  5-C , 13-H ) :   0.9866 B(  6-C , 14-H ) :   0.9890

FINAL SINGLE POINT ENERGY      -308.025576035236

DIPOLE MOMENT
-------------
                                X             Y             Z
Electronic contribution:     -4.26249       1.39167       2.34076
Nuclear contribution   :      4.81892      -1.75579      -3.03874
                        -----------------------------------------
Total Dipole Moment    :      0.55643      -0.36411      -0.69799
                        -----------------------------------------
Magnitude (a.u.)       :      0.96404
Magnitude (Debye)      :      2.45040

                             ****ORCA TERMINATED NORMALLY****
TOTAL RUN TIME: 0 days 0 hours 0 minutes 6 seconds 913 msec
