                         Program Version 3.0.3 - RELEASE   -
|  1> ! RI PBE def2-SVP def2-SVP/J NBO PAL2
|  2> % maxcore 2000
|  3> % output
|  4>     # printlevel mini
|  5>     print[ P_Basis ] 0
|  6>     print[ P_SCFInfo ] 1
|  7>     print[ P_SCFIterInfo ] 1
|  8>     print[ P_OrbEn ] 0
|  9>     print[ P_Cartesian ] 0
| 10> end
| 11> *xyz 0 1
| 12>  O        1.3024960000    -0.2997320000     0.7100410000
| 13>  C        2.4962800000     0.0350480000     0.0191980000
| 14>  C        2.9339740000     1.3912920000     0.4404590000
| 15>  C        4.1131400000     1.7115910000     0.9666810000
| 16>  C        4.2140230000     3.1709600000     1.2934880000
| 17>  C        2.9952840000     3.7713530000     0.5707720000
| 18>  C        2.0357470000     2.5938240000     0.3382850000
| 19>  H        0.9270460000    -1.0828660000     0.3017410000
| 20>  H        2.3160700000     0.0365080000    -1.0669550000
| 21>  H        3.2917030000    -0.6929820000     0.2254280000
| 22>  H        4.9019590000     0.9986780000     1.1829480000
| 23>  H        5.1574650000     3.6202430000     0.9696850000
| 24>  H        4.1601930000     3.3197090000     2.3799670000
| 25>  H        3.3143230000     4.1720120000    -0.3950020000
| 26>  H        2.5358120000     4.5921050000     1.1241230000
| 27>  H        1.5193830000     2.6525390000    -0.6251990000
| 28>  H        1.2526010000     2.5352180000     1.1025400000
| 29> *
| 30>
| 31>                          ****END OF INPUT****
 Total Charge           Charge          ....    0
 Multiplicity           Mult            ....    1
 Number of Electrons    NEL             ....   54
 Basis Dimension        Dim             ....  148

MULLIKEN ATOMIC CHARGES
-----------------------
   0 O :   -0.279632
   1 C :    0.235732
   2 C :   -0.178684
   3 C :   -0.092110
   4 C :    0.046263
   5 C :   -0.023277
   6 C :    0.079721
   7 H :    0.152611
   8 H :    0.002924
   9 H :   -0.016641
  10 H :   -0.025906
  11 H :    0.009729
  12 H :    0.029460
  13 H :    0.016182
  14 H :    0.007270
  15 H :    0.002993
  16 H :    0.033364
Sum of atomic charges:    0.0000000

LOEWDIN ATOMIC CHARGES
----------------------
   0 O :   -0.130693
   1 C :    0.061000
   2 C :   -0.051921
   3 C :   -0.040805
   4 C :   -0.041746
   5 C :   -0.033837
   6 C :   -0.033125
   7 H :    0.068644
   8 H :    0.011668
   9 H :    0.007017
  10 H :    0.017980
  11 H :    0.024738
  12 H :    0.031867
  13 H :    0.026704
  14 H :    0.022173
  15 H :    0.024900
  16 H :    0.035435

  Mayer bond orders larger than 0.1
B(  0-O ,  1-C ) :   1.1030 B(  0-O ,  7-H ) :   0.9788 B(  1-C ,  2-C ) :   1.0779
B(  1-C ,  8-H ) :   0.9105 B(  1-C ,  9-H ) :   0.9171 B(  2-C ,  3-C ) :   1.8678
B(  2-C ,  6-C ) :   1.0364 B(  3-C ,  4-C ) :   1.0245 B(  3-C , 10-H ) :   0.9754
B(  4-C ,  5-C ) :   1.1094 B(  4-C , 11-H ) :   0.9300 B(  4-C , 12-H ) :   0.9137
B(  5-C ,  6-C ) :   1.0987 B(  5-C , 13-H ) :   0.9394 B(  5-C , 14-H ) :   0.9369
B(  6-C , 15-H ) :   0.9252 B(  6-C , 16-H ) :   0.9075

FINAL SINGLE POINT ENERGY      -309.223908248424

DIPOLE MOMENT
-------------
                                X             Y             Z
Electronic contribution:     -1.07265      -3.13406       0.46816
Nuclear contribution   :      1.14367       2.84073      -0.87409
                        -----------------------------------------
Total Dipole Moment    :      0.07101      -0.29333      -0.40593
                        -----------------------------------------
Magnitude (a.u.)       :      0.50583
Magnitude (Debye)      :      1.28571

                             ****ORCA TERMINATED NORMALLY****
TOTAL RUN TIME: 0 days 0 hours 0 minutes 7 seconds 292 msec
