                         Program Version 3.0.3 - RELEASE   -
|  1> ! RI PBE def2-SVP def2-SVP/J NBO PAL2
|  2> % maxcore 2000
|  3> % output
|  4>     # printlevel mini
|  5>     print[ P_Basis ] 0
|  6>     print[ P_SCFInfo ] 1
|  7>     print[ P_SCFIterInfo ] 1
|  8>     print[ P_OrbEn ] 0
|  9>     print[ P_Cartesian ] 0
| 10> end
| 11> *xyz 0 1
| 12>  O        1.5246810000    -0.7346580000    -0.6227520000
| 13>  C        2.3707320000     0.1454370000     0.1027820000
| 14>  C        2.8133510000     1.2434320000    -0.7902580000
| 15>  C        2.7077690000     2.5670000000    -0.5783960000
| 16>  C        3.2997850000     3.2900110000    -1.6975520000
| 17>  C        3.7598170000     2.4068400000    -2.5974930000
| 18>  C        3.4946880000     1.0235460000    -2.1042580000
| 19>  H        1.3703020000    -1.5149470000    -0.0851580000
| 20>  H        3.2481640000    -0.4038300000     0.4779440000
| 21>  H        1.8509680000     0.5701410000     0.9715980000
| 22>  H        2.2502560000     3.0324870000     0.2863670000
| 23>  H        3.3437500000     4.3684260000    -1.7803560000
| 24>  H        4.2370640000     2.6335090000    -3.5411160000
| 25>  H        4.4183050000     0.4406340000    -1.9913830000
| 26>  H        2.8599680000     0.4494920000    -2.7905570000
| 27> *
| 28>
| 29>                          ****END OF INPUT****
 Total Charge           Charge          ....    0
 Multiplicity           Mult            ....    1
 Number of Electrons    NEL             ....   52
 Basis Dimension        Dim             ....  138

MULLIKEN ATOMIC CHARGES
-----------------------
   0 O :   -0.278773
   1 C :    0.252359
   2 C :   -0.210408
   3 C :   -0.006321
   4 C :    0.014514
   5 C :   -0.075444
   6 C :    0.130817
   7 H :    0.152112
   8 H :   -0.000096
   9 H :   -0.018236
  10 H :   -0.029331
  11 H :   -0.017352
  12 H :   -0.013160
  13 H :    0.040871
  14 H :    0.058450
Sum of atomic charges:   -0.0000000

LOEWDIN ATOMIC CHARGES
----------------------
   0 O :   -0.132268
   1 C :    0.060223
   2 C :   -0.050128
   3 C :   -0.040064
   4 C :   -0.042248
   5 C :   -0.034625
   6 C :   -0.029913
   7 H :    0.068004
   8 H :    0.011672
   9 H :    0.008820
  10 H :    0.020429
  11 H :    0.022202
  12 H :    0.020144
  13 H :    0.055845
  14 H :    0.061907

  Mayer bond orders larger than 0.1
B(  0-O ,  1-C ) :   1.1082 B(  0-O ,  7-H ) :   0.9783 B(  1-C ,  2-C ) :   1.0790
B(  1-C ,  8-H ) :   0.9087 B(  1-C ,  9-H ) :   0.9135 B(  2-C ,  3-C ) :   1.7396
B(  2-C ,  5-C ) :   0.1042 B(  2-C ,  6-C ) :   1.0640 B(  3-C ,  4-C ) :   1.0783
B(  3-C , 10-H ) :   0.9919 B(  4-C ,  5-C ) :   1.7309 B(  4-C , 11-H ) :   0.9963
B(  5-C ,  6-C ) :   1.0507 B(  5-C , 12-H ) :   0.9887 B(  6-C , 13-H ) :   0.8828
B(  6-C , 14-H ) :   0.8784

FINAL SINGLE POINT ENERGY      -308.012823443973

DIPOLE MOMENT
-------------
                                X             Y             Z
Electronic contribution:     -0.83854       0.47638      -0.29292
Nuclear contribution   :      1.04353      -0.89426       0.70907
                        -----------------------------------------
Total Dipole Moment    :      0.20499      -0.41788       0.41615
                        -----------------------------------------
Magnitude (a.u.)       :      0.62437
Magnitude (Debye)      :      1.58701

                             ****ORCA TERMINATED NORMALLY****
TOTAL RUN TIME: 0 days 0 hours 0 minutes 6 seconds 307 msec
