                         Program Version 3.0.3 - RELEASE   -
|  1> ! RI PBE def2-SVP def2-SVP/J NBO PAL2
|  2> % maxcore 2000
|  3> % output
|  4>     # printlevel mini
|  5>     print[ P_Basis ] 0
|  6>     print[ P_SCFInfo ] 1
|  7>     print[ P_SCFIterInfo ] 1
|  8>     print[ P_OrbEn ] 0
|  9>     print[ P_Cartesian ] 0
| 10> end
| 11> *xyz 0 1
| 12>  O        1.6254230000    -0.2826170000     1.1837670000
| 13>  C        2.3841930000    -0.0788280000     0.0039300000
| 14>  C        2.8951170000     1.3174840000    -0.0098710000
| 15>  C        4.1655220000     1.7160850000    -0.1902300000
| 16>  C        4.2261700000     3.2065900000    -0.1770730000
| 17>  C        2.8040560000     3.6045360000     0.0451700000
| 18>  C        2.0474230000     2.5020420000     0.1399830000
| 19>  H        1.1623390000    -1.1194550000     1.1037090000
| 20>  H        1.7555220000    -0.2408420000    -0.8846360000
| 21>  H        3.2276030000    -0.7789320000    -0.0542330000
| 22>  H        5.0256030000     1.0728330000    -0.3230560000
| 23>  H        4.6238890000     3.6131330000    -1.1164890000
| 24>  H        4.8868180000     3.5825500000     0.6153180000
| 25>  H        2.4662040000     4.6293790000     0.1176960000
| 26>  H        0.9800280000     2.4648320000     0.3141940000
| 27> *
| 28>
| 29>                          ****END OF INPUT****
 Total Charge           Charge          ....    0
 Multiplicity           Mult            ....    1
 Number of Electrons    NEL             ....   52
 Basis Dimension        Dim             ....  138

MULLIKEN ATOMIC CHARGES
-----------------------
   0 O :   -0.278509
   1 C :    0.247716
   2 C :   -0.075924
   3 C :   -0.125262
   4 C :    0.096383
   5 C :   -0.082777
   6 C :    0.035253
   7 H :    0.154048
   8 H :    0.001610
   9 H :   -0.015980
  10 H :   -0.022894
  11 H :    0.046867
  12 H :    0.052624
  13 H :   -0.010947
  14 H :   -0.022209
Sum of atomic charges:    0.0000000

LOEWDIN ATOMIC CHARGES
----------------------
   0 O :   -0.128366
   1 C :    0.060986
   2 C :   -0.053084
   3 C :   -0.043163
   4 C :   -0.036288
   5 C :   -0.038502
   6 C :   -0.026085
   7 H :    0.069059
   8 H :    0.013406
   9 H :    0.008411
  10 H :    0.018317
  11 H :    0.055022
  12 H :    0.056935
  13 H :    0.019966
  14 H :    0.023386

  Mayer bond orders larger than 0.1
B(  0-O ,  1-C ) :   1.1120 B(  0-O ,  7-H ) :   0.9800 B(  1-C ,  2-C ) :   1.0664
B(  1-C ,  8-H ) :   0.9092 B(  1-C ,  9-H ) :   0.9128 B(  2-C ,  3-C ) :   1.7500
B(  2-C ,  6-C ) :   1.0904 B(  3-C ,  4-C ) :   1.0419 B(  3-C , 10-H ) :   0.9848
B(  4-C ,  5-C ) :   1.0630 B(  4-C , 11-H ) :   0.8895 B(  4-C , 12-H ) :   0.8907
B(  5-C ,  6-C ) :   1.7216 B(  5-C , 13-H ) :   0.9908 B(  6-C , 14-H ) :   1.0055

FINAL SINGLE POINT ENERGY      -308.011403914201

DIPOLE MOMENT
-------------
                                X             Y             Z
Electronic contribution:     -1.24015      -0.49345       1.07292
Nuclear contribution   :      1.31916       0.18554      -1.48286
                        -----------------------------------------
Total Dipole Moment    :      0.07902      -0.30790      -0.40994
                        -----------------------------------------
Magnitude (a.u.)       :      0.51875
Magnitude (Debye)      :      1.31856

                             ****ORCA TERMINATED NORMALLY****
TOTAL RUN TIME: 0 days 0 hours 0 minutes 6 seconds 285 msec
