                         Program Version 3.0.3 - RELEASE   -
|  1> ! RI PBE def2-SVP def2-SVP/J NBO PAL2
|  2> % maxcore 2000
|  3> % output
|  4>     # printlevel mini
|  5>     print[ P_Basis ] 0
|  6>     print[ P_SCFInfo ] 1
|  7>     print[ P_SCFIterInfo ] 1
|  8>     print[ P_OrbEn ] 0
|  9>     print[ P_Cartesian ] 0
| 10> end
| 11> *xyz 0 1
| 12>  O        3.4327820000     0.6742370000     0.8485310000
| 13>  C        2.4068540000     0.1035600000     0.0619800000
| 14>  C        3.0010570000    -1.0521530000    -0.7266320000
| 15>  C        2.0249620000    -1.7026720000    -1.6565000000
| 16>  C        1.9668390000    -3.0160790000    -1.3901940000
| 17>  C        2.8682380000    -3.3220900000    -0.2818600000
| 18>  C        3.4716340000    -2.1932140000     0.1194470000
| 19>  H        3.0472820000     1.3482060000     1.4122480000
| 20>  H        1.9927380000     0.8429450000    -0.6370730000
| 21>  H        1.5862380000    -0.2736480000     0.6860310000
| 22>  H        3.8513620000    -0.6496050000    -1.2986940000
| 23>  H        1.4741570000    -1.1718780000    -2.4216920000
| 24>  H        1.3570030000    -3.7451750000    -1.9086090000
| 25>  H        3.0126280000    -4.3088890000     0.1394060000
| 26>  H        4.1858160000    -2.0800340000     0.9224130000
| 27> *
| 28>
| 29>                          ****END OF INPUT****
 Total Charge           Charge          ....    0
 Multiplicity           Mult            ....    1
 Number of Electrons    NEL             ....   52
 Basis Dimension        Dim             ....  138

MULLIKEN ATOMIC CHARGES
-----------------------
   0 O :   -0.274889
   1 C :    0.187741
   2 C :   -0.051419
   3 C :   -0.036367
   4 C :    0.016107
   5 C :    0.013393
   6 C :   -0.022793
   7 H :    0.155439
   8 H :   -0.000651
   9 H :    0.006755
  10 H :    0.051685
  11 H :   -0.010152
  12 H :   -0.015686
  13 H :   -0.017430
  14 H :   -0.001734
Sum of atomic charges:   -0.0000000

LOEWDIN ATOMIC CHARGES
----------------------
   0 O :   -0.128126
   1 C :    0.074992
   2 C :   -0.047889
   3 C :   -0.036979
   4 C :   -0.033694
   5 C :   -0.038721
   6 C :   -0.024533
   7 H :    0.072351
   8 H :    0.004557
   9 H :    0.010035
  10 H :    0.060243
  11 H :    0.020274
  12 H :    0.022106
  13 H :    0.021526
  14 H :    0.023858

  Mayer bond orders larger than 0.1
B(  0-O ,  1-C ) :   1.1006 B(  0-O ,  7-H ) :   0.9792 B(  1-C ,  2-C ) :   1.0227
B(  1-C ,  8-H ) :   0.9333 B(  1-C ,  9-H ) :   0.9317 B(  2-C ,  3-C ) :   1.0108
B(  2-C ,  6-C ) :   1.0278 B(  2-C , 10-H ) :   0.8582 B(  3-C ,  4-C ) :   1.7214
B(  3-C , 11-H ) :   0.9913 B(  4-C ,  5-C ) :   1.0887 B(  4-C , 12-H ) :   0.9957
B(  5-C ,  6-C ) :   1.7126 B(  5-C , 13-H ) :   0.9989 B(  6-C , 14-H ) :   1.0002

FINAL SINGLE POINT ENERGY      -308.008594484193

DIPOLE MOMENT
-------------
                                X             Y             Z
Electronic contribution:      0.97647      -0.63788       0.21312
Nuclear contribution   :     -1.41274       1.04765      -0.07862
                        -----------------------------------------
Total Dipole Moment    :     -0.43627       0.40977       0.13450
                        -----------------------------------------
Magnitude (a.u.)       :      0.61346
Magnitude (Debye)      :      1.55930

                             ****ORCA TERMINATED NORMALLY****
TOTAL RUN TIME: 0 days 0 hours 0 minutes 6 seconds 851 msec
