                         Program Version 3.0.3 - RELEASE   -
|  1> ! RI PBE def2-SVP def2-SVP/J NBO PAL2
|  2> % maxcore 2000
|  3> % output
|  4>     # printlevel mini
|  5>     print[ P_Basis ] 0
|  6>     print[ P_SCFInfo ] 1
|  7>     print[ P_SCFIterInfo ] 1
|  8>     print[ P_OrbEn ] 0
|  9>     print[ P_Cartesian ] 0
| 10> end
| 11> *xyz 0 1
| 12>  O        3.4778770000    -0.2379120000     0.8375560000
| 13>  C        2.4332790000    -0.0617150000    -0.0990470000
| 14>  C        2.9749520000     0.6730150000    -1.3090550000
| 15>  C        1.8528920000     0.8709240000    -2.3497430000
| 16>  C        1.4601780000     2.3087680000    -2.1798260000
| 17>  C        2.3188980000     2.9702300000    -1.4133700000
| 18>  C        3.4402470000     2.0962530000    -0.9377600000
| 19>  H        3.1123080000    -0.6226750000     1.6366290000
| 20>  H        1.6065110000     0.5202770000     0.3353310000
| 21>  H        2.0292550000    -1.0330440000    -0.4178350000
| 22>  H        3.7992480000     0.0802610000    -1.7127250000
| 23>  H        1.0152480000     0.1828560000    -2.1854750000
| 24>  H        2.2044990000     0.6809850000    -3.3708750000
| 25>  H        0.5900690000     2.7428280000    -2.6592250000
| 26>  H        2.2496010000     4.0253370000    -1.1734010000
| 27>  H        3.6375990000     2.1846170000     0.1343010000
| 28>  H        4.3768250000     2.3619940000    -1.4424830000
| 29> *
| 30>
| 31>                          ****END OF INPUT****
 Total Charge           Charge          ....    0
 Multiplicity           Mult            ....    1
 Number of Electrons    NEL             ....   54
 Basis Dimension        Dim             ....  148

MULLIKEN ATOMIC CHARGES
-----------------------
   0 O :   -0.273499
   1 C :    0.197301
   2 C :   -0.193881
   3 C :    0.099243
   4 C :   -0.069286
   5 C :   -0.070766
   6 C :    0.114627
   7 H :    0.155801
   8 H :   -0.007413
   9 H :   -0.004653
  10 H :    0.008422
  11 H :    0.009547
  12 H :    0.022015
  13 H :   -0.012127
  14 H :   -0.009877
  15 H :    0.016982
  16 H :    0.017562
Sum of atomic charges:   -0.0000000

LOEWDIN ATOMIC CHARGES
----------------------
   0 O :   -0.125435
   1 C :    0.059149
   2 C :   -0.041990
   3 C :   -0.034094
   4 C :   -0.044141
   5 C :   -0.038249
   6 C :   -0.034012
   7 H :    0.071106
   8 H :    0.004249
   9 H :    0.002582
  10 H :    0.025641
  11 H :    0.024818
  12 H :    0.031742
  13 H :    0.019628
  14 H :    0.020489
  15 H :    0.026719
  16 H :    0.031799

  Mayer bond orders larger than 0.1
B(  0-O ,  1-C ) :   1.0916 B(  0-O ,  7-H ) :   0.9786 B(  1-C ,  2-C ) :   1.0490
B(  1-C ,  8-H ) :   0.9295 B(  1-C ,  9-H ) :   0.9255 B(  2-C ,  3-C ) :   1.0540
B(  2-C ,  6-C ) :   1.0693 B(  2-C , 10-H ) :   0.9097 B(  3-C ,  4-C ) :   1.0268
B(  3-C , 11-H ) :   0.9239 B(  3-C , 12-H ) :   0.9118 B(  4-C ,  5-C ) :   1.8666
B(  4-C , 13-H ) :   0.9834 B(  5-C ,  6-C ) :   1.0278 B(  5-C , 14-H ) :   0.9833
B(  6-C , 15-H ) :   0.9203 B(  6-C , 16-H ) :   0.9118

FINAL SINGLE POINT ENERGY      -309.222096079187

DIPOLE MOMENT
-------------
                                X             Y             Z
Electronic contribution:      0.78949       0.23733       1.06117
Nuclear contribution   :     -1.20481      -0.46251      -0.87579
                        -----------------------------------------
Total Dipole Moment    :     -0.41532      -0.22518       0.18538
                        -----------------------------------------
Magnitude (a.u.)       :      0.50750
Magnitude (Debye)      :      1.28998

                             ****ORCA TERMINATED NORMALLY****
TOTAL RUN TIME: 0 days 0 hours 0 minutes 7 seconds 446 msec
