                         Program Version 3.0.3 - RELEASE   -
|  1> ! RI PBE def2-SVP def2-SVP/J NBO PAL2
|  2> % maxcore 2000
|  3> % output
|  4>     # printlevel mini
|  5>     print[ P_Basis ] 0
|  6>     print[ P_SCFInfo ] 1
|  7>     print[ P_SCFIterInfo ] 1
|  8>     print[ P_OrbEn ] 0
|  9>     print[ P_Cartesian ] 0
| 10> end
| 11> *xyz 0 1
| 12>  O        3.2386440000     0.8867830000    -0.9508640000
| 13>  C        2.4834710000     0.0354620000    -0.1128970000
| 14>  C        2.8992940000     0.2825240000     1.3277820000
| 15>  C        2.1045710000    -0.5858170000     2.3259490000
| 16>  C        1.1050220000     0.3561300000     3.0242620000
| 17>  C        1.6179720000     1.7219290000     2.6788230000
| 18>  C        2.5887340000     1.6840580000     1.7741160000
| 19>  H        2.9470370000     0.7653590000    -1.8566970000
| 20>  H        2.6617410000    -1.0202590000    -0.3639800000
| 21>  H        1.4060840000     0.2315750000    -0.2170940000
| 22>  H        3.9742420000     0.0777570000     1.3865740000
| 23>  H        2.7877740000    -1.0113960000     3.0632770000
| 24>  H        1.6090430000    -1.4263740000     1.8332320000
| 25>  H        1.0625690000     0.1852000000     4.1042760000
| 26>  H        0.0801810000     0.2229810000     2.6565460000
| 27>  H        1.2068190000     2.6291280000     3.1078020000
| 28>  H        3.0860910000     2.5472690000     1.3497820000
| 29> *
| 30>
| 31>                          ****END OF INPUT****
 Total Charge           Charge          ....    0
 Multiplicity           Mult            ....    1
 Number of Electrons    NEL             ....   54
 Basis Dimension        Dim             ....  148

MULLIKEN ATOMIC CHARGES
-----------------------
   0 O :   -0.277370
   1 C :    0.202811
   2 C :   -0.131003
   3 C :    0.036470
   4 C :    0.042218
   5 C :   -0.073717
   6 C :    0.003604
   7 H :    0.154220
   8 H :   -0.003687
   9 H :   -0.012019
  10 H :    0.017540
  11 H :    0.014536
  12 H :   -0.000872
  13 H :    0.022001
  14 H :    0.022070
  15 H :   -0.011020
  16 H :   -0.005780
Sum of atomic charges:   -0.0000000

LOEWDIN ATOMIC CHARGES
----------------------
   0 O :   -0.127740
   1 C :    0.060937
   2 C :   -0.053225
   3 C :   -0.025099
   4 C :   -0.044176
   5 C :   -0.038663
   6 C :   -0.026833
   7 H :    0.070922
   8 H :    0.001341
   9 H :    0.001692
  10 H :    0.028796
  11 H :    0.029603
  12 H :    0.021659
  13 H :    0.028331
  14 H :    0.029160
  15 H :    0.019877
  16 H :    0.023416

  Mayer bond orders larger than 0.1
B(  0-O ,  1-C ) :   1.0998 B(  0-O ,  7-H ) :   0.9796 B(  1-C ,  2-C ) :   1.0361
B(  1-C ,  8-H ) :   0.9319 B(  1-C ,  9-H ) :   0.9250 B(  2-C ,  3-C ) :   1.0623
B(  2-C ,  6-C ) :   1.0139 B(  2-C , 10-H ) :   0.9043 B(  3-C ,  4-C ) :   1.0936
B(  3-C , 11-H ) :   0.9290 B(  3-C , 12-H ) :   0.9348 B(  4-C ,  5-C ) :   1.0393
B(  4-C , 13-H ) :   0.9305 B(  4-C , 14-H ) :   0.9154 B(  5-C ,  6-C ) :   1.8549
B(  5-C , 15-H ) :   0.9860 B(  6-C , 16-H ) :   0.9919

FINAL SINGLE POINT ENERGY      -309.220843103153

DIPOLE MOMENT
-------------
                                X             Y             Z
Electronic contribution:      1.72985       2.31343      -1.72946
Nuclear contribution   :     -2.10638      -2.66911       1.45090
                        -----------------------------------------
Total Dipole Moment    :     -0.37653      -0.35568      -0.27856
                        -----------------------------------------
Magnitude (a.u.)       :      0.58811
Magnitude (Debye)      :      1.49487

                             ****ORCA TERMINATED NORMALLY****
TOTAL RUN TIME: 0 days 0 hours 0 minutes 7 seconds 360 msec
