                         Program Version 3.0.3 - RELEASE   -
|  1> ! RI PBE def2-SVP def2-SVP/J NBO PAL2
|  2> % maxcore 2000
|  3> % output
|  4>     # printlevel mini
|  5>     print[ P_Basis ] 0
|  6>     print[ P_SCFInfo ] 1
|  7>     print[ P_SCFIterInfo ] 1
|  8>     print[ P_OrbEn ] 0
|  9>     print[ P_Cartesian ] 0
| 10> end
| 11> *xyz 0 1
| 12>  O        2.7900650000     0.8727620000    -0.9345480000
| 13>  C        2.5492670000    -0.2200180000    -0.0811230000
| 14>  C        2.9288420000     0.1805630000     1.2958910000
| 15>  C        3.4267780000     1.3217300000     1.8252800000
| 16>  C        3.5782140000     1.0723410000     3.2243580000
| 17>  C        3.1608920000    -0.1963690000     3.4286500000
| 18>  O        2.7607960000    -0.7546010000     2.2588920000
| 19>  H        2.5496980000     0.6170280000    -1.8270970000
| 20>  H        3.1369500000    -1.1018980000    -0.3770130000
| 21>  H        1.4899330000    -0.5172060000    -0.0930620000
| 22>  H        3.6542440000     2.2223840000     1.2799090000
| 23>  H        3.9494860000     1.7518770000     3.9748750000
| 24>  H        3.0867250000    -0.8245020000     4.3004890000
| 25> *
| 26>
| 27>                          ****END OF INPUT****
 Total Charge           Charge          ....    0
 Multiplicity           Mult            ....    1
 Number of Electrons    NEL             ....   52
 Basis Dimension        Dim             ....  128

MULLIKEN ATOMIC CHARGES
-----------------------
   0 O :   -0.266998
   1 C :    0.255145
   2 C :   -0.006347
   3 C :   -0.050436
   4 C :   -0.013925
   5 C :    0.106569
   6 O :   -0.183643
   7 H :    0.160986
   8 H :    0.010857
   9 H :    0.008952
  10 H :   -0.013950
  11 H :   -0.007919
  12 H :    0.000712
Sum of atomic charges:   -0.0000000

LOEWDIN ATOMIC CHARGES
----------------------
   0 O :   -0.116106
   1 C :    0.056910
   2 C :   -0.008606
   3 C :   -0.077767
   4 C :   -0.078741
   5 C :    0.008666
   6 O :    0.024738
   7 H :    0.075629
   8 H :    0.016840
   9 H :    0.016699
  10 H :    0.032586
  11 H :    0.030261
  12 H :    0.018892

  Mayer bond orders larger than 0.1
B(  0-O ,  1-C ) :   1.1443 B(  0-O ,  7-H ) :   0.9753 B(  1-C ,  2-C ) :   1.0389
B(  1-C ,  8-H ) :   0.9089 B(  1-C ,  9-H ) :   0.9067 B(  2-C ,  3-C ) :   1.5825
B(  2-C ,  5-C ) :   0.1069 B(  2-C ,  6-O ) :   1.1533 B(  3-C ,  4-C ) :   1.1832
B(  3-C , 10-H ) :   1.0129 B(  4-C ,  5-C ) :   1.5446 B(  4-C , 11-H ) :   0.9944
B(  5-C ,  6-O ) :   1.1319 B(  5-C , 12-H ) :   1.0027

FINAL SINGLE POINT ENERGY      -343.892300529161

DIPOLE MOMENT
-------------
                                X             Y             Z
Electronic contribution:     -0.02724      -0.60292       1.11383
Nuclear contribution   :     -0.15534       0.28747      -1.53071
                        -----------------------------------------
Total Dipole Moment    :     -0.18258      -0.31545      -0.41689
                        -----------------------------------------
Magnitude (a.u.)       :      0.55375
Magnitude (Debye)      :      1.40752

                             ****ORCA TERMINATED NORMALLY****
TOTAL RUN TIME: 0 days 0 hours 0 minutes 6 seconds 79 msec
