                         Program Version 3.0.3 - RELEASE   -
|  1> ! RI PBE def2-SVP def2-SVP/J NBO PAL2
|  2> % maxcore 2000
|  3> % output
|  4>     # printlevel mini
|  5>     print[ P_Basis ] 0
|  6>     print[ P_SCFInfo ] 1
|  7>     print[ P_SCFIterInfo ] 1
|  8>     print[ P_OrbEn ] 0
|  9>     print[ P_Cartesian ] 0
| 10> end
| 11> *xyz 0 1
| 12>  O        1.0463320000    -0.0730320000     0.3916670000
| 13>  C        2.2081460000    -0.0772690000     0.0702240000
| 14>  C        3.0226500000    -1.2593790000    -0.1302470000
| 15>  C        4.3353150000    -1.3795110000    -0.4909310000
| 16>  C        4.6114550000    -2.7667560000    -0.5381090000
| 17>  C        3.4455820000    -3.3819180000    -0.2025650000
| 18>  O        2.4797680000    -2.4881790000     0.0458500000
| 19>  H        2.7690170000     0.8643730000    -0.1047420000
| 20>  H        5.0121690000    -0.5643380000    -0.6953870000
| 21>  H        5.5433350000    -3.2486610000    -0.7858020000
| 22>  H        3.1678300000    -4.4191210000    -0.1038660000
| 23> *
| 24>
| 25>                          ****END OF INPUT****
 Total Charge           Charge          ....    0
 Multiplicity           Mult            ....    1
 Number of Electrons    NEL             ....   50
 Basis Dimension        Dim             ....  118

MULLIKEN ATOMIC CHARGES
-----------------------
   0 O :   -0.156506
   1 C :    0.127007
   2 C :    0.059388
   3 C :   -0.019759
   4 C :   -0.013282
   5 C :    0.138242
   6 O :   -0.138747
   7 H :   -0.029692
   8 H :    0.004691
   9 H :    0.005974
  10 H :    0.022683
Sum of atomic charges:   -0.0000000

LOEWDIN ATOMIC CHARGES
----------------------
   0 O :   -0.113677
   1 C :    0.053814
   2 C :   -0.041523
   3 C :   -0.034923
   4 C :   -0.072858
   5 C :    0.050140
   6 O :    0.063902
   7 H :   -0.007741
   8 H :    0.037804
   9 H :    0.036567
  10 H :    0.028495

  Mayer bond orders larger than 0.1
B(  0-O ,  1-C ) :   2.1484 B(  1-C ,  2-C ) :   1.0295 B(  1-C ,  7-H ) :   0.9408
B(  2-C ,  3-C ) :   1.4254 B(  2-C ,  6-O ) :   1.1459 B(  3-C ,  4-C ) :   1.2526
B(  3-C ,  8-H ) :   1.0043 B(  4-C ,  5-C ) :   1.4808 B(  4-C ,  9-H ) :   1.0001
B(  5-C ,  6-O ) :   1.1941 B(  5-C , 10-H ) :   0.9980

FINAL SINGLE POINT ENERGY      -342.705888622625

DIPOLE MOMENT
-------------
                                X             Y             Z
Electronic contribution:     -2.99251       0.27706       0.81921
Nuclear contribution   :      4.31758      -0.85348      -1.17667
                        -----------------------------------------
Total Dipole Moment    :      1.32507      -0.57642      -0.35746
                        -----------------------------------------
Magnitude (a.u.)       :      1.48857
Magnitude (Debye)      :      3.78364

                             ****ORCA TERMINATED NORMALLY****
TOTAL RUN TIME: 0 days 0 hours 0 minutes 5 seconds 887 msec
