                         Program Version 3.0.3 - RELEASE   -
|  1> ! RI PBE def2-SVP def2-SVP/J NBO PAL2
|  2> % maxcore 2000
|  3> % output
|  4>     # printlevel mini
|  5>     print[ P_Basis ] 0
|  6>     print[ P_SCFInfo ] 1
|  7>     print[ P_SCFIterInfo ] 1
|  8>     print[ P_OrbEn ] 0
|  9>     print[ P_Cartesian ] 0
| 10> end
| 11> *xyz 0 1
| 12>  O        1.0792440000    -0.3876480000     0.1264350000
| 13>  C        2.4657490000    -0.1627200000     0.0173990000
| 14>  C        2.8861120000    -0.3408800000    -1.4213580000
| 15>  C        4.3223740000     0.1186180000    -1.6749230000
| 16>  C        4.8199240000    -0.8863550000    -2.7047390000
| 17>  C        4.0983410000    -2.1429460000    -2.2532110000
| 18>  O        2.8266440000    -1.7104060000    -1.8094130000
| 19>  H        0.8430990000    -0.4139740000     1.0557020000
| 20>  H        3.0400850000    -0.8664290000     0.6363340000
| 21>  H        2.7258950000     0.8602240000     0.3311780000
| 22>  H        2.1772150000     0.2123430000    -2.0508200000
| 23>  H        4.9112530000     0.0375020000    -0.7544270000
| 24>  H        4.3725860000     1.1545010000    -2.0123700000
| 25>  H        5.9055770000    -0.9955920000    -2.7168820000
| 26>  H        4.4911030000    -0.6029050000    -3.7082620000
| 27>  H        4.6467900000    -2.6312570000    -1.4337750000
| 28>  H        3.9513090000    -2.8779660000    -3.0478870000
| 29> *
| 30>
| 31>                          ****END OF INPUT****
 Total Charge           Charge          ....    0
 Multiplicity           Mult            ....    1
 Number of Electrons    NEL             ....   56
 Basis Dimension        Dim             ....  148

MULLIKEN ATOMIC CHARGES
-----------------------
   0 O :   -0.267289
   1 C :    0.204892
   2 C :    0.064682
   3 C :   -0.010365
   4 C :   -0.050351
   5 C :    0.192093
   6 O :   -0.349196
   7 H :    0.152985
   8 H :   -0.013963
   9 H :   -0.013623
  10 H :    0.002850
  11 H :    0.008435
  12 H :    0.020621
  13 H :    0.023104
  14 H :    0.020535
  15 H :   -0.003005
  16 H :    0.017594
Sum of atomic charges:   -0.0000000

LOEWDIN ATOMIC CHARGES
----------------------
   0 O :   -0.121496
   1 C :    0.042919
   2 C :    0.043189
   3 C :   -0.046279
   4 C :   -0.055261
   5 C :    0.062690
   6 O :   -0.153667
   7 H :    0.070387
   8 H :    0.005197
   9 H :    0.002439
  10 H :    0.016147
  11 H :    0.024772
  12 H :    0.030055
  13 H :    0.029372
  14 H :    0.028489
  15 H :    0.002500
  16 H :    0.018548

  Mayer bond orders larger than 0.1
B(  0-O ,  1-C ) :   1.1240 B(  0-O ,  7-H ) :   0.9794 B(  1-C ,  2-C ) :   1.0465
B(  1-C ,  8-H ) :   0.9085 B(  1-C ,  9-H ) :   0.9211 B(  2-C ,  3-C ) :   1.0486
B(  2-C ,  6-O ) :   1.0164 B(  2-C , 10-H ) :   0.9085 B(  3-C ,  4-C ) :   1.1117
B(  3-C , 11-H ) :   0.9254 B(  3-C , 12-H ) :   0.9277 B(  4-C ,  5-C ) :   1.0990
B(  4-C , 13-H ) :   0.9328 B(  4-C , 14-H ) :   0.9252 B(  5-C ,  6-O ) :   1.0152
B(  5-C , 15-H ) :   0.9322 B(  5-C , 16-H ) :   0.9413

FINAL SINGLE POINT ENERGY      -346.289640209507

DIPOLE MOMENT
-------------
                                X             Y             Z
Electronic contribution:     -4.30827      -1.28228       0.64589
Nuclear contribution   :      5.05210       1.66478      -0.23016
                        -----------------------------------------
Total Dipole Moment    :      0.74382       0.38250       0.41573
                        -----------------------------------------
Magnitude (a.u.)       :      0.93403
Magnitude (Debye)      :      2.37411

                             ****ORCA TERMINATED NORMALLY****
TOTAL RUN TIME: 0 days 0 hours 0 minutes 7 seconds 555 msec
