                         Program Version 3.0.3 - RELEASE   -
|  1> ! RI PBE def2-SVP def2-SVP/J NBO PAL2
|  2> % maxcore 2000
|  3> % output
|  4>     # printlevel mini
|  5>     print[ P_Basis ] 0
|  6>     print[ P_SCFInfo ] 1
|  7>     print[ P_SCFIterInfo ] 1
|  8>     print[ P_OrbEn ] 0
|  9>     print[ P_Cartesian ] 0
| 10> end
| 11> *xyz 0 1
| 12>  O        2.2715060000    -0.4534430000    -0.8361290000
| 13>  C        2.0377970000     0.1095390000     0.1957280000
| 14>  C        2.9334790000     1.1513890000     0.8164040000
| 15>  C        2.4966090000     2.5623660000     0.4094720000
| 16>  C        2.8634020000     3.3654680000     1.6509650000
| 17>  C        2.5346930000     2.3795760000     2.7569750000
| 18>  O        2.8261280000     1.0917890000     2.2258880000
| 19>  H        1.1071800000    -0.0824240000     0.7751470000
| 20>  H        3.9668010000     0.9527070000     0.5083930000
| 21>  H        1.4140110000     2.5936850000     0.2456730000
| 22>  H        2.9864310000     2.8944680000    -0.5050950000
| 23>  H        2.3076420000     4.3001320000     1.7377220000
| 24>  H        3.9314280000     3.5983470000     1.6510610000
| 25>  H        1.4736150000     2.4335730000     3.0327350000
| 26>  H        3.1315690000     2.5211190000     3.6606600000
| 27> *
| 28>
| 29>                          ****END OF INPUT****
 Total Charge           Charge          ....    0
 Multiplicity           Mult            ....    1
 Number of Electrons    NEL             ....   54
 Basis Dimension        Dim             ....  138

MULLIKEN ATOMIC CHARGES
-----------------------
   0 O :   -0.155236
   1 C :    0.131230
   2 C :    0.101518
   3 C :   -0.016705
   4 C :   -0.047422
   5 C :    0.212505
   6 O :   -0.358132
   7 H :   -0.018664
   8 H :    0.013901
   9 H :    0.020595
  10 H :    0.037434
  11 H :    0.025648
  12 H :    0.030164
  13 H :    0.006021
  14 H :    0.017142
Sum of atomic charges:    0.0000000

LOEWDIN ATOMIC CHARGES
----------------------
   0 O :   -0.101884
   1 C :    0.082269
   2 C :    0.016447
   3 C :   -0.034209
   4 C :   -0.051723
   5 C :    0.070887
   6 O :   -0.151991
   7 H :   -0.013164
   8 H :    0.022057
   9 H :    0.029815
  10 H :    0.037058
  11 H :    0.033357
  12 H :    0.032028
  13 H :    0.008839
  14 H :    0.020214

  Mayer bond orders larger than 0.1
B(  0-O ,  1-C ) :   2.1869 B(  1-C ,  2-C ) :   0.9219 B(  1-C ,  7-H ) :   0.9092
B(  2-C ,  3-C ) :   1.0485 B(  2-C ,  6-O ) :   0.9906 B(  2-C ,  8-H ) :   0.9020
B(  3-C ,  4-C ) :   1.0988 B(  3-C ,  9-H ) :   0.9268 B(  3-C , 10-H ) :   0.9320
B(  4-C ,  5-C ) :   1.1010 B(  4-C , 11-H ) :   0.9312 B(  4-C , 12-H ) :   0.9272
B(  5-C ,  6-O ) :   0.9938 B(  5-C , 13-H ) :   0.9391 B(  5-C , 14-H ) :   0.9403

FINAL SINGLE POINT ENERGY      -345.094243426756

DIPOLE MOMENT
-------------
                                X             Y             Z
Electronic contribution:      0.11334      -5.93874      -2.18371
Nuclear contribution   :     -0.17215       7.15772       2.65449
                        -----------------------------------------
Total Dipole Moment    :     -0.05881       1.21897       0.47078
                        -----------------------------------------
Magnitude (a.u.)       :      1.30805
Magnitude (Debye)      :      3.32479

                             ****ORCA TERMINATED NORMALLY****
TOTAL RUN TIME: 0 days 0 hours 0 minutes 6 seconds 860 msec
