                         Program Version 3.0.3 - RELEASE   -
|  1> ! RI PBE def2-SVP def2-SVP/J NBO PAL2
|  2> % maxcore 2000
|  3> % output
|  4>     # printlevel mini
|  5>     print[ P_Basis ] 0
|  6>     print[ P_SCFInfo ] 1
|  7>     print[ P_SCFIterInfo ] 1
|  8>     print[ P_OrbEn ] 0
|  9>     print[ P_Cartesian ] 0
| 10> end
| 11> *xyz 0 1
| 12>  O        1.2075540000     0.1322360000     0.5566190000
| 13>  C        2.2471400000     0.0972490000    -0.0461430000
| 14>  C        2.9524890000     1.2668920000    -0.5776710000
| 15>  C        4.1075010000     1.2404330000    -1.2486570000
| 16>  C        4.4864440000     2.6405940000    -1.6122450000
| 17>  C        3.3137890000     3.4418140000    -1.0141880000
| 18>  O        2.4236340000     2.4942580000    -0.3948090000
| 19>  H        2.7728640000    -0.8575370000    -0.2554140000
| 20>  H        4.6704900000     0.3499680000    -1.4855520000
| 21>  H        4.5728590000     2.7739200000    -2.6952290000
| 22>  H        5.4507770000     2.9287560000    -1.1818630000
| 23>  H        2.7452770000     3.9848970000    -1.7714640000
| 24>  H        3.6339830000     4.1475400000    -0.2454820000
| 25> *
| 26>
| 27>                          ****END OF INPUT****
 Total Charge           Charge          ....    0
 Multiplicity           Mult            ....    1
 Number of Electrons    NEL             ....   52
 Basis Dimension        Dim             ....  128

MULLIKEN ATOMIC CHARGES
-----------------------
   0 O :   -0.143107
   1 C :    0.128401
   2 C :    0.092658
   3 C :   -0.135430
   4 C :    0.003743
   5 C :    0.194305
   6 O :   -0.271825
   7 H :   -0.028136
   8 H :    0.005649
   9 H :    0.044851
  10 H :    0.039831
  11 H :    0.033672
  12 H :    0.035388
Sum of atomic charges:   -0.0000000

LOEWDIN ATOMIC CHARGES
----------------------
   0 O :   -0.097686
   1 C :    0.063135
   2 C :   -0.023922
   3 C :   -0.058309
   4 C :   -0.047632
   5 C :    0.091294
   6 O :   -0.076012
   7 H :   -0.008902
   8 H :    0.031654
   9 H :    0.039439
  10 H :    0.038667
  11 H :    0.023963
  12 H :    0.024310

  Mayer bond orders larger than 0.1
B(  0-O ,  1-C ) :   2.1625 B(  0-O ,  3-C ) :   0.1016 B(  1-C ,  2-C ) :   0.9950
B(  1-C ,  7-H ) :   0.9434 B(  2-C ,  3-C ) :   1.6221 B(  2-C ,  6-O ) :   1.1539
B(  3-C ,  4-C ) :   1.0384 B(  3-C ,  6-O ) :   0.1088 B(  3-C ,  8-H ) :   0.9874
B(  4-C ,  5-C ) :   1.1043 B(  4-C ,  9-H ) :   0.9169 B(  4-C , 10-H ) :   0.9153
B(  5-C ,  6-O ) :   0.9625 B(  5-C , 11-H ) :   0.9482 B(  5-C , 12-H ) :   0.9494

FINAL SINGLE POINT ENERGY      -343.886494390485

DIPOLE MOMENT
-------------
                                X             Y             Z
Electronic contribution:     -4.48713      -2.82846       2.90923
Nuclear contribution   :      5.83591       3.32519      -3.74908
                        -----------------------------------------
Total Dipole Moment    :      1.34878       0.49673      -0.83985
                        -----------------------------------------
Magnitude (a.u.)       :      1.66472
Magnitude (Debye)      :      4.23138

                             ****ORCA TERMINATED NORMALLY****
TOTAL RUN TIME: 0 days 0 hours 0 minutes 6 seconds 330 msec
