                         Program Version 3.0.3 - RELEASE   -
|  1> ! RI PBE def2-SVP def2-SVP/J NBO PAL2
|  2> % maxcore 2000
|  3> % output
|  4>     # printlevel mini
|  5>     print[ P_Basis ] 0
|  6>     print[ P_SCFInfo ] 1
|  7>     print[ P_SCFIterInfo ] 1
|  8>     print[ P_OrbEn ] 0
|  9>     print[ P_Cartesian ] 0
| 10> end
| 11> *xyz 0 1
| 12>  O        0.9194140000    -0.4364900000     0.2966850000
| 13>  C        2.0455710000    -0.1983940000    -0.0339010000
| 14>  C        3.2054880000    -1.1517050000     0.1899540000
| 15>  C        2.8571330000    -2.6081070000    -0.1447610000
| 16>  C        3.5582420000    -2.7620410000    -1.4648920000
| 17>  C        4.3342900000    -1.7049170000    -1.6584970000
| 18>  O        4.2829310000    -0.7636440000    -0.6724680000
| 19>  H        2.3306000000     0.7599920000    -0.5168600000
| 20>  H        3.5376690000    -1.0133220000     1.2240370000
| 21>  H        1.7727790000    -2.7344840000    -0.1902280000
| 22>  H        3.2391790000    -3.3097820000     0.6036410000
| 23>  H        3.4819350000    -3.6156380000    -2.1201550000
| 24>  H        5.0159780000    -1.4766770000    -2.4656450000
| 25> *
| 26>
| 27>                          ****END OF INPUT****
 Total Charge           Charge          ....    0
 Multiplicity           Mult            ....    1
 Number of Electrons    NEL             ....   52
 Basis Dimension        Dim             ....  128

MULLIKEN ATOMIC CHARGES
-----------------------
   0 O :   -0.152638
   1 C :    0.132488
   2 C :    0.060791
   3 C :    0.082587
   4 C :   -0.144718
   5 C :    0.147990
   6 O :   -0.282087
   7 H :    0.005340
   8 H :    0.048472
   9 H :    0.041322
  10 H :    0.035403
  11 H :    0.009452
  12 H :    0.015600
Sum of atomic charges:    0.0000000

LOEWDIN ATOMIC CHARGES
----------------------
   0 O :   -0.092585
   1 C :    0.092279
   2 C :    0.027788
   3 C :   -0.032786
   4 C :   -0.109273
   5 C :    0.040194
   6 O :   -0.089375
   7 H :   -0.006075
   8 H :    0.044421
   9 H :    0.035447
  10 H :    0.034075
  11 H :    0.030603
  12 H :    0.025287

  Mayer bond orders larger than 0.1
B(  0-O ,  1-C ) :   2.1776 B(  1-C ,  2-C ) :   0.9007 B(  1-C ,  7-H ) :   0.9207
B(  2-C ,  3-C ) :   1.0817 B(  2-C ,  6-O ) :   0.9644 B(  2-C ,  8-H ) :   0.8930
B(  3-C ,  4-C ) :   1.0374 B(  3-C ,  9-H ) :   0.9137 B(  3-C , 10-H ) :   0.9139
B(  4-C ,  5-C ) :   1.7630 B(  4-C ,  6-O ) :   0.1118 B(  4-C , 11-H ) :   0.9857
B(  5-C ,  6-O ) :   1.0869 B(  5-C , 12-H ) :   0.9899

FINAL SINGLE POINT ENERGY      -343.880930839319

DIPOLE MOMENT
-------------
                                X             Y             Z
Electronic contribution:     -0.68250       2.80128       0.46025
Nuclear contribution   :      1.24381      -3.09662      -0.55216
                        -----------------------------------------
Total Dipole Moment    :      0.56131      -0.29534      -0.09191
                        -----------------------------------------
Magnitude (a.u.)       :      0.64089
Magnitude (Debye)      :      1.62901

                             ****ORCA TERMINATED NORMALLY****
TOTAL RUN TIME: 0 days 0 hours 0 minutes 6 seconds 405 msec
