                         Program Version 3.0.3 - RELEASE   -
|  1> ! RI PBE def2-SVP def2-SVP/J NBO PAL2
|  2> % maxcore 2000
|  3> % output
|  4>     # printlevel mini
|  5>     print[ P_Basis ] 0
|  6>     print[ P_SCFInfo ] 1
|  7>     print[ P_SCFIterInfo ] 1
|  8>     print[ P_OrbEn ] 0
|  9>     print[ P_Cartesian ] 0
| 10> end
| 11> *xyz 0 1
| 12>  O        3.4921410000     0.2370490000     0.9755290000
| 13>  C        2.6016380000    -0.0413440000    -0.0888240000
| 14>  C        2.8781550000     0.8576080000    -1.2355060000
| 15>  C        3.3084820000     0.5697770000    -2.4611120000
| 16>  C        3.3174730000     1.8301510000    -3.2774610000
| 17>  C        3.1151710000     2.8784590000    -2.1767870000
| 18>  O        2.6080680000     2.1758870000    -1.0316950000
| 19>  H        3.0364810000     0.0795750000     1.8041860000
| 20>  H        1.5598810000     0.1107940000     0.2218360000
| 21>  H        2.7075250000    -1.0784190000    -0.4280420000
| 22>  H        3.5575790000    -0.4170360000    -2.8201550000
| 23>  H        2.5076710000     1.8360510000    -4.0174030000
| 24>  H        4.2513920000     1.9934400000    -3.8203750000
| 25>  H        2.4038680000     3.6640430000    -2.4318890000
| 26>  H        4.0663830000     3.3386640000    -1.8896310000
| 27> *
| 28>
| 29>                          ****END OF INPUT****
 Total Charge           Charge          ....    0
 Multiplicity           Mult            ....    1
 Number of Electrons    NEL             ....   54
 Basis Dimension        Dim             ....  138

MULLIKEN ATOMIC CHARGES
-----------------------
   0 O :   -0.277552
   1 C :    0.253450
   2 C :    0.037116
   3 C :   -0.161819
   4 C :    0.005378
   5 C :    0.198481
   6 O :   -0.292878
   7 H :    0.155865
   8 H :    0.006981
   9 H :   -0.009508
  10 H :   -0.015463
  11 H :    0.032565
  12 H :    0.025451
  13 H :    0.022014
  14 H :    0.019919
Sum of atomic charges:    0.0000000

LOEWDIN ATOMIC CHARGES
----------------------
   0 O :   -0.123443
   1 C :    0.055723
   2 C :    0.010299
   3 C :   -0.111761
   4 C :   -0.050089
   5 C :    0.086085
   6 O :   -0.094039
   7 H :    0.069973
   8 H :    0.019837
   9 H :    0.014205
  10 H :    0.023781
  11 H :    0.028689
  12 H :    0.032377
  13 H :    0.020297
  14 H :    0.018065

  Mayer bond orders larger than 0.1
B(  0-O ,  1-C ) :   1.1224 B(  0-O ,  7-H ) :   0.9800 B(  1-C ,  2-C ) :   1.0403
B(  1-C ,  8-H ) :   0.9076 B(  1-C ,  9-H ) :   0.9251 B(  2-C ,  3-C ) :   1.7554
B(  2-C ,  6-O ) :   1.1224 B(  3-C ,  4-C ) :   1.0245 B(  3-C ,  6-O ) :   0.1019
B(  3-C , 10-H ) :   0.9842 B(  4-C ,  5-C ) :   1.1122 B(  4-C , 11-H ) :   0.9167
B(  4-C , 12-H ) :   0.9243 B(  5-C ,  6-O ) :   0.9641 B(  5-C , 13-H ) :   0.9505
B(  5-C , 14-H ) :   0.9394

FINAL SINGLE POINT ENERGY      -345.077133452812

DIPOLE MOMENT
-------------
                                X             Y             Z
Electronic contribution:     -0.14165       0.01310       2.96482
Nuclear contribution   :     -0.24060      -0.16380      -3.11981
                        -----------------------------------------
Total Dipole Moment    :     -0.38225      -0.15070      -0.15498
                        -----------------------------------------
Magnitude (a.u.)       :      0.43915
Magnitude (Debye)      :      1.11622

                             ****ORCA TERMINATED NORMALLY****
TOTAL RUN TIME: 0 days 0 hours 0 minutes 6 seconds 726 msec
