                         Program Version 3.0.3 - RELEASE   -
|  1> ! RI PBE def2-SVP def2-SVP/J NBO PAL2
|  2> % maxcore 2000
|  3> % output
|  4>     # printlevel mini
|  5>     print[ P_Basis ] 0
|  6>     print[ P_SCFInfo ] 1
|  7>     print[ P_SCFIterInfo ] 1
|  8>     print[ P_OrbEn ] 0
|  9>     print[ P_Cartesian ] 0
| 10> end
| 11> *xyz 0 1
| 12>  O        2.9794720000     1.1208910000     0.5401770000
| 13>  C        2.2779240000     0.0049470000     0.0474210000
| 14>  C        3.1975410000    -1.1879590000     0.0167270000
| 15>  C        2.4665600000    -2.4958700000    -0.3482070000
| 16>  C        3.2417390000    -2.9593950000    -1.5467870000
| 17>  C        4.1723410000    -2.0545520000    -1.8201620000
| 18>  O        4.2181820000    -0.9905450000    -0.9861220000
| 19>  H        2.4460310000     1.9065400000     0.4053350000
| 20>  H        1.8989150000     0.1756480000    -0.9698050000
| 21>  H        1.4219960000    -0.2454610000     0.6922980000
| 22>  H        3.7145410000    -1.2599130000     0.9780920000
| 23>  H        1.4109200000    -2.3117640000    -0.5857940000
| 24>  H        2.4839210000    -3.2137960000     0.4763880000
| 25>  H        3.0578290000    -3.8648200000    -2.1037670000
| 26>  H        4.9041700000    -2.0374390000    -2.6166010000
| 27> *
| 28>
| 29>                          ****END OF INPUT****
 Total Charge           Charge          ....    0
 Multiplicity           Mult            ....    1
 Number of Electrons    NEL             ....   54
 Basis Dimension        Dim             ....  138

MULLIKEN ATOMIC CHARGES
-----------------------
   0 O :   -0.267674
   1 C :    0.186658
   2 C :    0.066900
   3 C :    0.070929
   4 C :   -0.149704
   5 C :    0.141853
   6 O :   -0.272350
   7 H :    0.156175
   8 H :   -0.005510
   9 H :    0.000493
  10 H :    0.016852
  11 H :    0.017117
  12 H :    0.034236
  13 H :   -0.004245
  14 H :    0.008269
Sum of atomic charges:    0.0000000

LOEWDIN ATOMIC CHARGES
----------------------
   0 O :   -0.120102
   1 C :    0.045865
   2 C :    0.065422
   3 C :   -0.040625
   4 C :   -0.122220
   5 C :    0.035910
   6 O :   -0.083816
   7 H :    0.072803
   8 H :    0.009541
   9 H :    0.006707
  10 H :    0.023583
  11 H :    0.027020
  12 H :    0.032571
  13 H :    0.025008
  14 H :    0.022332

  Mayer bond orders larger than 0.1
B(  0-O ,  1-C ) :   1.1192 B(  0-O ,  7-H ) :   0.9788 B(  1-C ,  2-C ) :   1.0480
B(  1-C ,  8-H ) :   0.9130 B(  1-C ,  9-H ) :   0.9273 B(  2-C ,  3-C ) :   1.0610
B(  2-C ,  6-O ) :   0.9655 B(  2-C , 10-H ) :   0.9101 B(  3-C ,  4-C ) :   1.0370
B(  3-C , 11-H ) :   0.9128 B(  3-C , 12-H ) :   0.9185 B(  4-C ,  5-C ) :   1.7478
B(  4-C ,  6-O ) :   0.1274 B(  4-C , 13-H ) :   0.9863 B(  5-C ,  6-O ) :   1.1162
B(  5-C , 14-H ) :   0.9899

FINAL SINGLE POINT ENERGY      -345.077184912584

DIPOLE MOMENT
-------------
                                X             Y             Z
Electronic contribution:      3.24793       1.64980      -0.67015
Nuclear contribution   :     -4.04151      -1.65392       0.61965
                        -----------------------------------------
Total Dipole Moment    :     -0.79357      -0.00412      -0.05050
                        -----------------------------------------
Magnitude (a.u.)       :      0.79519
Magnitude (Debye)      :      2.02121

                             ****ORCA TERMINATED NORMALLY****
TOTAL RUN TIME: 0 days 0 hours 0 minutes 6 seconds 802 msec
