                         Program Version 3.0.3 - RELEASE   -
|  1> ! RI PBE def2-SVP def2-SVP/J NBO PAL2
|  2> % maxcore 2000
|  3> % output
|  4>     # printlevel mini
|  5>     print[ P_Basis ] 0
|  6>     print[ P_SCFInfo ] 1
|  7>     print[ P_SCFIterInfo ] 1
|  8>     print[ P_OrbEn ] 0
|  9>     print[ P_Cartesian ] 0
| 10> end
| 11> *xyz 0 1
| 12>  O        2.3388170000    -0.5703160000    -1.2156490000
| 13>  C        2.1807510000     0.0514290000     0.0480530000
| 14>  C        2.7715040000     1.4125210000    -0.0013020000
| 15>  C        2.1418880000     2.5859740000     0.2477280000
| 16>  O        2.9949980000     3.6258550000     0.1319900000
| 17>  C        4.1974710000     3.1077660000    -0.2077510000
| 18>  C        4.1261660000     1.7619140000    -0.3030730000
| 19>  H        2.0864170000    -1.4926950000    -1.1295940000
| 20>  H        2.6832960000    -0.5382510000     0.8276370000
| 21>  H        1.1204890000     0.1264270000     0.3239020000
| 22>  H        1.1256700000     2.8300630000     0.5121790000
| 23>  H        4.9950140000     3.8185450000    -0.3475500000
| 24>  H        4.9260990000     1.0899670000    -0.5701500000
| 25> *
| 26>
| 27>                          ****END OF INPUT****
 Total Charge           Charge          ....    0
 Multiplicity           Mult            ....    1
 Number of Electrons    NEL             ....   52
 Basis Dimension        Dim             ....  128

MULLIKEN ATOMIC CHARGES
-----------------------
   0 O :   -0.275906
   1 C :    0.250581
   2 C :   -0.091462
   3 C :    0.066144
   4 O :   -0.164327
   5 C :    0.107777
   6 C :   -0.020694
   7 H :    0.153447
   8 H :    0.004864
   9 H :   -0.018474
  10 H :   -0.004498
  11 H :    0.006801
  12 H :   -0.014253
Sum of atomic charges:    0.0000000

LOEWDIN ATOMIC CHARGES
----------------------
   0 O :   -0.128315
   1 C :    0.064434
   2 C :   -0.092002
   3 C :    0.011354
   4 O :    0.034733
   5 C :    0.014781
   6 C :   -0.068242
   7 H :    0.068664
   8 H :    0.013463
   9 H :    0.008455
  10 H :    0.019892
  11 H :    0.020661
  12 H :    0.032122

  Mayer bond orders larger than 0.1
B(  0-O ,  1-C ) :   1.1220 B(  0-O ,  7-H ) :   0.9803 B(  1-C ,  2-C ) :   1.0796
B(  1-C ,  8-H ) :   0.9128 B(  1-C ,  9-H ) :   0.9102 B(  2-C ,  3-C ) :   1.5456
B(  2-C ,  6-C ) :   1.2429 B(  3-C ,  4-O ) :   1.1593 B(  3-C , 10-H ) :   1.0004
B(  4-O ,  5-C ) :   1.1512 B(  5-C ,  6-C ) :   1.5305 B(  5-C , 11-H ) :   0.9971
B(  6-C , 12-H ) :   1.0069

FINAL SINGLE POINT ENERGY      -343.890202727787

DIPOLE MOMENT
-------------
                                X             Y             Z
Electronic contribution:      0.49444       3.27866      -0.40726
Nuclear contribution   :     -0.62000      -3.82009       0.79636
                        -----------------------------------------
Total Dipole Moment    :     -0.12555      -0.54143       0.38910
                        -----------------------------------------
Magnitude (a.u.)       :      0.67846
Magnitude (Debye)      :      1.72452

                             ****ORCA TERMINATED NORMALLY****
TOTAL RUN TIME: 0 days 0 hours 0 minutes 5 seconds 902 msec
