                         Program Version 3.0.3 - RELEASE   -
|  1> ! RI PBE def2-SVP def2-SVP/J NBO PAL2
|  2> % maxcore 2000
|  3> % output
|  4>     # printlevel mini
|  5>     print[ P_Basis ] 0
|  6>     print[ P_SCFInfo ] 1
|  7>     print[ P_SCFIterInfo ] 1
|  8>     print[ P_OrbEn ] 0
|  9>     print[ P_Cartesian ] 0
| 10> end
| 11> *xyz 0 1
| 12>  O        2.2111930000    -1.1546720000    -0.3519030000
| 13>  C        2.1491100000     0.0302430000    -0.1361090000
| 14>  C        2.8472600000     0.7069490000     0.9473000000
| 15>  C        2.7962520000     2.0422920000     1.2153780000
| 16>  O        3.5519890000     2.3390550000     2.2788790000
| 17>  C        4.1066200000     1.1728950000     2.7123610000
| 18>  C        3.7129830000     0.1422800000     1.9387570000
| 19>  H        1.5315560000     0.6931320000    -0.7780700000
| 20>  H        2.2798050000     2.8644010000     0.7456040000
| 21>  H        4.7488380000     1.2542580000     3.5732820000
| 22>  H        3.9855840000    -0.8958250000     2.0352310000
| 23> *
| 24>
| 25>                          ****END OF INPUT****
 Total Charge           Charge          ....    0
 Multiplicity           Mult            ....    1
 Number of Electrons    NEL             ....   50
 Basis Dimension        Dim             ....  118

MULLIKEN ATOMIC CHARGES
-----------------------
   0 O :   -0.162505
   1 C :    0.132334
   2 C :   -0.037933
   3 C :    0.103597
   4 O :   -0.154035
   5 C :    0.118197
   6 C :   -0.012163
   7 H :   -0.030498
   8 H :    0.016453
   9 H :    0.020051
  10 H :    0.006501
Sum of atomic charges:   -0.0000000

LOEWDIN ATOMIC CHARGES
----------------------
   0 O :   -0.117876
   1 C :    0.076307
   2 C :   -0.126017
   3 C :    0.050785
   4 O :    0.048798
   5 C :    0.029791
   6 C :   -0.046875
   7 H :   -0.010959
   8 H :    0.028117
   9 H :    0.026489
  10 H :    0.041440

  Mayer bond orders larger than 0.1
B(  0-O ,  1-C ) :   2.1608 B(  1-C ,  2-C ) :   1.0171 B(  1-C ,  7-H ) :   0.9359
B(  2-C ,  3-C ) :   1.4358 B(  2-C ,  6-C ) :   1.2095 B(  3-C ,  4-O ) :   1.2024
B(  3-C ,  8-H ) :   0.9975 B(  4-O ,  5-C ) :   1.1195 B(  5-C ,  6-C ) :   1.5522
B(  5-C ,  9-H ) :   0.9980 B(  6-C , 10-H ) :   1.0107

FINAL SINGLE POINT ENERGY      -342.704273368718

DIPOLE MOMENT
-------------
                                X             Y             Z
Electronic contribution:     -0.12528       0.04765      -0.15193
Nuclear contribution   :      0.34657       0.85414       0.66777
                        -----------------------------------------
Total Dipole Moment    :      0.22129       0.90179       0.51584
                        -----------------------------------------
Magnitude (a.u.)       :      1.06221
Magnitude (Debye)      :      2.69992

                             ****ORCA TERMINATED NORMALLY****
TOTAL RUN TIME: 0 days 0 hours 0 minutes 6 seconds 75 msec
