                         Program Version 3.0.3 - RELEASE   -
|  1> ! RI PBE def2-SVP def2-SVP/J NBO PAL2
|  2> % maxcore 2000
|  3> % output
|  4>     # printlevel mini
|  5>     print[ P_Basis ] 0
|  6>     print[ P_SCFInfo ] 1
|  7>     print[ P_SCFIterInfo ] 1
|  8>     print[ P_OrbEn ] 0
|  9>     print[ P_Cartesian ] 0
| 10> end
| 11> *xyz 0 1
| 12>  O        2.5718420000    -0.9336110000     0.9589420000
| 13>  C        2.3155610000     0.0731650000    -0.0003690000
| 14>  C        2.8589820000     1.3777320000     0.5246590000
| 15>  C        2.6420870000     2.5646750000    -0.4081890000
| 16>  C        2.7537000000     3.7301360000     0.5565220000
| 17>  O        2.1811610000     3.2815000000     1.7704890000
| 18>  C        2.1807700000     1.8600060000     1.8068990000
| 19>  H        2.2044230000    -1.7619680000     0.6434990000
| 20>  H        1.2350050000     0.1800140000    -0.1800930000
| 21>  H        2.7919040000    -0.1692550000    -0.9608880000
| 22>  H        3.9322200000     1.2537970000     0.7070030000
| 23>  H        1.6368610000     2.5267950000    -0.8416210000
| 24>  H        3.3662180000     2.6133700000    -1.2233730000
| 25>  H        2.2146050000     4.6224060000     0.2288090000
| 26>  H        3.8072020000     4.0049580000     0.7123290000
| 27>  H        1.1428420000     1.5050830000     1.8545160000
| 28>  H        2.6960370000     1.5163070000     2.7071550000
| 29> *
| 30>
| 31>                          ****END OF INPUT****
 Total Charge           Charge          ....    0
 Multiplicity           Mult            ....    1
 Number of Electrons    NEL             ....   56
 Basis Dimension        Dim             ....  148

MULLIKEN ATOMIC CHARGES
-----------------------
   0 O :   -0.274733
   1 C :    0.221231
   2 C :   -0.278596
   3 C :   -0.013038
   4 C :    0.221462
   5 O :   -0.373836
   6 C :    0.294666
   7 H :    0.156782
   8 H :   -0.011696
   9 H :   -0.004858
  10 H :    0.024755
  11 H :    0.011590
  12 H :    0.022295
  13 H :    0.006789
  14 H :   -0.004185
  15 H :   -0.007197
  16 H :    0.008572
Sum of atomic charges:   -0.0000000

LOEWDIN ATOMIC CHARGES
----------------------
   0 O :   -0.128071
   1 C :    0.061463
   2 C :   -0.070159
   3 C :   -0.048012
   4 C :    0.066783
   5 O :   -0.167552
   6 C :    0.076176
   7 H :    0.072002
   8 H :    0.001893
   9 H :    0.004315
  10 H :    0.031328
  11 H :    0.024624
  12 H :    0.029437
  13 H :    0.016139
  14 H :    0.004382
  15 H :    0.008654
  16 H :    0.016598

  Mayer bond orders larger than 0.1
B(  0-O ,  1-C ) :   1.1144 B(  0-O ,  7-H ) :   0.9780 B(  1-C ,  2-C ) :   1.0653
B(  1-C ,  8-H ) :   0.9124 B(  1-C ,  9-H ) :   0.9295 B(  2-C ,  3-C ) :   1.0581
B(  2-C ,  6-C ) :   1.0428 B(  2-C , 10-H ) :   0.9043 B(  3-C ,  4-C ) :   1.0980
B(  3-C , 11-H ) :   0.9216 B(  3-C , 12-H ) :   0.9297 B(  4-C ,  5-O ) :   1.0164
B(  4-C , 13-H ) :   0.9405 B(  4-C , 14-H ) :   0.9313 B(  5-O ,  6-C ) :   1.0086
B(  6-C , 15-H ) :   0.9336 B(  6-C , 16-H ) :   0.9330

FINAL SINGLE POINT ENERGY      -346.288007566198

DIPOLE MOMENT
-------------
                                X             Y             Z
Electronic contribution:     -0.16400      -0.28560       2.73190
Nuclear contribution   :      0.10566      -0.28713      -3.64481
                        -----------------------------------------
Total Dipole Moment    :     -0.05833      -0.57273      -0.91291
                        -----------------------------------------
Magnitude (a.u.)       :      1.07927
Magnitude (Debye)      :      2.74329

                             ****ORCA TERMINATED NORMALLY****
TOTAL RUN TIME: 0 days 0 hours 0 minutes 7 seconds 617 msec
