                         Program Version 3.0.3 - RELEASE   -
|  1> ! RI PBE def2-SVP def2-SVP/J NBO PAL2
|  2> % maxcore 2000
|  3> % output
|  4>     # printlevel mini
|  5>     print[ P_Basis ] 0
|  6>     print[ P_SCFInfo ] 1
|  7>     print[ P_SCFIterInfo ] 1
|  8>     print[ P_OrbEn ] 0
|  9>     print[ P_Cartesian ] 0
| 10> end
| 11> *xyz 0 1
| 12>  O        2.3198540000    -0.8785930000    -0.6883230000
| 13>  C        2.0294420000     0.0423020000     0.0228960000
| 14>  C        3.0029620000     0.9888490000     0.6576450000
| 15>  C        2.7329240000     2.4426690000     0.2276880000
| 16>  C        2.8558260000     3.2077430000     1.5375580000
| 17>  O        2.3267660000     2.3304510000     2.5052900000
| 18>  C        2.8128380000     1.0453970000     2.1934880000
| 19>  H        0.9634910000     0.2583220000     0.2693920000
| 20>  H        4.0114250000     0.6676590000     0.3944320000
| 21>  H        1.7144490000     2.5435280000    -0.1595030000
| 22>  H        3.4236310000     2.7797630000    -0.5453770000
| 23>  H        2.2800690000     4.1335400000     1.5670610000
| 24>  H        3.9088870000     3.4402530000     1.7566990000
| 25>  H        2.0909270000     0.3147970000     2.5687370000
| 26>  H        3.7747900000     0.8605100000     2.6884170000
| 27> *
| 28>
| 29>                          ****END OF INPUT****
 Total Charge           Charge          ....    0
 Multiplicity           Mult            ....    1
 Number of Electrons    NEL             ....   54
 Basis Dimension        Dim             ....  138

MULLIKEN ATOMIC CHARGES
-----------------------
   0 O :   -0.151827
   1 C :    0.109764
   2 C :   -0.205352
   3 C :    0.023641
   4 C :    0.185424
   5 O :   -0.347201
   6 C :    0.270728
   7 H :   -0.007299
   8 H :    0.013533
   9 H :    0.023637
  10 H :    0.033620
  11 H :    0.022219
  12 H :   -0.000159
  13 H :    0.022841
  14 H :    0.006431
Sum of atomic charges:   -0.0000000

LOEWDIN ATOMIC CHARGES
----------------------
   0 O :   -0.103625
   1 C :    0.083825
   2 C :   -0.090582
   3 C :   -0.037483
   4 C :    0.064950
   5 O :   -0.144497
   6 C :    0.075484
   7 H :   -0.011380
   8 H :    0.032646
   9 H :    0.028992
  10 H :    0.035474
  11 H :    0.023599
  12 H :    0.005989
  13 H :    0.022178
  14 H :    0.014429

  Mayer bond orders larger than 0.1
B(  0-O ,  1-C ) :   2.1907 B(  1-C ,  2-C ) :   0.9321 B(  1-C ,  7-H ) :   0.9186
B(  2-C ,  3-C ) :   1.0548 B(  2-C ,  6-C ) :   1.0169 B(  2-C ,  8-H ) :   0.8966
B(  3-C ,  4-C ) :   1.1022 B(  3-C ,  9-H ) :   0.9241 B(  3-C , 10-H ) :   0.9260
B(  4-C ,  5-O ) :   1.0087 B(  4-C , 11-H ) :   0.9432 B(  4-C , 12-H ) :   0.9200
B(  5-O ,  6-C ) :   1.0365 B(  6-C , 13-H ) :   0.9413 B(  6-C , 14-H ) :   0.9173

FINAL SINGLE POINT ENERGY      -345.093082430999

DIPOLE MOMENT
-------------
                                X             Y             Z
Electronic contribution:     -1.17701      -3.47730      -0.85016
Nuclear contribution   :      1.44519       4.22161       1.00930
                        -----------------------------------------
Total Dipole Moment    :      0.26818       0.74431       0.15914
                        -----------------------------------------
Magnitude (a.u.)       :      0.80700
Magnitude (Debye)      :      2.05123

                             ****ORCA TERMINATED NORMALLY****
TOTAL RUN TIME: 0 days 0 hours 0 minutes 6 seconds 916 msec
