                         Program Version 3.0.3 - RELEASE   -
|  1> ! RI PBE def2-SVP def2-SVP/J NBO PAL2
|  2> % maxcore 2000
|  3> % output
|  4>     # printlevel mini
|  5>     print[ P_Basis ] 0
|  6>     print[ P_SCFInfo ] 1
|  7>     print[ P_SCFIterInfo ] 1
|  8>     print[ P_OrbEn ] 0
|  9>     print[ P_Cartesian ] 0
| 10> end
| 11> *xyz 0 1
| 12>  O        1.6333440000     0.3863880000     0.8763680000
| 13>  C        2.3164800000    -0.0166710000    -0.0328890000
| 14>  C        2.9548830000     0.8509190000    -1.0153730000
| 15>  C        3.7148850000     0.4435030000    -2.0311660000
| 16>  C        4.1824150000     1.6209530000    -2.8084700000
| 17>  O        3.6279220000     2.7457650000    -2.1561790000
| 18>  C        2.8542170000     2.3431350000    -1.0343280000
| 19>  H        2.5011040000    -1.1021290000    -0.1743600000
| 20>  H        3.9658300000    -0.5826230000    -2.2713460000
| 21>  H        3.8455840000     1.5816650000    -3.8548320000
| 22>  H        5.2799610000     1.6916690000    -2.8253380000
| 23>  H        1.8179000000     2.6839040000    -1.1465610000
| 24>  H        3.2528740000     2.7937320000    -0.1174160000
| 25> *
| 26>
| 27>                          ****END OF INPUT****
 Total Charge           Charge          ....    0
 Multiplicity           Mult            ....    1
 Number of Electrons    NEL             ....   52
 Basis Dimension        Dim             ....  128

MULLIKEN ATOMIC CHARGES
-----------------------
   0 O :   -0.156886
   1 C :    0.134468
   2 C :   -0.168808
   3 C :   -0.114457
   4 C :    0.257931
   5 O :   -0.368284
   6 C :    0.309582
   7 H :   -0.026928
   8 H :    0.009154
   9 H :    0.031846
  10 H :    0.037657
  11 H :    0.028522
  12 H :    0.026203
Sum of atomic charges:   -0.0000000

LOEWDIN ATOMIC CHARGES
----------------------
   0 O :   -0.110809
   1 C :    0.075158
   2 C :   -0.095355
   3 C :    0.003497
   4 C :    0.071431
   5 O :   -0.160016
   6 C :    0.087810
   7 H :   -0.009505
   8 H :    0.034347
   9 H :    0.026343
  10 H :    0.027092
  11 H :    0.025124
  12 H :    0.024882

  Mayer bond orders larger than 0.1
B(  0-O ,  1-C ) :   2.1522 B(  1-C ,  2-C ) :   1.0190 B(  1-C ,  7-H ) :   0.9385
B(  2-C ,  3-C ) :   1.7452 B(  2-C ,  6-C ) :   1.0251 B(  3-C ,  4-C ) :   1.0248
B(  3-C ,  8-H ) :   0.9769 B(  4-C ,  5-O ) :   1.0284 B(  4-C ,  9-H ) :   0.9109
B(  4-C , 10-H ) :   0.9129 B(  5-O ,  6-C ) :   1.0000 B(  6-C , 11-H ) :   0.9181
B(  6-C , 12-H ) :   0.9160

FINAL SINGLE POINT ENERGY      -343.881084112645

DIPOLE MOMENT
-------------
                                X             Y             Z
Electronic contribution:     -1.67487      -0.31482       2.37042
Nuclear contribution   :      2.30590      -0.25731      -3.18544
                        -----------------------------------------
Total Dipole Moment    :      0.63103      -0.57212      -0.81503
                        -----------------------------------------
Magnitude (a.u.)       :      1.17889
Magnitude (Debye)      :      2.99651

                             ****ORCA TERMINATED NORMALLY****
TOTAL RUN TIME: 0 days 0 hours 0 minutes 6 seconds 711 msec
