                         Program Version 3.0.3 - RELEASE   -
|  1> ! RI PBE def2-SVP def2-SVP/J NBO PAL2
|  2> % maxcore 2000
|  3> % output
|  4>     # printlevel mini
|  5>     print[ P_Basis ] 0
|  6>     print[ P_SCFInfo ] 1
|  7>     print[ P_SCFIterInfo ] 1
|  8>     print[ P_OrbEn ] 0
|  9>     print[ P_Cartesian ] 0
| 10> end
| 11> *xyz 0 1
| 12>  O        2.7367610000     0.5753620000     0.9278850000
| 13>  C        2.1790160000    -0.0697790000     0.0833600000
| 14>  C        2.8233670000    -0.5624480000    -1.1738790000
| 15>  C        4.3012840000    -0.1879600000    -1.3943250000
| 16>  C        4.5958040000    -1.6646410000    -1.5885610000
| 17>  O        5.5248360000    -2.2781650000    -2.0128850000
| 18>  C        3.1954320000    -2.0802830000    -1.1392240000
| 19>  H        1.1173860000    -0.3724430000     0.2142940000
| 20>  H        2.1731340000    -0.3376910000    -2.0229930000
| 21>  H        4.7528020000     0.2067780000    -0.4786440000
| 22>  H        4.5524720000     0.4687330000    -2.2277770000
| 23>  H        3.1991580000    -2.5090250000    -0.1327910000
| 24>  H        2.6607580000    -2.7526380000    -1.8107590000
| 25> *
| 26>
| 27>                          ****END OF INPUT****
 Total Charge           Charge          ....    0
 Multiplicity           Mult            ....    1
 Number of Electrons    NEL             ....   52
 Basis Dimension        Dim             ....  128

MULLIKEN ATOMIC CHARGES
-----------------------
   0 O :   -0.151389
   1 C :    0.129385
   2 C :   -0.229216
   3 C :    0.110432
   4 C :   -0.067242
   5 O :   -0.112593
   6 C :    0.064336
   7 H :    0.001146
   8 H :    0.041250
   9 H :    0.054222
  10 H :    0.050285
  11 H :    0.053967
  12 H :    0.055417
Sum of atomic charges:   -0.0000000

LOEWDIN ATOMIC CHARGES
----------------------
   0 O :   -0.098886
   1 C :    0.091087
   2 C :   -0.077434
   3 C :   -0.054345
   4 C :    0.054198
   5 O :   -0.089356
   6 C :   -0.046534
   7 H :   -0.005435
   8 H :    0.043267
   9 H :    0.051258
  10 H :    0.042635
  11 H :    0.047720
  12 H :    0.041826

  Mayer bond orders larger than 0.1
B(  0-O ,  1-C ) :   2.1961 B(  1-C ,  2-C ) :   0.9050 B(  1-C ,  7-H ) :   0.9261
B(  2-C ,  3-C ) :   1.0615 B(  2-C ,  6-C ) :   1.0431 B(  2-C ,  8-H ) :   0.8796
B(  3-C ,  4-C ) :   0.9961 B(  3-C ,  6-C ) :  -0.1289 B(  3-C ,  9-H ) :   0.8795
B(  3-C , 10-H ) :   0.9188 B(  4-C ,  5-O ) :   2.2464 B(  4-C ,  6-C ) :   0.9741
B(  6-C , 11-H ) :   0.9061 B(  6-C , 12-H ) :   0.9174

FINAL SINGLE POINT ENERGY      -343.889963007676

DIPOLE MOMENT
-------------
                                X             Y             Z
Electronic contribution:      2.12828      -0.06879       0.72462
Nuclear contribution   :     -3.10401       0.04812      -1.08721
                        -----------------------------------------
Total Dipole Moment    :     -0.97573      -0.02066      -0.36259
                        -----------------------------------------
Magnitude (a.u.)       :      1.04113
Magnitude (Debye)      :      2.64634

                             ****ORCA TERMINATED NORMALLY****
TOTAL RUN TIME: 0 days 0 hours 0 minutes 5 seconds 931 msec
