                         Program Version 3.0.3 - RELEASE   -
|  1> ! RI PBE def2-SVP def2-SVP/J NBO PAL2
|  2> % maxcore 2000
|  3> % output
|  4>     # printlevel mini
|  5>     print[ P_Basis ] 0
|  6>     print[ P_SCFInfo ] 1
|  7>     print[ P_SCFIterInfo ] 1
|  8>     print[ P_OrbEn ] 0
|  9>     print[ P_Cartesian ] 0
| 10> end
| 11> *xyz 0 1
| 12>  O        3.2641250000    -0.2331960000     1.0521600000
| 13>  C        2.4593750000    -0.1425070000    -0.1108270000
| 14>  C        2.8524040000     1.0685170000    -0.8737210000
| 15>  C        3.1712890000     1.1608490000    -2.1571420000
| 16>  C        3.4422590000     2.5823020000    -2.5152510000
| 17>  O        3.2738810000     3.3068570000    -1.3094140000
| 18>  C        2.8976540000     2.4328250000    -0.2593390000
| 19>  H        2.9012190000    -0.9167310000     1.6198230000
| 20>  H        1.3971460000    -0.0600390000     0.1665450000
| 21>  H        2.5701730000    -1.0310180000    -0.7452550000
| 22>  H        3.2306950000     0.3419750000    -2.8633360000
| 23>  H        2.7494470000     2.9610940000    -3.2811090000
| 24>  H        4.4622600000     2.7295450000    -2.8982210000
| 25>  H        1.9194530000     2.7311020000     0.1478360000
| 26>  H        3.6259100000     2.4899180000     0.5586510000
| 27> *
| 28>
| 29>                          ****END OF INPUT****
 Total Charge           Charge          ....    0
 Multiplicity           Mult            ....    1
 Number of Electrons    NEL             ....   54
 Basis Dimension        Dim             ....  138

MULLIKEN ATOMIC CHARGES
-----------------------
   0 O :   -0.276635
   1 C :    0.238810
   2 C :   -0.218846
   3 C :   -0.138333
   4 C :    0.268091
   5 O :   -0.372295
   6 C :    0.301936
   7 H :    0.155856
   8 H :    0.008486
   9 H :   -0.009516
  10 H :   -0.014606
  11 H :    0.016192
  12 H :    0.014815
  13 H :    0.000135
  14 H :    0.025908
Sum of atomic charges:   -0.0000000

LOEWDIN ATOMIC CHARGES
----------------------
   0 O :   -0.127132
   1 C :    0.063286
   2 C :   -0.062779
   3 C :   -0.051985
   4 C :    0.072986
   5 O :   -0.163599
   6 C :    0.079341
   7 H :    0.071138
   8 H :    0.015159
   9 H :    0.010727
  10 H :    0.025740
  11 H :    0.015301
  12 H :    0.016764
  13 H :    0.013814
  14 H :    0.021240

  Mayer bond orders larger than 0.1
B(  0-O ,  1-C ) :   1.1075 B(  0-O ,  7-H ) :   0.9780 B(  1-C ,  2-C ) :   1.0691
B(  1-C ,  8-H ) :   0.9113 B(  1-C ,  9-H ) :   0.9173 B(  2-C ,  3-C ) :   1.8704
B(  2-C ,  6-C ) :   1.0339 B(  3-C ,  4-C ) :   1.0202 B(  3-C , 10-H ) :   0.9783
B(  4-C ,  5-O ) :   1.0191 B(  4-C , 11-H ) :   0.9175 B(  4-C , 12-H ) :   0.9181
B(  5-O ,  6-C ) :   1.0101 B(  6-C , 13-H ) :   0.9104 B(  6-C , 14-H ) :   0.9148

FINAL SINGLE POINT ENERGY      -345.069057938751

DIPOLE MOMENT
-------------
                                X             Y             Z
Electronic contribution:      0.93437       1.10603       0.62186
Nuclear contribution   :     -1.46607      -2.10276      -0.63653
                        -----------------------------------------
Total Dipole Moment    :     -0.53170      -0.99672      -0.01466
                        -----------------------------------------
Magnitude (a.u.)       :      1.12977
Magnitude (Debye)      :      2.87164

                             ****ORCA TERMINATED NORMALLY****
TOTAL RUN TIME: 0 days 0 hours 0 minutes 6 seconds 746 msec
