                         Program Version 3.0.3 - RELEASE   -
|  1> ! RI PBE def2-SVP def2-SVP/J NBO PAL2
|  2> % maxcore 2000
|  3> % output
|  4>     # printlevel mini
|  5>     print[ P_Basis ] 0
|  6>     print[ P_SCFInfo ] 1
|  7>     print[ P_SCFIterInfo ] 1
|  8>     print[ P_OrbEn ] 0
|  9>     print[ P_Cartesian ] 0
| 10> end
| 11> *xyz 0 1
| 12>  O        0.9772530000     0.1754600000     0.0255940000
| 13>  C        2.3805440000     0.0353170000     0.0857660000
| 14>  C        2.8159230000    -0.8465420000    -1.0519580000
| 15>  C        4.3062300000    -1.2673280000    -1.0492120000
| 16>  C        3.8418930000    -2.7126420000    -1.1982870000
| 17>  O        4.4038200000    -3.7331770000    -1.4556000000
| 18>  C        2.3845460000    -2.3329060000    -0.9807830000
| 19>  H        0.6877890000     0.7244160000     0.7576350000
| 20>  H        2.6917440000    -0.4232760000     1.0375180000
| 21>  H        2.8811730000     1.0113380000     0.0084850000
| 22>  H        2.5226000000    -0.3894810000    -1.9991500000
| 23>  H        4.8039900000    -1.1049130000    -0.0872050000
| 24>  H        4.9526670000    -0.8903030000    -1.8431790000
| 25>  H        2.0276470000    -2.6291650000     0.0105540000
| 26>  H        1.6782700000    -2.7024870000    -1.7252780000
| 27> *
| 28>
| 29>                          ****END OF INPUT****
 Total Charge           Charge          ....    0
 Multiplicity           Mult            ....    1
 Number of Electrons    NEL             ....   54
 Basis Dimension        Dim             ....  138

MULLIKEN ATOMIC CHARGES
-----------------------
   0 O :   -0.275649
   1 C :    0.215383
   2 C :   -0.256322
   3 C :    0.090048
   4 C :   -0.080480
   5 O :   -0.122845
   6 C :    0.110801
   7 H :    0.156538
   8 H :   -0.015841
   9 H :    0.000386
  10 H :    0.020740
  11 H :    0.033174
  12 H :    0.044325
  13 H :    0.033968
  14 H :    0.045773
Sum of atomic charges:   -0.0000000

LOEWDIN ATOMIC CHARGES
----------------------
   0 O :   -0.126865
   1 C :    0.056793
   2 C :   -0.044499
   3 C :   -0.060420
   4 C :    0.052741
   5 O :   -0.099471
   6 C :   -0.056073
   7 H :    0.072148
   8 H :    0.000104
   9 H :    0.006118
  10 H :    0.030423
  11 H :    0.042917
  12 H :    0.038932
  13 H :    0.045957
  14 H :    0.041196

  Mayer bond orders larger than 0.1
B(  0-O ,  1-C ) :   1.1097 B(  0-O ,  7-H ) :   0.9787 B(  1-C ,  2-C ) :   1.0344
B(  1-C ,  8-H ) :   0.9206 B(  1-C ,  9-H ) :   0.9284 B(  2-C ,  3-C ) :   1.0587
B(  2-C ,  6-C ) :   1.0643 B(  2-C , 10-H ) :   0.8962 B(  3-C ,  4-C ) :   0.9823
B(  3-C ,  6-C ) :  -0.1269 B(  3-C , 11-H ) :   0.8941 B(  3-C , 12-H ) :   0.9152
B(  4-C ,  5-O ) :   2.2363 B(  4-C ,  6-C ) :   0.9930 B(  6-C , 13-H ) :   0.8939
B(  6-C , 14-H ) :   0.9160

FINAL SINGLE POINT ENERGY      -345.084111330379

DIPOLE MOMENT
-------------
                                X             Y             Z
Electronic contribution:      1.15487      -3.99327      -1.53050
Nuclear contribution   :     -1.43561       5.14912       2.18061
                        -----------------------------------------
Total Dipole Moment    :     -0.28074       1.15585       0.65010
                        -----------------------------------------
Magnitude (a.u.)       :      1.35552
Magnitude (Debye)      :      3.44545

                             ****ORCA TERMINATED NORMALLY****
TOTAL RUN TIME: 0 days 0 hours 0 minutes 6 seconds 544 msec
