                         Program Version 3.0.3 - RELEASE   -
|  1> ! RI PBE def2-SVP def2-SVP/J NBO PAL2
|  2> % maxcore 2000
|  3> % output
|  4>     # printlevel mini
|  5>     print[ P_Basis ] 0
|  6>     print[ P_SCFInfo ] 1
|  7>     print[ P_SCFIterInfo ] 1
|  8>     print[ P_OrbEn ] 0
|  9>     print[ P_Cartesian ] 0
| 10> end
| 11> *xyz 0 1
| 12>  O        3.1599870000     0.3478560000    -1.1372530000
| 13>  C        2.2155100000     0.1060890000    -0.1129340000
| 14>  C        2.7994220000    -0.8848960000     0.8528770000
| 15>  C        1.8828760000    -1.4040650000     1.9799050000
| 16>  C        2.4467690000    -2.8131400000     1.7564860000
| 17>  O        3.4619250000    -3.0534220000     2.7072370000
| 18>  C        2.9796190000    -2.3445170000     0.3878560000
| 19>  H        2.7845210000     0.9726560000    -1.7611800000
| 20>  H        1.2804040000    -0.2999850000    -0.5294120000
| 21>  H        1.9647860000     1.0352920000     0.4204900000
| 22>  H        3.7328770000    -0.4889860000     1.2584150000
| 23>  H        0.8259720000    -1.3464080000     1.7058340000
| 24>  H        2.0186070000    -0.9983200000     2.9826930000
| 25>  H        1.7239450000    -3.6377430000     1.7479530000
| 26>  H        3.9642400000    -3.8214730000     2.4225010000
| 27>  H        2.2908360000    -2.5943900000    -0.4240170000
| 28>  H        3.9837150000    -2.6724480000     0.1133600000
| 29> *
| 30>
| 31>                          ****END OF INPUT****
 Total Charge           Charge          ....    0
 Multiplicity           Mult            ....    1
 Number of Electrons    NEL             ....   56
 Basis Dimension        Dim             ....  148

MULLIKEN ATOMIC CHARGES
-----------------------
   0 O :   -0.277496
   1 C :    0.226869
   2 C :   -0.222890
   3 C :    0.128161
   4 C :   -0.034503
   5 O :   -0.257473
   6 C :    0.143948
   7 H :    0.152774
   8 H :   -0.025014
   9 H :   -0.006178
  10 H :    0.014105
  11 H :    0.001727
  12 H :    0.016118
  13 H :   -0.007177
  14 H :    0.153433
  15 H :   -0.005980
  16 H :   -0.000423
Sum of atomic charges:   -0.0000000

LOEWDIN ATOMIC CHARGES
----------------------
   0 O :   -0.129823
   1 C :    0.054940
   2 C :   -0.042002
   3 C :   -0.030762
   4 C :    0.049940
   5 O :   -0.115185
   6 C :   -0.041446
   7 H :    0.069491
   8 H :   -0.002481
   9 H :    0.004034
  10 H :    0.029978
  11 H :    0.024521
  12 H :    0.023984
  13 H :   -0.005186
  14 H :    0.068062
  15 H :    0.024108
  16 H :    0.017826

  Mayer bond orders larger than 0.1
B(  0-O ,  1-C ) :   1.1100 B(  0-O ,  7-H ) :   0.9803 B(  1-C ,  2-C ) :   1.0716
B(  1-C ,  8-H ) :   0.9123 B(  1-C ,  9-H ) :   0.9259 B(  2-C ,  3-C ) :   1.0703
B(  2-C ,  6-C ) :   1.0698 B(  2-C , 10-H ) :   0.8979 B(  3-C ,  4-C ) :   1.0846
B(  3-C , 11-H ) :   0.9093 B(  3-C , 12-H ) :   0.9098 B(  4-C ,  5-O ) :   1.0834
B(  4-C ,  6-C ) :   1.0771 B(  4-C , 13-H ) :   0.9231 B(  5-O , 14-H ) :   0.9823
B(  6-C , 15-H ) :   0.9031 B(  6-C , 16-H ) :   0.9130

FINAL SINGLE POINT ENERGY      -346.269139739943

DIPOLE MOMENT
-------------
                                X             Y             Z
Electronic contribution:      2.09165      -0.39864       0.48169
Nuclear contribution   :     -2.53614       0.36434      -0.96623
                        -----------------------------------------
Total Dipole Moment    :     -0.44448      -0.03430      -0.48454
                        -----------------------------------------
Magnitude (a.u.)       :      0.65843
Magnitude (Debye)      :      1.67358

                             ****ORCA TERMINATED NORMALLY****
TOTAL RUN TIME: 0 days 0 hours 0 minutes 7 seconds 55 msec
