                         Program Version 3.0.3 - RELEASE   -
|  1> ! RI PBE def2-SVP def2-SVP/J NBO PAL2
|  2> % maxcore 2000
|  3> % output
|  4>     # printlevel mini
|  5>     print[ P_Basis ] 0
|  6>     print[ P_SCFInfo ] 1
|  7>     print[ P_SCFIterInfo ] 1
|  8>     print[ P_OrbEn ] 0
|  9>     print[ P_Cartesian ] 0
| 10> end
| 11> *xyz 0 1
| 12>  O        2.2099700000     1.3166870000    -0.1293870000
| 13>  C        2.1465010000     0.1334890000     0.1255040000
| 14>  C        2.9622700000    -0.5334800000     1.1058480000
| 15>  C        2.9030400000    -1.8415840000     1.3987000000
| 16>  O        3.7460380000    -2.2603540000     2.3393200000
| 17>  C        4.5133720000    -1.1093050000     2.7832320000
| 18>  C        4.0163370000     0.0968740000     1.9726840000
| 19>  H        1.4253640000    -0.5233830000    -0.4068980000
| 20>  H        2.2630660000    -2.6057450000     0.9750950000
| 21>  H        5.5647180000    -1.3428730000     2.6114930000
| 22>  H        4.3447160000    -1.0094880000     3.8560460000
| 23>  H        4.8075440000     0.5542830000     1.3742870000
| 24>  H        3.5982850000     0.8832590000     2.6052740000
| 25> *
| 26>
| 27>                          ****END OF INPUT****
 Total Charge           Charge          ....    0
 Multiplicity           Mult            ....    1
 Number of Electrons    NEL             ....   52
 Basis Dimension        Dim             ....  128

MULLIKEN ATOMIC CHARGES
-----------------------
   0 O :   -0.189686
   1 C :    0.120016
   2 C :   -0.188977
   3 C :    0.145647
   4 O :   -0.253000
   5 C :    0.162634
   6 C :    0.056085
   7 H :   -0.042161
   8 H :    0.018530
   9 H :    0.043008
  10 H :    0.045812
  11 H :    0.041487
  12 H :    0.040606
Sum of atomic charges:    0.0000000

LOEWDIN ATOMIC CHARGES
----------------------
   0 O :   -0.146662
   1 C :    0.053859
   2 C :   -0.145868
   3 C :    0.076757
   4 O :   -0.051257
   5 C :    0.092051
   6 C :   -0.032886
   7 H :   -0.015225
   8 H :    0.030632
   9 H :    0.028015
  10 H :    0.028509
  11 H :    0.041234
  12 H :    0.040840

  Mayer bond orders larger than 0.1
B(  0-O ,  1-C ) :   2.1114 B(  1-C ,  2-C ) :   1.0921 B(  1-C ,  7-H ) :   0.9359
B(  2-C ,  3-C ) :   1.5735 B(  2-C ,  4-O ) :   0.1079 B(  2-C ,  6-C ) :   1.0535
B(  3-C ,  4-O ) :   1.1926 B(  3-C ,  8-H ) :   0.9840 B(  4-O ,  5-C ) :   0.9331
B(  5-C ,  6-C ) :   1.1116 B(  5-C ,  9-H ) :   0.9469 B(  5-C , 10-H ) :   0.9470
B(  6-C , 11-H ) :   0.9132 B(  6-C , 12-H ) :   0.9147

FINAL SINGLE POINT ENERGY      -343.897905792858

DIPOLE MOMENT
-------------
                                X             Y             Z
Electronic contribution:     -1.97699      -0.41625      -1.83039
Nuclear contribution   :      2.49534      -0.44747       2.56996
                        -----------------------------------------
Total Dipole Moment    :      0.51835      -0.86373       0.73957
                        -----------------------------------------
Magnitude (a.u.)       :      1.24967
Magnitude (Debye)      :      3.17641

                             ****ORCA TERMINATED NORMALLY****
TOTAL RUN TIME: 0 days 0 hours 0 minutes 6 seconds 612 msec
