                         Program Version 3.0.3 - RELEASE   -
|  1> ! RI PBE def2-SVP def2-SVP/J NBO PAL2
|  2> % maxcore 2000
|  3> % output
|  4>     # printlevel mini
|  5>     print[ P_Basis ] 0
|  6>     print[ P_SCFInfo ] 1
|  7>     print[ P_SCFIterInfo ] 1
|  8>     print[ P_OrbEn ] 0
|  9>     print[ P_Cartesian ] 0
| 10> end
| 11> *xyz 0 1
| 12>  O        1.9663300000     0.0453770000    -1.0626950000
| 13>  C        2.1791760000     0.0279250000     0.1147910000
| 14>  C        3.0493730000     1.0187720000     0.8609780000
| 15>  C        2.4003700000     1.5461010000     2.1550890000
| 16>  O        2.0364240000     2.9081530000     1.9008340000
| 17>  C        2.6694360000     3.2722590000     0.7571080000
| 18>  C        3.3008970000     2.2970870000     0.1170190000
| 19>  H        1.7442190000    -0.7714300000     0.7594740000
| 20>  H        3.9659080000     0.4632870000     1.1039750000
| 21>  H        3.1049330000     1.5361310000     2.9907040000
| 22>  H        1.5011020000     0.9980880000     2.4469440000
| 23>  H        2.5655600000     4.3164290000     0.4965540000
| 24>  H        3.8182810000     2.3808310000    -0.8242860000
| 25> *
| 26>
| 27>                          ****END OF INPUT****
 Total Charge           Charge          ....    0
 Multiplicity           Mult            ....    1
 Number of Electrons    NEL             ....   52
 Basis Dimension        Dim             ....  128

MULLIKEN ATOMIC CHARGES
-----------------------
   0 O :   -0.140745
   1 C :    0.128226
   2 C :   -0.144396
   3 C :    0.245708
   4 O :   -0.284451
   5 C :    0.132687
   6 C :   -0.056362
   7 H :   -0.011158
   8 H :    0.052277
   9 H :    0.028243
  10 H :    0.024611
  11 H :    0.016271
  12 H :    0.009089
Sum of atomic charges:   -0.0000000

LOEWDIN ATOMIC CHARGES
----------------------
   0 O :   -0.092229
   1 C :    0.092957
   2 C :   -0.093745
   3 C :    0.095711
   4 O :   -0.088323
   5 C :    0.049207
   6 C :   -0.103873
   7 H :   -0.014997
   8 H :    0.052338
   9 H :    0.022955
  10 H :    0.021697
  11 H :    0.025963
  12 H :    0.032338

  Mayer bond orders larger than 0.1
B(  0-O ,  1-C ) :   2.2263 B(  1-C ,  2-C ) :   0.8878 B(  1-C ,  7-H ) :   0.9214
B(  2-C ,  3-C ) :   1.0453 B(  2-C ,  6-C ) :   1.0171 B(  2-C ,  8-H ) :   0.8730
B(  3-C ,  4-O ) :   0.9737 B(  3-C ,  9-H ) :   0.9315 B(  3-C , 10-H ) :   0.9476
B(  4-O ,  5-C ) :   1.1151 B(  4-O ,  6-C ) :   0.1176 B(  5-C ,  6-C ) :   1.7396
B(  5-C , 11-H ) :   0.9901 B(  6-C , 12-H ) :   0.9904

FINAL SINGLE POINT ENERGY      -343.877669723481

DIPOLE MOMENT
-------------
                                X             Y             Z
Electronic contribution:     -1.20328       0.36694      -1.87067
Nuclear contribution   :      1.64004      -0.48401       2.60100
                        -----------------------------------------
Total Dipole Moment    :      0.43676      -0.11707       0.73033
                        -----------------------------------------
Magnitude (a.u.)       :      0.85898
Magnitude (Debye)      :      2.18335

                             ****ORCA TERMINATED NORMALLY****
TOTAL RUN TIME: 0 days 0 hours 0 minutes 6 seconds 439 msec
