                         Program Version 3.0.3 - RELEASE   -
|  1> ! RI PBE def2-SVP def2-SVP/J NBO PAL2
|  2> % maxcore 2000
|  3> % output
|  4>     # printlevel mini
|  5>     print[ P_Basis ] 0
|  6>     print[ P_SCFInfo ] 1
|  7>     print[ P_SCFIterInfo ] 1
|  8>     print[ P_OrbEn ] 0
|  9>     print[ P_Cartesian ] 0
| 10> end
| 11> *xyz 0 1
| 12>  O        1.0944730000    -0.3050950000     0.8405880000
| 13>  C        2.3428100000    -0.0239920000     0.2202560000
| 14>  C        2.8207410000     1.3021850000     0.6621900000
| 15>  C        3.9618760000     1.5807800000     1.2844520000
| 16>  O        4.1883440000     2.8918870000     1.5345800000
| 17>  C        2.9642830000     3.5807820000     1.2113680000
| 18>  C        2.1113310000     2.6039460000     0.3948510000
| 19>  H        0.7104560000    -1.0720940000     0.4089820000
| 20>  H        2.2227150000    -0.0289300000    -0.8742820000
| 21>  H        3.0898540000    -0.7874560000     0.4753800000
| 22>  H        4.7493940000     0.9103740000     1.6033250000
| 23>  H        3.2270910000     4.4967090000     0.6820550000
| 24>  H        2.4766150000     3.8439480000     2.1548050000
| 25>  H        2.1087920000     2.8395290000    -0.6769620000
| 26>  H        1.0721260000     2.5908180000     0.7288120000
| 27> *
| 28>
| 29>                          ****END OF INPUT****
 Total Charge           Charge          ....    0
 Multiplicity           Mult            ....    1
 Number of Electrons    NEL             ....   54
 Basis Dimension        Dim             ....  138

MULLIKEN ATOMIC CHARGES
-----------------------
   0 O :   -0.279527
   1 C :    0.235502
   2 C :   -0.239725
   3 C :    0.119021
   4 O :   -0.287165
   5 C :    0.189507
   6 C :    0.044909
   7 H :    0.148395
   8 H :   -0.001940
   9 H :   -0.018572
  10 H :   -0.004813
  11 H :    0.021334
  12 H :    0.023811
  13 H :    0.020095
  14 H :    0.029169
Sum of atomic charges:    0.0000000

LOEWDIN ATOMIC CHARGES
----------------------
   0 O :   -0.135852
   1 C :    0.060104
   2 C :   -0.122057
   3 C :    0.037187
   4 O :   -0.093259
   5 C :    0.087706
   6 C :   -0.040854
   7 H :    0.065680
   8 H :    0.008577
   9 H :    0.008523
  10 H :    0.021094
  11 H :    0.021031
  12 H :    0.019772
  13 H :    0.027175
  14 H :    0.035172

  Mayer bond orders larger than 0.1
B(  0-O ,  1-C ) :   1.0989 B(  0-O ,  7-H ) :   0.9785 B(  1-C ,  2-C ) :   1.1080
B(  1-C ,  8-H ) :   0.9113 B(  1-C ,  9-H ) :   0.9107 B(  2-C ,  3-C ) :   1.7395
B(  2-C ,  4-O ) :   0.1182 B(  2-C ,  6-C ) :   1.0612 B(  3-C ,  4-O ) :   1.1250
B(  3-C , 10-H ) :   0.9842 B(  4-O ,  5-C ) :   0.9575 B(  5-C ,  6-C ) :   1.1118
B(  5-C , 11-H ) :   0.9490 B(  5-C , 12-H ) :   0.9406 B(  6-C , 13-H ) :   0.9101
B(  6-C , 14-H ) :   0.9137

FINAL SINGLE POINT ENERGY      -345.077576927550

DIPOLE MOMENT
-------------
                                X             Y             Z
Electronic contribution:      1.95145      -0.05342       1.80600
Nuclear contribution   :     -2.16979      -0.22029      -2.35340
                        -----------------------------------------
Total Dipole Moment    :     -0.21833      -0.27371      -0.54740
                        -----------------------------------------
Magnitude (a.u.)       :      0.64980
Magnitude (Debye)      :      1.65166

                             ****ORCA TERMINATED NORMALLY****
TOTAL RUN TIME: 0 days 0 hours 0 minutes 6 seconds 566 msec
