                         Program Version 3.0.3 - RELEASE   -
|  1> ! RI PBE def2-SVP def2-SVP/J NBO PAL2
|  2> % maxcore 2000
|  3> % output
|  4>     # printlevel mini
|  5>     print[ P_Basis ] 0
|  6>     print[ P_SCFInfo ] 1
|  7>     print[ P_SCFIterInfo ] 1
|  8>     print[ P_OrbEn ] 0
|  9>     print[ P_Cartesian ] 0
| 10> end
| 11> *xyz 0 1
| 12>  O        3.1412720000    -1.1495160000    -0.3830620000
| 13>  C        2.3317050000     0.0217260000    -0.4162690000
| 14>  C        2.7813860000     0.9560790000     0.6664800000
| 15>  C        2.6937790000     0.4044060000     2.0678300000
| 16>  O        3.6638740000    -0.5772590000     2.3471900000
| 17>  C        3.8962180000     1.9082580000     0.3595480000
| 18>  C        2.4906040000     2.4133860000     0.4608150000
| 19>  H        2.7433530000    -1.8202300000    -0.9424200000
| 20>  H        1.2777100000    -0.2448670000    -0.2554690000
| 21>  H        2.4123320000     0.5158160000    -1.3934930000
| 22>  H        1.6778760000     0.0101080000     2.2344630000
| 23>  H        2.8478710000     1.2115760000     2.7897530000
| 24>  H        3.6994930000    -1.1555380000     1.5755390000
| 25>  H        4.3505260000     1.8577020000    -0.6227330000
| 26>  H        4.5857010000     2.1386740000     1.1621690000
| 27>  H        1.9857020000     2.7101720000    -0.4514270000
| 28>  H        2.2147090000     2.9962060000     1.3313970000
| 29> *
| 30>
| 31>                          ****END OF INPUT****
 Total Charge           Charge          ....    0
 Multiplicity           Mult            ....    1
 Number of Electrons    NEL             ....   56
 Basis Dimension        Dim             ....  148

MULLIKEN ATOMIC CHARGES
-----------------------
   0 O :   -0.282172
   1 C :    0.271692
   2 C :   -0.397870
   3 C :    0.309030
   4 O :   -0.290530
   5 C :    0.023528
   6 C :   -0.009657
   7 H :    0.162716
   8 H :   -0.000663
   9 H :   -0.013665
  10 H :   -0.019168
  11 H :   -0.016699
  12 H :    0.143335
  13 H :    0.027904
  14 H :    0.037651
  15 H :    0.023721
  16 H :    0.030846
Sum of atomic charges:    0.0000000

LOEWDIN ATOMIC CHARGES
----------------------
   0 O :   -0.115826
   1 C :    0.073611
   2 C :   -0.096066
   3 C :    0.069221
   4 O :   -0.128811
   5 C :   -0.029967
   6 C :   -0.033483
   7 H :    0.074681
   8 H :    0.008176
   9 H :    0.006985
  10 H :    0.000977
  11 H :    0.016881
  12 H :    0.044324
  13 H :    0.026825
  14 H :    0.031242
  15 H :    0.023825
  16 H :    0.027405

  Mayer bond orders larger than 0.1
B(  0-O ,  1-C ) :   1.0644 B(  0-O ,  7-H ) :   0.9713 B(  1-C ,  2-C ) :   1.0633
B(  1-C ,  8-H ) :   0.9255 B(  1-C ,  9-H ) :   0.9126 B(  2-C ,  3-C ) :   1.0389
B(  2-C ,  5-C ) :   0.9550 B(  2-C ,  6-C ) :   0.9680 B(  3-C ,  4-O ) :   1.0990
B(  3-C , 10-H ) :   0.9169 B(  3-C , 11-H ) :   0.9127 B(  4-O , 12-H ) :   0.9608
B(  5-C ,  6-C ) :   1.0441 B(  5-C , 13-H ) :   0.9427 B(  5-C , 14-H ) :   0.9433
B(  6-C , 15-H ) :   0.9371 B(  6-C , 16-H ) :   0.9378

FINAL SINGLE POINT ENERGY      -346.270613451860

DIPOLE MOMENT
-------------
                                X             Y             Z
Electronic contribution:      1.42374      -3.18119       0.74772
Nuclear contribution   :     -2.14632       3.15521      -1.75211
                        -----------------------------------------
Total Dipole Moment    :     -0.72258      -0.02598      -1.00439
                        -----------------------------------------
Magnitude (a.u.)       :      1.23758
Magnitude (Debye)      :      3.14567

                             ****ORCA TERMINATED NORMALLY****
TOTAL RUN TIME: 0 days 0 hours 0 minutes 7 seconds 166 msec
