                         Program Version 3.0.3 - RELEASE   -
|  1> ! RI PBE def2-SVP def2-SVP/J NBO PAL2
|  2> % maxcore 2000
|  3> % output
|  4>     # printlevel mini
|  5>     print[ P_Basis ] 0
|  6>     print[ P_SCFInfo ] 1
|  7>     print[ P_SCFIterInfo ] 1
|  8>     print[ P_OrbEn ] 0
|  9>     print[ P_Cartesian ] 0
| 10> end
| 11> *xyz 0 1
| 12>  O        3.4123180000     0.3078880000    -0.9346340000
| 13>  C        2.4817870000    -0.0636180000     0.0589960000
| 14>  C        2.9801930000     0.4617190000     1.3949160000
| 15>  C        2.0365440000     0.1087370000     2.5583010000
| 16>  O        1.4345410000     1.3334680000     3.0099360000
| 17>  C        2.0807250000     2.3410450000     2.3712150000
| 18>  C        2.9816370000     1.9642420000     1.4738910000
| 19>  H        3.0742240000     0.0386770000    -1.7911360000
| 20>  H        2.3814250000    -1.1582630000     0.1137860000
| 21>  H        1.4878690000     0.3597360000    -0.1446650000
| 22>  H        3.9788490000     0.0436290000     1.5587510000
| 23>  H        2.5739150000    -0.3302920000     3.4026950000
| 24>  H        1.2328820000    -0.5716900000     2.2644890000
| 25>  H        1.7724980000     3.3339750000     2.6694420000
| 26>  H        3.5792830000     2.6140270000     0.8552160000
| 27> *
| 28>
| 29>                          ****END OF INPUT****
 Total Charge           Charge          ....    0
 Multiplicity           Mult            ....    1
 Number of Electrons    NEL             ....   54
 Basis Dimension        Dim             ....  138

MULLIKEN ATOMIC CHARGES
-----------------------
   0 O :   -0.274140
   1 C :    0.202530
   2 C :   -0.167811
   3 C :    0.258743
   4 O :   -0.295661
   5 C :    0.136619
   6 C :   -0.071468
   7 H :    0.156038
   8 H :    0.000075
   9 H :   -0.008047
  10 H :    0.022091
  11 H :    0.021137
  12 H :    0.013860
  13 H :    0.004444
  14 H :    0.001589
Sum of atomic charges:   -0.0000000

LOEWDIN ATOMIC CHARGES
----------------------
   0 O :   -0.124547
   1 C :    0.058810
   2 C :   -0.059645
   3 C :    0.092167
   4 O :   -0.096848
   5 C :    0.038964
   6 C :   -0.108043
   7 H :    0.072338
   8 H :    0.000619
   9 H :    0.003805
  10 H :    0.032006
  11 H :    0.021111
  12 H :    0.019383
  13 H :    0.021328
  14 H :    0.028553

  Mayer bond orders larger than 0.1
B(  0-O ,  1-C ) :   1.1106 B(  0-O ,  7-H ) :   0.9785 B(  1-C ,  2-C ) :   1.0273
B(  1-C ,  8-H ) :   0.9312 B(  1-C ,  9-H ) :   0.9219 B(  2-C ,  3-C ) :   1.0506
B(  2-C ,  6-C ) :   1.0344 B(  2-C , 10-H ) :   0.8953 B(  3-C ,  4-O ) :   0.9669
B(  3-C , 11-H ) :   0.9342 B(  3-C , 12-H ) :   0.9431 B(  4-O ,  5-C ) :   1.1094
B(  4-O ,  6-C ) :   0.1203 B(  5-C ,  6-C ) :   1.7323 B(  5-C , 13-H ) :   0.9889
B(  6-C , 14-H ) :   0.9948

FINAL SINGLE POINT ENERGY      -345.074800058241

DIPOLE MOMENT
-------------
                                X             Y             Z
Electronic contribution:     -0.37807       2.11809       1.41374
Nuclear contribution   :      0.19690      -2.56848      -1.87176
                        -----------------------------------------
Total Dipole Moment    :     -0.18117      -0.45039      -0.45802
                        -----------------------------------------
Magnitude (a.u.)       :      0.66743
Magnitude (Debye)      :      1.69647

                             ****ORCA TERMINATED NORMALLY****
TOTAL RUN TIME: 0 days 0 hours 0 minutes 6 seconds 403 msec
