                         Program Version 3.0.3 - RELEASE   -
|  1> ! RI PBE def2-SVP def2-SVP/J NBO PAL2
|  2> % maxcore 2000
|  3> % output
|  4>     # printlevel mini
|  5>     print[ P_Basis ] 0
|  6>     print[ P_SCFInfo ] 1
|  7>     print[ P_SCFIterInfo ] 1
|  8>     print[ P_OrbEn ] 0
|  9>     print[ P_Cartesian ] 0
| 10> end
| 11> *xyz 0 1
| 12>  O        2.5432480000     0.8507240000     0.5593900000
| 13>  C        2.1113870000    -0.0746250000    -0.0673710000
| 14>  C        2.9000530000    -0.8142720000    -1.0885440000
| 15>  O        2.4751110000    -2.1392510000    -1.3473850000
| 16>  C        2.2246280000    -1.1792820000    -2.3539190000
| 17>  C        2.9701880000    -1.2660100000    -3.5765570000
| 18>  C        3.5662360000    -1.3266270000    -4.6156890000
| 19>  H        1.0741940000    -0.4519450000     0.0645180000
| 20>  H        3.9718090000    -0.6367200000    -1.1024940000
| 21>  H        1.1750690000    -0.9120210000    -2.4658090000
| 22>  H        4.1018580000    -1.3853800000    -5.5341390000
| 23> *
| 24>
| 25>                          ****END OF INPUT****
 Total Charge           Charge          ....    0
 Multiplicity           Mult            ....    1
 Number of Electrons    NEL             ....   50
 Basis Dimension        Dim             ....  118

MULLIKEN ATOMIC CHARGES
-----------------------
   0 O :   -0.139178
   1 C :    0.169410
   2 C :    0.050585
   3 O :   -0.231258
   4 C :    0.029448
   5 C :    0.435375
   6 C :   -0.421351
   7 H :   -0.010280
   8 H :    0.041944
   9 H :    0.056620
  10 H :    0.018684
Sum of atomic charges:    0.0000000

LOEWDIN ATOMIC CHARGES
----------------------
   0 O :   -0.088610
   1 C :    0.076470
   2 C :    0.026974
   3 O :   -0.106547
   4 C :    0.049972
   5 C :   -0.032443
   6 C :   -0.033023
   7 H :   -0.005838
   8 H :    0.033738
   9 H :    0.037055
  10 H :    0.042252

  Mayer bond orders larger than 0.1
B(  0-O ,  1-C ) :   2.1705 B(  1-C ,  2-C ) :   0.9594 B(  1-C ,  7-H ) :   0.9097
B(  2-C ,  3-O ) :   0.9610 B(  2-C ,  4-C ) :   0.9545 B(  2-C ,  8-H ) :   0.9324
B(  3-O ,  4-C ) :   1.0108 B(  4-C ,  5-C ) :   0.9695 B(  4-C ,  9-H ) :   0.9148
B(  5-C ,  6-C ) :   2.3264 B(  6-C , 10-H ) :   1.0857

FINAL SINGLE POINT ENERGY      -342.597928348607

DIPOLE MOMENT
-------------
                                X             Y             Z
Electronic contribution:      0.21246      -0.06137       1.27954
Nuclear contribution   :     -0.32277      -0.04630      -2.10319
                        -----------------------------------------
Total Dipole Moment    :     -0.11031      -0.10767      -0.82365
                        -----------------------------------------
Magnitude (a.u.)       :      0.83795
Magnitude (Debye)      :      2.12991

                             ****ORCA TERMINATED NORMALLY****
TOTAL RUN TIME: 0 days 0 hours 0 minutes 5 seconds 347 msec
