                         Program Version 3.0.3 - RELEASE   -
|  1> ! RI PBE def2-SVP def2-SVP/J NBO PAL2
|  2> % maxcore 2000
|  3> % output
|  4>     # printlevel mini
|  5>     print[ P_Basis ] 0
|  6>     print[ P_SCFInfo ] 1
|  7>     print[ P_SCFIterInfo ] 1
|  8>     print[ P_OrbEn ] 0
|  9>     print[ P_Cartesian ] 0
| 10> end
| 11> *xyz 0 1
| 12>  O        1.6674860000     0.9194690000    -0.0338760000
| 13>  C        2.2904160000    -0.3022000000    -0.3655170000
| 14>  C        2.8201900000    -0.9044370000     0.9004350000
| 15>  O        3.7456110000    -1.9582780000     0.7356920000
| 16>  C        4.2180120000    -0.7318140000     1.3034340000
| 17>  C        4.6287350000    -0.7789360000     2.7122240000
| 18>  C        5.6621940000    -0.1043610000     3.1975730000
| 19>  H        1.2044180000     1.2480920000    -0.8070910000
| 20>  H        3.1218940000    -0.1648240000    -1.0696190000
| 21>  H        1.5779860000    -1.0053720000    -0.8192750000
| 22>  H        2.0776900000    -1.0600770000     1.6828160000
| 23>  H        4.8595780000    -0.1538440000     0.6393590000
| 24>  H        4.0259950000    -1.4107650000     3.3598180000
| 25>  H        6.2783570000     0.5215110000     2.5597290000
| 26>  H        5.9261370000    -0.1483640000     4.2470980000
| 27> *
| 28>
| 29>                          ****END OF INPUT****
 Total Charge           Charge          ....    0
 Multiplicity           Mult            ....    1
 Number of Electrons    NEL             ....   54
 Basis Dimension        Dim             ....  138

MULLIKEN ATOMIC CHARGES
-----------------------
   0 O :   -0.280901
   1 C :    0.235209
   2 C :    0.020488
   3 O :   -0.274000
   4 C :    0.062281
   5 C :    0.043619
   6 C :   -0.033157
   7 H :    0.160364
   8 H :   -0.009037
   9 H :    0.008886
  10 H :    0.016235
  11 H :    0.001997
  12 H :   -0.001598
  13 H :    0.022723
  14 H :    0.026892
Sum of atomic charges:    0.0000000

LOEWDIN ATOMIC CHARGES
----------------------
   0 O :   -0.125612
   1 C :    0.050223
   2 C :    0.039618
   3 O :   -0.140859
   4 C :    0.045367
   5 C :   -0.033360
   6 C :   -0.051842
   7 H :    0.073554
   8 H :    0.008596
   9 H :    0.012569
  10 H :    0.016507
  11 H :    0.019318
  12 H :    0.032831
  13 H :    0.024799
  14 H :    0.028290

  Mayer bond orders larger than 0.1
B(  0-O ,  1-C ) :   1.0983 B(  0-O ,  7-H ) :   0.9775 B(  1-C ,  2-C ) :   1.0436
B(  1-C ,  8-H ) :   0.9091 B(  1-C ,  9-H ) :   0.9158 B(  2-C ,  3-O ) :   0.9889
B(  2-C ,  4-C ) :   1.0054 B(  2-C , 10-H ) :   0.9244 B(  3-O ,  4-C ) :   0.9521
B(  4-C ,  5-C ) :   1.0744 B(  4-C , 11-H ) :   0.9290 B(  5-C ,  6-C ) :   1.9530
B(  5-C , 12-H ) :   0.9392 B(  6-C , 13-H ) :   0.9536 B(  6-C , 14-H ) :   0.9352

FINAL SINGLE POINT ENERGY      -345.042406988140

DIPOLE MOMENT
-------------
                                X             Y             Z
Electronic contribution:     -1.18356      -1.47379      -0.99689
Nuclear contribution   :      0.89578       1.91190       0.60570
                        -----------------------------------------
Total Dipole Moment    :     -0.28777       0.43810      -0.39119
                        -----------------------------------------
Magnitude (a.u.)       :      0.65404
Magnitude (Debye)      :      1.66245

                             ****ORCA TERMINATED NORMALLY****
TOTAL RUN TIME: 0 days 0 hours 0 minutes 5 seconds 698 msec
