                         Program Version 3.0.3 - RELEASE   -
|  1> ! RI PBE def2-SVP def2-SVP/J NBO PAL2
|  2> % maxcore 2000
|  3> % output
|  4>     # printlevel mini
|  5>     print[ P_Basis ] 0
|  6>     print[ P_SCFInfo ] 1
|  7>     print[ P_SCFIterInfo ] 1
|  8>     print[ P_OrbEn ] 0
|  9>     print[ P_Cartesian ] 0
| 10> end
| 11> *xyz 0 1
| 12>  O        1.2016990000     0.3627480000    -0.1288260000
| 13>  C        2.5146720000    -0.1252850000     0.0283530000
| 14>  C        2.9405680000     0.1566080000     1.4369750000
| 15>  O        4.3257690000     0.0527570000     1.6907910000
| 16>  C        3.7308860000     1.3480360000     1.7665970000
| 17>  C        3.6615440000     1.9668650000     3.0602140000
| 18>  C        3.6052990000     2.5115660000     4.1280230000
| 19>  H        0.8620200000     0.0676860000    -0.9761660000
| 20>  H        3.2215260000     0.3555020000    -0.6611830000
| 21>  H        2.5649920000    -1.2099200000    -0.1409090000
| 22>  H        2.2972390000    -0.2498030000     2.2151800000
| 23>  H        4.0042130000     2.0119230000     0.9488180000
| 24>  H        3.5541840000     2.9867360000     5.0791440000
| 25> *
| 26>
| 27>                          ****END OF INPUT****
 Total Charge           Charge          ....    0
 Multiplicity           Mult            ....    1
 Number of Electrons    NEL             ....   52
 Basis Dimension        Dim             ....  128

MULLIKEN ATOMIC CHARGES
-----------------------
   0 O :   -0.277438
   1 C :    0.235901
   2 C :    0.028532
   3 O :   -0.255366
   4 C :    0.030403
   5 C :    0.440487
   6 C :   -0.444981
   7 H :    0.161437
   8 H :   -0.011513
   9 H :    0.012229
  10 H :    0.028251
  11 H :    0.042180
  12 H :    0.009877
Sum of atomic charges:   -0.0000000

LOEWDIN ATOMIC CHARGES
----------------------
   0 O :   -0.122691
   1 C :    0.050772
   2 C :    0.052493
   3 O :   -0.129252
   4 C :    0.036586
   5 C :   -0.027318
   6 C :   -0.053365
   7 H :    0.074535
   8 H :    0.008607
   9 H :    0.014246
  10 H :    0.023422
  11 H :    0.033875
  12 H :    0.038090

  Mayer bond orders larger than 0.1
B(  0-O ,  1-C ) :   1.1028 B(  0-O ,  7-H ) :   0.9768 B(  1-C ,  2-C ) :   1.0347
B(  1-C ,  8-H ) :   0.9070 B(  1-C ,  9-H ) :   0.9173 B(  2-C ,  3-O ) :   0.9874
B(  2-C ,  4-C ) :   1.0301 B(  2-C , 10-H ) :   0.9289 B(  3-O ,  4-C ) :   1.0052
B(  4-C ,  5-C ) :   0.9581 B(  4-C , 11-H ) :   0.9084 B(  5-C ,  6-C ) :   2.3263
B(  6-C , 12-H ) :   1.0873

FINAL SINGLE POINT ENERGY      -343.793665090184

DIPOLE MOMENT
-------------
                                X             Y             Z
Electronic contribution:      1.47162       0.88702       2.30922
Nuclear contribution   :     -1.89393      -0.94887      -2.94830
                        -----------------------------------------
Total Dipole Moment    :     -0.42231      -0.06185      -0.63908
                        -----------------------------------------
Magnitude (a.u.)       :      0.76850
Magnitude (Debye)      :      1.95337

                             ****ORCA TERMINATED NORMALLY****
TOTAL RUN TIME: 0 days 0 hours 0 minutes 6 seconds 87 msec
