                         Program Version 3.0.3 - RELEASE   -
|  1> ! RI PBE def2-SVP def2-SVP/J NBO PAL2
|  2> % maxcore 2000
|  3> % output
|  4>     # printlevel mini
|  5>     print[ P_Basis ] 0
|  6>     print[ P_SCFInfo ] 1
|  7>     print[ P_SCFIterInfo ] 1
|  8>     print[ P_OrbEn ] 0
|  9>     print[ P_Cartesian ] 0
| 10> end
| 11> *xyz 0 1
| 12>  O        2.8174530000     0.0884460000    -1.1995750000
| 13>  C        2.2120010000     0.0610460000    -0.1669670000
| 14>  C        2.7784840000     0.5546800000     1.1541200000
| 15>  O        2.0768950000    -0.0221720000     2.2344850000
| 16>  C        1.4870840000     0.9859220000     3.0447970000
| 17>  C        1.8208420000     2.2689290000     2.3622070000
| 18>  C        2.5655150000     2.0327470000     1.2935770000
| 19>  H        1.1662180000    -0.3090200000    -0.0963560000
| 20>  H        3.8429740000     0.2824020000     1.1853930000
| 21>  H        1.9002210000     0.9356250000     4.0616150000
| 22>  H        0.4058360000     0.8135960000     3.1186130000
| 23>  H        1.5031610000     3.2383860000     2.7229590000
| 24>  H        2.9728060000     2.7532140000     0.5980330000
| 25> *
| 26>
| 27>                          ****END OF INPUT****
 Total Charge           Charge          ....    0
 Multiplicity           Mult            ....    1
 Number of Electrons    NEL             ....   52
 Basis Dimension        Dim             ....  128

MULLIKEN ATOMIC CHARGES
-----------------------
   0 O :   -0.152244
   1 C :    0.131560
   2 C :    0.145239
   3 O :   -0.351893
   4 C :    0.262544
   5 C :   -0.106284
   6 C :   -0.046825
   7 H :   -0.009071
   8 H :    0.035254
   9 H :    0.026989
  10 H :    0.031402
  11 H :    0.014088
  12 H :    0.019241
Sum of atomic charges:    0.0000000

LOEWDIN ATOMIC CHARGES
----------------------
   0 O :   -0.098693
   1 C :    0.087359
   2 C :    0.018452
   3 O :   -0.146439
   4 C :    0.075125
   5 C :   -0.038277
   6 C :   -0.031354
   7 H :   -0.010668
   8 H :    0.031354
   9 H :    0.021015
  10 H :    0.022668
  11 H :    0.033663
  12 H :    0.035795

  Mayer bond orders larger than 0.1
B(  0-O ,  1-C ) :   2.1833 B(  1-C ,  2-C ) :   0.8876 B(  1-C ,  7-H ) :   0.9138
B(  2-C ,  3-O ) :   1.0088 B(  2-C ,  6-C ) :   1.0062 B(  2-C ,  8-H ) :   0.8803
B(  3-O ,  4-C ) :   0.9962 B(  4-C ,  5-C ) :   1.0338 B(  4-C ,  9-H ) :   0.9208
B(  4-C , 10-H ) :   0.9242 B(  5-C ,  6-C ) :   1.8447 B(  5-C , 11-H ) :   0.9805
B(  6-C , 12-H ) :   0.9862

FINAL SINGLE POINT ENERGY      -343.873198761827

DIPOLE MOMENT
-------------
                                X             Y             Z
Electronic contribution:      1.26267      -1.90702      -3.09099
Nuclear contribution   :     -1.59440       2.63866       3.93387
                        -----------------------------------------
Total Dipole Moment    :     -0.33173       0.73164       0.84288
                        -----------------------------------------
Magnitude (a.u.)       :      1.16438
Magnitude (Debye)      :      2.95962

                             ****ORCA TERMINATED NORMALLY****
TOTAL RUN TIME: 0 days 0 hours 0 minutes 6 seconds 330 msec
