                         Program Version 3.0.3 - RELEASE   -
|  1> ! RI PBE def2-SVP def2-SVP/J NBO PAL2
|  2> % maxcore 2000
|  3> % output
|  4>     # printlevel mini
|  5>     print[ P_Basis ] 0
|  6>     print[ P_SCFInfo ] 1
|  7>     print[ P_SCFIterInfo ] 1
|  8>     print[ P_OrbEn ] 0
|  9>     print[ P_Cartesian ] 0
| 10> end
| 11> *xyz 0 1
| 12>  O        2.8383100000    -0.4313220000     1.3335910000
| 13>  C        2.4207800000     0.0592160000     0.0776470000
| 14>  C        2.9050910000    -0.8669950000    -1.0167910000
| 15>  O        2.4728220000    -0.3619540000    -2.2663840000
| 16>  C        4.3902600000    -1.2857460000    -1.0256680000
| 17>  C        3.9483820000    -2.7112180000    -1.4113870000
| 18>  C        2.5253840000    -2.3534820000    -0.9396520000
| 19>  H        2.4401500000     0.1054660000     2.0212670000
| 20>  H        2.8279050000     1.0667500000    -0.1068290000
| 21>  H        1.3264830000     0.1221200000     0.0097150000
| 22>  H        2.9779800000     0.4334390000    -2.4600330000
| 23>  H        4.8123340000    -1.2447880000    -0.0205240000
| 24>  H        5.0402020000    -0.7430290000    -1.7166520000
| 25>  H        4.4480120000    -3.5384210000    -0.9066220000
| 26>  H        3.9896070000    -2.8753740000    -2.4883490000
| 27>  H        2.3480480000    -2.6535730000     0.0938410000
| 28>  H        1.6830500000    -2.6501900000    -1.5653680000
| 29> *
| 30>
| 31>                          ****END OF INPUT****
 Total Charge           Charge          ....    0
 Multiplicity           Mult            ....    1
 Number of Electrons    NEL             ....   56
 Basis Dimension        Dim             ....  148

MULLIKEN ATOMIC CHARGES
-----------------------
   0 O :   -0.267565
   1 C :    0.239777
   2 C :   -0.265910
   3 O :   -0.251826
   4 C :    0.106297
   5 C :   -0.015664
   6 C :    0.129234
   7 H :    0.158239
   8 H :   -0.027870
   9 H :    0.003817
  10 H :    0.152094
  11 H :    0.010616
  12 H :   -0.006671
  13 H :    0.004134
  14 H :    0.016861
  15 H :    0.005881
  16 H :    0.008555
Sum of atomic charges:    0.0000000

LOEWDIN ATOMIC CHARGES
----------------------
   0 O :   -0.121325
   1 C :    0.040551
   2 C :    0.005880
   3 O :   -0.097860
   4 C :   -0.042420
   5 C :   -0.029737
   6 C :   -0.027583
   7 H :    0.073545
   8 H :   -0.002472
   9 H :    0.008772
  10 H :    0.064797
  11 H :    0.027101
  12 H :    0.012694
  13 H :    0.016578
  14 H :    0.025131
  15 H :    0.025940
  16 H :    0.020408

  Mayer bond orders larger than 0.1
B(  0-O ,  1-C ) :   1.0877 B(  0-O ,  7-H ) :   0.9761 B(  1-C ,  2-C ) :   1.0200
B(  1-C ,  8-H ) :   0.9112 B(  1-C ,  9-H ) :   0.9219 B(  2-C ,  3-O ) :   1.0313
B(  2-C ,  4-C ) :   1.0509 B(  2-C ,  6-C ) :   1.0403 B(  3-O , 10-H ) :   0.9796
B(  4-C ,  5-C ) :   1.1355 B(  4-C , 11-H ) :   0.8992 B(  4-C , 12-H ) :   0.9199
B(  5-C ,  6-C ) :   1.1409 B(  5-C , 13-H ) :   0.9303 B(  5-C , 14-H ) :   0.9287
B(  6-C , 15-H ) :   0.9073 B(  6-C , 16-H ) :   0.9153

FINAL SINGLE POINT ENERGY      -346.274579748181

DIPOLE MOMENT
-------------
                                X             Y             Z
Electronic contribution:     -1.25647       1.74170       0.26402
Nuclear contribution   :      1.28922      -1.04415       0.10313
                        -----------------------------------------
Total Dipole Moment    :      0.03274       0.69756       0.36715
                        -----------------------------------------
Magnitude (a.u.)       :      0.78896
Magnitude (Debye)      :      2.00538

                             ****ORCA TERMINATED NORMALLY****
TOTAL RUN TIME: 0 days 0 hours 0 minutes 7 seconds 129 msec
