                         Program Version 3.0.3 - RELEASE   -
|  1> ! RI PBE def2-SVP def2-SVP/J NBO PAL2
|  2> % maxcore 2000
|  3> % output
|  4>     # printlevel mini
|  5>     print[ P_Basis ] 0
|  6>     print[ P_SCFInfo ] 1
|  7>     print[ P_SCFIterInfo ] 1
|  8>     print[ P_OrbEn ] 0
|  9>     print[ P_Cartesian ] 0
| 10> end
| 11> *xyz 0 1
| 12>  O        2.9875850000    -0.8890970000    -0.8909150000
| 13>  C        2.3495250000     0.0380750000    -0.0379810000
| 14>  C        3.2537630000     1.2545220000     0.0692950000
| 15>  O        2.7009780000     2.1604910000     1.0124600000
| 16>  C        2.5603180000     3.4498010000     0.4389980000
| 17>  C        2.9748990000     3.2869720000    -0.9853160000
| 18>  C        3.3752850000     2.0428920000    -1.1947280000
| 19>  H        2.4471900000    -1.6793390000    -0.9466640000
| 20>  H        2.1991340000    -0.3717390000     0.9688900000
| 21>  H        1.3743370000     0.3524930000    -0.4330850000
| 22>  H        4.2395970000     0.9073650000     0.4160900000
| 23>  H        3.1940080000     4.1709250000     0.9757370000
| 24>  H        1.5204020000     3.7874750000     0.5423370000
| 25>  H        2.9471950000     4.0898850000    -1.7105520000
| 26>  H        3.7390730000     1.6162980000    -2.1190750000
| 27> *
| 28>
| 29>                          ****END OF INPUT****
 Total Charge           Charge          ....    0
 Multiplicity           Mult            ....    1
 Number of Electrons    NEL             ....   54
 Basis Dimension        Dim             ....  138

MULLIKEN ATOMIC CHARGES
-----------------------
   0 O :   -0.283056
   1 C :    0.199647
   2 C :    0.124465
   3 O :   -0.361119
   4 C :    0.275708
   5 C :   -0.125143
   6 C :   -0.036809
   7 H :    0.159688
   8 H :    0.009141
   9 H :   -0.016229
  10 H :    0.010698
  11 H :    0.018968
  12 H :    0.014245
  13 H :    0.005063
  14 H :    0.004732
Sum of atomic charges:   -0.0000000

LOEWDIN ATOMIC CHARGES
----------------------
   0 O :   -0.127981
   1 C :    0.051020
   2 C :    0.047325
   3 O :   -0.153048
   4 C :    0.072992
   5 C :   -0.050659
   6 C :   -0.033258
   7 H :    0.073857
   8 H :    0.008131
   9 H :    0.001881
  10 H :    0.016998
  11 H :    0.016560
  12 H :    0.017011
  13 H :    0.028002
  14 H :    0.031170

  Mayer bond orders larger than 0.1
B(  0-O ,  1-C ) :   1.0926 B(  0-O ,  7-H ) :   0.9781 B(  1-C ,  2-C ) :   1.0231
B(  1-C ,  8-H ) :   0.9332 B(  1-C ,  9-H ) :   0.9158 B(  2-C ,  3-O ) :   1.0192
B(  2-C ,  6-C ) :   1.0191 B(  2-C , 10-H ) :   0.8874 B(  3-O ,  4-C ) :   1.0076
B(  4-C ,  5-C ) :   1.0307 B(  4-C , 11-H ) :   0.9204 B(  4-C , 12-H ) :   0.9222
B(  5-C ,  6-C ) :   1.8535 B(  5-C , 13-H ) :   0.9822 B(  6-C , 14-H ) :   0.9921

FINAL SINGLE POINT ENERGY      -345.070744371288

DIPOLE MOMENT
-------------
                                X             Y             Z
Electronic contribution:      0.83894      -0.56631       0.25293
Nuclear contribution   :     -1.20709       0.48374      -0.58778
                        -----------------------------------------
Total Dipole Moment    :     -0.36815      -0.08257      -0.33485
                        -----------------------------------------
Magnitude (a.u.)       :      0.50445
Magnitude (Debye)      :      1.28222

                             ****ORCA TERMINATED NORMALLY****
TOTAL RUN TIME: 0 days 0 hours 0 minutes 6 seconds 762 msec
