                         Program Version 3.0.3 - RELEASE   -
|  1> ! RI PBE def2-SVP def2-SVP/J NBO PAL2
|  2> % maxcore 2000
|  3> % output
|  4>     # printlevel mini
|  5>     print[ P_Basis ] 0
|  6>     print[ P_SCFInfo ] 1
|  7>     print[ P_SCFIterInfo ] 1
|  8>     print[ P_OrbEn ] 0
|  9>     print[ P_Cartesian ] 0
| 10> end
| 11> *xyz 0 1
| 12>  O        3.2067530000    -2.1349770000     1.1691580000
| 13>  C        2.5380490000    -0.8895650000     1.2575540000
| 14>  C        3.3395370000     0.0398100000     2.1433910000
| 15>  C        4.7127800000     0.3300090000     1.6074800000
| 16>  C        5.8066560000     0.8647920000     2.4973000000
| 17>  C        5.8765130000    -0.5279560000     1.9846610000
| 18>  O        6.8671970000    -0.8030030000     1.0462870000
| 19>  H        2.6739660000    -2.7280490000     0.6353020000
| 20>  H        1.5315630000    -1.0176090000     1.6785290000
| 21>  H        2.4269040000    -0.4391370000     0.2601370000
| 22>  H        3.4185890000    -0.4027500000     3.1426010000
| 23>  H        2.7715430000     0.9705460000     2.2580770000
| 24>  H        4.7442530000     0.6997710000     0.5857910000
| 25>  H        5.5945240000     1.0172450000     3.5492190000
| 26>  H        6.4958500000     1.5757730000     2.0593820000
| 27>  H        5.6776430000    -1.3317280000     2.6904030000
| 28>  H        6.5179790000    -1.4718730000     0.4500270000
| 29> *
| 30>
| 31>                          ****END OF INPUT****
 Total Charge           Charge          ....    0
 Multiplicity           Mult            ....    1
 Number of Electrons    NEL             ....   56
 Basis Dimension        Dim             ....  148

MULLIKEN ATOMIC CHARGES
-----------------------
   0 O :   -0.283950
   1 C :    0.154465
   2 C :    0.065273
   3 C :   -0.150221
   4 C :    0.006843
   5 C :    0.062101
   6 O :   -0.237204
   7 H :    0.154934
   8 H :   -0.001618
   9 H :   -0.009572
  10 H :   -0.000972
  11 H :    0.012102
  12 H :    0.005538
  13 H :    0.023068
  14 H :    0.031957
  15 H :    0.010021
  16 H :    0.157236
Sum of atomic charges:   -0.0000000

LOEWDIN ATOMIC CHARGES
----------------------
   0 O :   -0.131862
   1 C :    0.057865
   2 C :   -0.046477
   3 C :   -0.061844
   4 C :   -0.052532
   5 C :    0.035568
   6 O :   -0.100776
   7 H :    0.070213
   8 H :    0.004224
   9 H :    0.002144
  10 H :    0.027927
  11 H :    0.031218
  12 H :    0.024520
  13 H :    0.025591
  14 H :    0.032242
  15 H :    0.007756
  16 H :    0.074223

  Mayer bond orders larger than 0.1
B(  0-O ,  1-C ) :   1.0905 B(  0-O ,  7-H ) :   0.9817 B(  1-C ,  2-C ) :   1.0979
B(  1-C ,  8-H ) :   0.9325 B(  1-C ,  9-H ) :   0.9276 B(  2-C ,  3-C ) :   1.0670
B(  2-C , 10-H ) :   0.9099 B(  2-C , 11-H ) :   0.9157 B(  3-C ,  4-C ) :   0.9871
B(  3-C ,  5-C ) :   0.9364 B(  3-C , 12-H ) :   0.9329 B(  4-C ,  5-C ) :   1.0113
B(  4-C , 13-H ) :   0.9351 B(  4-C , 14-H ) :   0.9295 B(  5-C ,  6-O ) :   1.1443
B(  5-C , 15-H ) :   0.9387 B(  6-O , 16-H ) :   0.9829

FINAL SINGLE POINT ENERGY      -346.265974629536

DIPOLE MOMENT
-------------
                                X             Y             Z
Electronic contribution:      2.93684      -2.15909      -1.27677
Nuclear contribution   :     -3.97705       1.84647       0.89428
                        -----------------------------------------
Total Dipole Moment    :     -1.04021      -0.31262      -0.38249
                        -----------------------------------------
Magnitude (a.u.)       :      1.15155
Magnitude (Debye)      :      2.92701

                             ****ORCA TERMINATED NORMALLY****
TOTAL RUN TIME: 0 days 0 hours 0 minutes 7 seconds 468 msec
