                         Program Version 3.0.3 - RELEASE   -
|  1> ! RI PBE def2-SVP def2-SVP/J NBO PAL2
|  2> % maxcore 2000
|  3> % output
|  4>     # printlevel mini
|  5>     print[ P_Basis ] 0
|  6>     print[ P_SCFInfo ] 1
|  7>     print[ P_SCFIterInfo ] 1
|  8>     print[ P_OrbEn ] 0
|  9>     print[ P_Cartesian ] 0
| 10> end
| 11> *xyz 0 1
| 12>  O        2.7387400000    -0.0642480000    -1.3667080000
| 13>  C        2.4152900000    -1.3095460000    -0.7754250000
| 14>  C        2.9754120000    -1.3361240000     0.6291230000
| 15>  C        4.4852330000    -1.2747000000     0.6780300000
| 16>  C        5.1963850000    -1.4216740000     2.0383120000
| 17>  C        6.3030080000    -2.2202460000     1.3249520000
| 18>  C        5.3111270000    -2.4792590000     0.1753160000
| 19>  H        2.4256510000    -0.0645610000    -2.2734100000
| 20>  H        2.8415930000    -2.1392320000    -1.3582120000
| 21>  H        1.3263530000    -1.4518700000    -0.7419180000
| 22>  H        2.6303740000    -2.2546470000     1.1193620000
| 23>  H        2.5503830000    -0.4964790000     1.1910510000
| 24>  H        4.8290180000    -0.3647690000     0.1782970000
| 25>  H        4.6187920000    -2.0615360000     2.7123580000
| 26>  H        5.4757950000    -0.5128190000     2.5744550000
| 27>  H        6.7266770000    -3.0834580000     1.8405910000
| 28>  H        7.1204410000    -1.5701760000     1.0053940000
| 29>  H        4.7665950000    -3.4169070000     0.3258060000
| 30>  H        5.6911220000    -2.4562500000    -0.8475850000
| 31> *
| 32>
| 33>                          ****END OF INPUT****
 Total Charge           Charge          ....    0
 Multiplicity           Mult            ....    1
 Number of Electrons    NEL             ....   56
 Basis Dimension        Dim             ....  158

MULLIKEN ATOMIC CHARGES
-----------------------
   0 O :   -0.282789
   1 C :    0.146676
   2 C :    0.065079
   3 C :   -0.210671
   4 C :    0.059634
   5 C :   -0.013046
   6 C :    0.032445
   7 H :    0.154660
   8 H :   -0.008736
   9 H :    0.000873
  10 H :   -0.011521
  11 H :    0.014479
  12 H :    0.014163
  13 H :   -0.000826
  14 H :    0.009596
  15 H :    0.004834
  16 H :    0.013657
  17 H :    0.000360
  18 H :    0.011132
Sum of atomic charges:   -0.0000000

LOEWDIN ATOMIC CHARGES
----------------------
   0 O :   -0.130665
   1 C :    0.057012
   2 C :   -0.052920
   3 C :   -0.036042
   4 C :   -0.031188
   5 C :   -0.033364
   6 C :   -0.035064
   7 H :    0.070531
   8 H :    0.002582
   9 H :    0.004166
  10 H :    0.023423
  11 H :    0.029346
  12 H :    0.026508
  13 H :    0.020098
  14 H :    0.014599
  15 H :    0.014324
  16 H :    0.023575
  17 H :    0.018981
  18 H :    0.014098

  Mayer bond orders larger than 0.1
B(  0-O ,  1-C ) :   1.0831 B(  0-O ,  7-H ) :   0.9810 B(  1-C ,  2-C ) :   1.0984
B(  1-C ,  8-H ) :   0.9264 B(  1-C ,  9-H ) :   0.9335 B(  2-C ,  3-C ) :   1.0769
B(  2-C , 10-H ) :   0.9075 B(  2-C , 11-H ) :   0.9185 B(  3-C ,  4-C ) :   1.0732
B(  3-C ,  6-C ) :   1.0733 B(  3-C , 12-H ) :   0.9095 B(  4-C ,  5-C ) :   1.1206
B(  4-C , 13-H ) :   0.9174 B(  4-C , 14-H ) :   0.9347 B(  5-C ,  6-C ) :   1.1206
B(  5-C , 15-H ) :   0.9333 B(  5-C , 16-H ) :   0.9342 B(  6-C , 17-H ) :   0.9200
B(  6-C , 18-H ) :   0.9337

FINAL SINGLE POINT ENERGY      -310.411917420766

DIPOLE MOMENT
-------------
                                X             Y             Z
Electronic contribution:     -1.39514       2.40648      -2.04070
Nuclear contribution   :      1.09734      -2.70055       1.66101
                        -----------------------------------------
Total Dipole Moment    :     -0.29779      -0.29407      -0.37969
                        -----------------------------------------
Magnitude (a.u.)       :      0.56509
Magnitude (Debye)      :      1.43634

                             ****ORCA TERMINATED NORMALLY****
TOTAL RUN TIME: 0 days 0 hours 0 minutes 8 seconds 43 msec
