                         Program Version 3.0.3 - RELEASE   -
|  1> ! RI PBE def2-SVP def2-SVP/J NBO PAL2
|  2> % maxcore 2000
|  3> % output
|  4>     # printlevel mini
|  5>     print[ P_Basis ] 0
|  6>     print[ P_SCFInfo ] 1
|  7>     print[ P_SCFIterInfo ] 1
|  8>     print[ P_OrbEn ] 0
|  9>     print[ P_Cartesian ] 0
| 10> end
| 11> *xyz 0 1
| 12>  O        2.8842870000    -2.3954680000    -0.7399340000
| 13>  C        2.3565710000    -1.9526850000     0.2435460000
| 14>  C        3.0025930000    -1.0121250000     1.2163370000
| 15>  C        4.4471300000    -0.6916890000     0.9279470000
| 16>  C        5.2144220000     0.2308270000     1.8962480000
| 17>  C        6.4606130000    -0.6471650000     1.6742330000
| 18>  C        5.5271850000    -1.7653770000     1.1738340000
| 19>  H        1.3065050000    -2.2286650000     0.4886860000
| 20>  H        2.8809010000    -1.4451060000     2.2194770000
| 21>  H        2.3837020000    -0.1025200000     1.2293000000
| 22>  H        4.5392830000    -0.3191890000    -0.0962080000
| 23>  H        4.8365150000     0.1289340000     2.9179150000
| 24>  H        5.2766530000     1.2930890000     1.6525900000
| 25>  H        7.0962170000    -0.8570780000     2.5354660000
| 26>  H        7.0852210000    -0.2576510000     0.8675670000
| 27>  H        5.2362290000    -2.4334230000     1.9903220000
| 28>  H        5.8423760000    -2.3698190000     0.3236530000
| 29> *
| 30>
| 31>                          ****END OF INPUT****
 Total Charge           Charge          ....    0
 Multiplicity           Mult            ....    1
 Number of Electrons    NEL             ....   54
 Basis Dimension        Dim             ....  148

MULLIKEN ATOMIC CHARGES
-----------------------
   0 O :   -0.159382
   1 C :    0.083731
   2 C :    0.075489
   3 C :   -0.220003
   4 C :    0.056656
   5 C :   -0.031297
   6 C :    0.055729
   7 H :   -0.012577
   8 H :    0.017539
   9 H :    0.039789
  10 H :    0.015494
  11 H :    0.000705
  12 H :    0.016624
  13 H :    0.013103
  14 H :    0.020747
  15 H :    0.001919
  16 H :    0.025735
Sum of atomic charges:    0.0000000

LOEWDIN ATOMIC CHARGES
----------------------
   0 O :   -0.109195
   1 C :    0.093437
   2 C :   -0.085742
   3 C :   -0.035285
   4 C :   -0.030784
   5 C :   -0.035203
   6 C :   -0.027522
   7 H :   -0.013207
   8 H :    0.041218
   9 H :    0.050373
  10 H :    0.029736
  11 H :    0.020870
  12 H :    0.016622
  13 H :    0.016907
  14 H :    0.025642
  15 H :    0.021179
  16 H :    0.020954

  Mayer bond orders larger than 0.1
B(  0-O ,  1-C ) :   2.1904 B(  1-C ,  2-C ) :   0.9692 B(  1-C ,  7-H ) :   0.9248
B(  2-C ,  3-C ) :   1.0506 B(  2-C ,  8-H ) :   0.8898 B(  2-C ,  9-H ) :   0.8948
B(  3-C ,  4-C ) :   1.0718 B(  3-C ,  6-C ) :   1.0819 B(  3-C , 10-H ) :   0.9091
B(  4-C ,  5-C ) :   1.1163 B(  4-C , 11-H ) :   0.9193 B(  4-C , 12-H ) :   0.9336
B(  5-C ,  6-C ) :   1.1200 B(  5-C , 13-H ) :   0.9351 B(  5-C , 14-H ) :   0.9355
B(  6-C , 15-H ) :   0.9212 B(  6-C , 16-H ) :   0.9342

FINAL SINGLE POINT ENERGY      -309.218194826457

DIPOLE MOMENT
-------------
                                X             Y             Z
Electronic contribution:     -3.86940      -2.67178      -4.08041
Nuclear contribution   :      3.68991       3.11640       4.81259
                        -----------------------------------------
Total Dipole Moment    :     -0.17949       0.44462       0.73217
                        -----------------------------------------
Magnitude (a.u.)       :      0.87521
Magnitude (Debye)      :      2.22460

                             ****ORCA TERMINATED NORMALLY****
TOTAL RUN TIME: 0 days 0 hours 0 minutes 7 seconds 599 msec
