                         Program Version 3.0.3 - RELEASE   -
|  1> ! RI PBE def2-SVP def2-SVP/J NBO PAL2
|  2> % maxcore 2000
|  3> % output
|  4>     # printlevel mini
|  5>     print[ P_Basis ] 0
|  6>     print[ P_SCFInfo ] 1
|  7>     print[ P_SCFIterInfo ] 1
|  8>     print[ P_OrbEn ] 0
|  9>     print[ P_Cartesian ] 0
| 10> end
| 11> *xyz 0 1
| 12>  O        2.4306330000     0.5931260000    -2.8175360000
| 13>  C        2.4147480000     0.3763490000    -1.4179260000
| 14>  C        3.1374900000     1.5252950000    -0.7505320000
| 15>  C        4.6121320000     1.5447710000    -1.0595810000
| 16>  C        5.5085550000     2.5113080000    -0.2773110000
| 17>  C        6.2988300000     1.2537740000     0.0852440000
| 18>  O        5.3074870000     0.4043600000    -0.5065990000
| 19>  H        2.1431090000    -0.2100980000    -3.2557720000
| 20>  H        2.9168260000    -0.5641240000    -1.1578510000
| 21>  H        1.3827620000     0.3241030000    -1.0453360000
| 22>  H        3.0000570000     1.4527270000     0.3334380000
| 23>  H        2.6916760000     2.4703010000    -1.0816000000
| 24>  H        4.7647120000     1.5883630000    -2.1440750000
| 25>  H        5.0050960000     2.9800740000     0.5694220000
| 26>  H        6.0312870000     3.2715430000    -0.8559540000
| 27>  H        6.4374380000     1.0426200000     1.1495000000
| 28>  H        7.2644630000     1.1610080000    -0.4251220000
| 29> *
| 30>
| 31>                          ****END OF INPUT****
 Total Charge           Charge          ....    0
 Multiplicity           Mult            ....    1
 Number of Electrons    NEL             ....   56
 Basis Dimension        Dim             ....  148

MULLIKEN ATOMIC CHARGES
-----------------------
   0 O :   -0.287902
   1 C :    0.151964
   2 C :    0.051102
   3 C :    0.024864
   4 C :   -0.006174
   5 C :    0.189549
   6 O :   -0.362328
   7 H :    0.156849
   8 H :    0.007760
   9 H :   -0.003042
  10 H :   -0.003341
  11 H :    0.015822
  12 H :    0.013310
  13 H :    0.007990
  14 H :    0.023211
  15 H :    0.013668
  16 H :    0.006699
Sum of atomic charges:   -0.0000000

LOEWDIN ATOMIC CHARGES
----------------------
   0 O :   -0.131401
   1 C :    0.059968
   2 C :   -0.063442
   3 C :    0.068541
   4 C :   -0.052384
   5 C :    0.084598
   6 O :   -0.189721
   7 H :    0.071718
   8 H :    0.009599
   9 H :    0.003771
  10 H :    0.027833
  11 H :    0.033190
  12 H :    0.012112
  13 H :    0.025096
  14 H :    0.024388
  15 H :    0.008915
  16 H :    0.007217

  Mayer bond orders larger than 0.1
B(  0-O ,  1-C ) :   1.0781 B(  0-O ,  7-H ) :   0.9808 B(  1-C ,  2-C ) :   1.1000
B(  1-C ,  8-H ) :   0.9305 B(  1-C ,  9-H ) :   0.9335 B(  2-C ,  3-C ) :   1.0640
B(  2-C , 10-H ) :   0.9033 B(  2-C , 11-H ) :   0.9130 B(  3-C ,  4-C ) :   1.0848
B(  3-C ,  6-O ) :   1.0254 B(  3-C , 12-H ) :   0.9097 B(  4-C ,  5-C ) :   1.1221
B(  4-C , 13-H ) :   0.9190 B(  4-C , 14-H ) :   0.9400 B(  5-C ,  6-O ) :   1.0293
B(  5-C , 15-H ) :   0.9433 B(  5-C , 16-H ) :   0.9344

FINAL SINGLE POINT ENERGY      -346.265342698814

DIPOLE MOMENT
-------------
                                X             Y             Z
Electronic contribution:      0.26608      -1.88280      -1.78245
Nuclear contribution   :     -0.41600       1.98798       1.94777
                        -----------------------------------------
Total Dipole Moment    :     -0.14993       0.10518       0.16532
                        -----------------------------------------
Magnitude (a.u.)       :      0.24672
Magnitude (Debye)      :      0.62712

                             ****ORCA TERMINATED NORMALLY****
TOTAL RUN TIME: 0 days 0 hours 0 minutes 7 seconds 462 msec
