                         Program Version 3.0.3 - RELEASE   -
|  1> ! RI PBE def2-SVP def2-SVP/J NBO PAL2
|  2> % maxcore 2000
|  3> % output
|  4>     # printlevel mini
|  5>     print[ P_Basis ] 0
|  6>     print[ P_SCFInfo ] 1
|  7>     print[ P_SCFIterInfo ] 1
|  8>     print[ P_OrbEn ] 0
|  9>     print[ P_Cartesian ] 0
| 10> end
| 11> *xyz 0 1
| 12>  O        2.6456490000     2.3351050000     1.1060710000
| 13>  C        2.2950410000     1.2139640000     1.3583460000
| 14>  C        3.2039950000     0.0249560000     1.3897850000
| 15>  C        4.6397620000     0.3406520000     1.0623280000
| 16>  C        5.5043240000     1.0482990000     2.1101910000
| 17>  C        6.4441930000    -0.1426760000     1.9190710000
| 18>  O        5.4724850000    -0.8311430000     1.1147970000
| 19>  H        1.2301390000     0.9969430000     1.5937330000
| 20>  H        2.8077240000    -0.7214810000     0.6882160000
| 21>  H        3.1225310000    -0.4419410000     2.3803480000
| 22>  H        4.6991540000     0.8154430000     0.0757300000
| 23>  H        5.0414110000     1.0928890000     3.0967990000
| 24>  H        5.8808030000     2.0332710000     1.8430500000
| 25>  H        6.7152360000    -0.7155310000     2.8098520000
| 26>  H        7.3513430000     0.0807400000     1.3465930000
| 27> *
| 28>
| 29>                          ****END OF INPUT****
 Total Charge           Charge          ....    0
 Multiplicity           Mult            ....    1
 Number of Electrons    NEL             ....   54
 Basis Dimension        Dim             ....  138

MULLIKEN ATOMIC CHARGES
-----------------------
   0 O :   -0.162331
   1 C :    0.080796
   2 C :    0.056921
   3 C :    0.043874
   4 C :   -0.004920
   5 C :    0.184848
   6 O :   -0.354768
   7 H :   -0.005466
   8 H :    0.051754
   9 H :    0.027719
  10 H :    0.010956
  11 H :    0.009584
  12 H :    0.030547
  13 H :    0.016171
  14 H :    0.014314
Sum of atomic charges:    0.0000000

LOEWDIN ATOMIC CHARGES
----------------------
   0 O :   -0.110069
   1 C :    0.096042
   2 C :   -0.094206
   3 C :    0.071142
   4 C :   -0.045559
   5 C :    0.084562
   6 O :   -0.183445
   7 H :   -0.010278
   8 H :    0.055655
   9 H :    0.046817
  10 H :    0.014412
  11 H :    0.025856
  12 H :    0.028832
  13 H :    0.010675
  14 H :    0.009563

  Mayer bond orders larger than 0.1
B(  0-O ,  1-C ) :   2.1806 B(  1-C ,  2-C ) :   0.9660 B(  1-C ,  7-H ) :   0.9266
B(  2-C ,  3-C ) :   1.0418 B(  2-C ,  8-H ) :   0.8943 B(  2-C ,  9-H ) :   0.8869
B(  3-C ,  4-C ) :   1.0933 B(  3-C ,  6-O ) :   1.0435 B(  3-C , 10-H ) :   0.9085
B(  4-C ,  5-C ) :   1.1125 B(  4-C , 11-H ) :   0.9245 B(  4-C , 12-H ) :   0.9415
B(  5-C ,  6-O ) :   1.0178 B(  5-C , 13-H ) :   0.9427 B(  5-C , 14-H ) :   0.9361

FINAL SINGLE POINT ENERGY      -345.069390908986

DIPOLE MOMENT
-------------
                                X             Y             Z
Electronic contribution:     -2.20732       1.04423      -1.75784
Nuclear contribution   :      2.15342      -1.32729       2.20130
                        -----------------------------------------
Total Dipole Moment    :     -0.05390      -0.28306       0.44346
                        -----------------------------------------
Magnitude (a.u.)       :      0.52886
Magnitude (Debye)      :      1.34424

                             ****ORCA TERMINATED NORMALLY****
TOTAL RUN TIME: 0 days 0 hours 0 minutes 6 seconds 537 msec
