                         Program Version 3.0.3 - RELEASE   -
|  1> ! RI PBE def2-SVP def2-SVP/J NBO PAL2
|  2> % maxcore 2000
|  3> % output
|  4>     # printlevel mini
|  5>     print[ P_Basis ] 0
|  6>     print[ P_SCFInfo ] 1
|  7>     print[ P_SCFIterInfo ] 1
|  8>     print[ P_OrbEn ] 0
|  9>     print[ P_Cartesian ] 0
| 10> end
| 11> *xyz 0 1
| 12>  O        2.8011160000     0.0909500000    -3.3616020000
| 13>  C        2.2746350000     0.0680170000    -2.0481720000
| 14>  C        2.9114030000    -1.0774530000    -1.2945000000
| 15>  C        4.4127920000    -0.9555920000    -1.1620090000
| 16>  C        5.1738230000    -2.0878770000    -0.4627520000
| 17>  O        6.0998470000    -2.2014600000    -1.5483650000
| 18>  C        5.3061830000    -1.3155020000    -2.3556970000
| 19>  H        2.4224400000     0.8355800000    -3.8334020000
| 20>  H        1.1841010000    -0.0626220000    -2.0665530000
| 21>  H        2.4886060000     1.0131400000    -1.5276260000
| 22>  H        2.6600380000    -2.0197370000    -1.7943250000
| 23>  H        2.4584440000    -1.1173020000    -0.2968820000
| 24>  H        4.6748170000     0.0208680000    -0.7449300000
| 25>  H        4.5843760000    -3.0060440000    -0.3347930000
| 26>  H        5.6715520000    -1.8488980000     0.4820810000
| 27>  H        4.7849750000    -1.8515150000    -3.1557030000
| 28>  H        5.9026510000    -0.5107450000    -2.7923710000
| 29> *
| 30>
| 31>                          ****END OF INPUT****
 Total Charge           Charge          ....    0
 Multiplicity           Mult            ....    1
 Number of Electrons    NEL             ....   56
 Basis Dimension        Dim             ....  148

MULLIKEN ATOMIC CHARGES
-----------------------
   0 O :   -0.279012
   1 C :    0.145343
   2 C :    0.058588
   3 C :   -0.289983
   4 C :    0.279114
   5 O :   -0.371200
   6 C :    0.273993
   7 H :    0.157003
   8 H :    0.006331
   9 H :   -0.005909
  10 H :    0.007794
  11 H :    0.011065
  12 H :    0.005282
  13 H :   -0.010532
  14 H :    0.005172
  15 H :    0.001149
  16 H :    0.005802
Sum of atomic charges:   -0.0000000

LOEWDIN ATOMIC CHARGES
----------------------
   0 O :   -0.125902
   1 C :    0.057107
   2 C :   -0.050913
   3 C :   -0.058143
   4 C :    0.087073
   5 O :   -0.190722
   6 C :    0.087516
   7 H :    0.072491
   8 H :    0.006270
   9 H :    0.003026
  10 H :    0.026817
  11 H :    0.032049
  12 H :    0.025214
  13 H :    0.003653
  14 H :    0.007824
  15 H :    0.007265
  16 H :    0.009376

  Mayer bond orders larger than 0.1
B(  0-O ,  1-C ) :   1.0906 B(  0-O ,  7-H ) :   0.9788 B(  1-C ,  2-C ) :   1.0955
B(  1-C ,  8-H ) :   0.9341 B(  1-C ,  9-H ) :   0.9286 B(  2-C ,  3-C ) :   1.0487
B(  2-C , 10-H ) :   0.9134 B(  2-C , 11-H ) :   0.9172 B(  3-C ,  4-C ) :   1.0835
B(  3-C ,  6-C ) :   1.0922 B(  3-C , 12-H ) :   0.9080 B(  4-C ,  5-O ) :   1.0415
B(  4-C , 13-H ) :   0.9213 B(  4-C , 14-H ) :   0.9332 B(  5-O ,  6-C ) :   1.0254
B(  6-C , 15-H ) :   0.9233 B(  6-C , 16-H ) :   0.9362

FINAL SINGLE POINT ENERGY      -346.260033828302

DIPOLE MOMENT
-------------
                                X             Y             Z
Electronic contribution:      3.03421      -0.94286      -1.52224
Nuclear contribution   :     -4.08008       1.79701       1.69199
                        -----------------------------------------
Total Dipole Moment    :     -1.04587       0.85415       0.16975
                        -----------------------------------------
Magnitude (a.u.)       :      1.36096
Magnitude (Debye)      :      3.45930

                             ****ORCA TERMINATED NORMALLY****
TOTAL RUN TIME: 0 days 0 hours 0 minutes 7 seconds 415 msec
