                         Program Version 3.0.3 - RELEASE   -
|  1> ! RI PBE def2-SVP def2-SVP/J NBO PAL2
|  2> % maxcore 2000
|  3> % output
|  4>     # printlevel mini
|  5>     print[ P_Basis ] 0
|  6>     print[ P_SCFInfo ] 1
|  7>     print[ P_SCFIterInfo ] 1
|  8>     print[ P_OrbEn ] 0
|  9>     print[ P_Cartesian ] 0
| 10> end
| 11> *xyz 0 1
| 12>  O        3.0005090000     3.4758440000    -0.3267510000
| 13>  C        2.3707490000     2.4568470000    -0.2444770000
| 14>  C        2.9734220000     1.0835990000    -0.2500720000
| 15>  C        4.4746800000     1.0742530000    -0.3878800000
| 16>  C        5.2975670000     1.5359860000     0.8207610000
| 17>  O        5.9732170000     0.2722810000     0.9037320000
| 18>  C        5.1943690000    -0.2631410000    -0.1712160000
| 19>  H        1.2628170000     2.4844210000    -0.1540330000
| 20>  H        2.4874380000     0.5184080000    -1.0576200000
| 21>  H        2.6528170000     0.5845330000     0.6755510000
| 22>  H        4.7677100000     1.5790300000    -1.3088810000
| 23>  H        4.7140690000     1.7457970000     1.7249910000
| 24>  H        5.9894430000     2.3629990000     0.6436350000
| 25>  H        4.5506840000    -1.0867580000     0.1626950000
| 26>  H        5.8213090000    -0.6145990000    -0.9966450000
| 27> *
| 28>
| 29>                          ****END OF INPUT****
 Total Charge           Charge          ....    0
 Multiplicity           Mult            ....    1
 Number of Electrons    NEL             ....   54
 Basis Dimension        Dim             ....  138

MULLIKEN ATOMIC CHARGES
-----------------------
   0 O :   -0.158151
   1 C :    0.076152
   2 C :    0.068294
   3 C :   -0.292418
   4 C :    0.270406
   5 O :   -0.367145
   6 C :    0.277345
   7 H :    0.000242
   8 H :    0.042163
   9 H :    0.032619
  10 H :    0.026087
  11 H :   -0.002129
  12 H :    0.020140
  13 H :   -0.005082
  14 H :    0.011477
Sum of atomic charges:   -0.0000000

LOEWDIN ATOMIC CHARGES
----------------------
   0 O :   -0.106176
   1 C :    0.093688
   2 C :   -0.082196
   3 C :   -0.056400
   4 C :    0.092762
   5 O :   -0.186921
   6 C :    0.088981
   7 H :   -0.008753
   8 H :    0.049159
   9 H :    0.046600
  10 H :    0.031766
  11 H :    0.006408
  12 H :    0.015074
  13 H :    0.005313
  14 H :    0.010694

  Mayer bond orders larger than 0.1
B(  0-O ,  1-C ) :   2.1860 B(  1-C ,  2-C ) :   0.9634 B(  1-C ,  7-H ) :   0.9307
B(  2-C ,  3-C ) :   1.0253 B(  2-C ,  8-H ) :   0.8996 B(  2-C ,  9-H ) :   0.8945
B(  3-C ,  4-C ) :   1.0883 B(  3-C ,  6-C ) :   1.0800 B(  3-C , 10-H ) :   0.9159
B(  4-C ,  5-O ) :   1.0372 B(  4-C , 11-H ) :   0.9294 B(  4-C , 12-H ) :   0.9340
B(  5-O ,  6-C ) :   1.0462 B(  6-C , 13-H ) :   0.9225 B(  6-C , 14-H ) :   0.9326

FINAL SINGLE POINT ENERGY      -345.065229236959

DIPOLE MOMENT
-------------
                                X             Y             Z
Electronic contribution:      0.42978       2.68470       0.36568
Nuclear contribution   :     -1.22664      -3.24889      -0.74328
                        -----------------------------------------
Total Dipole Moment    :     -0.79686      -0.56419      -0.37760
                        -----------------------------------------
Magnitude (a.u.)       :      1.04685
Magnitude (Debye)      :      2.66087

                             ****ORCA TERMINATED NORMALLY****
TOTAL RUN TIME: 0 days 0 hours 0 minutes 7 seconds 62 msec
