                         Program Version 3.0.3 - RELEASE   -
|  1> ! RI PBE def2-SVP def2-SVP/J NBO PAL2
|  2> % maxcore 2000
|  3> % output
|  4>     # printlevel mini
|  5>     print[ P_Basis ] 0
|  6>     print[ P_SCFInfo ] 1
|  7>     print[ P_SCFIterInfo ] 1
|  8>     print[ P_OrbEn ] 0
|  9>     print[ P_Cartesian ] 0
| 10> end
| 11> *xyz 0 1
| 12>  O        3.2698200000    -0.3083990000     1.1681940000
| 13>  C        2.7030730000    -0.3998420000    -0.1342410000
| 14>  C        3.1559210000     0.7942670000    -0.9471150000
| 15>  C        4.6540800000     0.8765780000    -1.0996500000
| 16>  O        5.3355840000     1.2190180000     0.0681730000
| 17>  C        5.3444340000    -0.0506210000    -2.0599100000
| 18>  C        5.2531590000     1.4299380000    -2.3407020000
| 19>  H        3.0807490000    -1.1164600000     1.6496450000
| 20>  H        1.6075520000    -0.4167770000    -0.0709570000
| 21>  H        3.0321310000    -1.3241070000    -0.6268580000
| 22>  H        2.7964620000     1.7156240000    -0.4765940000
| 23>  H        2.6878750000     0.7267840000    -1.9336760000
| 24>  H        4.9700160000     0.6631690000     0.7691500000
| 25>  H        4.7490670000    -0.7259230000    -2.6644510000
| 26>  H        6.3085280000    -0.4355420000    -1.7531870000
| 27>  H        4.5947030000     1.7673710000    -3.1321470000
| 28>  H        6.1563350000     2.0133120000    -2.2140830000
| 29> *
| 30>
| 31>                          ****END OF INPUT****
 Total Charge           Charge          ....    0
 Multiplicity           Mult            ....    1
 Number of Electrons    NEL             ....   56
 Basis Dimension        Dim             ....  148

MULLIKEN ATOMIC CHARGES
-----------------------
   0 O :   -0.292692
   1 C :    0.155520
   2 C :    0.068580
   3 C :   -0.076825
   4 O :   -0.238250
   5 C :   -0.034695
   6 C :   -0.023173
   7 H :    0.165436
   8 H :    0.012584
   9 H :   -0.003217
  10 H :    0.021783
  11 H :   -0.007117
  12 H :    0.143817
  13 H :    0.021694
  14 H :    0.025151
  15 H :    0.024115
  16 H :    0.037288
Sum of atomic charges:    0.0000000

LOEWDIN ATOMIC CHARGES
----------------------
   0 O :   -0.116387
   1 C :    0.061421
   2 C :   -0.051561
   3 C :    0.011127
   4 O :   -0.098202
   5 C :   -0.066264
   6 C :   -0.048874
   7 H :    0.076380
   8 H :    0.009405
   9 H :    0.006493
  10 H :    0.032512
  11 H :    0.034955
  12 H :    0.046368
  13 H :    0.018708
  14 H :    0.027717
  15 H :    0.023343
  16 H :    0.032858

  Mayer bond orders larger than 0.1
B(  0-O ,  1-C ) :   1.0376 B(  0-O ,  7-H ) :   0.9727 B(  0-O , 12-H ) :   0.1025
B(  1-C ,  2-C ) :   1.0981 B(  1-C ,  8-H ) :   0.9362 B(  1-C ,  9-H ) :   0.9319
B(  2-C ,  3-C ) :   1.0609 B(  2-C , 10-H ) :   0.9141 B(  2-C , 11-H ) :   0.8947
B(  3-C ,  4-O ) :   1.1399 B(  3-C ,  5-C ) :   0.9507 B(  3-C ,  6-C ) :   0.9867
B(  4-O , 12-H ) :   0.9507 B(  5-C ,  6-C ) :   1.0304 B(  5-C , 13-H ) :   0.9378
B(  5-C , 14-H ) :   0.9341 B(  6-C , 15-H ) :   0.9402 B(  6-C , 16-H ) :   0.9336

FINAL SINGLE POINT ENERGY      -346.274713733399

DIPOLE MOMENT
-------------
                                X             Y             Z
Electronic contribution:      1.28441       0.90598       3.41432
Nuclear contribution   :     -2.12687      -1.83855      -3.35596
                        -----------------------------------------
Total Dipole Moment    :     -0.84246      -0.93257       0.05835
                        -----------------------------------------
Magnitude (a.u.)       :      1.25811
Magnitude (Debye)      :      3.19786

                             ****ORCA TERMINATED NORMALLY****
TOTAL RUN TIME: 0 days 0 hours 0 minutes 7 seconds 73 msec
