                         Program Version 3.0.3 - RELEASE   -
|  1> ! RI PBE def2-SVP def2-SVP/J NBO PAL2
|  2> % maxcore 2000
|  3> % output
|  4>     # printlevel mini
|  5>     print[ P_Basis ] 0
|  6>     print[ P_SCFInfo ] 1
|  7>     print[ P_SCFIterInfo ] 1
|  8>     print[ P_OrbEn ] 0
|  9>     print[ P_Cartesian ] 0
| 10> end
| 11> *xyz 0 1
| 12>  O        2.4550000000    -1.2984930000     3.3127160000
| 13>  C        3.4906200000    -1.6855100000     2.4284740000
| 14>  C        2.8904550000    -1.8494290000     1.0508640000
| 15>  C        3.9062800000    -2.1860930000    -0.0343990000
| 16>  C        4.5864430000    -3.5189140000     0.1385040000
| 17>  C        5.8468260000    -3.8197540000    -0.6106700000
| 18>  C        5.8872880000    -3.6300230000     0.8759770000
| 19>  H        2.8152830000    -1.2454600000     4.2003340000
| 20>  H        3.9525560000    -2.6256620000     2.7551970000
| 21>  H        4.2822200000    -0.9212960000     2.3965920000
| 22>  H        2.3740460000    -0.9191120000     0.7940710000
| 23>  H        2.1215310000    -2.6283040000     1.0967360000
| 24>  H        4.6711240000    -1.4006550000    -0.0828650000
| 25>  H        3.3956820000    -2.1699740000    -1.0036580000
| 26>  H        3.9048160000    -4.3565440000     0.2624130000
| 27>  H        6.2600520000    -3.0320160000    -1.2303340000
| 28>  H        5.9901950000    -4.8184250000    -1.0039470000
| 29>  H        6.3277550000    -2.7137970000     1.2520480000
| 30>  H        6.0599390000    -4.4984390000     1.4999470000
| 31> *
| 32>
| 33>                          ****END OF INPUT****
 Total Charge           Charge          ....    0
 Multiplicity           Mult            ....    1
 Number of Electrons    NEL             ....   56
 Basis Dimension        Dim             ....  158

MULLIKEN ATOMIC CHARGES
-----------------------
   0 O :   -0.278202
   1 C :    0.133135
   2 C :   -0.008948
   3 C :    0.076805
   4 C :   -0.189586
   5 C :   -0.008045
   6 C :   -0.030529
   7 H :    0.151552
   8 H :    0.003162
   9 H :   -0.008748
  10 H :    0.010891
  11 H :    0.014113
  12 H :   -0.009645
  13 H :    0.010742
  14 H :    0.020986
  15 H :    0.026853
  16 H :    0.027647
  17 H :    0.024651
  18 H :    0.033166
Sum of atomic charges:    0.0000000

LOEWDIN ATOMIC CHARGES
----------------------
   0 O :   -0.130929
   1 C :    0.054135
   2 C :   -0.050281
   3 C :   -0.032266
   4 C :   -0.049353
   5 C :   -0.044900
   6 C :   -0.051044
   7 H :    0.068827
   8 H :    0.004917
   9 H :    0.000581
  10 H :    0.027287
  11 H :    0.026105
  12 H :    0.022680
  13 H :    0.029061
  14 H :    0.026282
  15 H :    0.025106
  16 H :    0.025933
  17 H :    0.022091
  18 H :    0.025769

  Mayer bond orders larger than 0.1
B(  0-O ,  1-C ) :   1.0936 B(  0-O ,  7-H ) :   0.9802 B(  1-C ,  2-C ) :   1.0881
B(  1-C ,  8-H ) :   0.9331 B(  1-C ,  9-H ) :   0.9324 B(  2-C ,  3-C ) :   1.0905
B(  2-C , 10-H ) :   0.9247 B(  2-C , 11-H ) :   0.9293 B(  3-C ,  4-C ) :   1.0716
B(  3-C , 12-H ) :   0.9140 B(  3-C , 13-H ) :   0.9222 B(  4-C ,  5-C ) :   0.9858
B(  4-C ,  6-C ) :   0.9948 B(  4-C , 14-H ) :   0.9449 B(  5-C ,  6-C ) :   1.0507
B(  5-C , 15-H ) :   0.9447 B(  5-C , 16-H ) :   0.9449 B(  6-C , 17-H ) :   0.9440
B(  6-C , 18-H ) :   0.9480

FINAL SINGLE POINT ENERGY      -310.406668298551

DIPOLE MOMENT
-------------
                                X             Y             Z
Electronic contribution:     -2.19715       0.84051       2.29839
Nuclear contribution   :      2.66066      -0.95817      -2.09918
                        -----------------------------------------
Total Dipole Moment    :      0.46352      -0.11766       0.19921
                        -----------------------------------------
Magnitude (a.u.)       :      0.51805
Magnitude (Debye)      :      1.31677

                             ****ORCA TERMINATED NORMALLY****
TOTAL RUN TIME: 0 days 0 hours 0 minutes 7 seconds 987 msec
