                         Program Version 3.0.3 - RELEASE   -
|  1> ! RI PBE def2-SVP def2-SVP/J NBO PAL2
|  2> % maxcore 2000
|  3> % output
|  4>     # printlevel mini
|  5>     print[ P_Basis ] 0
|  6>     print[ P_SCFInfo ] 1
|  7>     print[ P_SCFIterInfo ] 1
|  8>     print[ P_OrbEn ] 0
|  9>     print[ P_Cartesian ] 0
| 10> end
| 11> *xyz 0 1
| 12>  O        2.6021810000    -0.7123380000     0.8608000000
| 13>  C        2.1349230000    -0.3751420000    -0.1926990000
| 14>  C        2.8310070000     0.4783530000    -1.2073010000
| 15>  C        4.2205170000     0.9380480000    -0.8089530000
| 16>  C        4.8887230000     1.7514470000    -1.8826420000
| 17>  C        6.3811900000     1.8179390000    -1.9559370000
| 18>  C        5.6131520000     1.0642710000    -3.0010290000
| 19>  H        1.1101950000    -0.6997010000    -0.4814400000
| 20>  H        2.1685200000     1.3292810000    -1.4195340000
| 21>  H        2.8535320000    -0.0917930000    -2.1465570000
| 22>  H        4.8350790000     0.0630230000    -0.5750500000
| 23>  H        4.1585190000     1.5129980000     0.1202470000
| 24>  H        4.3640870000     2.6635550000    -2.1547190000
| 25>  H        6.9436130000     1.2416810000    -1.2305400000
| 26>  H        6.8442900000     2.7553130000    -2.2376120000
| 27>  H        5.6621500000    -0.0187060000    -2.9761210000
| 28>  H        5.5537230000     1.4853690000    -3.9969230000
| 29> *
| 30>
| 31>                          ****END OF INPUT****
 Total Charge           Charge          ....    0
 Multiplicity           Mult            ....    1
 Number of Electrons    NEL             ....   54
 Basis Dimension        Dim             ....  148

MULLIKEN ATOMIC CHARGES
-----------------------
   0 O :   -0.162265
   1 C :    0.094575
   2 C :   -0.025608
   3 C :    0.076803
   4 C :   -0.150307
   5 C :   -0.021406
   6 C :   -0.047749
   7 H :   -0.012899
   8 H :    0.034381
   9 H :    0.034333
  10 H :    0.006647
  11 H :    0.025826
  12 H :    0.017872
  13 H :    0.033440
  14 H :    0.030401
  15 H :    0.033451
  16 H :    0.032505
Sum of atomic charges:   -0.0000000

LOEWDIN ATOMIC CHARGES
----------------------
   0 O :   -0.110780
   1 C :    0.092046
   2 C :   -0.084849
   3 C :   -0.031160
   4 C :   -0.044588
   5 C :   -0.044121
   6 C :   -0.051556
   7 H :   -0.013038
   8 H :    0.046249
   9 H :    0.046997
  10 H :    0.030959
  11 H :    0.033529
  12 H :    0.025051
  13 H :    0.027053
  14 H :    0.026869
  15 H :    0.024988
  16 H :    0.026353

  Mayer bond orders larger than 0.1
B(  0-O ,  1-C ) :   2.1875 B(  1-C ,  2-C ) :   0.9712 B(  1-C ,  7-H ) :   0.9267
B(  2-C ,  3-C ) :   1.0771 B(  2-C ,  8-H ) :   0.9017 B(  2-C ,  9-H ) :   0.9043
B(  3-C ,  4-C ) :   1.0870 B(  3-C , 10-H ) :   0.9161 B(  3-C , 11-H ) :   0.9283
B(  4-C ,  5-C ) :   0.9993 B(  4-C ,  6-C ) :   0.9938 B(  4-C , 12-H ) :   0.9401
B(  5-C ,  6-C ) :   1.0444 B(  5-C , 13-H ) :   0.9471 B(  5-C , 14-H ) :   0.9453
B(  6-C , 15-H ) :   0.9481 B(  6-C , 16-H ) :   0.9490

FINAL SINGLE POINT ENERGY      -309.214921856074

DIPOLE MOMENT
-------------
                                X             Y             Z
Electronic contribution:     -3.66956      -2.77348       4.46452
Nuclear contribution   :      3.52284       3.17427      -5.29147
                        -----------------------------------------
Total Dipole Moment    :     -0.14673       0.40079      -0.82696
                        -----------------------------------------
Magnitude (a.u.)       :      0.93060
Magnitude (Debye)      :      2.36540

                             ****ORCA TERMINATED NORMALLY****
TOTAL RUN TIME: 0 days 0 hours 0 minutes 7 seconds 928 msec
