                         Program Version 3.0.3 - RELEASE   -
|  1> ! RI PBE def2-SVP def2-SVP/J NBO PAL2
|  2> % maxcore 2000
|  3> % output
|  4>     # printlevel mini
|  5>     print[ P_Basis ] 0
|  6>     print[ P_SCFInfo ] 1
|  7>     print[ P_SCFIterInfo ] 1
|  8>     print[ P_OrbEn ] 0
|  9>     print[ P_Cartesian ] 0
| 10> end
| 11> *xyz 0 1
| 12>  O        1.6912960000     0.9292000000     0.5571270000
| 13>  C        2.3250540000     0.1123860000    -0.0701640000
| 14>  C        2.4139980000     0.2071180000    -1.5235320000
| 15>  C        2.4777350000     0.2988850000    -2.7199420000
| 16>  C        3.0364020000    -1.0107380000     0.5696600000
| 17>  C        3.1351800000    -2.3476430000    -0.1294020000
| 18>  C        4.3461910000    -1.5067390000    -0.0002340000
| 19>  H        2.5221530000     0.3981200000    -3.7798380000
| 20>  H        2.9230530000    -1.0127450000     1.6463980000
| 21>  H        2.6762880000    -2.4256260000    -1.1070250000
| 22>  H        3.0324640000    -3.2224270000     0.4994380000
| 23>  H        4.7146640000    -1.0111990000    -0.8896350000
| 24>  H        5.1042340000    -1.7832010000     0.7210300000
| 25> *
| 26>
| 27>                          ****END OF INPUT****
 Total Charge           Charge          ....    0
 Multiplicity           Mult            ....    1
 Number of Electrons    NEL             ....   50
 Basis Dimension        Dim             ....  128

MULLIKEN ATOMIC CHARGES
-----------------------
   0 O :   -0.139569
   1 C :    0.149218
   2 C :    0.321424
   3 C :   -0.407705
   4 C :   -0.170012
   5 C :   -0.002630
   6 C :   -0.019151
   7 H :    0.018263
   8 H :    0.036810
   9 H :    0.054650
  10 H :    0.049773
  11 H :    0.055042
  12 H :    0.053887
Sum of atomic charges:    0.0000000

LOEWDIN ATOMIC CHARGES
----------------------
   0 O :   -0.102651
   1 C :    0.039958
   2 C :   -0.036329
   3 C :   -0.023278
   4 C :   -0.058222
   5 C :   -0.019584
   6 C :   -0.022244
   7 H :    0.042249
   8 H :    0.039941
   9 H :    0.033872
  10 H :    0.035808
  11 H :    0.034025
  12 H :    0.036455

  Mayer bond orders larger than 0.1
B(  0-O ,  1-C ) :   2.1383 B(  0-O ,  3-C ) :   0.1047 B(  1-C ,  2-C ) :   0.8677
B(  1-C ,  4-C ) :   1.0411 B(  2-C ,  3-C ) :   2.3474 B(  2-C ,  7-H ) :  -0.1039
B(  3-C ,  7-H ) :   1.0923 B(  4-C ,  5-C ) :   0.9274 B(  4-C ,  6-C ) :   0.9312
B(  4-C ,  8-H ) :   0.9325 B(  5-C ,  6-C ) :   1.0554 B(  5-C ,  9-H ) :   0.9432
B(  5-C , 10-H ) :   0.9451 B(  6-C , 11-H ) :   0.9429 B(  6-C , 12-H ) :   0.9445

FINAL SINGLE POINT ENERGY      -306.755837180564

DIPOLE MOMENT
-------------
                                X             Y             Z
Electronic contribution:     -3.36855       4.88738      -0.26190
Nuclear contribution   :      4.03682      -5.76856      -0.29005
                        -----------------------------------------
Total Dipole Moment    :      0.66827      -0.88118      -0.55195
                        -----------------------------------------
Magnitude (a.u.)       :      1.23601
Magnitude (Debye)      :      3.14168

                             ****ORCA TERMINATED NORMALLY****
TOTAL RUN TIME: 0 days 0 hours 0 minutes 5 seconds 850 msec
