                         Program Version 3.0.3 - RELEASE   -
|  1> ! RI PBE def2-SVP def2-SVP/J NBO PAL2
|  2> % maxcore 2000
|  3> % output
|  4>     # printlevel mini
|  5>     print[ P_Basis ] 0
|  6>     print[ P_SCFInfo ] 1
|  7>     print[ P_SCFIterInfo ] 1
|  8>     print[ P_OrbEn ] 0
|  9>     print[ P_Cartesian ] 0
| 10> end
| 11> *xyz 0 1
| 12>  O        1.2398100000     0.4627410000     1.3788590000
| 13>  C        2.3480390000     0.4092620000     0.9035990000
| 14>  C        3.1371330000     1.5628230000     0.4935440000
| 15>  C        4.3598590000     1.3922310000    -0.0238890000
| 16>  C        5.2832140000     2.4310350000    -0.4849650000
| 17>  C        4.7533630000     3.6883550000    -1.1406580000
| 18>  C        5.3388410000     3.7708230000     0.2173170000
| 19>  H        2.8523330000    -0.5705270000     0.7448040000
| 20>  H        2.6821290000     2.5396090000     0.6311220000
| 21>  H        4.7168230000     0.3671010000    -0.1162890000
| 22>  H        6.2265700000     2.0639310000    -0.8694880000
| 23>  H        3.6775270000     3.7581210000    -1.2432920000
| 24>  H        5.3183680000     4.0831590000    -1.9755480000
| 25>  H        4.6704800000     3.8980270000     1.0599010000
| 26>  H        6.3150340000     4.2236180000     0.3363030000
| 27> *
| 28>
| 29>                          ****END OF INPUT****
 Total Charge           Charge          ....    0
 Multiplicity           Mult            ....    1
 Number of Electrons    NEL             ....   52
 Basis Dimension        Dim             ....  138

MULLIKEN ATOMIC CHARGES
-----------------------
   0 O :   -0.178112
   1 C :    0.118770
   2 C :   -0.066947
   3 C :    0.078582
   4 C :   -0.110986
   5 C :   -0.019762
   6 C :   -0.012863
   7 H :   -0.034772
   8 H :    0.002857
   9 H :    0.002554
  10 H :    0.021716
  11 H :    0.053426
  12 H :    0.047105
  13 H :    0.051932
  14 H :    0.046501
Sum of atomic charges:    0.0000000

LOEWDIN ATOMIC CHARGES
----------------------
   0 O :   -0.126951
   1 C :    0.062905
   2 C :   -0.086818
   3 C :    0.026216
   4 C :   -0.047084
   5 C :   -0.019688
   6 C :   -0.018962
   7 H :   -0.016586
   8 H :    0.029255
   9 H :    0.032831
  10 H :    0.032819
  11 H :    0.032480
  12 H :    0.033775
  13 H :    0.032225
  14 H :    0.033584

  Mayer bond orders larger than 0.1
B(  0-O ,  1-C ) :   2.0952 B(  0-O ,  3-C ) :   0.1014 B(  1-C ,  2-C ) :   1.0586
B(  1-C ,  7-H ) :   0.9304 B(  2-C ,  3-C ) :   1.6851 B(  2-C ,  8-H ) :   0.9605
B(  3-C ,  4-C ) :   1.0968 B(  3-C ,  9-H ) :   0.9655 B(  4-C ,  5-C ) :   0.9423
B(  4-C ,  6-C ) :   0.9423 B(  4-C , 10-H ) :   0.9421 B(  5-C ,  6-C ) :   1.0620
B(  5-C , 11-H ) :   0.9488 B(  5-C , 12-H ) :   0.9476 B(  6-C , 13-H ) :   0.9477
B(  6-C , 14-H ) :   0.9477

FINAL SINGLE POINT ENERGY      -308.002926257396

DIPOLE MOMENT
-------------
                                X             Y             Z
Electronic contribution:     -4.68832      -3.89323       2.25848
Nuclear contribution   :      6.09902       4.47177      -2.90343
                        -----------------------------------------
Total Dipole Moment    :      1.41070       0.57854      -0.64494
                        -----------------------------------------
Magnitude (a.u.)       :      1.65552
Magnitude (Debye)      :      4.20799

                             ****ORCA TERMINATED NORMALLY****
TOTAL RUN TIME: 0 days 0 hours 0 minutes 6 seconds 676 msec
