                         Program Version 3.0.3 - RELEASE   -
|  1> ! RI PBE def2-SVP def2-SVP/J NBO PAL2
|  2> % maxcore 2000
|  3> % output
|  4>     # printlevel mini
|  5>     print[ P_Basis ] 0
|  6>     print[ P_SCFInfo ] 1
|  7>     print[ P_SCFIterInfo ] 1
|  8>     print[ P_OrbEn ] 0
|  9>     print[ P_Cartesian ] 0
| 10> end
| 11> *xyz 0 1
| 12>  O        0.9908980000     0.1439980000     0.3035160000
| 13>  C        2.1606380000     0.0658470000     0.0179230000
| 14>  C        2.9486250000     1.1494400000    -0.4894020000
| 15>  C        3.6546600000     2.0318980000    -0.9186990000
| 16>  C        4.4545510000     3.0939610000    -1.4224910000
| 17>  C        3.8214030000     4.1242370000    -2.3356350000
| 18>  C        4.1843520000     4.5081520000    -0.9499030000
| 19>  H        2.7168920000    -0.8846360000     0.1354380000
| 20>  H        5.4897250000     2.8423120000    -1.6239110000
| 21>  H        2.7746270000     3.9853300000    -2.5700720000
| 22>  H        4.4345720000     4.4814880000    -3.1528810000
| 23>  H        3.3878500000     4.6338370000    -0.2289430000
| 24>  H        5.0526070000     5.1351360000    -0.7933300000
| 25> *
| 26>
| 27>                          ****END OF INPUT****
 Total Charge           Charge          ....    0
 Multiplicity           Mult            ....    1
 Number of Electrons    NEL             ....   50
 Basis Dimension        Dim             ....  128

MULLIKEN ATOMIC CHARGES
-----------------------
   0 O :   -0.166398
   1 C :    0.068193
   2 C :   -0.047190
   3 C :    0.065405
   4 C :   -0.194506
   5 C :   -0.000208
   6 C :   -0.015658
   7 H :    0.008693
   8 H :    0.057678
   9 H :    0.058667
  10 H :    0.049697
  11 H :    0.063091
  12 H :    0.052536
Sum of atomic charges:   -0.0000000

LOEWDIN ATOMIC CHARGES
----------------------
   0 O :   -0.106284
   1 C :    0.061458
   2 C :   -0.090760
   3 C :    0.013409
   4 C :   -0.052124
   5 C :   -0.011340
   6 C :   -0.014529
   7 H :    0.001023
   8 H :    0.047976
   9 H :    0.039200
  10 H :    0.035765
  11 H :    0.039895
  12 H :    0.036309

  Mayer bond orders larger than 0.1
B(  0-O ,  1-C ) :   2.1199 B(  0-O ,  3-C ) :   0.1135 B(  1-C ,  2-C ) :   0.9109
B(  1-C ,  7-H ) :   0.9432 B(  2-C ,  3-C ) :   2.4414 B(  3-C ,  4-C ) :   1.0680
B(  4-C ,  5-C ) :   0.9480 B(  4-C ,  6-C ) :   0.9453 B(  4-C ,  8-H ) :   0.9233
B(  5-C ,  6-C ) :   1.0480 B(  5-C ,  9-H ) :   0.9525 B(  5-C , 10-H ) :   0.9431
B(  6-C , 11-H ) :   0.9522 B(  6-C , 12-H ) :   0.9427

FINAL SINGLE POINT ENERGY      -306.757291069138

DIPOLE MOMENT
-------------
                                X             Y             Z
Electronic contribution:     -3.46631      -5.95630       2.55505
Nuclear contribution   :      4.71575       6.80312      -3.12121
                        -----------------------------------------
Total Dipole Moment    :      1.24944       0.84682      -0.56616
                        -----------------------------------------
Magnitude (a.u.)       :      1.61206
Magnitude (Debye)      :      4.09752

                             ****ORCA TERMINATED NORMALLY****
TOTAL RUN TIME: 0 days 0 hours 0 minutes 5 seconds 859 msec
