                         Program Version 3.0.3 - RELEASE   -
|  1> ! RI PBE def2-SVP def2-SVP/J NBO PAL2
|  2> % maxcore 2000
|  3> % output
|  4>     # printlevel mini
|  5>     print[ P_Basis ] 0
|  6>     print[ P_SCFInfo ] 1
|  7>     print[ P_SCFIterInfo ] 1
|  8>     print[ P_OrbEn ] 0
|  9>     print[ P_Cartesian ] 0
| 10> end
| 11> *xyz 0 1
| 12>  O        0.9437660000     0.0895100000    -0.4736970000
| 13>  C        2.3518040000     0.0938460000    -0.2754120000
| 14>  C        2.9691020000    -1.1155990000    -0.9060420000
| 15>  C        3.6248700000    -2.0543690000    -0.2382800000
| 16>  C        2.8812540000     1.3685730000    -0.8641200000
| 17>  C        2.8198240000     2.6297510000    -0.0622010000
| 18>  C        4.1383360000     1.9655850000    -0.3151350000
| 19>  H        0.6149700000    -0.7756850000    -0.2134550000
| 20>  H        2.5839950000     0.0869480000     0.8015070000
| 21>  H        2.8319630000    -1.2012600000    -1.9825890000
| 22>  H        3.7656170000    -1.9866620000     0.8366270000
| 23>  H        4.0508480000    -2.9183670000    -0.7352780000
| 24>  H        2.7164210000     1.4603840000    -1.9331290000
| 25>  H        2.4007730000     2.5649850000     0.9348710000
| 26>  H        2.5993100000     3.5538230000    -0.5813430000
| 27>  H        4.6168810000     1.4554470000     0.5129020000
| 28>  H        4.8269660000     2.4304800000    -1.0090250000
| 29> *
| 30>
| 31>                          ****END OF INPUT****
 Total Charge           Charge          ....    0
 Multiplicity           Mult            ....    1
 Number of Electrons    NEL             ....   54
 Basis Dimension        Dim             ....  148

MULLIKEN ATOMIC CHARGES
-----------------------
   0 O :   -0.260266
   1 C :    0.197022
   2 C :   -0.054435
   3 C :   -0.031557
   4 C :   -0.131125
   5 C :   -0.003707
   6 C :   -0.022081
   7 H :    0.151847
   8 H :   -0.037446
   9 H :    0.004825
  10 H :    0.021865
  11 H :    0.024810
  12 H :    0.021849
  13 H :    0.028174
  14 H :    0.030900
  15 H :    0.025467
  16 H :    0.033859
Sum of atomic charges:   -0.0000000

LOEWDIN ATOMIC CHARGES
----------------------
   0 O :   -0.110894
   1 C :    0.049314
   2 C :   -0.041639
   3 C :   -0.060424
   4 C :   -0.045068
   5 C :   -0.035962
   6 C :   -0.041846
   7 H :    0.067098
   8 H :    0.007398
   9 H :    0.027430
  10 H :    0.022056
  11 H :    0.025674
  12 H :    0.028688
  13 H :    0.027026
  14 H :    0.028225
  15 H :    0.024441
  16 H :    0.028483

  Mayer bond orders larger than 0.1
B(  0-O ,  1-C ) :   1.0542 B(  0-O ,  7-H ) :   0.9769 B(  1-C ,  2-C ) :   1.0294
B(  1-C ,  4-C ) :   1.0399 B(  1-C ,  8-H ) :   0.8973 B(  2-C ,  3-C ) :   1.9763
B(  2-C ,  9-H ) :   0.9494 B(  3-C , 10-H ) :   0.9478 B(  3-C , 11-H ) :   0.9393
B(  4-C ,  5-C ) :   0.9881 B(  4-C ,  6-C ) :   0.9823 B(  4-C , 12-H ) :   0.9343
B(  5-C ,  6-C ) :   1.0575 B(  5-C , 13-H ) :   0.9416 B(  5-C , 14-H ) :   0.9446
B(  6-C , 15-H ) :   0.9430 B(  6-C , 16-H ) :   0.9424

FINAL SINGLE POINT ENERGY      -309.188147613682

DIPOLE MOMENT
-------------
                                X             Y             Z
Electronic contribution:     -2.85747      -0.83041      -0.80783
Nuclear contribution   :      3.06452       0.47407       0.94332
                        -----------------------------------------
Total Dipole Moment    :      0.20705      -0.35633       0.13549
                        -----------------------------------------
Magnitude (a.u.)       :      0.43382
Magnitude (Debye)      :      1.10268

                             ****ORCA TERMINATED NORMALLY****
TOTAL RUN TIME: 0 days 0 hours 0 minutes 7 seconds 283 msec
