                         Program Version 3.0.3 - RELEASE   -
|  1> ! RI PBE def2-SVP def2-SVP/J NBO PAL2
|  2> % maxcore 2000
|  3> % output
|  4>     # printlevel mini
|  5>     print[ P_Basis ] 0
|  6>     print[ P_SCFInfo ] 1
|  7>     print[ P_SCFIterInfo ] 1
|  8>     print[ P_OrbEn ] 0
|  9>     print[ P_Cartesian ] 0
| 10> end
| 11> *xyz 0 1
| 12>  O        2.6339690000     1.4680010000    -0.2988110000
| 13>  C        2.2984260000     0.1038140000    -0.1007610000
| 14>  C        0.8513510000    -0.0766920000     0.0269530000
| 15>  C       -0.3355080000    -0.1954730000     0.1649160000
| 16>  C        2.9052900000    -0.6751810000    -1.2397440000
| 17>  C        2.3818530000    -2.0199830000    -1.6328890000
| 18>  C        2.1886760000    -0.8426860000    -2.5392720000
| 19>  H        2.1956960000     1.9864100000     0.3819090000
| 20>  H        2.7536050000    -0.2566360000     0.8350710000
| 21>  H       -1.3884910000    -0.3007130000     0.2818510000
| 22>  H        3.9794360000    -0.5345190000    -1.2891300000
| 23>  H        1.5077090000    -2.3914750000    -1.1117370000
| 24>  H        3.1019090000    -2.7793110000    -1.9104930000
| 25>  H        1.1888570000    -0.4329000000    -2.6129540000
| 26>  H        2.7734130000    -0.7849260000    -3.4483190000
| 27> *
| 28>
| 29>                          ****END OF INPUT****
 Total Charge           Charge          ....    0
 Multiplicity           Mult            ....    1
 Number of Electrons    NEL             ....   52
 Basis Dimension        Dim             ....  138

MULLIKEN ATOMIC CHARGES
-----------------------
   0 O :   -0.250424
   1 C :    0.331813
   2 C :    0.266344
   3 C :   -0.487403
   4 C :   -0.187521
   5 C :   -0.027890
   6 C :   -0.010466
   7 H :    0.155597
   8 H :    0.019454
   9 H :    0.003625
  10 H :    0.035485
  11 H :    0.040254
  12 H :    0.034913
  13 H :    0.042983
  14 H :    0.033237
Sum of atomic charges:   -0.0000000

LOEWDIN ATOMIC CHARGES
----------------------
   0 O :   -0.104104
   1 C :    0.047054
   2 C :   -0.035043
   3 C :   -0.074036
   4 C :   -0.043591
   5 C :   -0.043495
   6 C :   -0.036000
   7 H :    0.071805
   8 H :    0.029990
   9 H :    0.036840
  10 H :    0.033601
  11 H :    0.029399
  12 H :    0.028301
  13 H :    0.030727
  14 H :    0.028552

  Mayer bond orders larger than 0.1
B(  0-O ,  1-C ) :   1.1133 B(  0-O ,  7-H ) :   0.9758 B(  1-C ,  2-C ) :   0.9394
B(  1-C ,  4-C ) :   0.9893 B(  1-C ,  8-H ) :   0.8965 B(  2-C ,  3-C ) :   2.3568
B(  2-C ,  9-H ) :  -0.1132 B(  3-C ,  9-H ) :   1.1030 B(  4-C ,  5-C ) :   0.9930
B(  4-C ,  6-C ) :   0.9950 B(  4-C , 10-H ) :   0.9322 B(  5-C ,  6-C ) :   1.0412
B(  5-C , 11-H ) :   0.9383 B(  5-C , 12-H ) :   0.9431 B(  6-C , 13-H ) :   0.9436
B(  6-C , 14-H ) :   0.9472

FINAL SINGLE POINT ENERGY      -307.940840606236

DIPOLE MOMENT
-------------
                                X             Y             Z
Electronic contribution:     -1.12427       2.94236       2.63642
Nuclear contribution   :      0.91893      -3.05438      -2.25631
                        -----------------------------------------
Total Dipole Moment    :     -0.20534      -0.11202       0.38010
                        -----------------------------------------
Magnitude (a.u.)       :      0.44631
Magnitude (Debye)      :      1.13443

                             ****ORCA TERMINATED NORMALLY****
TOTAL RUN TIME: 0 days 0 hours 0 minutes 6 seconds 545 msec
