                         Program Version 3.0.3 - RELEASE   -
|  1> ! RI PBE def2-SVP def2-SVP/J NBO PAL2
|  2> % maxcore 2000
|  3> % output
|  4>     # printlevel mini
|  5>     print[ P_Basis ] 0
|  6>     print[ P_SCFInfo ] 1
|  7>     print[ P_SCFIterInfo ] 1
|  8>     print[ P_OrbEn ] 0
|  9>     print[ P_Cartesian ] 0
| 10> end
| 11> *xyz 0 1
| 12>  O        3.8677370000     0.3475750000    -0.9697710000
| 13>  C        2.8058930000    -0.1904520000    -0.2168490000
| 14>  C        3.1561470000    -0.2429310000     1.2294040000
| 15>  C        4.3106120000     0.1540000000     1.7484820000
| 16>  C        4.6829090000     0.0885050000     3.1770180000
| 17>  C        3.9977460000    -0.8193220000     4.1471370000
| 18>  C        5.4017950000    -1.1198480000     3.7176420000
| 19>  H        3.6042500000     0.3687860000    -1.8915760000
| 20>  H        2.5558120000    -1.2074710000    -0.5595920000
| 21>  H        1.8919360000     0.4130060000    -0.3371890000
| 22>  H        2.3736050000    -0.6400930000     1.8719440000
| 23>  H        5.0610830000     0.5620670000     1.0762170000
| 24>  H        5.0317660000     1.0333480000     3.5854760000
| 25>  H        3.2142180000    -1.4672830000     3.7752070000
| 26>  H        3.8352130000    -0.4577030000     5.1547950000
| 27>  H        5.5473130000    -1.9494020000     3.0366190000
| 28>  H        6.2058460000    -0.9650830000     4.4266150000
| 29> *
| 30>
| 31>                          ****END OF INPUT****
 Total Charge           Charge          ....    0
 Multiplicity           Mult            ....    1
 Number of Electrons    NEL             ....   54
 Basis Dimension        Dim             ....  148

MULLIKEN ATOMIC CHARGES
-----------------------
   0 O :   -0.265493
   1 C :    0.225490
   2 C :   -0.143315
   3 C :    0.020674
   4 C :   -0.091485
   5 C :   -0.034200
   6 C :   -0.028352
   7 H :    0.157185
   8 H :    0.002485
   9 H :    0.003204
  10 H :   -0.006679
  11 H :    0.004220
  12 H :    0.024840
  13 H :    0.035199
  14 H :    0.028678
  15 H :    0.033816
  16 H :    0.033735
Sum of atomic charges:    0.0000000

LOEWDIN ATOMIC CHARGES
----------------------
   0 O :   -0.119048
   1 C :    0.057004
   2 C :   -0.066418
   3 C :   -0.032376
   4 C :   -0.043876
   5 C :   -0.044761
   6 C :   -0.037100
   7 H :    0.073088
   8 H :    0.012605
   9 H :    0.013470
  10 H :    0.023011
  11 H :    0.028346
  12 H :    0.032321
  13 H :    0.025218
  14 H :    0.026711
  15 H :    0.026610
  16 H :    0.025196

  Mayer bond orders larger than 0.1
B(  0-O ,  1-C ) :   1.1153 B(  0-O ,  7-H ) :   0.9766 B(  1-C ,  2-C ) :   1.0449
B(  1-C ,  8-H ) :   0.9164 B(  1-C ,  9-H ) :   0.9143 B(  2-C ,  3-C ) :   1.9231
B(  2-C , 10-H ) :   0.9303 B(  3-C ,  4-C ) :   1.0577 B(  3-C , 11-H ) :   0.9468
B(  4-C ,  5-C ) :   1.0074 B(  4-C ,  6-C ) :   0.9744 B(  4-C , 12-H ) :   0.9269
B(  5-C ,  6-C ) :   1.0506 B(  5-C , 13-H ) :   0.9412 B(  5-C , 14-H ) :   0.9404
B(  6-C , 15-H ) :   0.9500 B(  6-C , 16-H ) :   0.9479

FINAL SINGLE POINT ENERGY      -309.187507185133

DIPOLE MOMENT
-------------
                                X             Y             Z
Electronic contribution:      0.34939       1.58930      -2.91729
Nuclear contribution   :     -0.77917      -1.70526       2.54849
                        -----------------------------------------
Total Dipole Moment    :     -0.42977      -0.11596      -0.36880
                        -----------------------------------------
Magnitude (a.u.)       :      0.57807
Magnitude (Debye)      :      1.46934

                             ****ORCA TERMINATED NORMALLY****
TOTAL RUN TIME: 0 days 0 hours 0 minutes 7 seconds 181 msec
