                         Program Version 3.0.3 - RELEASE   -
|  1> ! RI PBE def2-SVP def2-SVP/J NBO PAL2
|  2> % maxcore 2000
|  3> % output
|  4>     # printlevel mini
|  5>     print[ P_Basis ] 0
|  6>     print[ P_SCFInfo ] 1
|  7>     print[ P_SCFIterInfo ] 1
|  8>     print[ P_OrbEn ] 0
|  9>     print[ P_Cartesian ] 0
| 10> end
| 11> *xyz 0 1
| 12>  O        0.7027010000    -0.1824230000    -0.2657430000
| 13>  C        2.1031450000    -0.3184460000    -0.2640030000
| 14>  C        2.7719830000     0.9193680000    -0.7781290000
| 15>  C        2.0850940000     1.9926310000    -1.1490020000
| 16>  C        4.2522290000     0.8161850000    -0.8206230000
| 17>  C        5.1408470000     2.0164140000    -0.8284890000
| 18>  C        5.0693230000     1.1614070000     0.3984090000
| 19>  H        0.3213150000    -0.9844920000     0.0960020000
| 20>  H        2.4191330000    -1.1676160000    -0.8913260000
| 21>  H        2.4828850000    -0.5193260000     0.7497390000
| 22>  H        1.0054110000     2.0104800000    -1.0781820000
| 23>  H        2.5854720000     2.8716470000    -1.5369080000
| 24>  H        4.6197410000    -0.0416250000    -1.3792180000
| 25>  H        4.6760770000     2.9926690000    -0.7821530000
| 26>  H        6.0389880000     1.9758210000    -1.4317480000
| 27>  H        4.5339020000     1.5622520000     1.2507720000
| 28>  H        5.9161520000     0.5333640000     0.6465020000
| 29> *
| 30>
| 31>                          ****END OF INPUT****
 Total Charge           Charge          ....    0
 Multiplicity           Mult            ....    1
 Number of Electrons    NEL             ....   54
 Basis Dimension        Dim             ....  148

MULLIKEN ATOMIC CHARGES
-----------------------
   0 O :   -0.265693
   1 C :    0.248031
   2 C :   -0.146843
   3 C :   -0.015633
   4 C :   -0.112653
   5 C :   -0.025045
   6 C :   -0.024143
   7 H :    0.157624
   8 H :   -0.001293
   9 H :   -0.002003
  10 H :    0.024097
  11 H :    0.001973
  12 H :    0.025872
  13 H :    0.035378
  14 H :    0.032354
  15 H :    0.036257
  16 H :    0.031721
Sum of atomic charges:   -0.0000000

LOEWDIN ATOMIC CHARGES
----------------------
   0 O :   -0.116480
   1 C :    0.063036
   2 C :   -0.045954
   3 C :   -0.067406
   4 C :   -0.040760
   5 C :   -0.038689
   6 C :   -0.037549
   7 H :    0.073385
   8 H :    0.012865
   9 H :    0.013591
  10 H :    0.024656
  11 H :    0.019005
  12 H :    0.030761
  13 H :    0.028034
  14 H :    0.028568
  15 H :    0.027848
  16 H :    0.025089

  Mayer bond orders larger than 0.1
B(  0-O ,  1-C ) :   1.1122 B(  0-O ,  7-H ) :   0.9755 B(  1-C ,  2-C ) :   1.0118
B(  1-C ,  8-H ) :   0.9144 B(  1-C ,  9-H ) :   0.9127 B(  2-C ,  3-C ) :   2.0096
B(  2-C ,  4-C ) :   1.0425 B(  3-C , 10-H ) :   0.9201 B(  3-C , 11-H ) :   0.9199
B(  4-C ,  5-C ) :   1.0062 B(  4-C ,  6-C ) :   0.9808 B(  4-C , 12-H ) :   0.9252
B(  5-C ,  6-C ) :   1.0559 B(  5-C , 13-H ) :   0.9424 B(  5-C , 14-H ) :   0.9383
B(  6-C , 15-H ) :   0.9463 B(  6-C , 16-H ) :   0.9476

FINAL SINGLE POINT ENERGY      -309.187383863378

DIPOLE MOMENT
-------------
                                X             Y             Z
Electronic contribution:     -3.15706      -1.11498      -0.41482
Nuclear contribution   :      3.42001       0.47263       0.69433
                        -----------------------------------------
Total Dipole Moment    :      0.26295      -0.64234       0.27951
                        -----------------------------------------
Magnitude (a.u.)       :      0.74825
Magnitude (Debye)      :      1.90189

                             ****ORCA TERMINATED NORMALLY****
TOTAL RUN TIME: 0 days 0 hours 0 minutes 7 seconds 232 msec
