                         Program Version 3.0.3 - RELEASE   -
|  1> ! RI PBE def2-SVP def2-SVP/J NBO PAL2
|  2> % maxcore 2000
|  3> % output
|  4>     # printlevel mini
|  5>     print[ P_Basis ] 0
|  6>     print[ P_SCFInfo ] 1
|  7>     print[ P_SCFIterInfo ] 1
|  8>     print[ P_OrbEn ] 0
|  9>     print[ P_Cartesian ] 0
| 10> end
| 11> *xyz 0 1
| 12>  O        0.9883290000    -0.4955810000    -0.1814230000
| 13>  C        2.2557390000     0.0719470000     0.0972920000
| 14>  C        2.7159210000     0.8525030000    -1.0357630000
| 15>  C        3.1175910000     1.5030090000    -1.9654200000
| 16>  C        3.5851330000     2.2764750000    -3.0739620000
| 17>  C        2.6516540000     3.2526810000    -3.7487900000
| 18>  C        3.7791700000     3.7664420000    -2.9230950000
| 19>  H        0.7213800000    -1.0045080000     0.5885120000
| 20>  H        2.9989230000    -0.7099450000     0.3098260000
| 21>  H        2.2079820000     0.7239440000     0.9813430000
| 22>  H        4.2902200000     1.7688850000    -3.7237070000
| 23>  H        1.6501480000     3.3245710000    -3.3461030000
| 24>  H        2.7203070000     3.3327890000    -4.8262080000
| 25>  H        3.5486620000     4.1919770000    -1.9554710000
| 26>  H        4.6316400000     4.2048120000    -3.4263290000
| 27> *
| 28>
| 29>                          ****END OF INPUT****
 Total Charge           Charge          ....    0
 Multiplicity           Mult            ....    1
 Number of Electrons    NEL             ....   52
 Basis Dimension        Dim             ....  138

MULLIKEN ATOMIC CHARGES
-----------------------
   0 O :   -0.266807
   1 C :    0.201819
   2 C :   -0.134245
   3 C :    0.006216
   4 C :   -0.197563
   5 C :   -0.015475
   6 C :   -0.007951
   7 H :    0.151607
   8 H :    0.019364
   9 H :    0.017267
  10 H :    0.048809
  11 H :    0.048717
  12 H :    0.044527
  13 H :    0.045920
  14 H :    0.037796
Sum of atomic charges:   -0.0000000

LOEWDIN ATOMIC CHARGES
----------------------
   0 O :   -0.125159
   1 C :    0.047688
   2 C :   -0.073671
   3 C :   -0.037011
   4 C :   -0.053017
   5 C :   -0.024316
   6 C :   -0.025492
   7 H :    0.068425
   8 H :    0.025680
   9 H :    0.024184
  10 H :    0.043027
  11 H :    0.034867
  12 H :    0.031577
  13 H :    0.033233
  14 H :    0.029984

  Mayer bond orders larger than 0.1
B(  0-O ,  1-C ) :   1.1377 B(  0-O ,  7-H ) :   0.9788 B(  1-C ,  2-C ) :   1.0375
B(  1-C ,  8-H ) :   0.9103 B(  1-C ,  9-H ) :   0.9088 B(  2-C ,  3-C ) :   2.5358
B(  3-C ,  4-C ) :   1.0476 B(  4-C ,  5-C ) :   0.9661 B(  4-C ,  6-C ) :   0.9660
B(  4-C , 10-H ) :   0.9231 B(  5-C ,  6-C ) :   1.0420 B(  5-C , 11-H ) :   0.9523
B(  5-C , 12-H ) :   0.9433 B(  6-C , 13-H ) :   0.9526 B(  6-C , 14-H ) :   0.9441

FINAL SINGLE POINT ENERGY      -307.946507620279

DIPOLE MOMENT
-------------
                                X             Y             Z
Electronic contribution:     -1.04487      -3.11956       1.49759
Nuclear contribution   :      1.33162       3.20289      -1.12154
                        -----------------------------------------
Total Dipole Moment    :      0.28675       0.08333       0.37604
                        -----------------------------------------
Magnitude (a.u.)       :      0.48018
Magnitude (Debye)      :      1.22053

                             ****ORCA TERMINATED NORMALLY****
TOTAL RUN TIME: 0 days 0 hours 0 minutes 6 seconds 385 msec
