                         Program Version 3.0.3 - RELEASE   -
|  1> ! RI PBE def2-SVP def2-SVP/J NBO PAL2
|  2> % maxcore 2000
|  3> % output
|  4>     # printlevel mini
|  5>     print[ P_Basis ] 0
|  6>     print[ P_SCFInfo ] 1
|  7>     print[ P_SCFIterInfo ] 1
|  8>     print[ P_OrbEn ] 0
|  9>     print[ P_Cartesian ] 0
| 10> end
| 11> *xyz 0 1
| 12>  O        1.1012840000     0.4554730000    -2.5259290000
| 13>  C        2.4920550000     0.7116390000    -2.4621510000
| 14>  C        2.7992910000     1.2383900000    -1.0780550000
| 15>  C        4.2821610000     1.4907400000    -0.8349250000
| 16>  C        4.8595070000     2.5871720000    -1.6797520000
| 17>  C        6.2643800000     2.6091960000    -2.0715450000
| 18>  O        5.2583610000     2.2512460000    -3.0045170000
| 19>  H        0.8846190000     0.1757300000    -3.4177080000
| 20>  H        2.7943100000     1.4404050000    -3.2239320000
| 21>  H        3.0695400000    -0.2068580000    -2.6420410000
| 22>  H        2.4266940000     0.5144790000    -0.3469920000
| 23>  H        2.2306810000     2.1611130000    -0.9187030000
| 24>  H        4.8584290000     0.5760140000    -1.0113100000
| 25>  H        4.4301730000     1.7599450000     0.2168040000
| 26>  H        4.3450470000     3.5470930000    -1.6159510000
| 27>  H        6.9139670000     1.7957330000    -1.7556230000
| 28>  H        6.7607900000     3.5574900000    -2.2625810000
| 29> *
| 30>
| 31>                          ****END OF INPUT****
 Total Charge           Charge          ....    0
 Multiplicity           Mult            ....    1
 Number of Electrons    NEL             ....   56
 Basis Dimension        Dim             ....  148

MULLIKEN ATOMIC CHARGES
-----------------------
   0 O :   -0.281818
   1 C :    0.143146
   2 C :   -0.040277
   3 C :    0.083793
   4 C :   -0.033325
   5 C :    0.144591
   6 O :   -0.296369
   7 H :    0.153093
   8 H :    0.015677
   9 H :   -0.007885
  10 H :    0.019459
  11 H :    0.013242
  12 H :   -0.000846
  13 H :    0.020582
  14 H :    0.014547
  15 H :    0.024324
  16 H :    0.028067
Sum of atomic charges:   -0.0000000

LOEWDIN ATOMIC CHARGES
----------------------
   0 O :   -0.132608
   1 C :    0.055660
   2 C :   -0.050510
   3 C :   -0.046512
   4 C :    0.037686
   5 C :    0.053908
   6 O :   -0.162960
   7 H :    0.069698
   8 H :    0.008041
   9 H :    0.002978
  10 H :    0.028819
  11 H :    0.025466
  12 H :    0.029522
  13 H :    0.036269
  14 H :    0.015098
  15 H :    0.014050
  16 H :    0.015394

  Mayer bond orders larger than 0.1
B(  0-O ,  1-C ) :   1.0900 B(  0-O ,  7-H ) :   0.9801 B(  1-C ,  2-C ) :   1.0897
B(  1-C ,  8-H ) :   0.9347 B(  1-C ,  9-H ) :   0.9319 B(  2-C ,  3-C ) :   1.0903
B(  2-C , 10-H ) :   0.9298 B(  2-C , 11-H ) :   0.9297 B(  3-C ,  4-C ) :   1.0460
B(  3-C , 12-H ) :   0.9068 B(  3-C , 13-H ) :   0.9179 B(  4-C ,  5-C ) :   1.0844
B(  4-C ,  6-O ) :   0.9515 B(  4-C , 14-H ) :   0.9345 B(  5-C ,  6-O ) :   1.0063
B(  5-C , 15-H ) :   0.9293 B(  5-C , 16-H ) :   0.9370

FINAL SINGLE POINT ENERGY      -346.260695299129

DIPOLE MOMENT
-------------
                                X             Y             Z
Electronic contribution:     -0.12491       0.62496      -2.54550
Nuclear contribution   :      0.53537      -0.55907       2.71445
                        -----------------------------------------
Total Dipole Moment    :      0.41047       0.06589       0.16895
                        -----------------------------------------
Magnitude (a.u.)       :      0.44874
Magnitude (Debye)      :      1.14061

                             ****ORCA TERMINATED NORMALLY****
TOTAL RUN TIME: 0 days 0 hours 0 minutes 7 seconds 388 msec
