                         Program Version 3.0.3 - RELEASE   -
|  1> ! RI PBE def2-SVP def2-SVP/J NBO PAL2
|  2> % maxcore 2000
|  3> % output
|  4>     # printlevel mini
|  5>     print[ P_Basis ] 0
|  6>     print[ P_SCFInfo ] 1
|  7>     print[ P_SCFIterInfo ] 1
|  8>     print[ P_OrbEn ] 0
|  9>     print[ P_Cartesian ] 0
| 10> end
| 11> *xyz 0 1
| 12>  O        2.0239040000     3.4855160000     0.5122370000
| 13>  C        2.0071310000     2.7614780000    -0.4461800000
| 14>  C        3.0696380000     1.7604010000    -0.7849480000
| 15>  C        4.2638770000     1.7506300000     0.1547250000
| 16>  C        5.1379060000     2.9576570000    -0.0206530000
| 17>  C        6.5921230000     2.8696470000     0.0305270000
| 18>  O        5.9185020000     2.9892870000    -1.2119620000
| 19>  H        1.1534700000     2.7925330000    -1.1581060000
| 20>  H        3.3840330000     1.9431940000    -1.8205790000
| 21>  H        2.5728510000     0.7813060000    -0.8110800000
| 22>  H        4.8611800000     0.8538500000    -0.0299260000
| 23>  H        3.9155440000     1.7125060000     1.1911350000
| 24>  H        4.6785880000     3.9120100000     0.2284150000
| 25>  H        7.0591800000     1.9043310000     0.2137910000
| 26>  H        7.1771730000     3.7363430000     0.3278920000
| 27> *
| 28>
| 29>                          ****END OF INPUT****
 Total Charge           Charge          ....    0
 Multiplicity           Mult            ....    1
 Number of Electrons    NEL             ....   54
 Basis Dimension        Dim             ....  138

MULLIKEN ATOMIC CHARGES
-----------------------
   0 O :   -0.166800
   1 C :    0.078921
   2 C :   -0.031329
   3 C :    0.108373
   4 C :   -0.030020
   5 C :    0.144263
   6 O :   -0.302758
   7 H :   -0.001975
   8 H :    0.051039
   9 H :    0.041139
  10 H :   -0.004906
  11 H :    0.030165
  12 H :    0.030542
  13 H :    0.021981
  14 H :    0.031364
Sum of atomic charges:   -0.0000000

LOEWDIN ATOMIC CHARGES
----------------------
   0 O :   -0.112266
   1 C :    0.094058
   2 C :   -0.082085
   3 C :   -0.043783
   4 C :    0.042394
   5 C :    0.057021
   6 O :   -0.165951
   7 H :   -0.009029
   8 H :    0.051046
   9 H :    0.050420
  10 H :    0.033015
  11 H :    0.037933
  12 H :    0.017824
  13 H :    0.012807
  14 H :    0.016596

  Mayer bond orders larger than 0.1
B(  0-O ,  1-C ) :   2.1600 B(  1-C ,  2-C ) :   0.9745 B(  1-C ,  7-H ) :   0.9246
B(  2-C ,  3-C ) :   1.0823 B(  2-C ,  8-H ) :   0.9055 B(  2-C ,  9-H ) :   0.9053
B(  3-C ,  4-C ) :   1.0543 B(  3-C , 10-H ) :   0.9018 B(  3-C , 11-H ) :   0.9198
B(  4-C ,  5-C ) :   1.0986 B(  4-C ,  6-O ) :   0.9511 B(  4-C , 12-H ) :   0.9385
B(  5-C ,  6-O ) :   1.0079 B(  5-C , 13-H ) :   0.9272 B(  5-C , 14-H ) :   0.9367

FINAL SINGLE POINT ENERGY      -345.067960357639

DIPOLE MOMENT
-------------
                                X             Y             Z
Electronic contribution:     -1.46205       2.71670      -0.18687
Nuclear contribution   :      1.51686      -3.43071       0.19374
                        -----------------------------------------
Total Dipole Moment    :      0.05481      -0.71400       0.00687
                        -----------------------------------------
Magnitude (a.u.)       :      0.71614
Magnitude (Debye)      :      1.82027

                             ****ORCA TERMINATED NORMALLY****
TOTAL RUN TIME: 0 days 0 hours 0 minutes 6 seconds 694 msec
