                         Program Version 3.0.3 - RELEASE   -
|  1> ! RI PBE def2-SVP def2-SVP/J NBO PAL2
|  2> % maxcore 2000
|  3> % output
|  4>     # printlevel mini
|  5>     print[ P_Basis ] 0
|  6>     print[ P_SCFInfo ] 1
|  7>     print[ P_SCFIterInfo ] 1
|  8>     print[ P_OrbEn ] 0
|  9>     print[ P_Cartesian ] 0
| 10> end
| 11> *xyz 0 1
| 12>  O        1.8524520000    -1.0853160000     0.7186630000
| 13>  C        1.9656820000     0.0172230000     0.2408290000
| 14>  C        1.0158420000     0.5438550000    -0.7199490000
| 15>  C        0.2244810000     0.9657930000    -1.5188240000
| 16>  C        3.1136900000     0.9009930000     0.6029070000
| 17>  C        3.8214710000     1.6550100000    -0.4397040000
| 18>  O        2.9422720000     2.2965660000     0.4523640000
| 19>  H       -0.4859750000     1.3324890000    -2.2232210000
| 20>  H        3.6537120000     0.5717350000     1.4866860000
| 21>  H        3.4760800000     1.5914100000    -1.4682960000
| 22>  H        4.8788840000     1.8593510000    -0.2940750000
| 23> *
| 24>
| 25>                          ****END OF INPUT****
 Total Charge           Charge          ....    0
 Multiplicity           Mult            ....    1
 Number of Electrons    NEL             ....   50
 Basis Dimension        Dim             ....  118

MULLIKEN ATOMIC CHARGES
-----------------------
   0 O :   -0.130816
   1 C :    0.096013
   2 C :    0.367990
   3 C :   -0.398915
   4 C :    0.016544
   5 C :    0.142904
   6 O :   -0.254875
   7 H :    0.023528
   8 H :    0.031992
   9 H :    0.050855
  10 H :    0.054779
Sum of atomic charges:   -0.0000000

LOEWDIN ATOMIC CHARGES
----------------------
   0 O :   -0.086595
   1 C :    0.024887
   2 C :   -0.036129
   3 C :   -0.000988
   4 C :    0.024351
   5 C :    0.075148
   6 O :   -0.121163
   7 H :    0.044695
   8 H :    0.029270
   9 H :    0.021340
  10 H :    0.025184

  Mayer bond orders larger than 0.1
B(  0-O ,  1-C ) :   2.1363 B(  0-O ,  3-C ) :   0.1093 B(  1-C ,  2-C ) :   0.8690
B(  1-C ,  4-C ) :   0.9683 B(  2-C ,  3-C ) :   2.3300 B(  2-C ,  7-H ) :  -0.1014
B(  3-C ,  7-H ) :   1.0896 B(  4-C ,  5-C ) :   1.0263 B(  4-C ,  6-O ) :   1.0029
B(  4-C ,  8-H ) :   0.9355 B(  5-C ,  6-O ) :   0.9857 B(  5-C ,  9-H ) :   0.9362
B(  5-C , 10-H ) :   0.9363

FINAL SINGLE POINT ENERGY      -342.601042779562

DIPOLE MOMENT
-------------
                                X             Y             Z
Electronic contribution:     -2.24219      -1.63484       1.36512
Nuclear contribution   :      2.60964       2.13614      -2.09797
                        -----------------------------------------
Total Dipole Moment    :      0.36746       0.50131      -0.73285
                        -----------------------------------------
Magnitude (a.u.)       :      0.96094
Magnitude (Debye)      :      2.44252

                             ****ORCA TERMINATED NORMALLY****
TOTAL RUN TIME: 0 days 0 hours 0 minutes 5 seconds 898 msec
