                         Program Version 3.0.3 - RELEASE   -
|  1> ! RI PBE def2-SVP def2-SVP/J NBO PAL2
|  2> % maxcore 2000
|  3> % output
|  4>     # printlevel mini
|  5>     print[ P_Basis ] 0
|  6>     print[ P_SCFInfo ] 1
|  7>     print[ P_SCFIterInfo ] 1
|  8>     print[ P_OrbEn ] 0
|  9>     print[ P_Cartesian ] 0
| 10> end
| 11> *xyz 0 1
| 12>  O        1.4379740000    -0.8032950000     0.9020750000
| 13>  C        2.4503010000    -0.2727460000     0.5202610000
| 14>  C        2.7259950000     0.0778770000    -0.8724970000
| 15>  C        3.8669660000     0.6819850000    -1.2098670000
| 16>  C        4.2211150000     1.0910100000    -2.5694510000
| 17>  C        4.9980530000     2.3158600000    -2.8022220000
| 18>  O        5.6073740000     1.0497300000    -2.8948260000
| 19>  H        3.2632610000    -0.0110400000     1.2327620000
| 20>  H        1.9653480000    -0.1735900000    -1.6059220000
| 21>  H        4.6060120000     0.9028190000    -0.4408900000
| 22>  H        3.5606350000     0.7517230000    -3.3644080000
| 23>  H        5.3024240000     2.9226650000    -1.9527560000
| 24>  H        4.8629220000     2.8462920000    -3.7415490000
| 25> *
| 26>
| 27>                          ****END OF INPUT****
 Total Charge           Charge          ....    0
 Multiplicity           Mult            ....    1
 Number of Electrons    NEL             ....   52
 Basis Dimension        Dim             ....  128

MULLIKEN ATOMIC CHARGES
-----------------------
   0 O :   -0.161005
   1 C :    0.114135
   2 C :   -0.024184
   3 C :    0.070516
   4 C :    0.013160
   5 C :    0.155412
   6 O :   -0.269746
   7 H :   -0.023692
   8 H :    0.009605
   9 H :    0.009779
  10 H :    0.022784
  11 H :    0.036064
  12 H :    0.047172
Sum of atomic charges:    0.0000000

LOEWDIN ATOMIC CHARGES
----------------------
   0 O :   -0.111198
   1 C :    0.068023
   2 C :   -0.067403
   3 C :    0.006860
   4 C :    0.040858
   5 C :    0.070239
   6 O :   -0.134570
   7 H :   -0.012463
   8 H :    0.035695
   9 H :    0.036057
  10 H :    0.026127
  11 H :    0.018462
  12 H :    0.023313

  Mayer bond orders larger than 0.1
B(  0-O ,  1-C ) :   2.1141 B(  1-C ,  2-C ) :   1.0222 B(  1-C ,  7-H ) :   0.9332
B(  2-C ,  3-C ) :   1.6906 B(  2-C ,  8-H ) :   0.9729 B(  3-C ,  4-C ) :   1.0598
B(  3-C ,  9-H ) :   0.9390 B(  4-C ,  5-C ) :   1.0410 B(  4-C ,  6-O ) :   0.9552
B(  4-C , 10-H ) :   0.9472 B(  5-C ,  6-O ) :   0.9975 B(  5-C , 11-H ) :   0.9321
B(  5-C , 12-H ) :   0.9351

FINAL SINGLE POINT ENERGY      -343.853552042891

DIPOLE MOMENT
-------------
                                X             Y             Z
Electronic contribution:     -1.24114      -2.47440       1.42505
Nuclear contribution   :      1.68401       3.44885      -2.07499
                        -----------------------------------------
Total Dipole Moment    :      0.44287       0.97445      -0.64994
                        -----------------------------------------
Magnitude (a.u.)       :      1.25225
Magnitude (Debye)      :      3.18296

                             ****ORCA TERMINATED NORMALLY****
TOTAL RUN TIME: 0 days 0 hours 0 minutes 5 seconds 931 msec
