                         Program Version 3.0.3 - RELEASE   -
|  1> ! RI PBE def2-SVP def2-SVP/J NBO PAL2
|  2> % maxcore 2000
|  3> % output
|  4>     # printlevel mini
|  5>     print[ P_Basis ] 0
|  6>     print[ P_SCFInfo ] 1
|  7>     print[ P_SCFIterInfo ] 1
|  8>     print[ P_OrbEn ] 0
|  9>     print[ P_Cartesian ] 0
| 10> end
| 11> *xyz 0 1
| 12>  O        1.1181990000     0.3083910000     0.4771480000
| 13>  C        2.1979410000    -0.0583750000     0.0910530000
| 14>  C        2.8851880000     0.5018980000    -1.0417740000
| 15>  C        3.4946750000     0.9416940000    -1.9852870000
| 16>  C        4.2279390000     1.4546390000    -3.1033190000
| 17>  C        3.5880990000     1.5818120000    -4.4215680000
| 18>  O        3.8320280000     2.7162210000    -3.6245830000
| 19>  H        2.7475690000    -0.8747470000     0.5975620000
| 20>  H        5.3035220000     1.2981240000    -3.0691800000
| 21>  H        2.5451450000     1.2966960000    -4.5252680000
| 22>  H        4.2097950000     1.4820570000    -5.3076720000
| 23> *
| 24>
| 25>                          ****END OF INPUT****
 Total Charge           Charge          ....    0
 Multiplicity           Mult            ....    1
 Number of Electrons    NEL             ....   50
 Basis Dimension        Dim             ....  118

MULLIKEN ATOMIC CHARGES
-----------------------
   0 O :   -0.150029
   1 C :    0.086344
   2 C :   -0.062467
   3 C :    0.079056
   4 C :   -0.046145
   5 C :    0.170692
   6 O :   -0.251820
   7 H :    0.016943
   8 H :    0.062704
   9 H :    0.048571
  10 H :    0.046152
Sum of atomic charges:   -0.0000000

LOEWDIN ATOMIC CHARGES
----------------------
   0 O :   -0.088943
   1 C :    0.068018
   2 C :   -0.062604
   3 C :   -0.002257
   4 C :    0.028711
   5 C :    0.085943
   6 O :   -0.122897
   7 H :    0.005069
   8 H :    0.039780
   9 H :    0.025553
  10 H :    0.023628

  Mayer bond orders larger than 0.1
B(  0-O ,  1-C ) :   2.1331 B(  0-O ,  3-C ) :   0.1130 B(  1-C ,  2-C ) :   0.8975
B(  1-C ,  7-H ) :   0.9429 B(  2-C ,  3-C ) :   2.5408 B(  3-C ,  4-C ) :   0.9555
B(  4-C ,  5-C ) :   1.0601 B(  4-C ,  6-O ) :   1.0086 B(  4-C ,  8-H ) :   0.9263
B(  5-C ,  6-O ) :   0.9934 B(  5-C ,  9-H ) :   0.9357 B(  5-C , 10-H ) :   0.9337

FINAL SINGLE POINT ENERGY      -342.600490361526

DIPOLE MOMENT
-------------
                                X             Y             Z
Electronic contribution:     -1.51331       0.42568       3.25053
Nuclear contribution   :      2.50781      -1.07358      -4.17405
                        -----------------------------------------
Total Dipole Moment    :      0.99450      -0.64790      -0.92352
                        -----------------------------------------
Magnitude (a.u.)       :      1.50389
Magnitude (Debye)      :      3.82259

                             ****ORCA TERMINATED NORMALLY****
TOTAL RUN TIME: 0 days 0 hours 0 minutes 5 seconds 193 msec
