                         Program Version 3.0.3 - RELEASE   -
|  1> ! RI PBE def2-SVP def2-SVP/J NBO PAL2
|  2> % maxcore 2000
|  3> % output
|  4>     # printlevel mini
|  5>     print[ P_Basis ] 0
|  6>     print[ P_SCFInfo ] 1
|  7>     print[ P_SCFIterInfo ] 1
|  8>     print[ P_OrbEn ] 0
|  9>     print[ P_Cartesian ] 0
| 10> end
| 11> *xyz 0 1
| 12>  O        0.8259900000    -0.1648790000    -0.2181760000
| 13>  C        2.2380650000    -0.0731040000    -0.1132260000
| 14>  C        2.8911500000    -1.3568460000    -0.5159400000
| 15>  C        3.6931640000    -2.0602170000     0.2700240000
| 16>  C        2.6460900000     1.0657210000    -1.0102280000
| 17>  C        2.7227150000     2.4282950000    -0.5017750000
| 18>  O        3.8965780000     1.6611630000    -0.7271470000
| 19>  H        0.5535270000    -0.9865310000     0.1997010000
| 20>  H        2.5443940000     0.1809410000     0.9117840000
| 21>  H        2.6570910000    -1.7064050000    -1.5200780000
| 22>  H        3.9368580000    -1.7224270000     1.2726440000
| 23>  H        4.1447920000    -2.9885860000    -0.0598180000
| 24>  H        2.4354170000     0.9148990000    -2.0684900000
| 25>  H        2.4842990000     2.6170040000     0.5421350000
| 26>  H        2.5757720000     3.2644730000    -1.1801200000
| 27> *
| 28>
| 29>                          ****END OF INPUT****
 Total Charge           Charge          ....    0
 Multiplicity           Mult            ....    1
 Number of Electrons    NEL             ....   54
 Basis Dimension        Dim             ....  138

MULLIKEN ATOMIC CHARGES
-----------------------
   0 O :   -0.263259
   1 C :    0.209169
   2 C :   -0.081694
   3 C :   -0.008407
   4 C :    0.012524
   5 C :    0.153108
   6 O :   -0.284952
   7 H :    0.156993
   8 H :   -0.030351
   9 H :    0.006454
  10 H :    0.025305
  11 H :    0.029116
  12 H :    0.017325
  13 H :    0.026329
  14 H :    0.032337
Sum of atomic charges:    0.0000000

LOEWDIN ATOMIC CHARGES
----------------------
   0 O :   -0.109368
   1 C :    0.036656
   2 C :   -0.048097
   3 C :   -0.043787
   4 C :    0.038719
   5 C :    0.062354
   6 O :   -0.149399
   7 H :    0.070151
   8 H :    0.011927
   9 H :    0.027381
  10 H :    0.025353
  11 H :    0.027670
  12 H :    0.016631
  13 H :    0.015765
  14 H :    0.018042

  Mayer bond orders larger than 0.1
B(  0-O ,  1-C ) :   1.0625 B(  0-O ,  7-H ) :   0.9756 B(  1-C ,  2-C ) :   1.0208
B(  1-C ,  4-C ) :   0.9849 B(  1-C ,  8-H ) :   0.8950 B(  2-C ,  3-C ) :   1.9832
B(  2-C ,  9-H ) :   0.9498 B(  3-C , 10-H ) :   0.9444 B(  3-C , 11-H ) :   0.9405
B(  4-C ,  5-C ) :   1.0951 B(  4-C ,  6-O ) :   0.9989 B(  4-C , 12-H ) :   0.9297
B(  5-C ,  6-O ) :   0.9991 B(  5-C , 13-H ) :   0.9291 B(  5-C , 14-H ) :   0.9361

FINAL SINGLE POINT ENERGY      -345.038323273288

DIPOLE MOMENT
-------------
                                X             Y             Z
Electronic contribution:     -0.33656       1.75228      -0.93125
Nuclear contribution   :     -0.05009      -2.15094       1.17543
                        -----------------------------------------
Total Dipole Moment    :     -0.38665      -0.39866       0.24418
                        -----------------------------------------
Magnitude (a.u.)       :      0.60667
Magnitude (Debye)      :      1.54203

                             ****ORCA TERMINATED NORMALLY****
TOTAL RUN TIME: 0 days 0 hours 0 minutes 6 seconds 474 msec
