                         Program Version 3.0.3 - RELEASE   -
|  1> ! RI PBE def2-SVP def2-SVP/J NBO PAL2
|  2> % maxcore 2000
|  3> % output
|  4>     # printlevel mini
|  5>     print[ P_Basis ] 0
|  6>     print[ P_SCFInfo ] 1
|  7>     print[ P_SCFIterInfo ] 1
|  8>     print[ P_OrbEn ] 0
|  9>     print[ P_Cartesian ] 0
| 10> end
| 11> *xyz 0 1
| 12>  O        0.8974510000     0.0271670000     0.1635910000
| 13>  C        2.3020090000    -0.0194380000    -0.0054430000
| 14>  C        2.8975270000     1.3129510000    -0.0503060000
| 15>  C        3.3599520000     2.4171270000    -0.1317490000
| 16>  C        2.8443540000    -0.8842090000     1.1059580000
| 17>  C        4.2069570000    -0.7644070000     1.6058080000
| 18>  O        3.1015750000    -0.2846160000     2.3543400000
| 19>  H        0.5440760000     0.6953570000    -0.4299670000
| 20>  H        2.5497230000    -0.5289260000    -0.9511900000
| 21>  H        3.7701420000     3.3980350000    -0.1877910000
| 22>  H        2.3436750000    -1.8497200000     1.1588250000
| 23>  H        4.8563790000     0.0073140000     1.2007360000
| 24>  H        4.7015790000    -1.6428350000     2.0122870000
| 25> *
| 26>
| 27>                          ****END OF INPUT****
 Total Charge           Charge          ....    0
 Multiplicity           Mult            ....    1
 Number of Electrons    NEL             ....   52
 Basis Dimension        Dim             ....  128

MULLIKEN ATOMIC CHARGES
-----------------------
   0 O :   -0.249160
   1 C :    0.299937
   2 C :    0.289362
   3 C :   -0.487044
   4 C :   -0.033753
   5 C :    0.162001
   6 O :   -0.271336
   7 H :    0.160672
   8 H :    0.025250
   9 H :    0.006986
  10 H :    0.030163
  11 H :    0.035488
  12 H :    0.031435
Sum of atomic charges:   -0.0000000

LOEWDIN ATOMIC CHARGES
----------------------
   0 O :   -0.099210
   1 C :    0.029003
   2 C :   -0.036395
   3 C :   -0.062082
   4 C :    0.040270
   5 C :    0.059549
   6 O :   -0.135899
   7 H :    0.075014
   8 H :    0.032971
   9 H :    0.038372
  10 H :    0.022716
  11 H :    0.018330
  12 H :    0.017362

  Mayer bond orders larger than 0.1
B(  0-O ,  1-C ) :   1.1174 B(  0-O ,  7-H ) :   0.9744 B(  1-C ,  2-C ) :   0.9381
B(  1-C ,  4-C ) :   0.9382 B(  1-C ,  8-H ) :   0.8883 B(  2-C ,  3-C ) :   2.3657
B(  2-C ,  9-H ) :  -0.1096 B(  3-C ,  9-H ) :   1.0990 B(  4-C ,  5-C ) :   1.0860
B(  4-C ,  6-O ) :   1.0164 B(  4-C , 10-H ) :   0.9326 B(  5-C ,  6-O ) :   0.9910
B(  5-C , 11-H ) :   0.9200 B(  5-C , 12-H ) :   0.9361

FINAL SINGLE POINT ENERGY      -343.789600177074

DIPOLE MOMENT
-------------
                                X             Y             Z
Electronic contribution:     -1.66499       1.14335       0.67122
Nuclear contribution   :      2.06757      -1.12510      -1.56864
                        -----------------------------------------
Total Dipole Moment    :      0.40257       0.01825      -0.89742
                        -----------------------------------------
Magnitude (a.u.)       :      0.98375
Magnitude (Debye)      :      2.50049

                             ****ORCA TERMINATED NORMALLY****
TOTAL RUN TIME: 0 days 0 hours 0 minutes 5 seconds 896 msec
