                         Program Version 3.0.3 - RELEASE   -
|  1> ! RI PBE def2-SVP def2-SVP/J NBO PAL2
|  2> % maxcore 2000
|  3> % output
|  4>     # printlevel mini
|  5>     print[ P_Basis ] 0
|  6>     print[ P_SCFInfo ] 1
|  7>     print[ P_SCFIterInfo ] 1
|  8>     print[ P_OrbEn ] 0
|  9>     print[ P_Cartesian ] 0
| 10> end
| 11> *xyz 0 1
| 12>  O        1.8651050000    -0.3594010000    -1.1814470000
| 13>  C        2.9696650000     0.1892260000    -0.4844630000
| 14>  C        2.9918880000    -0.3755080000     0.8912320000
| 15>  C        4.0428340000    -0.9732490000     1.4391150000
| 16>  C        4.0552250000    -1.5099570000     2.8053460000
| 17>  C        4.9001420000    -2.6490410000     3.1705340000
| 18>  O        5.2631490000    -1.3373330000     3.5470650000
| 19>  H        1.7450110000     0.1344690000    -1.9957850000
| 20>  H        2.8744810000     1.2837390000    -0.4200720000
| 21>  H        3.9165050000    -0.0329200000    -0.9944450000
| 22>  H        2.0703560000    -0.2670830000     1.4597510000
| 23>  H        4.9662470000    -1.0881700000     0.8746840000
| 24>  H        3.1501690000    -1.3469310000     3.3879610000
| 25>  H        5.5281160000    -3.1085060000     2.4103150000
| 26>  H        4.5890060000    -3.3032450000     3.9817980000
| 27> *
| 28>
| 29>                          ****END OF INPUT****
 Total Charge           Charge          ....    0
 Multiplicity           Mult            ....    1
 Number of Electrons    NEL             ....   54
 Basis Dimension        Dim             ....  138

MULLIKEN ATOMIC CHARGES
-----------------------
   0 O :   -0.284215
   1 C :    0.201657
   2 C :   -0.088461
   3 C :    0.064028
   4 C :    0.017033
   5 C :    0.149066
   6 O :   -0.286136
   7 H :    0.154241
   8 H :    0.017472
   9 H :   -0.006085
  10 H :    0.002693
  11 H :   -0.010438
  12 H :    0.007986
  13 H :    0.025297
  14 H :    0.035863
Sum of atomic charges:   -0.0000000

LOEWDIN ATOMIC CHARGES
----------------------
   0 O :   -0.130554
   1 C :    0.056151
   2 C :   -0.038035
   3 C :   -0.040082
   4 C :    0.041418
   5 C :    0.059284
   6 O :   -0.150813
   7 H :    0.069766
   8 H :    0.016539
   9 H :    0.007360
  10 H :    0.027879
  11 H :    0.029251
  12 H :    0.020045
  13 H :    0.014210
  14 H :    0.017580

  Mayer bond orders larger than 0.1
B(  0-O ,  1-C ) :   1.0705 B(  0-O ,  7-H ) :   0.9791 B(  1-C ,  2-C ) :   1.0441
B(  1-C ,  8-H ) :   0.9132 B(  1-C ,  9-H ) :   0.9302 B(  2-C ,  3-C ) :   1.8480
B(  2-C , 10-H ) :   0.9633 B(  3-C ,  4-C ) :   1.0634 B(  3-C , 11-H ) :   0.9375
B(  4-C ,  5-C ) :   1.0479 B(  4-C ,  6-O ) :   0.9432 B(  4-C , 12-H ) :   0.9454
B(  5-C ,  6-O ) :   1.0022 B(  5-C , 13-H ) :   0.9317 B(  5-C , 14-H ) :   0.9352

FINAL SINGLE POINT ENERGY      -345.039532365291

DIPOLE MOMENT
-------------
                                X             Y             Z
Electronic contribution:      0.56558      -0.07646       1.78045
Nuclear contribution   :     -0.74786       0.16125      -2.37838
                        -----------------------------------------
Total Dipole Moment    :     -0.18229       0.08479      -0.59794
                        -----------------------------------------
Magnitude (a.u.)       :      0.63083
Magnitude (Debye)      :      1.60344

                             ****ORCA TERMINATED NORMALLY****
TOTAL RUN TIME: 0 days 0 hours 0 minutes 6 seconds 454 msec
