                         Program Version 3.0.3 - RELEASE   -
|  1> ! RI PBE def2-SVP def2-SVP/J NBO PAL2
|  2> % maxcore 2000
|  3> % output
|  4>     # printlevel mini
|  5>     print[ P_Basis ] 0
|  6>     print[ P_SCFInfo ] 1
|  7>     print[ P_SCFIterInfo ] 1
|  8>     print[ P_OrbEn ] 0
|  9>     print[ P_Cartesian ] 0
| 10> end
| 11> *xyz 0 1
| 12>  O        1.2336750000     0.4791830000     0.1449110000
| 13>  C        2.6276020000     0.3184320000     0.0522750000
| 14>  C        3.1435260000    -0.5123570000     1.1834580000
| 15>  C        2.3604200000    -1.0503190000     2.1085220000
| 16>  C        4.6216900000    -0.6584670000     1.2014450000
| 17>  C        5.2844750000    -1.9267220000     1.4756760000
| 18>  O        5.2039710000    -1.4292990000     0.1500480000
| 19>  H        0.9229380000     0.8959670000    -0.6609240000
| 20>  H        3.1426900000     1.2929090000     0.0709670000
| 21>  H        2.9165030000    -0.1732680000    -0.8880040000
| 22>  H        1.2881300000    -0.9046480000     2.0803250000
| 23>  H        2.7762820000    -1.6406310000     2.9167270000
| 24>  H        5.1782920000     0.2564630000     1.4115480000
| 25>  H        4.6789640000    -2.8062170000     1.6765000000
| 26>  H        6.2809420000    -1.9283240000     1.9107260000
| 27> *
| 28>
| 29>                          ****END OF INPUT****
 Total Charge           Charge          ....    0
 Multiplicity           Mult            ....    1
 Number of Electrons    NEL             ....   54
 Basis Dimension        Dim             ....  138

MULLIKEN ATOMIC CHARGES
-----------------------
   0 O :   -0.266584
   1 C :    0.247661
   2 C :   -0.162497
   3 C :   -0.008255
   4 C :    0.039621
   5 C :    0.141901
   6 O :   -0.296567
   7 H :    0.160235
   8 H :    0.000198
   9 H :    0.018336
  10 H :    0.030898
  11 H :    0.010771
  12 H :    0.029255
  13 H :    0.029397
  14 H :    0.025631
Sum of atomic charges:    0.0000000

LOEWDIN ATOMIC CHARGES
----------------------
   0 O :   -0.114985
   1 C :    0.063789
   2 C :   -0.061477
   3 C :   -0.049194
   4 C :    0.045862
   5 C :    0.062373
   6 O :   -0.159006
   7 H :    0.075192
   8 H :    0.014362
   9 H :    0.021500
  10 H :    0.027453
  11 H :    0.021630
  12 H :    0.019506
  13 H :    0.017278
  14 H :    0.015718

  Mayer bond orders larger than 0.1
B(  0-O ,  1-C ) :   1.1136 B(  0-O ,  7-H ) :   0.9756 B(  1-C ,  2-C ) :   1.0125
B(  1-C ,  8-H ) :   0.9115 B(  1-C ,  9-H ) :   0.9125 B(  2-C ,  3-C ) :   2.0004
B(  2-C ,  4-C ) :   1.0028 B(  3-C , 10-H ) :   0.9211 B(  3-C , 11-H ) :   0.9309
B(  4-C ,  5-C ) :   1.1128 B(  4-C ,  6-O ) :   0.9616 B(  4-C , 12-H ) :   0.9153
B(  5-C ,  6-O ) :   1.0014 B(  5-C , 13-H ) :   0.9331 B(  5-C , 14-H ) :   0.9299

FINAL SINGLE POINT ENERGY      -345.037457254582

DIPOLE MOMENT
-------------
                                X             Y             Z
Electronic contribution:      0.53636       0.07695      -1.53738
Nuclear contribution   :     -0.52026       0.27344       1.55112
                        -----------------------------------------
Total Dipole Moment    :      0.01610       0.35039       0.01374
                        -----------------------------------------
Magnitude (a.u.)       :      0.35103
Magnitude (Debye)      :      0.89225

                             ****ORCA TERMINATED NORMALLY****
TOTAL RUN TIME: 0 days 0 hours 0 minutes 6 seconds 695 msec
