                         Program Version 3.0.3 - RELEASE   -
|  1> ! RI PBE def2-SVP def2-SVP/J NBO PAL2
|  2> % maxcore 2000
|  3> % output
|  4>     # printlevel mini
|  5>     print[ P_Basis ] 0
|  6>     print[ P_SCFInfo ] 1
|  7>     print[ P_SCFIterInfo ] 1
|  8>     print[ P_OrbEn ] 0
|  9>     print[ P_Cartesian ] 0
| 10> end
| 11> *xyz 0 1
| 12>  O        1.0007510000    -0.1130900000    -0.0381590000
| 13>  C        2.3929390000     0.0914130000     0.0990640000
| 14>  C        2.8482390000     1.0746060000    -0.8664230000
| 15>  C        3.2438740000     1.8961770000    -1.6497900000
| 16>  C        3.7238080000     2.8519070000    -2.6061050000
| 17>  C        2.8663260000     3.9395000000    -3.0895800000
| 18>  O        3.9039540000     4.1961760000    -2.1686010000
| 19>  H        0.7293860000    -0.7426220000     0.6349240000
| 20>  H        2.9503020000    -0.8422690000    -0.0622170000
| 21>  H        2.6456360000     0.4531990000     1.1058470000
| 22>  H        4.5100290000     2.4951130000    -3.2679280000
| 23>  H        1.8580260000     4.0209890000    -2.6935040000
| 24>  H        3.0219290000     4.3234910000    -4.0949270000
| 25> *
| 26>
| 27>                          ****END OF INPUT****
 Total Charge           Charge          ....    0
 Multiplicity           Mult            ....    1
 Number of Electrons    NEL             ....   52
 Basis Dimension        Dim             ....  128

MULLIKEN ATOMIC CHARGES
-----------------------
   0 O :   -0.265141
   1 C :    0.210119
   2 C :   -0.148042
   3 C :    0.027083
   4 C :   -0.052850
   5 C :    0.169999
   6 O :   -0.269588
   7 H :    0.155534
   8 H :    0.024451
   9 H :    0.025720
  10 H :    0.047942
  11 H :    0.039906
  12 H :    0.034869
Sum of atomic charges:   -0.0000000

LOEWDIN ATOMIC CHARGES
----------------------
   0 O :   -0.121114
   1 C :    0.050076
   2 C :   -0.042102
   3 C :   -0.053359
   4 C :    0.029042
   5 C :    0.075752
   6 O :   -0.140443
   7 H :    0.071389
   8 H :    0.028137
   9 H :    0.029725
  10 H :    0.032867
  11 H :    0.022013
  12 H :    0.018017

  Mayer bond orders larger than 0.1
B(  0-O ,  1-C ) :   1.1385 B(  0-O ,  7-H ) :   0.9780 B(  1-C ,  2-C ) :   1.0255
B(  1-C ,  8-H ) :   0.9105 B(  1-C ,  9-H ) :   0.9086 B(  2-C ,  3-C ) :   2.6177
B(  3-C ,  4-C ) :   0.9435 B(  4-C ,  5-C ) :   1.0729 B(  4-C ,  6-O ) :   1.0078
B(  4-C , 10-H ) :   0.9309 B(  5-C ,  6-O ) :   0.9915 B(  5-C , 11-H ) :   0.9345
B(  5-C , 12-H ) :   0.9329

FINAL SINGLE POINT ENERGY      -343.793789379322

DIPOLE MOMENT
-------------
                                X             Y             Z
Electronic contribution:      0.96475       1.23032      -0.12692
Nuclear contribution   :     -1.06810      -1.99114       0.25182
                        -----------------------------------------
Total Dipole Moment    :     -0.10335      -0.76083       0.12491
                        -----------------------------------------
Magnitude (a.u.)       :      0.77791
Magnitude (Debye)      :      1.97729

                             ****ORCA TERMINATED NORMALLY****
TOTAL RUN TIME: 0 days 0 hours 0 minutes 5 seconds 884 msec
