                         Program Version 3.0.3 - RELEASE   -
|  1> ! RI PBE def2-SVP def2-SVP/J NBO PAL2
|  2> % maxcore 2000
|  3> % output
|  4>     # printlevel mini
|  5>     print[ P_Basis ] 0
|  6>     print[ P_SCFInfo ] 1
|  7>     print[ P_SCFIterInfo ] 1
|  8>     print[ P_OrbEn ] 0
|  9>     print[ P_Cartesian ] 0
| 10> end
| 11> *xyz 0 1
| 12>  O        2.6666490000     0.0762020000     1.2523030000
| 13>  C        2.5231590000     0.0578450000     0.0575300000
| 14>  C        3.0642570000    -1.0812080000    -0.7982140000
| 15>  C        2.0901930000    -1.6340360000    -1.7192800000
| 16>  C        1.2729940000    -2.0954520000    -2.4658410000
| 17>  C        1.8669320000     1.1363220000    -0.6518250000
| 18>  C        1.3448670000     2.0388780000    -1.2478230000
| 19>  H        3.4400670000    -1.8446070000    -0.1133220000
| 20>  H        3.9197660000    -0.6851670000    -1.3602350000
| 21>  H        0.5487860000    -2.5053540000    -3.1294870000
| 22>  H        0.8759400000     2.8426780000    -1.7667170000
| 23> *
| 24>
| 25>                          ****END OF INPUT****
 Total Charge           Charge          ....    0
 Multiplicity           Mult            ....    1
 Number of Electrons    NEL             ....   48
 Basis Dimension        Dim             ....  118

MULLIKEN ATOMIC CHARGES
-----------------------
   0 O :   -0.124624
   1 C :   -0.016448
   2 C :    0.137146
   3 C :    0.299379
   4 C :   -0.458712
   5 C :    0.409788
   6 C :   -0.395763
   7 H :    0.049325
   8 H :    0.071922
   9 H :    0.004473
  10 H :    0.023512
Sum of atomic charges:   -0.0000000

LOEWDIN ATOMIC CHARGES
----------------------
   0 O :   -0.079197
   1 C :    0.051631
   2 C :   -0.058978
   3 C :   -0.027705
   4 C :   -0.066606
   5 C :   -0.035259
   6 C :    0.002564
   7 H :    0.060508
   8 H :    0.070771
   9 H :    0.037366
  10 H :    0.044905

  Mayer bond orders larger than 0.1
B(  0-O ,  1-C ) :   2.1724 B(  0-O ,  6-C ) :   0.1114 B(  1-C ,  2-C ) :   0.9760
B(  1-C ,  5-C ) :   0.8765 B(  2-C ,  3-C ) :   1.0482 B(  2-C ,  7-H ) :   0.8739
B(  2-C ,  8-H ) :   0.8851 B(  3-C ,  4-C ) :   2.3723 B(  3-C ,  9-H ) :  -0.1080
B(  4-C ,  9-H ) :   1.0993 B(  5-C ,  6-C ) :   2.3253 B(  6-C , 10-H ) :   1.0871

FINAL SINGLE POINT ENERGY      -305.507161630993

DIPOLE MOMENT
-------------
                                X             Y             Z
Electronic contribution:     -0.24330       1.42773       2.23638
Nuclear contribution   :      0.19746      -1.24007      -3.16074
                        -----------------------------------------
Total Dipole Moment    :     -0.04585       0.18766      -0.92436
                        -----------------------------------------
Magnitude (a.u.)       :      0.94433
Magnitude (Debye)      :      2.40030

                             ****ORCA TERMINATED NORMALLY****
TOTAL RUN TIME: 0 days 0 hours 0 minutes 5 seconds 846 msec
