                         Program Version 3.0.3 - RELEASE   -
|  1> ! RI PBE def2-SVP def2-SVP/J NBO PAL2
|  2> % maxcore 2000
|  3> % output
|  4>     # printlevel mini
|  5>     print[ P_Basis ] 0
|  6>     print[ P_SCFInfo ] 1
|  7>     print[ P_SCFIterInfo ] 1
|  8>     print[ P_OrbEn ] 0
|  9>     print[ P_Cartesian ] 0
| 10> end
| 11> *xyz 0 1
| 12>  O        1.2398410000     0.3576090000    -0.5799850000
| 13>  C        2.3981860000     0.2084660000    -0.2844480000
| 14>  C        2.8631960000    -0.5032110000     0.9074770000
| 15>  C        4.1646520000    -0.6100740000     1.1674930000
| 16>  C        4.7478540000    -1.2949030000     2.3637610000
| 17>  C        5.7681170000    -2.2677140000     2.0007140000
| 18>  C        6.6068450000    -3.0638800000     1.6822880000
| 19>  H        3.2098530000     0.6182760000    -0.9248030000
| 20>  H        2.1033350000    -0.9311500000     1.5550410000
| 21>  H        4.8788240000    -0.1693950000     0.4740770000
| 22>  H        3.9582070000    -1.7789510000     2.9453950000
| 23>  H        5.2026780000    -0.5390250000     3.0178150000
| 24>  H        7.3497230000    -3.7743490000     1.4057570000
| 25> *
| 26>
| 27>                          ****END OF INPUT****
 Total Charge           Charge          ....    0
 Multiplicity           Mult            ....    1
 Number of Electrons    NEL             ....   50
 Basis Dimension        Dim             ....  128

MULLIKEN ATOMIC CHARGES
-----------------------
   0 O :   -0.162856
   1 C :    0.120425
   2 C :   -0.018827
   3 C :   -0.053040
   4 C :    0.144111
   5 C :    0.291130
   6 C :   -0.451985
   7 H :   -0.023685
   8 H :    0.009054
   9 H :    0.025545
  10 H :    0.047788
  11 H :    0.066597
  12 H :    0.005742
Sum of atomic charges:    0.0000000

LOEWDIN ATOMIC CHARGES
----------------------
   0 O :   -0.111227
   1 C :    0.070412
   2 C :   -0.071648
   3 C :    0.030792
   4 C :   -0.042712
   5 C :   -0.025007
   6 C :   -0.070526
   7 H :   -0.012148
   8 H :    0.034860
   9 H :    0.034163
  10 H :    0.057134
  11 H :    0.068227
  12 H :    0.037679

  Mayer bond orders larger than 0.1
B(  0-O ,  1-C ) :   2.1159 B(  0-O ,  3-C ) :   0.1027 B(  1-C ,  2-C ) :   1.0354
B(  1-C ,  7-H ) :   0.9298 B(  2-C ,  3-C ) :   1.7647 B(  2-C ,  8-H ) :   0.9611
B(  3-C ,  4-C ) :   1.0296 B(  3-C ,  9-H ) :   0.9536 B(  4-C ,  5-C ) :   1.0473
B(  4-C , 10-H ) :   0.9001 B(  4-C , 11-H ) :   0.8798 B(  5-C ,  6-C ) :   2.3871
B(  5-C , 12-H ) :  -0.1077 B(  6-C , 12-H ) :   1.0992

FINAL SINGLE POINT ENERGY      -306.757145557003

DIPOLE MOMENT
-------------
                                X             Y             Z
Electronic contribution:     -2.14948       0.48376      -1.68401
Nuclear contribution   :      3.14365      -0.68382       2.34003
                        -----------------------------------------
Total Dipole Moment    :      0.99417      -0.20006       0.65602
                        -----------------------------------------
Magnitude (a.u.)       :      1.20779
Magnitude (Debye)      :      3.06997

                             ****ORCA TERMINATED NORMALLY****
TOTAL RUN TIME: 0 days 0 hours 0 minutes 6 seconds 22 msec
