                         Program Version 3.0.3 - RELEASE   -
|  1> ! RI PBE def2-SVP def2-SVP/J NBO PAL2
|  2> % maxcore 2000
|  3> % output
|  4>     # printlevel mini
|  5>     print[ P_Basis ] 0
|  6>     print[ P_SCFInfo ] 1
|  7>     print[ P_SCFIterInfo ] 1
|  8>     print[ P_OrbEn ] 0
|  9>     print[ P_Cartesian ] 0
| 10> end
| 11> *xyz 0 1
| 12>  O        1.4282870000     0.4913240000     0.8325400000
| 13>  C        2.1850850000     0.0928970000     0.0027440000
| 14>  C        2.9622490000    -1.2330360000     0.1409460000
| 15>  C        2.5664810000    -2.1149350000    -0.9504820000
| 16>  C        2.1967150000    -2.7992320000    -1.8627120000
| 17>  C        4.3890700000    -0.9335300000     0.1410950000
| 18>  C        5.5480980000    -0.6272760000     0.1445560000
| 19>  H        2.3938170000     0.6405190000    -0.9365140000
| 20>  H        2.6695250000    -1.6695130000     1.1020510000
| 21>  H        1.8782440000    -3.4205350000    -2.6665560000
| 22>  H        6.5818290000    -0.3723820000     0.1505410000
| 23> *
| 24>
| 25>                          ****END OF INPUT****
 Total Charge           Charge          ....    0
 Multiplicity           Mult            ....    1
 Number of Electrons    NEL             ....   48
 Basis Dimension        Dim             ....  118

MULLIKEN ATOMIC CHARGES
-----------------------
   0 O :   -0.128808
   1 C :    0.140795
   2 C :    0.042471
   3 C :    0.391626
   4 C :   -0.469104
   5 C :    0.390952
   6 C :   -0.467725
   7 H :    0.016536
   8 H :    0.064102
   9 H :    0.009671
  10 H :    0.009486
Sum of atomic charges:   -0.0000000

LOEWDIN ATOMIC CHARGES
----------------------
   0 O :   -0.074593
   1 C :    0.124696
   2 C :   -0.081963
   3 C :   -0.013190
   4 C :   -0.049646
   5 C :   -0.013349
   6 C :   -0.049569
   7 H :    0.003111
   8 H :    0.072464
   9 H :    0.041051
  10 H :    0.040987

  Mayer bond orders larger than 0.1
B(  0-O ,  1-C ) :   2.2110 B(  1-C ,  2-C ) :   0.8875 B(  1-C ,  7-H ) :   0.9199
B(  2-C ,  3-C ) :   0.9551 B(  2-C ,  5-C ) :   0.9587 B(  2-C ,  8-H ) :   0.8495
B(  3-C ,  4-C ) :   2.3546 B(  3-C ,  9-H ) :  -0.1169 B(  4-C ,  9-H ) :   1.1071
B(  5-C ,  6-C ) :   2.3528 B(  5-C , 10-H ) :  -0.1174 B(  6-C , 10-H ) :   1.1076

FINAL SINGLE POINT ENERGY      -305.494720334147

DIPOLE MOMENT
-------------
                                X             Y             Z
Electronic contribution:     -1.00254       0.60249       1.02147
Nuclear contribution   :      1.46398      -0.89762      -1.46952
                        -----------------------------------------
Total Dipole Moment    :      0.46143      -0.29514      -0.44805
                        -----------------------------------------
Magnitude (a.u.)       :      0.70765
Magnitude (Debye)      :      1.79871

                             ****ORCA TERMINATED NORMALLY****
TOTAL RUN TIME: 0 days 0 hours 0 minutes 5 seconds 500 msec
