                         Program Version 3.0.3 - RELEASE   -
|  1> ! RI PBE def2-SVP def2-SVP/J NBO PAL2
|  2> % maxcore 2000
|  3> % output
|  4>     # printlevel mini
|  5>     print[ P_Basis ] 0
|  6>     print[ P_SCFInfo ] 1
|  7>     print[ P_SCFIterInfo ] 1
|  8>     print[ P_OrbEn ] 0
|  9>     print[ P_Cartesian ] 0
| 10> end
| 11> *xyz 0 1
| 12>  O        0.9240750000    -0.3048210000     0.4678170000
| 13>  C        2.0360040000    -0.0356720000     0.0926840000
| 14>  C        2.7676750000     1.1345950000     0.5016580000
| 15>  C        3.4251860000     2.0953980000     0.8089480000
| 16>  C        4.1849100000     3.2701650000     1.2067160000
| 17>  C        5.5082500000     3.3516860000     0.6011420000
| 18>  C        6.5983480000     3.4311320000     0.1105240000
| 19>  H        2.5825930000    -0.6912420000    -0.6117590000
| 20>  H        4.2779420000     3.2754620000     2.2995480000
| 21>  H        3.6062090000     4.1662320000     0.9514740000
| 22>  H        7.5663990000     3.4986760000    -0.3271520000
| 23> *
| 24>
| 25>                          ****END OF INPUT****
 Total Charge           Charge          ....    0
 Multiplicity           Mult            ....    1
 Number of Electrons    NEL             ....   48
 Basis Dimension        Dim             ....  118

MULLIKEN ATOMIC CHARGES
-----------------------
   0 O :   -0.152497
   1 C :    0.072633
   2 C :   -0.058757
   3 C :   -0.067401
   4 C :    0.163190
   5 C :    0.294822
   6 C :   -0.438909
   7 H :    0.019757
   8 H :    0.081109
   9 H :    0.076393
  10 H :    0.009658
Sum of atomic charges:   -0.0000000

LOEWDIN ATOMIC CHARGES
----------------------
   0 O :   -0.091354
   1 C :    0.069397
   2 C :   -0.076871
   3 C :    0.017006
   4 C :   -0.044743
   5 C :   -0.022691
   6 C :   -0.057570
   7 H :    0.005389
   8 H :    0.081291
   9 H :    0.080455
  10 H :    0.039690

  Mayer bond orders larger than 0.1
B(  0-O ,  1-C ) :   2.1383 B(  0-O ,  3-C ) :   0.1185 B(  1-C ,  2-C ) :   0.8973
B(  1-C ,  7-H ) :   0.9441 B(  2-C ,  3-C ) :   2.6399 B(  3-C ,  4-C ) :   1.0346
B(  4-C ,  5-C ) :   1.0390 B(  4-C ,  8-H ) :   0.8677 B(  4-C ,  9-H ) :   0.8670
B(  5-C ,  6-C ) :   2.4074 B(  5-C , 10-H ) :  -0.1047 B(  6-C , 10-H ) :   1.0958

FINAL SINGLE POINT ENERGY      -305.506251021034

DIPOLE MOMENT
-------------
                                X             Y             Z
Electronic contribution:     -2.56552      -2.13373      -0.13238
Nuclear contribution   :      3.53558       2.87886       0.14248
                        -----------------------------------------
Total Dipole Moment    :      0.97006       0.74514       0.01010
                        -----------------------------------------
Magnitude (a.u.)       :      1.22325
Magnitude (Debye)      :      3.10926

                             ****ORCA TERMINATED NORMALLY****
TOTAL RUN TIME: 0 days 0 hours 0 minutes 5 seconds 593 msec
