                         Program Version 3.0.3 - RELEASE   -
|  1> ! RI PBE def2-SVP def2-SVP/J NBO PAL2
|  2> % maxcore 2000
|  3> % output
|  4>     # printlevel mini
|  5>     print[ P_Basis ] 0
|  6>     print[ P_SCFInfo ] 1
|  7>     print[ P_SCFIterInfo ] 1
|  8>     print[ P_OrbEn ] 0
|  9>     print[ P_Cartesian ] 0
| 10> end
| 11> *xyz 0 1
| 12>  O        2.5258030000     1.1566690000     1.0211740000
| 13>  C        2.0760370000     0.9407200000    -0.0682080000
| 14>  C        2.8743790000     0.4711890000    -1.2561910000
| 15>  C        4.3384470000     0.3745490000    -1.0226030000
| 16>  C        5.2534540000     0.8678340000    -1.8589690000
| 17>  C        6.6520840000     0.7685470000    -1.6569370000
| 18>  C        7.8454400000     0.7016660000    -1.5181800000
| 19>  H        0.9893390000     1.0635690000    -0.2694560000
| 20>  H        2.6357820000     1.1190440000    -2.1076180000
| 21>  H        2.4523370000    -0.5123930000    -1.5187390000
| 22>  H        4.6584860000    -0.1243270000    -0.1136550000
| 23>  H        4.9356640000     1.3836970000    -2.7630890000
| 24>  H        8.8992490000     0.6390350000    -1.3837280000
| 25> *
| 26>
| 27>                          ****END OF INPUT****
 Total Charge           Charge          ....    0
 Multiplicity           Mult            ....    1
 Number of Electrons    NEL             ....   50
 Basis Dimension        Dim             ....  128

MULLIKEN ATOMIC CHARGES
-----------------------
   0 O :   -0.146191
   1 C :    0.068937
   2 C :    0.038799
   3 C :   -0.025846
   4 C :   -0.066346
   5 C :    0.383801
   6 C :   -0.401716
   7 H :   -0.000582
   8 H :    0.038430
   9 H :    0.057998
  10 H :    0.022779
  11 H :    0.022790
  12 H :    0.007146
Sum of atomic charges:   -0.0000000

LOEWDIN ATOMIC CHARGES
----------------------
   0 O :   -0.099076
   1 C :    0.093109
   2 C :   -0.085335
   3 C :    0.005493
   4 C :   -0.051515
   5 C :   -0.018690
   6 C :   -0.060828
   7 H :   -0.009272
   8 H :    0.049695
   9 H :    0.062452
  10 H :    0.036851
  11 H :    0.040801
  12 H :    0.036314

  Mayer bond orders larger than 0.1
B(  0-O ,  1-C ) :   2.2102 B(  1-C ,  2-C ) :   0.9449 B(  1-C ,  7-H ) :   0.9259
B(  2-C ,  3-C ) :   1.0361 B(  2-C ,  8-H ) :   0.9063 B(  2-C ,  9-H ) :   0.8824
B(  3-C ,  4-C ) :   1.8210 B(  3-C ,  6-C ) :   0.1316 B(  3-C , 10-H ) :   0.9614
B(  4-C ,  5-C ) :   1.0585 B(  4-C , 11-H ) :   0.9379 B(  5-C ,  6-C ) :   2.2826
B(  6-C , 12-H ) :   1.0870

FINAL SINGLE POINT ENERGY      -306.757972607742

DIPOLE MOMENT
-------------
                                X             Y             Z
Electronic contribution:      1.31774       0.67646       1.99282
Nuclear contribution   :     -1.73647      -0.93119      -2.80716
                        -----------------------------------------
Total Dipole Moment    :     -0.41873      -0.25473      -0.81434
                        -----------------------------------------
Magnitude (a.u.)       :      0.95046
Magnitude (Debye)      :      2.41587

                             ****ORCA TERMINATED NORMALLY****
TOTAL RUN TIME: 0 days 0 hours 0 minutes 6 seconds 39 msec
