                         Program Version 3.0.3 - RELEASE   -
|  1> ! RI PBE def2-SVP def2-SVP/J NBO PAL2
|  2> % maxcore 2000
|  3> % output
|  4>     # printlevel mini
|  5>     print[ P_Basis ] 0
|  6>     print[ P_SCFInfo ] 1
|  7>     print[ P_SCFIterInfo ] 1
|  8>     print[ P_OrbEn ] 0
|  9>     print[ P_Cartesian ] 0
| 10> end
| 11> *xyz 0 1
| 12>  O        1.2274080000     0.4924830000     0.2661400000
| 13>  C        2.2626890000    -0.0728160000     0.0739920000
| 14>  C        3.0729110000     0.0922650000    -1.2034630000
| 15>  C        4.4987820000     0.0630100000    -0.9677180000
| 16>  C        5.6812340000     0.0389230000    -0.7238070000
| 17>  C        7.0189160000     0.0137460000    -0.4626330000
| 18>  C        8.2014370000    -0.0093930000    -0.2306320000
| 19>  H        2.6935010000    -0.7752970000     0.8160020000
| 20>  H        2.7580610000     1.0154630000    -1.6971530000
| 21>  H        2.7885890000    -0.7398680000    -1.8632760000
| 22>  H        9.2457820000    -0.0286260000    -0.0261630000
| 23> *
| 24>
| 25>                          ****END OF INPUT****
 Total Charge           Charge          ....    0
 Multiplicity           Mult            ....    1
 Number of Electrons    NEL             ....   48
 Basis Dimension        Dim             ....  118

MULLIKEN ATOMIC CHARGES
-----------------------
   0 O :   -0.141625
   1 C :    0.078157
   2 C :    0.090335
   3 C :   -0.134257
   4 C :    0.001665
   5 C :    0.353824
   6 C :   -0.420755
   7 H :    0.015384
   8 H :    0.060868
   9 H :    0.079654
  10 H :    0.016752
Sum of atomic charges:   -0.0000000

LOEWDIN ATOMIC CHARGES
----------------------
   0 O :   -0.084968
   1 C :    0.107833
   2 C :   -0.081621
   3 C :   -0.011631
   4 C :   -0.056109
   5 C :   -0.031348
   6 C :   -0.022627
   7 H :   -0.001361
   8 H :    0.063895
   9 H :    0.076554
  10 H :    0.041383

  Mayer bond orders larger than 0.1
B(  0-O ,  1-C ) :   2.1957 B(  1-C ,  2-C ) :   0.9246 B(  1-C ,  7-H ) :   0.9290
B(  2-C ,  3-C ) :   1.0314 B(  2-C ,  8-H ) :   0.8854 B(  2-C ,  9-H ) :   0.8797
B(  3-C ,  4-C ) :   2.3874 B(  3-C ,  6-C ) :   0.2615 B(  4-C ,  5-C ) :   0.9454
B(  5-C ,  6-C ) :   2.1458 B(  5-C , 10-H ) :  -0.1055 B(  6-C , 10-H ) :   1.0944

FINAL SINGLE POINT ENERGY      -305.523138307596

DIPOLE MOMENT
-------------
                                X             Y             Z
Electronic contribution:      0.62014       0.49010       0.62551
Nuclear contribution   :     -0.20327      -0.85070      -0.92859
                        -----------------------------------------
Total Dipole Moment    :      0.41687      -0.36059      -0.30308
                        -----------------------------------------
Magnitude (a.u.)       :      0.62902
Magnitude (Debye)      :      1.59883

                             ****ORCA TERMINATED NORMALLY****
TOTAL RUN TIME: 0 days 0 hours 0 minutes 5 seconds 186 msec
