                         Program Version 3.0.3 - RELEASE   -
|  1> ! RI PBE def2-SVP def2-SVP/J NBO PAL2
|  2> % maxcore 2000
|  3> % output
|  4>     # printlevel mini
|  5>     print[ P_Basis ] 0
|  6>     print[ P_SCFInfo ] 1
|  7>     print[ P_SCFIterInfo ] 1
|  8>     print[ P_OrbEn ] 0
|  9>     print[ P_Cartesian ] 0
| 10> end
| 11> *xyz 0 1
| 12>  O        3.0857730000     2.3867060000     3.2249400000
| 13>  C        2.4853250000     2.3714430000     2.1843500000
| 14>  C        2.9766610000     1.7415160000     0.9162280000
| 15>  C        4.3712470000     1.1507200000     0.9935390000
| 16>  C        5.4785120000     2.2066610000     1.0758840000
| 17>  C        5.5168480000     3.0860690000    -0.0815430000
| 18>  C        5.5283790000     3.8013310000    -1.0465590000
| 19>  H        1.4787380000     2.8384530000     2.1115430000
| 20>  H        2.9047440000     2.4955890000     0.1212950000
| 21>  H        2.2345060000     0.9780870000     0.6464640000
| 22>  H        4.5433830000     0.5214920000     0.1169040000
| 23>  H        4.4450960000     0.5112910000     1.8766960000
| 24>  H        6.4471680000     1.7064120000     1.1728680000
| 25>  H        5.3459600000     2.8041670000     1.9824190000
| 26>  H        5.5526700000     4.4403620000    -1.8972290000
| 27> *
| 28>
| 29>                          ****END OF INPUT****
 Total Charge           Charge          ....    0
 Multiplicity           Mult            ....    1
 Number of Electrons    NEL             ....   52
 Basis Dimension        Dim             ....  138

MULLIKEN ATOMIC CHARGES
-----------------------
   0 O :   -0.164909
   1 C :    0.082195
   2 C :   -0.034512
   3 C :   -0.007075
   4 C :    0.079012
   5 C :    0.300057
   6 C :   -0.484544
   7 H :   -0.005012
   8 H :    0.053283
   9 H :    0.044241
  10 H :    0.023912
  11 H :    0.028562
  12 H :    0.038631
  13 H :    0.048803
  14 H :   -0.002643
Sum of atomic charges:    0.0000000

LOEWDIN ATOMIC CHARGES
----------------------
   0 O :   -0.112086
   1 C :    0.095164
   2 C :   -0.086996
   3 C :   -0.027008
   4 C :   -0.044841
   5 C :   -0.023996
   6 C :   -0.095684
   7 H :   -0.009354
   8 H :    0.051151
   9 H :    0.052232
  10 H :    0.032087
  11 H :    0.033084
  12 H :    0.051836
  13 H :    0.050427
  14 H :    0.033984

  Mayer bond orders larger than 0.1
B(  0-O ,  1-C ) :   2.1624 B(  1-C ,  2-C ) :   0.9759 B(  1-C ,  7-H ) :   0.9237
B(  2-C ,  3-C ) :   1.0895 B(  2-C ,  8-H ) :   0.9005 B(  2-C ,  9-H ) :   0.9011
B(  3-C ,  4-C ) :   1.0779 B(  3-C , 10-H ) :   0.9314 B(  3-C , 11-H ) :   0.9278
B(  4-C ,  5-C ) :   1.0716 B(  4-C , 12-H ) :   0.8956 B(  4-C , 13-H ) :   0.8987
B(  5-C ,  6-C ) :   2.3407 B(  5-C , 14-H ) :  -0.1120 B(  6-C , 14-H ) :   1.1035

FINAL SINGLE POINT ENERGY      -307.975647774033

DIPOLE MOMENT
-------------
                                X             Y             Z
Electronic contribution:     -0.05821       2.12828       1.87799
Nuclear contribution   :     -0.26564      -2.43944      -2.51807
                        -----------------------------------------
Total Dipole Moment    :     -0.32385      -0.31116      -0.64008
                        -----------------------------------------
Magnitude (a.u.)       :      0.78192
Magnitude (Debye)      :      1.98748

                             ****ORCA TERMINATED NORMALLY****
TOTAL RUN TIME: 0 days 0 hours 0 minutes 6 seconds 131 msec
