                         Program Version 3.0.3 - RELEASE   -
|  1> ! RI PBE def2-SVP def2-SVP/J NBO PAL2
|  2> % maxcore 2000
|  3> % output
|  4>     # printlevel mini
|  5>     print[ P_Basis ] 0
|  6>     print[ P_SCFInfo ] 1
|  7>     print[ P_SCFIterInfo ] 1
|  8>     print[ P_OrbEn ] 0
|  9>     print[ P_Cartesian ] 0
| 10> end
| 11> *xyz 0 1
| 12>  O        1.1352970000     0.2361010000     0.7192840000
| 13>  C        2.5373000000     0.1936790000     0.6374630000
| 14>  C        3.0795100000     1.4041660000    -0.1416360000
| 15>  C        2.5562380000     1.4250920000    -1.5379900000
| 16>  C        1.6403710000     2.2739120000    -1.9898080000
| 17>  C        3.1252430000     0.1377950000     2.0092180000
| 18>  C        2.4339140000     0.1963480000     3.1366350000
| 19>  H        0.8040950000     0.5054290000    -0.1448160000
| 20>  H        2.8548170000    -0.7181180000     0.1007110000
| 21>  H        4.1735970000     1.3534150000    -0.1474490000
| 22>  H        2.7871690000     2.3123780000     0.3931780000
| 23>  H        2.9332490000     0.6519810000    -2.2063580000
| 24>  H        1.2420450000     3.0623370000    -1.3581070000
| 25>  H        1.2723240000     2.2248210000    -3.0082410000
| 26>  H        4.2085810000     0.0425080000     2.0346550000
| 27>  H        1.3543540000     0.2835320000     3.1239430000
| 28>  H        2.9296880000     0.1534150000     4.0992170000
| 29> *
| 30>
| 31>                          ****END OF INPUT****
 Total Charge           Charge          ....    0
 Multiplicity           Mult            ....    1
 Number of Electrons    NEL             ....   54
 Basis Dimension        Dim             ....  148

MULLIKEN ATOMIC CHARGES
-----------------------
   0 O :   -0.246328
   1 C :    0.140123
   2 C :    0.039255
   3 C :   -0.103993
   4 C :   -0.034627
   5 C :   -0.087933
   6 C :   -0.017267
   7 H :    0.149010
   8 H :   -0.001306
   9 H :    0.021735
  10 H :    0.014414
  11 H :    0.012369
  12 H :    0.029854
  13 H :    0.031815
  14 H :    0.001997
  15 H :    0.033276
  16 H :    0.017607
Sum of atomic charges:   -0.0000000

LOEWDIN ATOMIC CHARGES
----------------------
   0 O :   -0.101792
   1 C :    0.050167
   2 C :   -0.051051
   3 C :   -0.036517
   4 C :   -0.062993
   5 C :   -0.046278
   6 C :   -0.055735
   7 H :    0.062429
   8 H :    0.013679
   9 H :    0.037971
  10 H :    0.032848
  11 H :    0.027830
  12 H :    0.025587
  13 H :    0.027290
  14 H :    0.026240
  15 H :    0.026637
  16 H :    0.023687

  Mayer bond orders larger than 0.1
B(  0-O ,  1-C ) :   1.1103 B(  0-O ,  7-H ) :   0.9618 B(  1-C ,  2-C ) :   1.0177
B(  1-C ,  5-C ) :   1.0102 B(  1-C ,  8-H ) :   0.8906 B(  2-C ,  3-C ) :   1.0617
B(  2-C ,  9-H ) :   0.9000 B(  2-C , 10-H ) :   0.9239 B(  3-C ,  4-C ) :   1.9767
B(  3-C , 11-H ) :   0.9528 B(  4-C , 12-H ) :   0.9483 B(  4-C , 13-H ) :   0.9451
B(  5-C ,  6-C ) :   2.0190 B(  5-C , 14-H ) :   0.9462 B(  6-C , 15-H ) :   0.9389
B(  6-C , 16-H ) :   0.9398

FINAL SINGLE POINT ENERGY      -309.193611231467

DIPOLE MOMENT
-------------
                                X             Y             Z
Electronic contribution:     -0.96782      -1.30336       0.50026
Nuclear contribution   :      1.27138       1.47517      -1.09233
                        -----------------------------------------
Total Dipole Moment    :      0.30356       0.17181      -0.59207
                        -----------------------------------------
Magnitude (a.u.)       :      0.68718
Magnitude (Debye)      :      1.74666

                             ****ORCA TERMINATED NORMALLY****
TOTAL RUN TIME: 0 days 0 hours 0 minutes 7 seconds 398 msec
