                         Program Version 3.0.3 - RELEASE   -
|  1> ! RI PBE def2-SVP def2-SVP/J NBO PAL2
|  2> % maxcore 2000
|  3> % output
|  4>     # printlevel mini
|  5>     print[ P_Basis ] 0
|  6>     print[ P_SCFInfo ] 1
|  7>     print[ P_SCFIterInfo ] 1
|  8>     print[ P_OrbEn ] 0
|  9>     print[ P_Cartesian ] 0
| 10> end
| 11> *xyz 0 1
| 12>  O        0.8713050000     0.0751430000     0.0490970000
| 13>  C        2.2777900000    -0.0213100000     0.0766890000
| 14>  C        2.8974580000     0.4674080000    -1.2446230000
| 15>  C        2.4226210000    -0.3634920000    -2.3888570000
| 16>  C        1.5536350000     0.0433230000    -3.3066280000
| 17>  C        2.7829480000     0.7536920000     1.2035280000
| 18>  C        3.2372880000     1.3846860000     2.1167220000
| 19>  H        0.5878620000    -0.2482500000    -0.8149160000
| 20>  H        2.5811060000    -1.0693130000     0.2321050000
| 21>  H        3.9863590000     0.4143100000    -1.1538540000
| 22>  H        2.6194460000     1.5150040000    -1.3845170000
| 23>  H        2.7989300000    -1.3845720000    -2.4341330000
| 24>  H        1.1589850000     1.0549500000    -3.3007240000
| 25>  H        1.2226620000    -0.6106030000    -4.1052490000
| 26>  H        3.6280040000     1.9457240000     2.9324480000
| 27> *
| 28>
| 29>                          ****END OF INPUT****
 Total Charge           Charge          ....    0
 Multiplicity           Mult            ....    1
 Number of Electrons    NEL             ....   52
 Basis Dimension        Dim             ....  138

MULLIKEN ATOMIC CHARGES
-----------------------
   0 O :   -0.245971
   1 C :    0.119315
   2 C :    0.042246
   3 C :   -0.102721
   4 C :   -0.030921
   5 C :    0.412057
   6 C :   -0.499225
   7 H :    0.151027
   8 H :    0.014565
   9 H :    0.034516
  10 H :    0.022992
  11 H :    0.011639
  12 H :    0.032412
  13 H :    0.035105
  14 H :    0.002964
Sum of atomic charges:   -0.0000000

LOEWDIN ATOMIC CHARGES
----------------------
   0 O :   -0.103557
   1 C :    0.043288
   2 C :   -0.044802
   3 C :   -0.036691
   4 C :   -0.057790
   5 C :   -0.018206
   6 C :   -0.068896
   7 H :    0.062267
   8 H :    0.025336
   9 H :    0.043122
  10 H :    0.036284
  11 H :    0.028241
  12 H :    0.026856
  13 H :    0.028488
  14 H :    0.036059

  Mayer bond orders larger than 0.1
B(  0-O ,  1-C ) :   1.1290 B(  0-O ,  7-H ) :   0.9627 B(  1-C ,  2-C ) :   1.0316
B(  1-C ,  5-C ) :   0.9577 B(  1-C ,  8-H ) :   0.8815 B(  2-C ,  3-C ) :   1.0686
B(  2-C ,  9-H ) :   0.9032 B(  2-C , 10-H ) :   0.9178 B(  3-C ,  4-C ) :   1.9769
B(  3-C , 11-H ) :   0.9506 B(  4-C , 12-H ) :   0.9471 B(  4-C , 13-H ) :   0.9460
B(  5-C ,  6-C ) :   2.3548 B(  5-C , 14-H ) :  -0.1075 B(  6-C , 14-H ) :   1.0969

FINAL SINGLE POINT ENERGY      -307.944344955240

DIPOLE MOMENT
-------------
                                X             Y             Z
Electronic contribution:     -0.29289       0.58678       4.70879
Nuclear contribution   :      0.63567      -0.83080      -5.34946
                        -----------------------------------------
Total Dipole Moment    :      0.34278      -0.24402      -0.64067
                        -----------------------------------------
Magnitude (a.u.)       :      0.76648
Magnitude (Debye)      :      1.94825

                             ****ORCA TERMINATED NORMALLY****
TOTAL RUN TIME: 0 days 0 hours 0 minutes 6 seconds 871 msec
