                         Program Version 3.0.3 - RELEASE   -
|  1> ! RI PBE def2-SVP def2-SVP/J NBO PAL2
|  2> % maxcore 2000
|  3> % output
|  4>     # printlevel mini
|  5>     print[ P_Basis ] 0
|  6>     print[ P_SCFInfo ] 1
|  7>     print[ P_SCFIterInfo ] 1
|  8>     print[ P_OrbEn ] 0
|  9>     print[ P_Cartesian ] 0
| 10> end
| 11> *xyz 0 1
| 12>  O        1.0423110000    -0.2010580000     0.0674680000
| 13>  C        2.4508390000    -0.1578420000     0.0882800000
| 14>  C        2.9464100000     1.0412290000     0.9201090000
| 15>  C        2.3957850000     2.2885360000     0.4207550000
| 16>  C        1.8944320000     3.2827110000    -0.0308780000
| 17>  C        2.9387780000    -1.4389470000     0.6789210000
| 18>  C        3.8770300000    -2.1997140000     0.1378180000
| 19>  H        0.7288140000     0.6751180000    -0.1859950000
| 20>  H        2.8508720000    -0.0517110000    -0.9300950000
| 21>  H        4.0395210000     1.0728540000     0.8945050000
| 22>  H        2.6452300000     0.8986810000     1.9632510000
| 23>  H        1.4700360000     4.1794850000    -0.4168700000
| 24>  H        2.4722680000    -1.7186860000     1.6210440000
| 25>  H        4.3379760000    -1.9419660000    -0.8108810000
| 26>  H        4.2181090000    -3.1090990000     0.6183590000
| 27> *
| 28>
| 29>                          ****END OF INPUT****
 Total Charge           Charge          ....    0
 Multiplicity           Mult            ....    1
 Number of Electrons    NEL             ....   52
 Basis Dimension        Dim             ....  138

MULLIKEN ATOMIC CHARGES
-----------------------
   0 O :   -0.260445
   1 C :    0.082240
   2 C :    0.117187
   3 C :    0.300175
   4 C :   -0.481934
   5 C :   -0.023978
   6 C :   -0.021074
   7 H :    0.156845
   8 H :   -0.006283
   9 H :    0.043591
  10 H :    0.030750
  11 H :    0.004406
  12 H :    0.009683
  13 H :    0.019977
  14 H :    0.028859
Sum of atomic charges:   -0.0000000

LOEWDIN ATOMIC CHARGES
----------------------
   0 O :   -0.108206
   1 C :    0.055605
   2 C :   -0.057205
   3 C :   -0.029159
   4 C :   -0.085877
   5 C :   -0.028185
   6 C :   -0.049075
   7 H :    0.067697
   8 H :    0.012142
   9 H :    0.053668
  10 H :    0.050618
  11 H :    0.037159
  12 H :    0.029799
  13 H :    0.023406
  14 H :    0.027611

  Mayer bond orders larger than 0.1
B(  0-O ,  1-C ) :   1.0561 B(  0-O ,  7-H ) :   0.9660 B(  1-C ,  2-C ) :   1.0062
B(  1-C ,  5-C ) :   1.0247 B(  1-C ,  8-H ) :   0.9082 B(  2-C ,  3-C ) :   1.0611
B(  2-C ,  9-H ) :   0.8919 B(  2-C , 10-H ) :   0.8721 B(  3-C ,  4-C ) :   2.3256
B(  3-C , 11-H ) :  -0.1079 B(  4-C , 11-H ) :   1.0987 B(  5-C ,  6-C ) :   2.0088
B(  5-C , 12-H ) :   0.9439 B(  6-C , 13-H ) :   0.9455 B(  6-C , 14-H ) :   0.9422

FINAL SINGLE POINT ENERGY      -307.948820973081

DIPOLE MOMENT
-------------
                                X             Y             Z
Electronic contribution:     -2.42579       2.71869      -0.22220
Nuclear contribution   :      2.76453      -2.39327       0.20126
                        -----------------------------------------
Total Dipole Moment    :      0.33875       0.32543      -0.02094
                        -----------------------------------------
Magnitude (a.u.)       :      0.47020
Magnitude (Debye)      :      1.19516

                             ****ORCA TERMINATED NORMALLY****
TOTAL RUN TIME: 0 days 0 hours 0 minutes 6 seconds 660 msec
