                         Program Version 3.0.3 - RELEASE   -
|  1> ! RI PBE def2-SVP def2-SVP/J NBO PAL2
|  2> % maxcore 2000
|  3> % output
|  4>     # printlevel mini
|  5>     print[ P_Basis ] 0
|  6>     print[ P_SCFInfo ] 1
|  7>     print[ P_SCFIterInfo ] 1
|  8>     print[ P_OrbEn ] 0
|  9>     print[ P_Cartesian ] 0
| 10> end
| 11> *xyz 0 1
| 12>  O        0.9585760000    -0.0972540000    -0.0308760000
| 13>  C        2.3716810000    -0.1066280000    -0.0387740000
| 14>  C        2.9010580000    -1.5420070000     0.1513210000
| 15>  C        4.3429030000    -1.6120470000     0.2904010000
| 16>  C        5.5350350000    -1.6492750000     0.4210310000
| 17>  C        2.8265670000     0.4659580000    -1.2990520000
| 18>  C        3.2223910000     0.9219800000    -2.3344520000
| 19>  H        0.6649870000    -0.2625750000     0.8693380000
| 20>  H        2.7682610000     0.5153780000     0.7757540000
| 21>  H        2.5658330000    -2.1465480000    -0.6959390000
| 22>  H        2.4302420000    -1.9557620000     1.0501660000
| 23>  H        6.5933720000    -1.6862290000     0.5267830000
| 24>  H        3.5693040000     1.3300100000    -3.2542830000
| 25> *
| 26>
| 27>                          ****END OF INPUT****
 Total Charge           Charge          ....    0
 Multiplicity           Mult            ....    1
 Number of Electrons    NEL             ....   50
 Basis Dimension        Dim             ....  128

MULLIKEN ATOMIC CHARGES
-----------------------
   0 O :   -0.239243
   1 C :    0.092882
   2 C :    0.094873
   3 C :    0.329538
   4 C :   -0.482635
   5 C :    0.402983
   6 C :   -0.472703
   7 H :    0.157939
   8 H :    0.035430
   9 H :    0.052033
  10 H :    0.024723
  11 H :   -0.000524
  12 H :    0.004702
Sum of atomic charges:   -0.0000000

LOEWDIN ATOMIC CHARGES
----------------------
   0 O :   -0.096513
   1 C :    0.047896
   2 C :   -0.050512
   3 C :   -0.025587
   4 C :   -0.076976
   5 C :   -0.019682
   6 C :   -0.055484
   7 H :    0.071920
   8 H :    0.032533
   9 H :    0.055177
  10 H :    0.044719
  11 H :    0.035002
  12 H :    0.037507

  Mayer bond orders larger than 0.1
B(  0-O ,  1-C ) :   1.1237 B(  0-O ,  7-H ) :   0.9763 B(  1-C ,  2-C ) :   1.0277
B(  1-C ,  5-C ) :   0.9560 B(  1-C ,  8-H ) :   0.9057 B(  2-C ,  3-C ) :   1.0239
B(  2-C ,  9-H ) :   0.8890 B(  2-C , 10-H ) :   0.8898 B(  3-C ,  4-C ) :   2.3434
B(  3-C , 11-H ) :  -0.1126 B(  4-C , 11-H ) :   1.1038 B(  5-C ,  6-C ) :   2.3717
B(  5-C , 12-H ) :  -0.1053 B(  6-C , 12-H ) :   1.0953

FINAL SINGLE POINT ENERGY      -306.697249499467

DIPOLE MOMENT
-------------
                                X             Y             Z
Electronic contribution:     -0.11663       0.94999      -0.85824
Nuclear contribution   :      0.14340      -1.06275       1.41368
                        -----------------------------------------
Total Dipole Moment    :      0.02676      -0.11276       0.55544
                        -----------------------------------------
Magnitude (a.u.)       :      0.56740
Magnitude (Debye)      :      1.44222

                             ****ORCA TERMINATED NORMALLY****
TOTAL RUN TIME: 0 days 0 hours 0 minutes 5 seconds 750 msec
