                         Program Version 3.0.3 - RELEASE   -
|  1> ! RI PBE def2-SVP def2-SVP/J NBO PAL2
|  2> % maxcore 2000
|  3> % output
|  4>     # printlevel mini
|  5>     print[ P_Basis ] 0
|  6>     print[ P_SCFInfo ] 1
|  7>     print[ P_SCFIterInfo ] 1
|  8>     print[ P_OrbEn ] 0
|  9>     print[ P_Cartesian ] 0
| 10> end
| 11> *xyz 0 1
| 12>  O        1.9231520000    -1.2899210000     0.5361760000
| 13>  C        2.5957730000    -0.2790020000    -0.1953470000
| 14>  C        2.9147220000     0.8451100000     0.7256420000
| 15>  C        4.1314890000     1.3423890000     0.9047470000
| 16>  C        4.4654970000     2.4992830000     1.7950690000
| 17>  C        5.0248800000     3.6590200000     1.0285880000
| 18>  C        6.2383550000     4.1655410000     1.1946710000
| 19>  H        1.5673040000    -1.9277940000    -0.0866390000
| 20>  H        1.9535880000     0.0909280000    -1.0090000000
| 21>  H        3.5203580000    -0.6607750000    -0.6489840000
| 22>  H        2.0692280000     1.2642890000     1.2683060000
| 23>  H        4.9675960000     0.9036100000     0.3615300000
| 24>  H        5.1959720000     2.1860620000     2.5495440000
| 25>  H        3.5604890000     2.8113290000     2.3282590000
| 26>  H        4.3663210000     4.0876970000     0.2754700000
| 27>  H        6.9248770000     3.7604350000     1.9321950000
| 28>  H        6.5893110000     5.0041980000     0.6045040000
| 29> *
| 30>
| 31>                          ****END OF INPUT****
 Total Charge           Charge          ....    0
 Multiplicity           Mult            ....    1
 Number of Electrons    NEL             ....   54
 Basis Dimension        Dim             ....  148

MULLIKEN ATOMIC CHARGES
-----------------------
   0 O :   -0.284958
   1 C :    0.209782
   2 C :   -0.071875
   3 C :   -0.073909
   4 C :    0.124859
   5 C :   -0.096929
   6 C :   -0.032185
   7 H :    0.152239
   8 H :    0.007775
   9 H :   -0.012197
  10 H :   -0.002850
  11 H :   -0.004228
  12 H :    0.017650
  13 H :    0.015469
  14 H :    0.008606
  15 H :    0.017879
  16 H :    0.024872
Sum of atomic charges:   -0.0000000

LOEWDIN ATOMIC CHARGES
----------------------
   0 O :   -0.131842
   1 C :    0.056559
   2 C :   -0.049426
   3 C :   -0.027441
   4 C :   -0.039032
   5 C :   -0.026868
   6 C :   -0.065549
   7 H :    0.068282
   8 H :    0.012641
   9 H :    0.005959
  10 H :    0.024704
  11 H :    0.023224
  12 H :    0.037843
  13 H :    0.038277
  14 H :    0.026316
  15 H :    0.021432
  16 H :    0.024920

  Mayer bond orders larger than 0.1
B(  0-O ,  1-C ) :   1.0717 B(  0-O ,  7-H ) :   0.9806 B(  1-C ,  2-C ) :   1.0528
B(  1-C ,  8-H ) :   0.9157 B(  1-C ,  9-H ) :   0.9267 B(  2-C ,  3-C ) :   1.9124
B(  2-C , 10-H ) :   0.9519 B(  3-C ,  4-C ) :   1.0413 B(  3-C , 11-H ) :   0.9503
B(  4-C ,  5-C ) :   1.0469 B(  4-C , 12-H ) :   0.9111 B(  4-C , 13-H ) :   0.9100
B(  5-C ,  6-C ) :   2.0066 B(  5-C , 14-H ) :   0.9577 B(  6-C , 15-H ) :   0.9475
B(  6-C , 16-H ) :   0.9454

FINAL SINGLE POINT ENERGY      -309.187963425409

DIPOLE MOMENT
-------------
                                X             Y             Z
Electronic contribution:     -2.24455      -2.70968       0.16833
Nuclear contribution   :      2.17611       2.63621      -0.70868
                        -----------------------------------------
Total Dipole Moment    :     -0.06844      -0.07348      -0.54035
                        -----------------------------------------
Magnitude (a.u.)       :      0.54960
Magnitude (Debye)      :      1.39697

                             ****ORCA TERMINATED NORMALLY****
TOTAL RUN TIME: 0 days 0 hours 0 minutes 6 seconds 983 msec
