                         Program Version 3.0.3 - RELEASE   -
|  1> ! RI PBE def2-SVP def2-SVP/J NBO PAL2
|  2> % maxcore 2000
|  3> % output
|  4>     # printlevel mini
|  5>     print[ P_Basis ] 0
|  6>     print[ P_SCFInfo ] 1
|  7>     print[ P_SCFIterInfo ] 1
|  8>     print[ P_OrbEn ] 0
|  9>     print[ P_Cartesian ] 0
| 10> end
| 11> *xyz 0 1
| 12>  O        2.2687450000     0.7604820000    -1.3315950000
| 13>  C        2.8788850000     0.4347870000    -0.0951220000
| 14>  C        3.0726200000    -1.0392440000    -0.0342760000
| 15>  C        4.2339760000    -1.6278120000     0.2100610000
| 16>  C        4.4269590000    -3.1141440000     0.2933550000
| 17>  C        5.0087750000    -3.5361340000     1.5601340000
| 18>  C        5.4930330000    -3.8674920000     2.6071740000
| 19>  H        1.9859710000     1.6771410000    -1.2978450000
| 20>  H        2.2357070000     0.7467640000     0.7414510000
| 21>  H        3.8457210000     0.9424230000     0.0214630000
| 22>  H        2.1787380000    -1.6386270000    -0.1962750000
| 23>  H        5.1243500000    -1.0227250000     0.3665910000
| 24>  H        5.0890990000    -3.4430900000    -0.5176250000
| 25>  H        3.4702350000    -3.6229700000     0.1417280000
| 26>  H        5.9190860000    -4.1656590000     3.5356000000
| 27> *
| 28>
| 29>                          ****END OF INPUT****
 Total Charge           Charge          ....    0
 Multiplicity           Mult            ....    1
 Number of Electrons    NEL             ....   52
 Basis Dimension        Dim             ....  138

MULLIKEN ATOMIC CHARGES
-----------------------
   0 O :   -0.286293
   1 C :    0.207721
   2 C :   -0.073373
   3 C :   -0.067085
   4 C :    0.149088
   5 C :    0.291473
   6 C :   -0.471459
   7 H :    0.154368
   8 H :    0.009536
   9 H :   -0.008559
  10 H :    0.003784
  11 H :    0.007646
  12 H :    0.051022
  13 H :    0.034225
  14 H :   -0.002092
Sum of atomic charges:    0.0000000

LOEWDIN ATOMIC CHARGES
----------------------
   0 O :   -0.131413
   1 C :    0.058016
   2 C :   -0.043789
   3 C :   -0.021799
   4 C :   -0.043037
   5 C :   -0.021393
   6 C :   -0.088085
   7 H :    0.069558
   8 H :    0.014164
   9 H :    0.007174
  10 H :    0.026781
  11 H :    0.027464
  12 H :    0.059304
  13 H :    0.052821
  14 H :    0.034234

  Mayer bond orders larger than 0.1
B(  0-O ,  1-C ) :   1.0723 B(  0-O ,  7-H ) :   0.9798 B(  1-C ,  2-C ) :   1.0571
B(  1-C ,  8-H ) :   0.9145 B(  1-C ,  9-H ) :   0.9297 B(  2-C ,  3-C ) :   1.9232
B(  2-C , 10-H ) :   0.9514 B(  3-C ,  4-C ) :   1.0357 B(  3-C , 11-H ) :   0.9515
B(  4-C ,  5-C ) :   1.0509 B(  4-C , 12-H ) :   0.8861 B(  4-C , 13-H ) :   0.8957
B(  5-C ,  6-C ) :   2.3831 B(  5-C , 14-H ) :  -0.1068 B(  6-C , 14-H ) :   1.0980

FINAL SINGLE POINT ENERGY      -307.943532722519

DIPOLE MOMENT
-------------
                                X             Y             Z
Electronic contribution:      0.65912      -1.48837       0.39336
Nuclear contribution   :     -0.75421       1.99382      -0.21832
                        -----------------------------------------
Total Dipole Moment    :     -0.09509       0.50545       0.17504
                        -----------------------------------------
Magnitude (a.u.)       :      0.54328
Magnitude (Debye)      :      1.38092

                             ****ORCA TERMINATED NORMALLY****
TOTAL RUN TIME: 0 days 0 hours 0 minutes 6 seconds 828 msec
