                         Program Version 3.0.3 - RELEASE   -
|  1> ! RI PBE def2-SVP def2-SVP/J NBO PAL2
|  2> % maxcore 2000
|  3> % output
|  4>     # printlevel mini
|  5>     print[ P_Basis ] 0
|  6>     print[ P_SCFInfo ] 1
|  7>     print[ P_SCFIterInfo ] 1
|  8>     print[ P_OrbEn ] 0
|  9>     print[ P_Cartesian ] 0
| 10> end
| 11> *xyz 0 1
| 12>  O        1.0086570000     0.4517410000    -0.7433270000
| 13>  C        1.0992700000    -0.8948850000    -0.3127250000
| 14>  C        1.9915970000    -1.0596710000     0.8843240000
| 15>  C        1.5085830000    -1.5130810000     2.0366560000
| 16>  C        3.4326160000    -0.6799150000     0.6686910000
| 17>  C        4.2394210000    -0.5025230000     1.9093320000
| 18>  C        5.3092900000    -1.2156610000     2.2311020000
| 19>  H        0.6467980000     0.9656200000    -0.0158820000
| 20>  H        1.5087280000    -1.4424440000    -1.1675780000
| 21>  H        0.1073370000    -1.3105540000    -0.0960060000
| 22>  H        0.4617520000    -1.7813610000     2.1346780000
| 23>  H        2.1391360000    -1.6468990000     2.9083880000
| 24>  H        3.4416760000     0.2519790000     0.0889910000
| 25>  H        3.9001810000    -1.4344410000     0.0233600000
| 26>  H        3.9057010000     0.2837870000     2.5842920000
| 27>  H        5.6728330000    -2.0127250000     1.5894870000
| 28>  H        5.8640320000    -1.0272560000     3.1430160000
| 29> *
| 30>
| 31>                          ****END OF INPUT****
 Total Charge           Charge          ....    0
 Multiplicity           Mult            ....    1
 Number of Electrons    NEL             ....   54
 Basis Dimension        Dim             ....  148

MULLIKEN ATOMIC CHARGES
-----------------------
   0 O :   -0.285416
   1 C :    0.263172
   2 C :   -0.276439
   3 C :   -0.010711
   4 C :    0.173284
   5 C :   -0.099819
   6 C :   -0.040065
   7 H :    0.152989
   8 H :    0.012786
   9 H :   -0.007703
  10 H :    0.006318
  11 H :    0.018812
  12 H :    0.022095
  13 H :    0.019463
  14 H :    0.008704
  15 H :    0.017272
  16 H :    0.025260
Sum of atomic charges:    0.0000000

LOEWDIN ATOMIC CHARGES
----------------------
   0 O :   -0.117141
   1 C :    0.063605
   2 C :   -0.055898
   3 C :   -0.065949
   4 C :   -0.038539
   5 C :   -0.024860
   6 C :   -0.066133
   7 H :    0.069227
   8 H :    0.026845
   9 H :    0.008824
  10 H :    0.020566
  11 H :    0.022761
  12 H :    0.041744
  13 H :    0.042054
  14 H :    0.026695
  15 H :    0.021567
  16 H :    0.024634

  Mayer bond orders larger than 0.1
B(  0-O ,  1-C ) :   1.0367 B(  0-O ,  7-H ) :   0.9825 B(  1-C ,  2-C ) :   1.0538
B(  1-C ,  8-H ) :   0.9175 B(  1-C ,  9-H ) :   0.9252 B(  2-C ,  3-C ) :   1.9835
B(  2-C ,  4-C ) :   0.9995 B(  3-C , 10-H ) :   0.9274 B(  3-C , 11-H ) :   0.9196
B(  4-C ,  5-C ) :   1.0645 B(  4-C , 12-H ) :   0.8840 B(  4-C , 13-H ) :   0.9006
B(  5-C ,  6-C ) :   1.9975 B(  5-C , 14-H ) :   0.9541 B(  6-C , 15-H ) :   0.9480
B(  6-C , 16-H ) :   0.9454

FINAL SINGLE POINT ENERGY      -309.192040138361

DIPOLE MOMENT
-------------
                                X             Y             Z
Electronic contribution:     -1.71233       1.59465      -1.67216
Nuclear contribution   :      1.52345      -1.64485       2.01857
                        -----------------------------------------
Total Dipole Moment    :     -0.18888      -0.05021       0.34641
                        -----------------------------------------
Magnitude (a.u.)       :      0.39774
Magnitude (Debye)      :      1.01098

                             ****ORCA TERMINATED NORMALLY****
TOTAL RUN TIME: 0 days 0 hours 0 minutes 7 seconds 745 msec
