                         Program Version 3.0.3 - RELEASE   -
|  1> ! RI PBE def2-SVP def2-SVP/J NBO PAL2
|  2> % maxcore 2000
|  3> % output
|  4>     # printlevel mini
|  5>     print[ P_Basis ] 0
|  6>     print[ P_SCFInfo ] 1
|  7>     print[ P_SCFIterInfo ] 1
|  8>     print[ P_OrbEn ] 0
|  9>     print[ P_Cartesian ] 0
| 10> end
| 11> *xyz 0 1
| 12>  O        2.9891270000    -0.4301920000     1.0701760000
| 13>  C        2.3083700000     0.0440700000    -0.0792400000
| 14>  C        2.6807040000     1.4744000000    -0.3112180000
| 15>  C        1.7662890000     2.4303120000    -0.4050620000
| 16>  C        4.1567140000     1.7631400000    -0.4320270000
| 17>  C        4.7862500000     1.0649650000    -1.5443040000
| 18>  C        5.2950630000     0.4859590000    -2.4648450000
| 19>  H        3.0734110000    -1.3832700000     1.0051550000
| 20>  H        1.2217280000    -0.0369560000     0.0441820000
| 21>  H        2.5969920000    -0.5399020000    -0.9636630000
| 22>  H        0.7110740000     2.2120240000    -0.2824680000
| 23>  H        2.0374440000     3.4597960000    -0.6118770000
| 24>  H        4.6488280000     1.4529140000     0.4963420000
| 25>  H        4.3140470000     2.8394720000    -0.5409560000
| 26>  H        5.7533700000    -0.0202420000    -3.2810150000
| 27> *
| 28>
| 29>                          ****END OF INPUT****
 Total Charge           Charge          ....    0
 Multiplicity           Mult            ....    1
 Number of Electrons    NEL             ....   52
 Basis Dimension        Dim             ....  138

MULLIKEN ATOMIC CHARGES
-----------------------
   0 O :   -0.281035
   1 C :    0.231524
   2 C :   -0.204895
   3 C :   -0.027045
   4 C :    0.189019
   5 C :    0.295392
   6 C :   -0.489093
   7 H :    0.158751
   8 H :   -0.006338
   9 H :    0.022114
  10 H :    0.017233
  11 H :    0.014896
  12 H :    0.052789
  13 H :    0.031030
  14 H :   -0.004341
Sum of atomic charges:    0.0000000

LOEWDIN ATOMIC CHARGES
----------------------
   0 O :   -0.125127
   1 C :    0.064969
   2 C :   -0.030816
   3 C :   -0.056503
   4 C :   -0.036825
   5 C :   -0.016394
   6 C :   -0.094354
   7 H :    0.072670
   8 H :    0.009942
   9 H :    0.020285
  10 H :    0.023949
  11 H :    0.023179
  12 H :    0.059660
  13 H :    0.051885
  14 H :    0.033480

  Mayer bond orders larger than 0.1
B(  0-O ,  1-C ) :   1.0869 B(  0-O ,  7-H ) :   0.9790 B(  1-C ,  2-C ) :   1.0479
B(  1-C ,  8-H ) :   0.9159 B(  1-C ,  9-H ) :   0.9128 B(  2-C ,  3-C ) :   2.0012
B(  2-C ,  4-C ) :   1.0189 B(  3-C , 10-H ) :   0.9316 B(  3-C , 11-H ) :   0.9339
B(  4-C ,  5-C ) :   1.0475 B(  4-C , 12-H ) :   0.8722 B(  4-C , 13-H ) :   0.8886
B(  5-C ,  6-C ) :   2.3594 B(  5-C , 14-H ) :  -0.1113 B(  6-C , 14-H ) :   1.1025

FINAL SINGLE POINT ENERGY      -307.945668419448

DIPOLE MOMENT
-------------
                                X             Y             Z
Electronic contribution:      2.29387      -0.96807      -0.20189
Nuclear contribution   :     -2.49253       0.56840       0.04423
                        -----------------------------------------
Total Dipole Moment    :     -0.19866      -0.39968      -0.15766
                        -----------------------------------------
Magnitude (a.u.)       :      0.47335
Magnitude (Debye)      :      1.20317

                             ****ORCA TERMINATED NORMALLY****
TOTAL RUN TIME: 0 days 0 hours 0 minutes 7 seconds 151 msec
