                         Program Version 3.0.3 - RELEASE   -
|  1> ! RI PBE def2-SVP def2-SVP/J NBO PAL2
|  2> % maxcore 2000
|  3> % output
|  4>     # printlevel mini
|  5>     print[ P_Basis ] 0
|  6>     print[ P_SCFInfo ] 1
|  7>     print[ P_SCFIterInfo ] 1
|  8>     print[ P_OrbEn ] 0
|  9>     print[ P_Cartesian ] 0
| 10> end
| 11> *xyz 0 1
| 12>  O        2.9237940000     0.8804920000    -1.0475920000
| 13>  C        2.5329980000     0.0366100000     0.0172170000
| 14>  C        3.0511050000    -1.3750000000    -0.2582270000
| 15>  C        2.4531660000    -1.9252700000    -1.5211410000
| 16>  C        1.7037510000    -3.0163120000    -1.5821640000
| 17>  C        4.5512760000    -1.3883740000    -0.3260430000
| 18>  C        5.3319510000    -2.0878340000     0.4845250000
| 19>  H        2.5973080000     1.7654710000    -0.8747290000
| 20>  H        1.4391940000     0.0004720000     0.1088420000
| 21>  H        2.9511120000     0.3873090000     0.9702730000
| 22>  H        2.7320120000    -2.0004830000     0.5829910000
| 23>  H        2.6652380000    -1.3624890000    -2.4264520000
| 24>  H        1.4762590000    -3.6008360000    -0.6955300000
| 25>  H        1.2923290000    -3.3694800000    -2.5207960000
| 26>  H        4.9929900000    -0.7668680000    -1.1005770000
| 27>  H        4.9203250000    -2.7194370000     1.2663050000
| 28>  H        6.4118920000    -2.0593710000     0.3953880000
| 29> *
| 30>
| 31>                          ****END OF INPUT****
 Total Charge           Charge          ....    0
 Multiplicity           Mult            ....    1
 Number of Electrons    NEL             ....   54
 Basis Dimension        Dim             ....  148

MULLIKEN ATOMIC CHARGES
-----------------------
   0 O :   -0.278078
   1 C :    0.190004
   2 C :   -0.048290
   3 C :   -0.029428
   4 C :   -0.029264
   5 C :   -0.016779
   6 C :   -0.046056
   7 H :    0.159700
   8 H :    0.004790
   9 H :   -0.002157
  10 H :   -0.006568
  11 H :    0.012802
  12 H :    0.013301
  13 H :    0.022207
  14 H :    0.011453
  15 H :    0.013964
  16 H :    0.028398
Sum of atomic charges:    0.0000000

LOEWDIN ATOMIC CHARGES
----------------------
   0 O :   -0.124802
   1 C :    0.070560
   2 C :   -0.054183
   3 C :   -0.012514
   4 C :   -0.064827
   5 C :   -0.010569
   6 C :   -0.068013
   7 H :    0.074328
   8 H :    0.006242
   9 H :    0.005072
  10 H :    0.034287
  11 H :    0.027808
  12 H :    0.019730
  13 H :    0.024222
  14 H :    0.027660
  15 H :    0.019744
  16 H :    0.025253

  Mayer bond orders larger than 0.1
B(  0-O ,  1-C ) :   1.0938 B(  0-O ,  7-H ) :   0.9789 B(  1-C ,  2-C ) :   1.0360
B(  1-C ,  8-H ) :   0.9306 B(  1-C ,  9-H ) :   0.9292 B(  2-C ,  3-C ) :   1.0035
B(  2-C ,  5-C ) :   1.0046 B(  2-C , 10-H ) :   0.9030 B(  3-C ,  4-C ) :   2.0170
B(  3-C , 11-H ) :   0.9554 B(  4-C , 12-H ) :   0.9434 B(  4-C , 13-H ) :   0.9442
B(  5-C ,  6-C ) :   2.0114 B(  5-C , 14-H ) :   0.9565 B(  6-C , 15-H ) :   0.9462
B(  6-C , 16-H ) :   0.9458

FINAL SINGLE POINT ENERGY      -309.185196248677

DIPOLE MOMENT
-------------
                                X             Y             Z
Electronic contribution:      0.17566       2.12918      -1.27548
Nuclear contribution   :     -0.50766      -1.66906       1.63836
                        -----------------------------------------
Total Dipole Moment    :     -0.33200       0.46012       0.36288
                        -----------------------------------------
Magnitude (a.u.)       :      0.67351
Magnitude (Debye)      :      1.71192

                             ****ORCA TERMINATED NORMALLY****
TOTAL RUN TIME: 0 days 0 hours 0 minutes 7 seconds 394 msec
