                         Program Version 3.0.3 - RELEASE   -
|  1> ! RI PBE def2-SVP def2-SVP/J NBO PAL2
|  2> % maxcore 2000
|  3> % output
|  4>     # printlevel mini
|  5>     print[ P_Basis ] 0
|  6>     print[ P_SCFInfo ] 1
|  7>     print[ P_SCFIterInfo ] 1
|  8>     print[ P_OrbEn ] 0
|  9>     print[ P_Cartesian ] 0
| 10> end
| 11> *xyz 0 1
| 12>  O        2.7903900000     1.1568500000     0.4778530000
| 13>  C        2.4423770000    -0.1577740000     0.1139540000
| 14>  C        3.0088060000    -0.4525240000    -1.2775290000
| 15>  C        2.4902490000     0.5223370000    -2.3008970000
| 16>  C        1.7275930000     0.1774430000    -3.3264840000
| 17>  C        4.4686410000    -0.4708000000    -1.2619460000
| 18>  C        5.6686350000    -0.4879130000    -1.2543240000
| 19>  H        2.5463390000     1.2987570000     1.3943410000
| 20>  H        1.3520370000    -0.2818460000     0.0676400000
| 21>  H        2.8490940000    -0.8908910000     0.8217150000
| 22>  H        2.6585740000    -1.4558370000    -1.5494460000
| 23>  H        2.7743920000     1.5579010000    -2.1437310000
| 24>  H        1.4402020000    -0.8550390000    -3.5019940000
| 25>  H        1.3653440000     0.9147610000    -4.0333250000
| 26>  H        6.7326470000    -0.5002950000    -1.2493370000
| 27> *
| 28>
| 29>                          ****END OF INPUT****
 Total Charge           Charge          ....    0
 Multiplicity           Mult            ....    1
 Number of Electrons    NEL             ....   52
 Basis Dimension        Dim             ....  138

MULLIKEN ATOMIC CHARGES
-----------------------
   0 O :   -0.267413
   1 C :    0.184578
   2 C :   -0.039922
   3 C :   -0.021516
   4 C :   -0.032155
   5 C :    0.427279
   6 C :   -0.513813
   7 H :    0.159846
   8 H :    0.005315
   9 H :    0.011978
  10 H :    0.022871
  11 H :    0.022946
  12 H :    0.016484
  13 H :    0.030282
  14 H :   -0.006759
Sum of atomic charges:    0.0000000

LOEWDIN ATOMIC CHARGES
----------------------
   0 O :   -0.117050
   1 C :    0.074414
   2 C :   -0.059501
   3 C :   -0.005437
   4 C :   -0.059350
   5 C :   -0.007432
   6 C :   -0.084578
   7 H :    0.075527
   8 H :    0.006283
   9 H :    0.010193
  10 H :    0.051871
  11 H :    0.033399
  12 H :    0.021167
  13 H :    0.027345
  14 H :    0.033148

  Mayer bond orders larger than 0.1
B(  0-O ,  1-C ) :   1.1062 B(  0-O ,  7-H ) :   0.9788 B(  1-C ,  2-C ) :   1.0391
B(  1-C ,  8-H ) :   0.9287 B(  1-C ,  9-H ) :   0.9286 B(  2-C ,  3-C ) :   1.0075
B(  2-C ,  5-C ) :   0.9735 B(  2-C , 10-H ) :   0.8737 B(  3-C ,  4-C ) :   2.0098
B(  3-C , 11-H ) :   0.9573 B(  4-C , 12-H ) :   0.9449 B(  4-C , 13-H ) :   0.9455
B(  5-C ,  6-C ) :   2.3176 B(  5-C , 14-H ) :  -0.1217 B(  6-C , 14-H ) :   1.1124

FINAL SINGLE POINT ENERGY      -307.939761573545

DIPOLE MOMENT
-------------
                                X             Y             Z
Electronic contribution:      2.96275       0.56638       1.15323
Nuclear contribution   :     -3.39842      -0.79666      -0.60575
                        -----------------------------------------
Total Dipole Moment    :     -0.43567      -0.23028       0.54748
                        -----------------------------------------
Magnitude (a.u.)       :      0.73659
Magnitude (Debye)      :      1.87227

                             ****ORCA TERMINATED NORMALLY****
TOTAL RUN TIME: 0 days 0 hours 0 minutes 6 seconds 847 msec
