                         Program Version 3.0.3 - RELEASE   -
|  1> ! RI PBE def2-SVP def2-SVP/J NBO PAL2
|  2> % maxcore 2000
|  3> % output
|  4>     # printlevel mini
|  5>     print[ P_Basis ] 0
|  6>     print[ P_SCFInfo ] 1
|  7>     print[ P_SCFIterInfo ] 1
|  8>     print[ P_OrbEn ] 0
|  9>     print[ P_Cartesian ] 0
| 10> end
| 11> *xyz 0 1
| 12>  O        2.5117620000     0.2869690000    -1.3733870000
| 13>  C        2.1628820000    -0.0495360000    -0.0624470000
| 14>  C        2.7788140000     0.9285880000     0.9656550000
| 15>  C        2.3348910000     0.6042950000     2.3162540000
| 16>  C        1.9353380000     0.3102760000     3.4078470000
| 17>  C        4.2344310000     0.9225220000     0.8413510000
| 18>  C        5.4220280000     0.8891430000     0.6726570000
| 19>  H        3.4708710000     0.2354540000    -1.4487200000
| 20>  H        2.4672070000    -1.0695620000     0.2016010000
| 21>  H        1.0762920000     0.0148430000     0.0087430000
| 22>  H        2.4202420000     1.9332000000     0.7071210000
| 23>  H        1.5892830000     0.0578290000     4.3823060000
| 24>  H        6.4795910000     0.8712590000     0.5510380000
| 25> *
| 26>
| 27>                          ****END OF INPUT****
 Total Charge           Charge          ....    0
 Multiplicity           Mult            ....    1
 Number of Electrons    NEL             ....   50
 Basis Dimension        Dim             ....  128

MULLIKEN ATOMIC CHARGES
-----------------------
   0 O :   -0.264381
   1 C :    0.184024
   2 C :    0.027137
   3 C :    0.401791
   4 C :   -0.500422
   5 C :    0.363911
   6 C :   -0.487925
   7 H :    0.159001
   8 H :    0.018427
   9 H :    0.032850
  10 H :    0.056401
  11 H :    0.003420
  12 H :    0.005767
Sum of atomic charges:   -0.0000000

LOEWDIN ATOMIC CHARGES
----------------------
   0 O :   -0.105037
   1 C :    0.078419
   2 C :   -0.071419
   3 C :   -0.010253
   4 C :   -0.066709
   5 C :   -0.011920
   6 C :   -0.071754
   7 H :    0.070345
   8 H :    0.012917
   9 H :    0.029244
  10 H :    0.069247
  11 H :    0.038132
  12 H :    0.038789

  Mayer bond orders larger than 0.1
B(  0-O ,  1-C ) :   1.0989 B(  0-O ,  7-H ) :   0.9739 B(  1-C ,  2-C ) :   0.9972
B(  1-C ,  8-H ) :   0.9305 B(  1-C ,  9-H ) :   0.9388 B(  2-C ,  3-C ) :   0.9496
B(  2-C ,  5-C ) :   0.9666 B(  2-C , 10-H ) :   0.8391 B(  3-C ,  4-C ) :   2.3430
B(  3-C , 11-H ) :  -0.1168 B(  4-C , 11-H ) :   1.1066 B(  5-C ,  6-C ) :   2.3440
B(  5-C , 12-H ) :  -0.1196 B(  6-C , 12-H ) :   1.1103

FINAL SINGLE POINT ENERGY      -306.698034175238

DIPOLE MOMENT
-------------
                                X             Y             Z
Electronic contribution:      0.90342       0.97383       0.88943
Nuclear contribution   :     -0.60007      -1.07471      -0.70287
                        -----------------------------------------
Total Dipole Moment    :      0.30335      -0.10087       0.18656
                        -----------------------------------------
Magnitude (a.u.)       :      0.37014
Magnitude (Debye)      :      0.94081

                             ****ORCA TERMINATED NORMALLY****
TOTAL RUN TIME: 0 days 0 hours 0 minutes 5 seconds 977 msec
