                         Program Version 3.0.3 - RELEASE   -
|  1> ! RI PBE def2-SVP def2-SVP/J NBO PAL2
|  2> % maxcore 2000
|  3> % output
|  4>     # printlevel mini
|  5>     print[ P_Basis ] 0
|  6>     print[ P_SCFInfo ] 1
|  7>     print[ P_SCFIterInfo ] 1
|  8>     print[ P_OrbEn ] 0
|  9>     print[ P_Cartesian ] 0
| 10> end
| 11> *xyz 0 1
| 12>  O        1.0535710000     0.5305020000    -0.0090040000
| 13>  C        2.3551750000    -0.0232170000    -0.0581020000
| 14>  C        2.8765150000     0.0513100000    -1.4114630000
| 15>  C        3.3283790000     0.0976910000    -2.5240560000
| 16>  C        3.8747320000     0.1794040000    -3.8710990000
| 17>  C        5.0074500000     1.1587460000    -3.9853560000
| 18>  C        6.2042240000     0.8602080000    -4.4657970000
| 19>  H        0.7398110000     0.4586230000     0.8961170000
| 20>  H        2.3486100000    -1.0756800000     0.2594020000
| 21>  H        3.0391000000     0.5155980000     0.6130580000
| 22>  H        3.0652450000     0.4792610000    -4.5493860000
| 23>  H        4.2047870000    -0.8107630000    -4.2013960000
| 24>  H        4.7935560000     2.1681840000    -3.6437750000
| 25>  H        6.4467650000    -0.1429670000    -4.8028700000
| 26>  H        6.9860810000     1.6069000000    -4.5392730000
| 27> *
| 28>
| 29>                          ****END OF INPUT****
 Total Charge           Charge          ....    0
 Multiplicity           Mult            ....    1
 Number of Electrons    NEL             ....   52
 Basis Dimension        Dim             ....  138

MULLIKEN ATOMIC CHARGES
-----------------------
   0 O :   -0.266160
   1 C :    0.200690
   2 C :   -0.138253
   3 C :   -0.153034
   4 C :    0.137255
   5 C :   -0.081166
   6 C :   -0.038614
   7 H :    0.152767
   8 H :    0.018927
   9 H :    0.021075
  10 H :    0.052619
  11 H :    0.028200
  12 H :    0.015019
  13 H :    0.018874
  14 H :    0.031801
Sum of atomic charges:    0.0000000

LOEWDIN ATOMIC CHARGES
----------------------
   0 O :   -0.123588
   1 C :    0.049127
   2 C :   -0.069059
   3 C :   -0.043038
   4 C :   -0.044807
   5 C :   -0.018411
   6 C :   -0.061942
   7 H :    0.069478
   8 H :    0.025105
   9 H :    0.025845
  10 H :    0.061296
  11 H :    0.049583
  12 H :    0.030357
  13 H :    0.022470
  14 H :    0.027584

  Mayer bond orders larger than 0.1
B(  0-O ,  1-C ) :   1.1407 B(  0-O ,  7-H ) :   0.9785 B(  1-C ,  2-C ) :   1.0369
B(  1-C ,  8-H ) :   0.9121 B(  1-C ,  9-H ) :   0.9080 B(  2-C ,  3-C ) :   2.6902
B(  3-C ,  4-C ) :   1.0438 B(  4-C ,  5-C ) :   1.0459 B(  4-C , 10-H ) :   0.8817
B(  4-C , 11-H ) :   0.8987 B(  5-C ,  6-C ) :   2.0186 B(  5-C , 12-H ) :   0.9565
B(  6-C , 13-H ) :   0.9479 B(  6-C , 14-H ) :   0.9469

FINAL SINGLE POINT ENERGY      -307.945741362969

DIPOLE MOMENT
-------------
                                X             Y             Z
Electronic contribution:     -3.44793      -0.11904       2.23361
Nuclear contribution   :      3.65323      -0.09085      -1.81709
                        -----------------------------------------
Total Dipole Moment    :      0.20530      -0.20989       0.41652
                        -----------------------------------------
Magnitude (a.u.)       :      0.50960
Magnitude (Debye)      :      1.29529

                             ****ORCA TERMINATED NORMALLY****
TOTAL RUN TIME: 0 days 0 hours 0 minutes 6 seconds 652 msec
