                         Program Version 3.0.3 - RELEASE   -
|  1> ! RI PBE def2-SVP def2-SVP/J NBO PAL2
|  2> % maxcore 2000
|  3> % output
|  4>     # printlevel mini
|  5>     print[ P_Basis ] 0
|  6>     print[ P_SCFInfo ] 1
|  7>     print[ P_SCFIterInfo ] 1
|  8>     print[ P_OrbEn ] 0
|  9>     print[ P_Cartesian ] 0
| 10> end
| 11> *xyz 0 1
| 12>  O        1.9125580000    -0.7723060000     0.7811480000
| 13>  C        2.3151620000     0.2480880000    -0.1114900000
| 14>  C        2.7675680000    -0.3382500000    -1.3611960000
| 15>  C        3.1390830000    -0.7973220000    -2.4059130000
| 16>  C        3.5976880000    -1.3762750000    -3.6627850000
| 17>  C        2.8369610000    -0.9339990000    -4.8262590000
| 18>  C        2.2227810000    -0.5775830000    -5.7919860000
| 19>  H        1.6103950000    -0.3510630000     1.5898870000
| 20>  H        3.1329270000     0.8468660000     0.3139880000
| 21>  H        1.4857100000     0.9354240000    -0.3299830000
| 22>  H        3.5427730000    -2.4690320000    -3.5919360000
| 23>  H        4.6565800000    -1.1359190000    -3.8138000000
| 24>  H        1.6728150000    -0.2590300000    -6.6455740000
| 25> *
| 26>
| 27>                          ****END OF INPUT****
 Total Charge           Charge          ....    0
 Multiplicity           Mult            ....    1
 Number of Electrons    NEL             ....   50
 Basis Dimension        Dim             ....  128

MULLIKEN ATOMIC CHARGES
-----------------------
   0 O :   -0.266548
   1 C :    0.200030
   2 C :   -0.136138
   3 C :   -0.142344
   4 C :    0.164148
   5 C :    0.298157
   6 C :   -0.455460
   7 H :    0.155877
   8 H :    0.021290
   9 H :    0.026701
  10 H :    0.070795
  11 H :    0.061981
  12 H :    0.001511
Sum of atomic charges:   -0.0000000

LOEWDIN ATOMIC CHARGES
----------------------
   0 O :   -0.121879
   1 C :    0.049455
   2 C :   -0.055481
   3 C :   -0.039952
   4 C :   -0.047252
   5 C :   -0.016983
   6 C :   -0.073925
   7 H :    0.071084
   8 H :    0.025853
   9 H :    0.028128
  10 H :    0.074709
  11 H :    0.070275
  12 H :    0.035966

  Mayer bond orders larger than 0.1
B(  0-O ,  1-C ) :   1.1408 B(  0-O ,  7-H ) :   0.9771 B(  1-C ,  2-C ) :   1.0327
B(  1-C ,  8-H ) :   0.9102 B(  1-C ,  9-H ) :   0.9104 B(  2-C ,  3-C ) :   2.7195
B(  3-C ,  4-C ) :   1.0337 B(  4-C ,  5-C ) :   1.0419 B(  4-C , 10-H ) :   0.8715
B(  4-C , 11-H ) :   0.8729 B(  5-C ,  6-C ) :   2.4011 B(  5-C , 12-H ) :  -0.1066
B(  6-C , 12-H ) :   1.0978

FINAL SINGLE POINT ENERGY      -306.698652193674

DIPOLE MOMENT
-------------
                                X             Y             Z
Electronic contribution:     -0.08512      -0.82747      -1.07624
Nuclear contribution   :      0.16789       1.31359       1.39043
                        -----------------------------------------
Total Dipole Moment    :      0.08277       0.48612       0.31420
                        -----------------------------------------
Magnitude (a.u.)       :      0.58470
Magnitude (Debye)      :      1.48620

                             ****ORCA TERMINATED NORMALLY****
TOTAL RUN TIME: 0 days 0 hours 0 minutes 5 seconds 848 msec
