                         Program Version 3.0.3 - RELEASE   -
|  1> ! RI PBE def2-SVP def2-SVP/J NBO PAL2
|  2> % maxcore 2000
|  3> % output
|  4>     # printlevel mini
|  5>     print[ P_Basis ] 0
|  6>     print[ P_SCFInfo ] 1
|  7>     print[ P_SCFIterInfo ] 1
|  8>     print[ P_OrbEn ] 0
|  9>     print[ P_Cartesian ] 0
| 10> end
| 11> *xyz 0 1
| 12>  O        1.6550410000    -0.5904420000     2.7608250000
| 13>  C        2.2378000000    -1.8756790000     2.6697410000
| 14>  C        3.0484460000    -1.9396660000     1.3876650000
| 15>  C        4.1960570000    -0.9898060000     1.3726690000
| 16>  C        5.4701610000    -1.3356730000     1.1737980000
| 17>  C        6.5725020000    -0.3972380000     1.1657890000
| 18>  C        7.8473420000    -0.7322480000     0.9669290000
| 19>  H        1.2045370000    -0.5150050000     3.6044060000
| 20>  H        1.4633140000    -2.6547600000     2.6475020000
| 21>  H        2.8928820000    -2.0725070000     3.5292590000
| 22>  H        2.3673580000    -1.7121880000     0.5579040000
| 23>  H        3.4038220000    -2.9645020000     1.2447300000
| 24>  H        3.9527270000     0.0562830000     1.5451230000
| 25>  H        5.7196040000    -2.3823570000     1.0023350000
| 26>  H        6.3165520000     0.6466370000     1.3361160000
| 27>  H        8.1389330000    -1.7632640000     0.7929990000
| 28>  H        8.6367440000     0.0092160000     0.9707210000
| 29> *
| 30>
| 31>                          ****END OF INPUT****
 Total Charge           Charge          ....    0
 Multiplicity           Mult            ....    1
 Number of Electrons    NEL             ....   54
 Basis Dimension        Dim             ....  148

MULLIKEN ATOMIC CHARGES
-----------------------
   0 O :   -0.283409
   1 C :    0.136231
   2 C :    0.051703
   3 C :   -0.084309
   4 C :    0.013638
   5 C :   -0.008150
   6 C :   -0.037322
   7 H :    0.156753
   8 H :    0.004217
   9 H :   -0.000390
  10 H :    0.030453
  11 H :    0.003633
  12 H :    0.005862
  13 H :   -0.019766
  14 H :   -0.008954
  15 H :    0.014698
  16 H :    0.025111
Sum of atomic charges:   -0.0000000

LOEWDIN ATOMIC CHARGES
----------------------
   0 O :   -0.130290
   1 C :    0.061040
   2 C :   -0.051656
   3 C :   -0.020448
   4 C :   -0.045640
   5 C :   -0.031707
   6 C :   -0.059928
   7 H :    0.072454
   8 H :    0.005033
   9 H :    0.004399
  10 H :    0.039936
  11 H :    0.031862
  12 H :    0.026242
  13 H :    0.023779
  14 H :    0.028793
  15 H :    0.021328
  16 H :    0.024804

  Mayer bond orders larger than 0.1
B(  0-O ,  1-C ) :   1.0856 B(  0-O ,  7-H ) :   0.9803 B(  1-C ,  2-C ) :   1.0757
B(  1-C ,  8-H ) :   0.9345 B(  1-C ,  9-H ) :   0.9319 B(  2-C ,  3-C ) :   1.0566
B(  2-C , 10-H ) :   0.9047 B(  2-C , 11-H ) :   0.9242 B(  3-C ,  4-C ) :   1.7813
B(  3-C ,  6-C ) :   0.1372 B(  3-C , 12-H ) :   0.9630 B(  4-C ,  5-C ) :   1.1389
B(  4-C , 13-H ) :   0.9595 B(  5-C ,  6-C ) :   1.8838 B(  5-C , 14-H ) :   0.9625
B(  6-C , 15-H ) :   0.9486 B(  6-C , 16-H ) :   0.9428

FINAL SINGLE POINT ENERGY      -309.200682378229

DIPOLE MOMENT
-------------
                                X             Y             Z
Electronic contribution:     -1.20209       1.63455       0.23182
Nuclear contribution   :      0.82723      -1.98215       0.26811
                        -----------------------------------------
Total Dipole Moment    :     -0.37485      -0.34759       0.49992
                        -----------------------------------------
Magnitude (a.u.)       :      0.71502
Magnitude (Debye)      :      1.81745

                             ****ORCA TERMINATED NORMALLY****
TOTAL RUN TIME: 0 days 0 hours 0 minutes 7 seconds 373 msec
