                         Program Version 3.0.3 - RELEASE   -
|  1> ! RI PBE def2-SVP def2-SVP/J NBO PAL2
|  2> % maxcore 2000
|  3> % output
|  4>     # printlevel mini
|  5>     print[ P_Basis ] 0
|  6>     print[ P_SCFInfo ] 1
|  7>     print[ P_SCFIterInfo ] 1
|  8>     print[ P_OrbEn ] 0
|  9>     print[ P_Cartesian ] 0
| 10> end
| 11> *xyz 0 1
| 12>  O        2.5989840000     0.6802010000    -1.1062060000
| 13>  C        2.2322620000    -0.0664920000     0.0361150000
| 14>  C        2.8305190000     0.6123820000     1.2556190000
| 15>  C        4.3191990000     0.6115700000     1.2497900000
| 16>  C        5.0709800000     0.1274030000     2.2416960000
| 17>  C        6.4882710000     0.1247870000     2.2400060000
| 18>  C        7.6914980000     0.1068020000     2.2716650000
| 19>  H        2.2993260000     0.2152340000    -1.8900350000
| 20>  H        2.6033430000    -1.0981020000    -0.0305590000
| 21>  H        1.1398410000    -0.1051070000     0.1455820000
| 22>  H        2.4533690000     0.1226640000     2.1581970000
| 23>  H        2.4650360000     1.6468260000     1.2671280000
| 24>  H        4.8023770000     1.0308720000     0.3723550000
| 25>  H        4.5917910000    -0.2955340000     3.1227850000
| 26>  H        8.7553030000     0.0966940000     2.2895730000
| 27> *
| 28>
| 29>                          ****END OF INPUT****
 Total Charge           Charge          ....    0
 Multiplicity           Mult            ....    1
 Number of Electrons    NEL             ....   52
 Basis Dimension        Dim             ....  138

MULLIKEN ATOMIC CHARGES
-----------------------
   0 O :   -0.281655
   1 C :    0.127822
   2 C :    0.037567
   3 C :   -0.041494
   4 C :   -0.071847
   5 C :    0.382043
   6 C :   -0.410117
   7 H :    0.157737
   8 H :    0.005361
   9 H :    0.009713
  10 H :    0.007897
  11 H :    0.035418
  12 H :    0.018859
  13 H :    0.020847
  14 H :    0.001849
Sum of atomic charges:   -0.0000000

LOEWDIN ATOMIC CHARGES
----------------------
   0 O :   -0.128845
   1 C :    0.060836
   2 C :   -0.051499
   3 C :    0.007415
   4 C :   -0.064825
   5 C :   -0.018379
   6 C :   -0.072989
   7 H :    0.073382
   8 H :    0.006281
   9 H :    0.006769
  10 H :    0.033063
  11 H :    0.042352
  12 H :    0.033509
  13 H :    0.039077
  14 H :    0.033852

  Mayer bond orders larger than 0.1
B(  0-O ,  1-C ) :   1.0867 B(  0-O ,  7-H ) :   0.9793 B(  1-C ,  2-C ) :   1.0759
B(  1-C ,  8-H ) :   0.9318 B(  1-C ,  9-H ) :   0.9347 B(  2-C ,  3-C ) :   1.0628
B(  2-C , 10-H ) :   0.9235 B(  2-C , 11-H ) :   0.9047 B(  3-C ,  4-C ) :   1.8130
B(  3-C ,  6-C ) :   0.1297 B(  3-C , 12-H ) :   0.9639 B(  4-C ,  5-C ) :   1.0532
B(  4-C , 13-H ) :   0.9342 B(  5-C ,  6-C ) :   2.2819 B(  6-C , 14-H ) :   1.0889

FINAL SINGLE POINT ENERGY      -307.954101407464

DIPOLE MOMENT
-------------
                                X             Y             Z
Electronic contribution:      4.41636       0.45957       0.68132
Nuclear contribution   :     -5.10333      -0.87963      -0.97646
                        -----------------------------------------
Total Dipole Moment    :     -0.68697      -0.42005      -0.29514
                        -----------------------------------------
Magnitude (a.u.)       :      0.85760
Magnitude (Debye)      :      2.17984

                             ****ORCA TERMINATED NORMALLY****
TOTAL RUN TIME: 0 days 0 hours 0 minutes 6 seconds 459 msec
