                         Program Version 3.0.3 - RELEASE   -
|  1> ! RI PBE def2-SVP def2-SVP/J NBO PAL2
|  2> % maxcore 2000
|  3> % output
|  4>     # printlevel mini
|  5>     print[ P_Basis ] 0
|  6>     print[ P_SCFInfo ] 1
|  7>     print[ P_SCFIterInfo ] 1
|  8>     print[ P_OrbEn ] 0
|  9>     print[ P_Cartesian ] 0
| 10> end
| 11> *xyz 0 1
| 12>  O        0.8837620000     0.5162770000     1.7667380000
| 13>  C        2.2808960000     0.7281990000     1.8183990000
| 14>  C        2.9554340000    -0.4945280000     1.2215460000
| 15>  C        4.4533880000    -0.4256800000     1.3064620000
| 16>  C        5.1893950000    -0.0665360000     0.2497880000
| 17>  C        5.1191920000    -0.7420140000     2.5682130000
| 18>  C        4.5339990000    -1.1714060000     3.6851820000
| 19>  H        0.4436900000     1.2878880000     2.1297020000
| 20>  H        2.6199430000     0.8784380000     2.8511440000
| 21>  H        2.5688780000     1.6168610000     1.2407970000
| 22>  H        2.6466770000    -0.5841920000     0.1776890000
| 23>  H        2.5808640000    -1.3810470000     1.7418150000
| 24>  H        4.7349360000     0.1607660000    -0.7079270000
| 25>  H        6.2698700000     0.0038420000     0.3139450000
| 26>  H        6.1996570000    -0.6160610000     2.5618770000
| 27>  H        3.4628510000    -1.3230630000     3.7585170000
| 28>  H        5.1182680000    -1.3924530000     4.5701240000
| 29> *
| 30>
| 31>                          ****END OF INPUT****
 Total Charge           Charge          ....    0
 Multiplicity           Mult            ....    1
 Number of Electrons    NEL             ....   54
 Basis Dimension        Dim             ....  148

MULLIKEN ATOMIC CHARGES
-----------------------
   0 O :   -0.278516
   1 C :    0.156842
   2 C :    0.049148
   3 C :   -0.095024
   4 C :   -0.035952
   5 C :   -0.006480
   6 C :   -0.041012
   7 H :    0.154784
   8 H :   -0.002119
   9 H :   -0.006325
  10 H :    0.009655
  11 H :    0.019350
  12 H :    0.013693
  13 H :    0.017192
  14 H :   -0.010236
  15 H :    0.028654
  16 H :    0.026345
Sum of atomic charges:   -0.0000000

LOEWDIN ATOMIC CHARGES
----------------------
   0 O :   -0.130749
   1 C :    0.063020
   2 C :   -0.040649
   3 C :   -0.029972
   4 C :   -0.047562
   5 C :   -0.027128
   6 C :   -0.055067
   7 H :    0.070981
   8 H :    0.003312
   9 H :    0.004333
  10 H :    0.033006
  11 H :    0.031872
  12 H :    0.022163
  13 H :    0.021833
  14 H :    0.029880
  15 H :    0.023658
  16 H :    0.027069

  Mayer bond orders larger than 0.1
B(  0-O ,  1-C ) :   1.0955 B(  0-O ,  7-H ) :   0.9793 B(  1-C ,  2-C ) :   1.0849
B(  1-C ,  8-H ) :   0.9362 B(  1-C ,  9-H ) :   0.9302 B(  2-C ,  3-C ) :   1.0426
B(  2-C , 10-H ) :   0.9118 B(  2-C , 11-H ) :   0.9034 B(  3-C ,  4-C ) :   1.8827
B(  3-C ,  5-C ) :   1.1144 B(  4-C ,  6-C ) :   0.1395 B(  4-C , 12-H ) :   0.9326
B(  4-C , 13-H ) :   0.9420 B(  5-C ,  6-C ) :   1.8974 B(  5-C , 14-H ) :   0.9553
B(  6-C , 15-H ) :   0.9364 B(  6-C , 16-H ) :   0.9417

FINAL SINGLE POINT ENERGY      -309.196343961769

DIPOLE MOMENT
-------------
                                X             Y             Z
Electronic contribution:     -1.21403      -0.07663      -0.31167
Nuclear contribution   :      1.29188       0.57904       0.53015
                        -----------------------------------------
Total Dipole Moment    :      0.07785       0.50242       0.21848
                        -----------------------------------------
Magnitude (a.u.)       :      0.55337
Magnitude (Debye)      :      1.40655

                             ****ORCA TERMINATED NORMALLY****
TOTAL RUN TIME: 0 days 0 hours 0 minutes 7 seconds 955 msec
