                         Program Version 3.0.3 - RELEASE   -
|  1> ! RI PBE def2-SVP def2-SVP/J NBO PAL2
|  2> % maxcore 2000
|  3> % output
|  4>     # printlevel mini
|  5>     print[ P_Basis ] 0
|  6>     print[ P_SCFInfo ] 1
|  7>     print[ P_SCFIterInfo ] 1
|  8>     print[ P_OrbEn ] 0
|  9>     print[ P_Cartesian ] 0
| 10> end
| 11> *xyz 0 1
| 12>  O        0.8811830000     0.0832450000     0.2277120000
| 13>  C        2.2638590000     0.1312640000    -0.0594540000
| 14>  C        2.9977770000    -0.4575230000     1.1298300000
| 15>  C        4.4872420000    -0.5058140000     0.9260430000
| 16>  C        5.3403480000     0.2079820000     1.6648070000
| 17>  C        4.9648250000    -1.3616330000    -0.1110040000
| 18>  C        5.3289910000    -2.0982570000    -0.9901150000
| 19>  H        0.3997010000     0.4238110000    -0.5291600000
| 20>  H        2.5999410000     1.1648020000    -0.2215990000
| 21>  H        2.5033850000    -0.4456690000    -0.9619490000
| 22>  H        2.6155810000    -1.4696230000     1.2971280000
| 23>  H        2.7708590000     0.1336080000     2.0198900000
| 24>  H        4.9791020000     0.8553040000     2.4555360000
| 25>  H        6.4093440000     0.1568750000     1.5007860000
| 26>  H        5.6651820000    -2.7474830000    -1.7635610000
| 27> *
| 28>
| 29>                          ****END OF INPUT****
 Total Charge           Charge          ....    0
 Multiplicity           Mult            ....    1
 Number of Electrons    NEL             ....   52
 Basis Dimension        Dim             ....  138

MULLIKEN ATOMIC CHARGES
-----------------------
   0 O :   -0.277070
   1 C :    0.140355
   2 C :    0.082212
   3 C :   -0.173239
   4 C :    0.002244
   5 C :    0.430241
   6 C :   -0.466546
   7 H :    0.156013
   8 H :   -0.003008
   9 H :    0.010641
  10 H :    0.033072
  11 H :    0.008565
  12 H :    0.021770
  13 H :    0.030054
  14 H :    0.004696
Sum of atomic charges:   -0.0000000

LOEWDIN ATOMIC CHARGES
----------------------
   0 O :   -0.129131
   1 C :    0.061724
   2 C :   -0.030925
   3 C :   -0.044968
   4 C :   -0.029637
   5 C :   -0.010057
   6 C :   -0.068238
   7 H :    0.071992
   8 H :    0.005251
   9 H :    0.008094
  10 H :    0.040529
  11 H :    0.032414
  12 H :    0.025907
  13 H :    0.030640
  14 H :    0.036404

  Mayer bond orders larger than 0.1
B(  0-O ,  1-C ) :   1.0991 B(  0-O ,  7-H ) :   0.9791 B(  1-C ,  2-C ) :   1.0849
B(  1-C ,  8-H ) :   0.9272 B(  1-C ,  9-H ) :   0.9382 B(  2-C ,  3-C ) :   1.0379
B(  2-C , 10-H ) :   0.9105 B(  2-C , 11-H ) :   0.9102 B(  3-C ,  4-C ) :   1.9106
B(  3-C ,  5-C ) :   0.9967 B(  4-C ,  6-C ) :   0.1273 B(  4-C , 12-H ) :   0.9326
B(  4-C , 13-H ) :   0.9402 B(  5-C ,  6-C ) :   2.2470 B(  5-C , 14-H ) :  -0.1075
B(  6-C , 14-H ) :   1.0976

FINAL SINGLE POINT ENERGY      -307.951233648622

DIPOLE MOMENT
-------------
                                X             Y             Z
Electronic contribution:      0.90894      -1.81601      -1.02550
Nuclear contribution   :     -0.92831       2.07736       0.57572
                        -----------------------------------------
Total Dipole Moment    :     -0.01937       0.26134      -0.44977
                        -----------------------------------------
Magnitude (a.u.)       :      0.52055
Magnitude (Debye)      :      1.32313

                             ****ORCA TERMINATED NORMALLY****
TOTAL RUN TIME: 0 days 0 hours 0 minutes 7 seconds 40 msec
