                         Program Version 3.0.3 - RELEASE   -
|  1> ! RI PBE def2-SVP def2-SVP/J NBO PAL2
|  2> % maxcore 2000
|  3> % output
|  4>     # printlevel mini
|  5>     print[ P_Basis ] 0
|  6>     print[ P_SCFInfo ] 1
|  7>     print[ P_SCFIterInfo ] 1
|  8>     print[ P_OrbEn ] 0
|  9>     print[ P_Cartesian ] 0
| 10> end
| 11> *xyz 0 1
| 12>  O        1.0145260000     0.0303750000    -0.0272090000
| 13>  C        2.4149920000     0.1150120000    -0.1772190000
| 14>  C        2.9455520000    -1.3080370000    -0.2441190000
| 15>  C        4.3869140000    -1.3544530000    -0.4019300000
| 16>  C        5.5853620000    -1.3607540000    -0.5377980000
| 17>  C        6.9945260000    -1.4237590000    -0.6790600000
| 18>  C        7.7574060000    -0.4358320000    -1.1467870000
| 19>  H        0.6555400000     0.9189790000     0.0189680000
| 20>  H        2.8797490000     0.6370910000     0.6687980000
| 21>  H        2.6899700000     0.6489270000    -1.0958170000
| 22>  H        2.4596530000    -1.8246450000    -1.0789160000
| 23>  H        2.6489960000    -1.8384290000     0.6668010000
| 24>  H        7.4608900000    -2.3581200000    -0.3748630000
| 25>  H        7.3308130000     0.5095460000    -1.4601690000
| 26>  H        8.8308720000    -0.5551000000    -1.2252800000
| 27> *
| 28>
| 29>                          ****END OF INPUT****
 Total Charge           Charge          ....    0
 Multiplicity           Mult            ....    1
 Number of Electrons    NEL             ....   52
 Basis Dimension        Dim             ....  138

MULLIKEN ATOMIC CHARGES
-----------------------
   0 O :   -0.271013
   1 C :    0.117685
   2 C :    0.063142
   3 C :   -0.078542
   4 C :   -0.077088
   5 C :   -0.096350
   6 C :   -0.014085
   7 H :    0.157122
   8 H :    0.012189
   9 H :    0.011401
  10 H :    0.043882
  11 H :    0.041621
  12 H :    0.029406
  13 H :    0.027159
  14 H :    0.033472
Sum of atomic charges:   -0.0000000

LOEWDIN ATOMIC CHARGES
----------------------
   0 O :   -0.127125
   1 C :    0.065991
   2 C :   -0.054701
   3 C :   -0.036206
   4 C :   -0.059647
   5 C :   -0.046591
   6 C :   -0.033309
   7 H :    0.073764
   8 H :    0.008371
   9 H :    0.008215
  10 H :    0.051852
  11 H :    0.050615
  12 H :    0.043219
  13 H :    0.027839
  14 H :    0.027714

  Mayer bond orders larger than 0.1
B(  0-O ,  1-C ) :   1.1062 B(  0-O ,  7-H ) :   0.9773 B(  1-C ,  2-C ) :   1.0654
B(  1-C ,  8-H ) :   0.9411 B(  1-C ,  9-H ) :   0.9397 B(  2-C ,  3-C ) :   1.0264
B(  2-C , 10-H ) :   0.8944 B(  2-C , 11-H ) :   0.8957 B(  3-C ,  4-C ) :   2.4771
B(  3-C ,  6-C ) :   0.1280 B(  4-C ,  5-C ) :   1.0559 B(  5-C ,  6-C ) :   1.9205
B(  5-C , 12-H ) :   0.9457 B(  6-C , 13-H ) :   0.9517 B(  6-C , 14-H ) :   0.9428

FINAL SINGLE POINT ENERGY      -307.959392761475

DIPOLE MOMENT
-------------
                                X             Y             Z
Electronic contribution:     -0.57379      -1.51423       0.32293
Nuclear contribution   :      0.51567       2.06354      -0.30642
                        -----------------------------------------
Total Dipole Moment    :     -0.05812       0.54931       0.01650
                        -----------------------------------------
Magnitude (a.u.)       :      0.55262
Magnitude (Debye)      :      1.40465

                             ****ORCA TERMINATED NORMALLY****
TOTAL RUN TIME: 0 days 0 hours 0 minutes 6 seconds 733 msec
