                         Program Version 3.0.3 - RELEASE   -
|  1> ! RI PBE def2-SVP def2-SVP/J NBO PAL2
|  2> % maxcore 2000
|  3> % output
|  4>     # printlevel mini
|  5>     print[ P_Basis ] 0
|  6>     print[ P_SCFInfo ] 1
|  7>     print[ P_SCFIterInfo ] 1
|  8>     print[ P_OrbEn ] 0
|  9>     print[ P_Cartesian ] 0
| 10> end
| 11> *xyz 0 1
| 12>  O        1.0488670000     0.1442350000    -0.0767060000
| 13>  C        2.4545870000     0.0610440000    -0.0104380000
| 14>  C        3.0043090000     1.1741170000    -0.8907040000
| 15>  C        4.4511570000     1.2003920000    -0.9109500000
| 16>  C        5.6592010000     1.2041830000    -0.9134450000
| 17>  C        7.0225990000     1.2149310000    -0.9219870000
| 18>  C        8.2282290000     1.2238730000    -0.9272030000
| 19>  H        0.6725140000    -0.5481750000     0.4707980000
| 20>  H        2.8201910000    -0.9066040000    -0.3765360000
| 21>  H        2.8197300000     0.1946270000     1.0156530000
| 22>  H        2.6185880000     2.1331900000    -0.5288710000
| 23>  H        2.6190370000     1.0426850000    -1.9074710000
| 24>  H        9.2922420000     1.2330510000    -0.9334390000
| 25> *
| 26>
| 27>                          ****END OF INPUT****
 Total Charge           Charge          ....    0
 Multiplicity           Mult            ....    1
 Number of Electrons    NEL             ....   50
 Basis Dimension        Dim             ....  128

MULLIKEN ATOMIC CHARGES
-----------------------
   0 O :   -0.269009
   1 C :    0.117824
   2 C :    0.063434
   3 C :   -0.103726
   4 C :   -0.027131
   5 C :    0.355044
   6 C :   -0.432637
   7 H :    0.159530
   8 H :    0.014266
   9 H :    0.016371
  10 H :    0.047031
  11 H :    0.048580
  12 H :    0.010422
Sum of atomic charges:    0.0000000

LOEWDIN ATOMIC CHARGES
----------------------
   0 O :   -0.124828
   1 C :    0.068178
   2 C :   -0.053046
   3 C :    0.002498
   4 C :   -0.070519
   5 C :   -0.030654
   6 C :   -0.035544
   7 H :    0.075475
   8 H :    0.009594
   9 H :    0.010115
  10 H :    0.054886
  11 H :    0.055268
  12 H :    0.038577

  Mayer bond orders larger than 0.1
B(  0-O ,  1-C ) :   1.1103 B(  0-O ,  7-H ) :   0.9766 B(  1-C ,  2-C ) :   1.0622
B(  1-C ,  8-H ) :   0.9405 B(  1-C ,  9-H ) :   0.9399 B(  2-C ,  3-C ) :   1.0321
B(  2-C , 10-H ) :   0.8932 B(  2-C , 11-H ) :   0.8911 B(  3-C ,  4-C ) :   2.3676
B(  3-C ,  6-C ) :   0.2625 B(  4-C ,  5-C ) :   0.9392 B(  5-C ,  6-C ) :   2.1451
B(  5-C , 12-H ) :  -0.1088 B(  6-C , 12-H ) :   1.0980

FINAL SINGLE POINT ENERGY      -306.721553243058

DIPOLE MOMENT
-------------
                                X             Y             Z
Electronic contribution:      4.58290       1.28084      -1.01226
Nuclear contribution   :     -4.89621      -1.75077       1.38402
                        -----------------------------------------
Total Dipole Moment    :     -0.31331      -0.46993       0.37177
                        -----------------------------------------
Magnitude (a.u.)       :      0.67617
Magnitude (Debye)      :      1.71869

                             ****ORCA TERMINATED NORMALLY****
TOTAL RUN TIME: 0 days 0 hours 0 minutes 6 seconds 74 msec
