                         Program Version 3.0.3 - RELEASE   -
|  1> ! RI PBE def2-SVP def2-SVP/J NBO PAL2
|  2> % maxcore 2000
|  3> % output
|  4>     # printlevel mini
|  5>     print[ P_Basis ] 0
|  6>     print[ P_SCFInfo ] 1
|  7>     print[ P_SCFIterInfo ] 1
|  8>     print[ P_OrbEn ] 0
|  9>     print[ P_Cartesian ] 0
| 10> end
| 11> *xyz 0 1
| 12>  O        2.7447650000     0.1290070000    -1.2898030000
| 13>  C        2.0997980000    -0.2128960000    -0.0761840000
| 14>  C        2.5984160000    -1.5663250000     0.3732500000
| 15>  C        4.0849830000    -1.5869210000     0.6909940000
| 16>  C        4.5937910000    -2.9611750000     1.1260270000
| 17>  C        4.0253150000    -3.4217480000     2.4274510000
| 18>  C        3.3393740000    -4.5404460000     2.6174630000
| 19>  H        2.4493450000     1.0009100000    -1.5594500000
| 20>  H        1.0103150000    -0.2487570000    -0.2135210000
| 21>  H        2.3129320000     0.5364100000     0.7008640000
| 22>  H        2.3800950000    -2.2969650000    -0.4142720000
| 23>  H        2.0220130000    -1.8736510000     1.2520960000
| 24>  H        4.2968180000    -0.8562440000     1.4822380000
| 25>  H        4.6430870000    -1.2577860000    -0.1889800000
| 26>  H        5.6858690000    -2.9124860000     1.2170870000
| 27>  H        4.3769770000    -3.7013480000     0.3482210000
| 28>  H        4.2005050000    -2.7636970000     3.2787330000
| 29>  H        3.1378850000    -5.2257190000     1.7994040000
| 30>  H        2.9593360000    -4.8164740000     3.5944840000
| 31> *
| 32>
| 33>                          ****END OF INPUT****
 Total Charge           Charge          ....    0
 Multiplicity           Mult            ....    1
 Number of Electrons    NEL             ....   56
 Basis Dimension        Dim             ....  158

MULLIKEN ATOMIC CHARGES
-----------------------
   0 O :   -0.282888
   1 C :    0.148402
   2 C :   -0.029113
   3 C :   -0.043951
   4 C :    0.072390
   5 C :   -0.098179
   6 C :   -0.030174
   7 H :    0.153650
   8 H :    0.002956
   9 H :   -0.007645
  10 H :    0.011381
  11 H :    0.013380
  12 H :    0.001231
  13 H :    0.021683
  14 H :    0.025931
  15 H :    0.004062
  16 H :    0.001059
  17 H :    0.017242
  18 H :    0.018583
Sum of atomic charges:   -0.0000000

LOEWDIN ATOMIC CHARGES
----------------------
   0 O :   -0.131152
   1 C :    0.055028
   2 C :   -0.055091
   3 C :   -0.038796
   4 C :   -0.043573
   5 C :   -0.030258
   6 C :   -0.069620
   7 H :    0.070044
   8 H :    0.004949
   9 H :    0.002115
  10 H :    0.027017
  11 H :    0.028677
  12 H :    0.020169
  13 H :    0.027526
  14 H :    0.037344
  15 H :    0.027735
  16 H :    0.024020
  17 H :    0.021071
  18 H :    0.022795

  Mayer bond orders larger than 0.1
B(  0-O ,  1-C ) :   1.0815 B(  0-O ,  7-H ) :   0.9806 B(  1-C ,  2-C ) :   1.1051
B(  1-C ,  8-H ) :   0.9345 B(  1-C ,  9-H ) :   0.9259 B(  2-C ,  3-C ) :   1.0884
B(  2-C , 10-H ) :   0.9261 B(  2-C , 11-H ) :   0.9225 B(  3-C ,  4-C ) :   1.0881
B(  3-C , 12-H ) :   0.9363 B(  3-C , 13-H ) :   0.9258 B(  4-C ,  5-C ) :   1.0638
B(  4-C , 14-H ) :   0.9102 B(  4-C , 15-H ) :   0.9247 B(  5-C ,  6-C ) :   2.0060
B(  5-C , 16-H ) :   0.9544 B(  6-C , 17-H ) :   0.9459 B(  6-C , 18-H ) :   0.9428

FINAL SINGLE POINT ENERGY      -310.410829296660

DIPOLE MOMENT
-------------
                                X             Y             Z
Electronic contribution:      0.10223       1.55747      -1.84050
Nuclear contribution   :     -0.38434      -1.05006       1.94266
                        -----------------------------------------
Total Dipole Moment    :     -0.28211       0.50741       0.10216
                        -----------------------------------------
Magnitude (a.u.)       :      0.58949
Magnitude (Debye)      :      1.49836

                             ****ORCA TERMINATED NORMALLY****
TOTAL RUN TIME: 0 days 0 hours 0 minutes 8 seconds 56 msec
