                         Program Version 3.0.3 - RELEASE   -
|  1> ! RI PBE def2-SVP def2-SVP/J NBO PAL2
|  2> % maxcore 2000
|  3> % output
|  4>     # printlevel mini
|  5>     print[ P_Basis ] 0
|  6>     print[ P_SCFInfo ] 1
|  7>     print[ P_SCFIterInfo ] 1
|  8>     print[ P_OrbEn ] 0
|  9>     print[ P_Cartesian ] 0
| 10> end
| 11> *xyz 0 1
| 12>  O        0.6024000000    -0.6736070000     0.9168070000
| 13>  C        1.9446330000    -0.5009490000     0.5087520000
| 14>  C        2.8038280000    -1.4725100000     1.2831770000
| 15>  C        4.2742090000    -1.3698240000     0.9174060000
| 16>  C        5.1344870000    -2.3561520000     1.7076720000
| 17>  C        6.5468280000    -2.2778880000     1.3753970000
| 18>  C        7.7098320000    -2.1983800000     1.0875340000
| 19>  H        0.0512720000    -0.0577450000     0.4291920000
| 20>  H        2.2841870000     0.5274160000     0.7005040000
| 21>  H        2.0544210000    -0.6880440000    -0.5694730000
| 22>  H        2.4369510000    -2.4874050000     1.0953080000
| 23>  H        2.6656980000    -1.2826680000     2.3531260000
| 24>  H        4.6402240000    -0.3546740000     1.1017490000
| 25>  H        4.4123160000    -1.5581410000    -0.1521320000
| 26>  H        4.7814310000    -3.3780210000     1.5281970000
| 27>  H        5.0095490000    -2.1750460000     2.7812980000
| 28>  H        8.7417140000    -2.1322720000     0.8362780000
| 29> *
| 30>
| 31>                          ****END OF INPUT****
 Total Charge           Charge          ....    0
 Multiplicity           Mult            ....    1
 Number of Electrons    NEL             ....   54
 Basis Dimension        Dim             ....  148

MULLIKEN ATOMIC CHARGES
-----------------------
   0 O :   -0.273623
   1 C :    0.156820
   2 C :   -0.022068
   3 C :   -0.079375
   4 C :    0.088233
   5 C :    0.351776
   6 C :   -0.511255
   7 H :    0.154927
   8 H :   -0.007163
   9 H :   -0.003769
  10 H :    0.014734
  11 H :    0.018044
  12 H :    0.023268
  13 H :    0.026132
  14 H :    0.032391
  15 H :    0.034930
  16 H :   -0.004001
Sum of atomic charges:   -0.0000000

LOEWDIN ATOMIC CHARGES
----------------------
   0 O :   -0.129353
   1 C :    0.056606
   2 C :   -0.052800
   3 C :   -0.029580
   4 C :   -0.045373
   5 C :   -0.020699
   6 C :   -0.094315
   7 H :    0.070859
   8 H :    0.002167
   9 H :    0.002986
  10 H :    0.026632
  11 H :    0.027579
  12 H :    0.027642
  13 H :    0.028491
  14 H :    0.047651
  15 H :    0.048455
  16 H :    0.033052

  Mayer bond orders larger than 0.1
B(  0-O ,  1-C ) :   1.1093 B(  0-O ,  7-H ) :   0.9788 B(  1-C ,  2-C ) :   1.0849
B(  1-C ,  8-H ) :   0.9324 B(  1-C ,  9-H ) :   0.9321 B(  2-C ,  3-C ) :   1.0744
B(  2-C , 10-H ) :   0.9306 B(  2-C , 11-H ) :   0.9289 B(  3-C ,  4-C ) :   1.0752
B(  3-C , 12-H ) :   0.9394 B(  3-C , 13-H ) :   0.9376 B(  4-C ,  5-C ) :   1.0606
B(  4-C , 14-H ) :   0.8952 B(  4-C , 15-H ) :   0.8929 B(  5-C ,  6-C ) :   2.3232
B(  5-C , 16-H ) :  -0.1122 B(  6-C , 16-H ) :   1.1030

FINAL SINGLE POINT ENERGY      -309.167493081187

DIPOLE MOMENT
-------------
                                X             Y             Z
Electronic contribution:      2.13731      -0.87928       0.44862
Nuclear contribution   :     -2.38114       1.28800      -0.79811
                        -----------------------------------------
Total Dipole Moment    :     -0.24384       0.40871      -0.34949
                        -----------------------------------------
Magnitude (a.u.)       :      0.59046
Magnitude (Debye)      :      1.50083

                             ****ORCA TERMINATED NORMALLY****
TOTAL RUN TIME: 0 days 0 hours 0 minutes 7 seconds 419 msec
