                         Program Version 3.0.3 - RELEASE   -
|  1> ! RI PBE def2-SVP def2-SVP/J NBO PAL2
|  2> % maxcore 2000
|  3> % output
|  4>     # printlevel mini
|  5>     print[ P_Basis ] 0
|  6>     print[ P_SCFInfo ] 1
|  7>     print[ P_SCFIterInfo ] 1
|  8>     print[ P_OrbEn ] 0
|  9>     print[ P_Cartesian ] 0
| 10> end
| 11> *xyz 0 1
| 12>  O        0.9354780000    -0.4165860000    -0.8329650000
| 13>  C        2.2885990000    -0.4780500000    -0.4256890000
| 14>  C        2.3917450000    -1.4202670000     0.7502620000
| 15>  C        3.8146830000    -1.5637030000     1.2640730000
| 16>  C        3.9245220000    -2.5024000000     2.4546430000
| 17>  C        5.3465570000    -2.7003080000     2.9453750000
| 18>  O        6.1991320000    -3.2795520000     1.9768650000
| 19>  H        0.8673930000     0.1807850000    -1.5807140000
| 20>  H        2.6554950000     0.5172620000    -0.1349600000
| 21>  H        2.9285480000    -0.8381160000    -1.2443830000
| 22>  H        2.0004060000    -2.3977000000     0.4474280000
| 23>  H        1.7350340000    -1.0554140000     1.5476390000
| 24>  H        4.2041570000    -0.5788720000     1.5512220000
| 25>  H        4.4673400000    -1.9261710000     0.4632180000
| 26>  H        3.4957870000    -3.4801840000     2.1955970000
| 27>  H        3.3212930000    -2.1215600000     3.2876620000
| 28>  H        5.3436340000    -3.2979990000     3.8672570000
| 29>  H        5.7969400000    -1.7336770000     3.1886700000
| 30>  H        5.8659450000    -4.1570890000     1.7720010000
| 31> *
| 32>
| 33>                          ****END OF INPUT****
 Total Charge           Charge          ....    0
 Multiplicity           Mult            ....    1
 Number of Electrons    NEL             ....   58
 Basis Dimension        Dim             ....  158

MULLIKEN ATOMIC CHARGES
-----------------------
   0 O :   -0.274894
   1 C :    0.158802
   2 C :   -0.016055
   3 C :   -0.040368
   4 C :   -0.052126
   5 C :    0.191566
   6 O :   -0.290552
   7 H :    0.152034
   8 H :   -0.010195
   9 H :   -0.008009
  10 H :    0.009008
  11 H :    0.011389
  12 H :    0.002269
  13 H :    0.007547
  14 H :   -0.000334
  15 H :    0.005391
  16 H :    0.000111
  17 H :    0.002619
  18 H :    0.151797
Sum of atomic charges:    0.0000000

LOEWDIN ATOMIC CHARGES
----------------------
   0 O :   -0.131064
   1 C :    0.056005
   2 C :   -0.051511
   3 C :   -0.041708
   4 C :   -0.064196
   5 C :    0.054699
   6 O :   -0.123953
   7 H :    0.069212
   8 H :    0.001193
   9 H :    0.001843
  10 H :    0.024513
  11 H :    0.024804
  12 H :    0.021707
  13 H :    0.020374
  14 H :    0.018833
  15 H :    0.027719
  16 H :    0.004830
  17 H :    0.019896
  18 H :    0.066802

  Mayer bond orders larger than 0.1
B(  0-O ,  1-C ) :   1.1036 B(  0-O ,  7-H ) :   0.9799 B(  1-C ,  2-C ) :   1.0910
B(  1-C ,  8-H ) :   0.9315 B(  1-C ,  9-H ) :   0.9324 B(  2-C ,  3-C ) :   1.0759
B(  2-C , 10-H ) :   0.9291 B(  2-C , 11-H ) :   0.9289 B(  3-C ,  4-C ) :   1.0887
B(  3-C , 12-H ) :   0.9338 B(  3-C , 13-H ) :   0.9280 B(  4-C ,  5-C ) :   1.0838
B(  4-C , 14-H ) :   0.9278 B(  4-C , 15-H ) :   0.9154 B(  5-C ,  6-O ) :   1.0521
B(  5-C , 16-H ) :   0.9378 B(  5-C , 17-H ) :   0.9309 B(  6-O , 18-H ) :   0.9855

FINAL SINGLE POINT ENERGY      -347.488276780868

DIPOLE MOMENT
-------------
                                X             Y             Z
Electronic contribution:     -0.07558      -0.32057      -1.76838
Nuclear contribution   :     -0.01252       0.31843       1.66877
                        -----------------------------------------
Total Dipole Moment    :     -0.08810      -0.00215      -0.09961
                        -----------------------------------------
Magnitude (a.u.)       :      0.13300
Magnitude (Debye)      :      0.33805

                             ****ORCA TERMINATED NORMALLY****
TOTAL RUN TIME: 0 days 0 hours 0 minutes 7 seconds 326 msec
