                         Program Version 3.0.3 - RELEASE   -
|  1> ! RI PBE def2-SVP def2-SVP/J NBO PAL2
|  2> % maxcore 2000
|  3> % output
|  4>     # printlevel mini
|  5>     print[ P_Basis ] 0
|  6>     print[ P_SCFInfo ] 1
|  7>     print[ P_SCFIterInfo ] 1
|  8>     print[ P_OrbEn ] 0
|  9>     print[ P_Cartesian ] 0
| 10> end
| 11> *xyz 0 1
| 12>  O        2.4766930000     0.7656120000    -1.4130980000
| 13>  C        2.2080410000    -0.4015920000    -1.4414230000
| 14>  C        3.1490880000    -1.5094590000    -1.0417550000
| 15>  C        4.5282210000    -1.0584390000    -0.7274640000
| 16>  C        5.6424440000    -1.6711060000    -1.1247710000
| 17>  C        6.9564790000    -1.1477410000    -0.7465260000
| 18>  O        8.0049760000    -1.6541360000    -1.0563300000
| 19>  H        1.2023200000    -0.7482530000    -1.7612110000
| 20>  H        3.1329210000    -2.2834980000    -1.8163810000
| 21>  H        2.6894950000    -1.9779470000    -0.1567300000
| 22>  H        4.6117150000    -0.1525690000    -0.1305220000
| 23>  H        5.6287790000    -2.5695390000    -1.7355840000
| 24>  H        6.9263270000    -0.2208230000    -0.1333040000
| 25> *
| 26>
| 27>                          ****END OF INPUT****
 Total Charge           Charge          ....    0
 Multiplicity           Mult            ....    1
 Number of Electrons    NEL             ....   52
 Basis Dimension        Dim             ....  128

MULLIKEN ATOMIC CHARGES
-----------------------
   0 O :   -0.147434
   1 C :    0.080076
   2 C :    0.036305
   3 C :   -0.036793
   4 C :   -0.022570
   5 C :    0.121642
   6 O :   -0.163553
   7 H :    0.002601
   8 H :    0.049885
   9 H :    0.069132
  10 H :    0.027006
  11 H :    0.006485
  12 H :   -0.022783
Sum of atomic charges:    0.0000000

LOEWDIN ATOMIC CHARGES
----------------------
   0 O :   -0.097192
   1 C :    0.097965
   2 C :   -0.086365
   3 C :    0.024174
   4 C :   -0.069361
   5 C :    0.070057
   6 O :   -0.111119
   7 H :   -0.006324
   8 H :    0.053187
   9 H :    0.069511
  10 H :    0.033777
  11 H :    0.033027
  12 H :   -0.011337

  Mayer bond orders larger than 0.1
B(  0-O ,  1-C ) :   2.2037 B(  1-C ,  2-C ) :   0.9468 B(  1-C ,  7-H ) :   0.9273
B(  2-C ,  3-C ) :   1.0321 B(  2-C ,  8-H ) :   0.9118 B(  2-C ,  9-H ) :   0.8799
B(  3-C ,  4-C ) :   1.7568 B(  3-C ,  6-O ) :   0.1031 B(  3-C , 10-H ) :   0.9546
B(  4-C ,  5-C ) :   1.0370 B(  4-C , 11-H ) :   0.9642 B(  5-C ,  6-O ) :   2.1135
B(  5-C , 12-H ) :   0.9315

FINAL SINGLE POINT ENERGY      -343.884316615464

DIPOLE MOMENT
-------------
                                X             Y             Z
Electronic contribution:      2.45614       1.56441      -0.50129
Nuclear contribution   :     -3.80607      -2.18149       0.71736
                        -----------------------------------------
Total Dipole Moment    :     -1.34993      -0.61709       0.21607
                        -----------------------------------------
Magnitude (a.u.)       :      1.49993
Magnitude (Debye)      :      3.81253

                             ****ORCA TERMINATED NORMALLY****
TOTAL RUN TIME: 0 days 0 hours 0 minutes 5 seconds 668 msec
