                         Program Version 3.0.3 - RELEASE   -
|  1> ! RI PBE def2-SVP def2-SVP/J NBO PAL2
|  2> % maxcore 2000
|  3> % output
|  4>     # printlevel mini
|  5>     print[ P_Basis ] 0
|  6>     print[ P_SCFInfo ] 1
|  7>     print[ P_SCFIterInfo ] 1
|  8>     print[ P_OrbEn ] 0
|  9>     print[ P_Cartesian ] 0
| 10> end
| 11> *xyz 0 1
| 12>  O        1.0286980000     0.3300600000    -0.1297920000
| 13>  C        2.0755030000     0.2942820000     0.4442870000
| 14>  C        2.8623200000    -0.9940520000     0.6435140000
| 15>  C        4.2912680000    -0.7935070000     0.5624370000
| 16>  C        5.4719250000    -0.5592200000     0.4946940000
| 17>  C        6.8932490000    -0.3496290000     0.3957090000
| 18>  O        7.4465270000     0.6750780000     0.7002610000
| 19>  H        2.5365440000     1.1995040000     0.8877450000
| 20>  H        2.5078480000    -1.7410280000    -0.0707840000
| 21>  H        2.6097360000    -1.3612450000     1.6484550000
| 22>  H        7.4577720000    -1.2196620000     0.0098850000
| 23> *
| 24>
| 25>                          ****END OF INPUT****
 Total Charge           Charge          ....    0
 Multiplicity           Mult            ....    1
 Number of Electrons    NEL             ....   50
 Basis Dimension        Dim             ....  118

MULLIKEN ATOMIC CHARGES
-----------------------
   0 O :   -0.136712
   1 C :    0.084033
   2 C :    0.084762
   3 C :   -0.092526
   4 C :   -0.055516
   5 C :    0.076071
   6 O :   -0.150543
   7 H :    0.021238
   8 H :    0.066171
   9 H :    0.083180
  10 H :    0.019841
Sum of atomic charges:    0.0000000

LOEWDIN ATOMIC CHARGES
----------------------
   0 O :   -0.079682
   1 C :    0.109570
   2 C :   -0.081880
   3 C :   -0.000480
   4 C :   -0.080559
   5 C :    0.069207
   6 O :   -0.089938
   7 H :    0.001809
   8 H :    0.064596
   9 H :    0.081761
  10 H :    0.005598

  Mayer bond orders larger than 0.1
B(  0-O ,  1-C ) :   2.1962 B(  1-C ,  2-C ) :   0.9214 B(  1-C ,  7-H ) :   0.9303
B(  2-C ,  3-C ) :   1.0266 B(  2-C ,  8-H ) :   0.8896 B(  2-C ,  9-H ) :   0.8771
B(  3-C ,  4-C ) :   2.6079 B(  3-C ,  6-O ) :   0.1164 B(  4-C ,  5-C ) :   0.8985
B(  5-C ,  6-O ) :   2.1381 B(  5-C , 10-H ) :   0.9425

FINAL SINGLE POINT ENERGY      -342.634681820454

DIPOLE MOMENT
-------------
                                X             Y             Z
Electronic contribution:      1.48716       1.37322      -0.40973
Nuclear contribution   :     -1.84399      -2.28793       0.67200
                        -----------------------------------------
Total Dipole Moment    :     -0.35683      -0.91471       0.26228
                        -----------------------------------------
Magnitude (a.u.)       :      1.01627
Magnitude (Debye)      :      2.58315

                             ****ORCA TERMINATED NORMALLY****
TOTAL RUN TIME: 0 days 0 hours 0 minutes 4 seconds 999 msec
