                         Program Version 3.0.3 - RELEASE   -
|  1> ! RI PBE def2-SVP def2-SVP/J NBO PAL2
|  2> % maxcore 2000
|  3> % output
|  4>     # printlevel mini
|  5>     print[ P_Basis ] 0
|  6>     print[ P_SCFInfo ] 1
|  7>     print[ P_SCFIterInfo ] 1
|  8>     print[ P_OrbEn ] 0
|  9>     print[ P_Cartesian ] 0
| 10> end
| 11> *xyz 0 1
| 12>  O        1.4096710000     0.1461660000     0.5101000000
| 13>  C        2.2071490000     0.1005280000    -0.3857660000
| 14>  C        2.8114550000    -1.1555360000    -0.9358770000
| 15>  C        4.3374930000    -1.1126650000    -0.8838720000
| 16>  C        4.9852290000    -2.3252410000    -1.5263640000
| 17>  C        4.8971220000    -2.3719380000    -3.0233840000
| 18>  O        4.4271640000    -1.5069290000    -3.7111100000
| 19>  H        2.5589780000     1.0374780000    -0.8740000000
| 20>  H        2.4951780000    -1.2353050000    -1.9827560000
| 21>  H        2.4115730000    -2.0085040000    -0.3822810000
| 22>  H        4.6628560000    -1.0439210000     0.1579640000
| 23>  H        4.6940920000    -0.2110500000    -1.3911360000
| 24>  H        4.5683890000    -3.2649080000    -1.1404360000
| 25>  H        6.0558510000    -2.3773960000    -1.2852050000
| 26>  H        5.3245100000    -3.2880810000    -3.4861770000
| 27> *
| 28>
| 29>                          ****END OF INPUT****
 Total Charge           Charge          ....    0
 Multiplicity           Mult            ....    1
 Number of Electrons    NEL             ....   54
 Basis Dimension        Dim             ....  138

MULLIKEN ATOMIC CHARGES
-----------------------
   0 O :   -0.160416
   1 C :    0.079611
   2 C :    0.019362
   3 C :   -0.039153
   4 C :    0.000927
   5 C :    0.078876
   6 O :   -0.162648
   7 H :   -0.008874
   8 H :    0.047124
   9 H :    0.014892
  10 H :    0.023854
  11 H :    0.029980
  12 H :    0.033978
  13 H :    0.045627
  14 H :   -0.003140
Sum of atomic charges:   -0.0000000

LOEWDIN ATOMIC CHARGES
----------------------
   0 O :   -0.106496
   1 C :    0.092168
   2 C :   -0.076216
   3 C :   -0.032682
   4 C :   -0.082441
   5 C :    0.094829
   6 O :   -0.108795
   7 H :   -0.011450
   8 H :    0.046624
   9 H :    0.030535
  10 H :    0.031654
  11 H :    0.031097
  12 H :    0.046094
  13 H :    0.053627
  14 H :   -0.008548

  Mayer bond orders larger than 0.1
B(  0-O ,  1-C ) :   2.1884 B(  1-C ,  2-C ) :   0.9819 B(  1-C ,  7-H ) :   0.9191
B(  2-C ,  3-C ) :   1.0621 B(  2-C ,  8-H ) :   0.9041 B(  2-C ,  9-H ) :   0.9223
B(  3-C ,  4-C ) :   1.0920 B(  3-C , 10-H ) :   0.9328 B(  3-C , 11-H ) :   0.9313
B(  4-C ,  5-C ) :   0.9778 B(  4-C , 12-H ) :   0.9043 B(  4-C , 13-H ) :   0.9005
B(  5-C ,  6-O ) :   2.1583 B(  5-C , 14-H ) :   0.9254

FINAL SINGLE POINT ENERGY      -345.098514292041

DIPOLE MOMENT
-------------
                                X             Y             Z
Electronic contribution:     -2.89667       2.07210      -0.99854
Nuclear contribution   :      3.92634      -2.86150       0.95932
                        -----------------------------------------
Total Dipole Moment    :      1.02967      -0.78940      -0.03922
                        -----------------------------------------
Magnitude (a.u.)       :      1.29804
Magnitude (Debye)      :      3.29936

                             ****ORCA TERMINATED NORMALLY****
TOTAL RUN TIME: 0 days 0 hours 0 minutes 6 seconds 411 msec
