                         Program Version 3.0.3 - RELEASE   -
|  1> ! RI PBE def2-SVP def2-SVP/J NBO PAL2
|  2> % maxcore 2000
|  3> % output
|  4>     # printlevel mini
|  5>     print[ P_Basis ] 0
|  6>     print[ P_SCFInfo ] 1
|  7>     print[ P_SCFIterInfo ] 1
|  8>     print[ P_OrbEn ] 0
|  9>     print[ P_Cartesian ] 0
| 10> end
| 11> *xyz 0 1
| 12>  O        1.1722130000     1.7721560000     0.3697000000
| 13>  C        2.2977810000     0.9357310000     0.2185410000
| 14>  C        2.3001180000    -0.2670790000     1.1524410000
| 15>  C        2.3901970000     0.1154040000     2.5924000000
| 16>  C        3.3113690000    -0.3367050000     3.4312060000
| 17>  C        2.4631980000     0.5373260000    -1.2380510000
| 18>  O        3.0390230000    -0.4415010000    -1.6209850000
| 19>  H        0.3784640000     1.2355570000     0.2814630000
| 20>  H        3.1618200000     1.5732880000     0.4509670000
| 21>  H        3.1261270000    -0.9237540000     0.8699790000
| 22>  H        1.3764890000    -0.8353540000     0.9700570000
| 23>  H        1.6430190000     0.8206750000     2.9490540000
| 24>  H        4.0751300000    -1.0391260000     3.1111660000
| 25>  H        3.3349330000    -0.0238670000     4.4686230000
| 26>  H        1.9966400000     1.2571700000    -1.9465600000
| 27> *
| 28>
| 29>                          ****END OF INPUT****
 Total Charge           Charge          ....    0
 Multiplicity           Mult            ....    1
 Number of Electrons    NEL             ....   54
 Basis Dimension        Dim             ....  138

MULLIKEN ATOMIC CHARGES
-----------------------
   0 O :   -0.270558
   1 C :    0.083305
   2 C :    0.043006
   3 C :   -0.063182
   4 C :   -0.033492
   5 C :    0.092433
   6 O :   -0.145632
   7 H :    0.157726
   8 H :    0.042018
   9 H :    0.024720
  10 H :    0.018045
  11 H :    0.003769
  12 H :    0.022414
  13 H :    0.028236
  14 H :   -0.002809
Sum of atomic charges:    0.0000000

LOEWDIN ATOMIC CHARGES
----------------------
   0 O :   -0.098677
   1 C :    0.003207
   2 C :   -0.048945
   3 C :   -0.031067
   4 C :   -0.059519
   5 C :    0.075944
   6 O :   -0.094541
   7 H :    0.071324
   8 H :    0.046984
   9 H :    0.038411
  10 H :    0.033432
  11 H :    0.024177
  12 H :    0.022963
  13 H :    0.026222
  14 H :   -0.009916

  Mayer bond orders larger than 0.1
B(  0-O ,  1-C ) :   1.0174 B(  0-O ,  7-H ) :   0.9823 B(  1-C ,  2-C ) :   1.0360
B(  1-C ,  5-C ) :   0.9052 B(  1-C ,  8-H ) :   0.8747 B(  2-C ,  3-C ) :   1.0585
B(  2-C ,  9-H ) :   0.9059 B(  2-C , 10-H ) :   0.9133 B(  3-C ,  4-C ) :   2.0154
B(  3-C , 11-H ) :   0.9518 B(  4-C , 12-H ) :   0.9494 B(  4-C , 13-H ) :   0.9434
B(  5-C ,  6-O ) :   2.1849 B(  5-C , 14-H ) :   0.9234

FINAL SINGLE POINT ENERGY      -345.071499616972

DIPOLE MOMENT
-------------
                                X             Y             Z
Electronic contribution:     -0.40336       0.78004      -5.23633
Nuclear contribution   :     -0.08179      -0.69238       5.54174
                        -----------------------------------------
Total Dipole Moment    :     -0.48515       0.08767       0.30541
                        -----------------------------------------
Magnitude (a.u.)       :      0.57994
Magnitude (Debye)      :      1.47409

                             ****ORCA TERMINATED NORMALLY****
TOTAL RUN TIME: 0 days 0 hours 0 minutes 6 seconds 228 msec
