                         Program Version 3.0.3 - RELEASE   -
|  1> ! RI PBE def2-SVP def2-SVP/J NBO PAL2
|  2> % maxcore 2000
|  3> % output
|  4>     # printlevel mini
|  5>     print[ P_Basis ] 0
|  6>     print[ P_SCFInfo ] 1
|  7>     print[ P_SCFIterInfo ] 1
|  8>     print[ P_OrbEn ] 0
|  9>     print[ P_Cartesian ] 0
| 10> end
| 11> *xyz 0 1
| 12>  O        0.9495040000    -0.3157570000     0.0682260000
| 13>  C        2.3492130000    -0.2665760000     0.1273280000
| 14>  C        2.8744410000     0.3540250000     1.4243790000
| 15>  C        2.4008740000     1.7181070000     1.5713760000
| 16>  C        1.9597360000     2.8326100000     1.6484290000
| 17>  C        2.8510160000    -1.6842000000    -0.0383810000
| 18>  O        3.9678450000    -2.0273820000     0.2276110000
| 19>  H        0.6143660000     0.5758660000     0.2109330000
| 20>  H        2.7604960000     0.3059320000    -0.7208430000
| 21>  H        3.9669620000     0.3172090000     1.4151460000
| 22>  H        2.5349590000    -0.2488110000     2.2727610000
| 23>  H        1.5927210000     3.8280260000     1.7373070000
| 24>  H        2.0953670000    -2.3876490000    -0.4448820000
| 25> *
| 26>
| 27>                          ****END OF INPUT****
 Total Charge           Charge          ....    0
 Multiplicity           Mult            ....    1
 Number of Electrons    NEL             ....   52
 Basis Dimension        Dim             ....  128

MULLIKEN ATOMIC CHARGES
-----------------------
   0 O :   -0.257997
   1 C :    0.055785
   2 C :    0.097454
   3 C :    0.308580
   4 C :   -0.482299
   5 C :    0.118342
   6 O :   -0.154294
   7 H :    0.164686
   8 H :    0.037479
   9 H :    0.053895
  10 H :    0.042288
  11 H :    0.006832
  12 H :    0.009248
Sum of atomic charges:   -0.0000000

LOEWDIN ATOMIC CHARGES
----------------------
   0 O :   -0.103155
   1 C :    0.010586
   2 C :   -0.052478
   3 C :   -0.029620
   4 C :   -0.083487
   5 C :    0.098028
   6 O :   -0.094648
   7 H :    0.075359
   8 H :    0.032066
   9 H :    0.057483
  10 H :    0.054163
  11 H :    0.038060
  12 H :   -0.002356

  Mayer bond orders larger than 0.1
B(  0-O ,  1-C ) :   1.0741 B(  0-O ,  7-H ) :   0.9667 B(  1-C ,  2-C ) :   1.0320
B(  1-C ,  5-C ) :   0.9003 B(  1-C ,  8-H ) :   0.8778 B(  2-C ,  3-C ) :   1.0676
B(  2-C ,  9-H ) :   0.8733 B(  2-C , 10-H ) :   0.8876 B(  3-C ,  4-C ) :   2.3241
B(  3-C , 11-H ) :  -0.1092 B(  4-C , 11-H ) :   1.0999 B(  5-C ,  6-O ) :   2.1816
B(  5-C , 12-H ) :   0.9301

FINAL SINGLE POINT ENERGY      -343.830113499378

DIPOLE MOMENT
-------------
                                X             Y             Z
Electronic contribution:      0.70238      -1.45514      -0.42778
Nuclear contribution   :     -1.14307       2.18494       0.38630
                        -----------------------------------------
Total Dipole Moment    :     -0.44069       0.72980      -0.04149
                        -----------------------------------------
Magnitude (a.u.)       :      0.85354
Magnitude (Debye)      :      2.16954

                             ****ORCA TERMINATED NORMALLY****
TOTAL RUN TIME: 0 days 0 hours 0 minutes 6 seconds 176 msec
