                         Program Version 3.0.3 - RELEASE   -
|  1> ! RI PBE def2-SVP def2-SVP/J NBO PAL2
|  2> % maxcore 2000
|  3> % output
|  4>     # printlevel mini
|  5>     print[ P_Basis ] 0
|  6>     print[ P_SCFInfo ] 1
|  7>     print[ P_SCFIterInfo ] 1
|  8>     print[ P_OrbEn ] 0
|  9>     print[ P_Cartesian ] 0
| 10> end
| 11> *xyz 0 1
| 12>  O        1.6386040000    -0.7978160000     0.7601160000
| 13>  C        2.6294840000     0.0241930000     0.1718290000
| 14>  C        2.9608640000    -0.5234560000    -1.1713520000
| 15>  C        4.1909230000    -0.8083030000    -1.5799040000
| 16>  C        4.5444320000    -1.2993620000    -2.9485280000
| 17>  C        5.2041000000    -0.1985090000    -3.7440450000
| 18>  O        6.3326320000    -0.2272800000    -4.1466840000
| 19>  H        1.3035900000    -0.3569150000     1.5442240000
| 20>  H        3.5360460000     0.0685240000     0.7901590000
| 21>  H        2.2548640000     1.0526000000     0.0565960000
| 22>  H        2.1122620000    -0.6897360000    -1.8324790000
| 23>  H        5.0257000000    -0.6525730000    -0.8988110000
| 24>  H        3.6329730000    -1.5948050000    -3.4801130000
| 25>  H        5.2290400000    -2.1495580000    -2.9083940000
| 26>  H        4.5557860000     0.6869860000    -3.9250320000
| 27> *
| 28>
| 29>                          ****END OF INPUT****
 Total Charge           Charge          ....    0
 Multiplicity           Mult            ....    1
 Number of Electrons    NEL             ....   54
 Basis Dimension        Dim             ....  138

MULLIKEN ATOMIC CHARGES
-----------------------
   0 O :   -0.283643
   1 C :    0.206859
   2 C :   -0.067417
   3 C :   -0.101216
   4 C :    0.088993
   5 C :    0.077693
   6 O :   -0.155198
   7 H :    0.155163
   8 H :   -0.001825
   9 H :    0.013036
  10 H :    0.004981
  11 H :    0.012085
  12 H :    0.032713
  13 H :    0.029278
  14 H :   -0.011503
Sum of atomic charges:   -0.0000000

LOEWDIN ATOMIC CHARGES
----------------------
   0 O :   -0.129111
   1 C :    0.056536
   2 C :   -0.039293
   3 C :   -0.033022
   4 C :   -0.073562
   5 C :    0.093755
   6 O :   -0.101640
   7 H :    0.070387
   8 H :    0.008773
   9 H :    0.015924
  10 H :    0.027051
  11 H :    0.027419
  12 H :    0.047312
  13 H :    0.041725
  14 H :   -0.012253

  Mayer bond orders larger than 0.1
B(  0-O ,  1-C ) :   1.0721 B(  0-O ,  7-H ) :   0.9784 B(  1-C ,  2-C ) :   1.0516
B(  1-C ,  8-H ) :   0.9300 B(  1-C ,  9-H ) :   0.9118 B(  2-C ,  3-C ) :   1.8998
B(  2-C , 10-H ) :   0.9537 B(  3-C ,  4-C ) :   1.0433 B(  3-C , 11-H ) :   0.9495
B(  4-C ,  5-C ) :   0.9587 B(  4-C , 12-H ) :   0.9080 B(  4-C , 13-H ) :   0.9036
B(  5-C ,  6-O ) :   2.1786 B(  5-C , 14-H ) :   0.9157

FINAL SINGLE POINT ENERGY      -345.069647132408

DIPOLE MOMENT
-------------
                                X             Y             Z
Electronic contribution:      2.52646      -0.22613      -2.51808
Nuclear contribution   :     -3.29158       0.62029       3.22239
                        -----------------------------------------
Total Dipole Moment    :     -0.76512       0.39415       0.70431
                        -----------------------------------------
Magnitude (a.u.)       :      1.11212
Magnitude (Debye)      :      2.82679

                             ****ORCA TERMINATED NORMALLY****
TOTAL RUN TIME: 0 days 0 hours 0 minutes 6 seconds 20 msec
