                         Program Version 3.0.3 - RELEASE   -
|  1> ! RI PBE def2-SVP def2-SVP/J NBO PAL2
|  2> % maxcore 2000
|  3> % output
|  4>     # printlevel mini
|  5>     print[ P_Basis ] 0
|  6>     print[ P_SCFInfo ] 1
|  7>     print[ P_SCFIterInfo ] 1
|  8>     print[ P_OrbEn ] 0
|  9>     print[ P_Cartesian ] 0
| 10> end
| 11> *xyz 0 1
| 12>  O        3.0256280000     0.5095780000     1.1458400000
| 13>  C        2.4273020000     0.2466410000    -0.1110760000
| 14>  C        2.8485990000    -1.1102170000    -0.5813840000
| 15>  C        1.9582370000    -1.9987240000    -1.0078920000
| 16>  C        4.3239600000    -1.4091010000    -0.5669940000
| 17>  C        4.7599890000    -2.0565060000     0.7284510000
| 18>  O        5.4129310000    -3.0626320000     0.7766460000
| 19>  H        2.9232450000     1.4422560000     1.3472020000
| 20>  H        2.7606050000     0.9893720000    -0.8523650000
| 21>  H        1.3336010000     0.2975270000    -0.0515680000
| 22>  H        0.8952560000    -1.7849580000    -0.9880220000
| 23>  H        2.2614300000    -2.9640470000    -1.3980310000
| 24>  H        4.8920980000    -0.4754170000    -0.6613150000
| 25>  H        4.6074720000    -2.0740910000    -1.3840440000
| 26>  H        4.4333480000    -1.5344710000     1.6480530000
| 27> *
| 28>
| 29>                          ****END OF INPUT****
 Total Charge           Charge          ....    0
 Multiplicity           Mult            ....    1
 Number of Electrons    NEL             ....   54
 Basis Dimension        Dim             ....  138

MULLIKEN ATOMIC CHARGES
-----------------------
   0 O :   -0.273844
   1 C :    0.220708
   2 C :   -0.240381
   3 C :   -0.009749
   4 C :    0.110892
   5 C :    0.088234
   6 O :   -0.165645
   7 H :    0.159736
   8 H :    0.015894
   9 H :   -0.001384
  10 H :    0.020910
  11 H :    0.021799
  12 H :    0.028700
  13 H :    0.019447
  14 H :    0.004686
Sum of atomic charges:   -0.0000000

LOEWDIN ATOMIC CHARGES
----------------------
   0 O :   -0.123522
   1 C :    0.062492
   2 C :   -0.044130
   3 C :   -0.049088
   4 C :   -0.067307
   5 C :    0.099318
   6 O :   -0.110079
   7 H :    0.073668
   8 H :    0.016326
   9 H :    0.011045
  10 H :    0.024700
  11 H :    0.026879
  12 H :    0.047644
  13 H :    0.039213
  14 H :   -0.007160

  Mayer bond orders larger than 0.1
B(  0-O ,  1-C ) :   1.0898 B(  0-O ,  7-H ) :   0.9748 B(  1-C ,  2-C ) :   1.0557
B(  1-C ,  8-H ) :   0.9126 B(  1-C ,  9-H ) :   0.9230 B(  2-C ,  3-C ) :   1.9906
B(  2-C ,  4-C ) :   1.0169 B(  3-C , 10-H ) :   0.9335 B(  3-C , 11-H ) :   0.9353
B(  4-C ,  5-C ) :   0.9636 B(  4-C , 12-H ) :   0.8904 B(  4-C , 13-H ) :   0.9115
B(  5-C ,  6-O ) :   2.1707 B(  5-C , 14-H ) :   0.9238

FINAL SINGLE POINT ENERGY      -345.070989049927

DIPOLE MOMENT
-------------
                                X             Y             Z
Electronic contribution:      3.26354      -2.13652       2.49322
Nuclear contribution   :     -3.99944       3.49324      -2.91323
                        -----------------------------------------
Total Dipole Moment    :     -0.73589       1.35672      -0.42001
                        -----------------------------------------
Magnitude (a.u.)       :      1.59957
Magnitude (Debye)      :      4.06579

                             ****ORCA TERMINATED NORMALLY****
TOTAL RUN TIME: 0 days 0 hours 0 minutes 6 seconds 905 msec
