                         Program Version 3.0.3 - RELEASE   -
|  1> ! RI PBE def2-SVP def2-SVP/J NBO PAL2
|  2> % maxcore 2000
|  3> % output
|  4>     # printlevel mini
|  5>     print[ P_Basis ] 0
|  6>     print[ P_SCFInfo ] 1
|  7>     print[ P_SCFIterInfo ] 1
|  8>     print[ P_OrbEn ] 0
|  9>     print[ P_Cartesian ] 0
| 10> end
| 11> *xyz 0 1
| 12>  O        2.8317660000    -1.5150980000     0.1200500000
| 13>  C        2.4654120000    -0.1775480000     0.3321900000
| 14>  C        3.0033810000     0.7597080000    -0.7466270000
| 15>  C        2.5739280000     2.1809970000    -0.5382860000
| 16>  C        1.9895740000     2.9407810000    -1.4539480000
| 17>  C        4.5137970000     0.7143650000    -0.8197000000
| 18>  O        5.2132880000     0.0501250000    -0.1012240000
| 19>  H        3.7854190000    -1.5620530000     0.2506570000
| 20>  H        2.8007240000     0.1792060000     1.3159060000
| 21>  H        1.3739780000    -0.1396690000     0.3243100000
| 22>  H        2.6487800000     0.4253500000    -1.7314620000
| 23>  H        2.7789150000     2.5956720000     0.4471720000
| 24>  H        1.7650010000     2.5643630000    -2.4470930000
| 25>  H        1.7076670000     3.9653040000    -1.2407990000
| 26>  H        4.9607500000     1.3623870000    -1.6021460000
| 27> *
| 28>
| 29>                          ****END OF INPUT****
 Total Charge           Charge          ....    0
 Multiplicity           Mult            ....    1
 Number of Electrons    NEL             ....   54
 Basis Dimension        Dim             ....  138

MULLIKEN ATOMIC CHARGES
-----------------------
   0 O :   -0.283578
   1 C :    0.206648
   2 C :   -0.076952
   3 C :   -0.072872
   4 C :   -0.015456
   5 C :    0.127818
   6 O :   -0.171558
   7 H :    0.155117
   8 H :   -0.000398
   9 H :    0.021227
  10 H :    0.028073
  11 H :    0.016498
  12 H :    0.026880
  13 H :    0.034525
  14 H :    0.004027
Sum of atomic charges:   -0.0000000

LOEWDIN ATOMIC CHARGES
----------------------
   0 O :   -0.116807
   1 C :    0.063611
   2 C :   -0.102701
   3 C :   -0.025153
   4 C :   -0.044776
   5 C :    0.112452
   6 O :   -0.108079
   7 H :    0.057090
   8 H :    0.007232
   9 H :    0.025673
  10 H :    0.048961
  11 H :    0.029880
  12 H :    0.025743
  13 H :    0.030134
  14 H :   -0.003259

  Mayer bond orders larger than 0.1
B(  0-O ,  1-C ) :   1.0892 B(  0-O ,  7-H ) :   0.9707 B(  1-C ,  2-C ) :   0.9943
B(  1-C ,  8-H ) :   0.9358 B(  1-C ,  9-H ) :   0.9414 B(  2-C ,  3-C ) :   0.9788
B(  2-C ,  5-C ) :   0.9133 B(  2-C , 10-H ) :   0.8736 B(  3-C ,  4-C ) :   2.0017
B(  3-C , 11-H ) :   0.9537 B(  4-C , 12-H ) :   0.9493 B(  4-C , 13-H ) :   0.9398
B(  5-C ,  6-O ) :   2.1341 B(  5-C , 14-H ) :   0.9329

FINAL SINGLE POINT ENERGY      -345.073934232423

DIPOLE MOMENT
-------------
                                X             Y             Z
Electronic contribution:      3.67417      -3.17030       0.79503
Nuclear contribution   :     -3.90069       4.03797      -1.14445
                        -----------------------------------------
Total Dipole Moment    :     -0.22652       0.86767      -0.34942
                        -----------------------------------------
Magnitude (a.u.)       :      0.96242
Magnitude (Debye)      :      2.44628

                             ****ORCA TERMINATED NORMALLY****
TOTAL RUN TIME: 0 days 0 hours 0 minutes 6 seconds 711 msec
