                         Program Version 3.0.3 - RELEASE   -
|  1> ! RI PBE def2-SVP def2-SVP/J NBO PAL2
|  2> % maxcore 2000
|  3> % output
|  4>     # printlevel mini
|  5>     print[ P_Basis ] 0
|  6>     print[ P_SCFInfo ] 1
|  7>     print[ P_SCFIterInfo ] 1
|  8>     print[ P_OrbEn ] 0
|  9>     print[ P_Cartesian ] 0
| 10> end
| 11> *xyz 0 1
| 12>  O        1.4371250000     0.5801600000    -0.6765390000
| 13>  C        2.3485090000    -0.2137490000     0.0565980000
| 14>  C        2.8223610000     0.5222110000     1.2159610000
| 15>  C        3.2361520000     1.1227700000     2.1707850000
| 16>  C        3.6997810000     1.8240130000     3.3521120000
| 17>  C        3.0227820000     1.3364080000     4.6192230000
| 18>  O        3.5896850000     1.2145660000     5.6657580000
| 19>  H        1.1466090000     0.0680670000    -1.4357110000
| 20>  H        3.2163370000    -0.4938020000    -0.5571850000
| 21>  H        1.8775510000    -1.1455540000     0.4002280000
| 22>  H        3.4608350000     2.8927970000     3.2594110000
| 23>  H        4.7820780000     1.7467540000     3.4819300000
| 24>  H        1.9422040000     1.1081600000     4.5113290000
| 25> *
| 26>
| 27>                          ****END OF INPUT****
 Total Charge           Charge          ....    0
 Multiplicity           Mult            ....    1
 Number of Electrons    NEL             ....   52
 Basis Dimension        Dim             ....  128

MULLIKEN ATOMIC CHARGES
-----------------------
   0 O :   -0.265510
   1 C :    0.204780
   2 C :   -0.133648
   3 C :   -0.162549
   4 C :    0.088634
   5 C :    0.073227
   6 O :   -0.147144
   7 H :    0.156168
   8 H :    0.025485
   9 H :    0.023513
  10 H :    0.074573
  11 H :    0.055348
  12 H :    0.007122
Sum of atomic charges:   -0.0000000

LOEWDIN ATOMIC CHARGES
----------------------
   0 O :   -0.121223
   1 C :    0.049717
   2 C :   -0.056321
   3 C :   -0.054651
   4 C :   -0.083464
   5 C :    0.103386
   6 O :   -0.093298
   7 H :    0.071548
   8 H :    0.028423
   9 H :    0.027498
  10 H :    0.074359
  11 H :    0.058508
  12 H :   -0.004481

  Mayer bond orders larger than 0.1
B(  0-O ,  1-C ) :   1.1413 B(  0-O ,  7-H ) :   0.9775 B(  1-C ,  2-C ) :   1.0380
B(  1-C ,  8-H ) :   0.9095 B(  1-C ,  9-H ) :   0.9072 B(  2-C ,  3-C ) :   2.6943
B(  3-C ,  4-C ) :   1.0209 B(  4-C ,  5-C ) :   0.9374 B(  4-C , 10-H ) :   0.8786
B(  4-C , 11-H ) :   0.8912 B(  5-C ,  6-O ) :   2.1925 B(  5-C , 12-H ) :   0.9266

FINAL SINGLE POINT ENERGY      -343.827587043761

DIPOLE MOMENT
-------------
                                X             Y             Z
Electronic contribution:      0.43415       0.75191       2.92227
Nuclear contribution   :     -0.59157      -1.13550      -3.93766
                        -----------------------------------------
Total Dipole Moment    :     -0.15742      -0.38359      -1.01539
                        -----------------------------------------
Magnitude (a.u.)       :      1.09678
Magnitude (Debye)      :      2.78780

                             ****ORCA TERMINATED NORMALLY****
TOTAL RUN TIME: 0 days 0 hours 0 minutes 5 seconds 887 msec
