                         Program Version 3.0.3 - RELEASE   -
|  1> ! RI PBE def2-SVP def2-SVP/J NBO PAL2
|  2> % maxcore 2000
|  3> % output
|  4>     # printlevel mini
|  5>     print[ P_Basis ] 0
|  6>     print[ P_SCFInfo ] 1
|  7>     print[ P_SCFIterInfo ] 1
|  8>     print[ P_OrbEn ] 0
|  9>     print[ P_Cartesian ] 0
| 10> end
| 11> *xyz 0 1
| 12>  O        2.5477550000     0.0073820000    -0.8342060000
| 13>  C        2.2747750000    -1.2562270000    -0.2606420000
| 14>  C        2.8683620000    -1.2809270000     1.1357260000
| 15>  C        4.3558470000    -1.1626140000     1.1402140000
| 16>  C        5.1894320000    -2.0365570000     1.6942170000
| 17>  C        6.6740440000    -1.8944790000     1.6873070000
| 18>  O        7.2169780000    -1.8441470000     2.9959720000
| 19>  H        2.2352300000     0.0092290000    -1.7412120000
| 20>  H        2.7140320000    -2.0641070000    -0.8616360000
| 21>  H        1.1919680000    -1.4306840000    -0.1972700000
| 22>  H        2.5617020000    -2.2049020000     1.6346270000
| 23>  H        2.4287860000    -0.4455180000     1.6942730000
| 24>  H        4.7643410000    -0.2920680000     0.6300510000
| 25>  H        4.7970420000    -2.9100520000     2.2138600000
| 26>  H        6.9605940000    -1.0100560000     1.1020380000
| 27>  H        7.1417470000    -2.7650530000     1.2179140000
| 28>  H        6.7643660000    -1.1403090000     3.4688750000
| 29> *
| 30>
| 31>                          ****END OF INPUT****
 Total Charge           Charge          ....    0
 Multiplicity           Mult            ....    1
 Number of Electrons    NEL             ....   56
 Basis Dimension        Dim             ....  148

MULLIKEN ATOMIC CHARGES
-----------------------
   0 O :   -0.283087
   1 C :    0.137019
   2 C :    0.034163
   3 C :   -0.062856
   4 C :   -0.134034
   5 C :    0.250986
   6 O :   -0.297041
   7 H :    0.157639
   8 H :   -0.000459
   9 H :    0.004552
  10 H :    0.008435
  11 H :    0.031463
  12 H :    0.002099
  13 H :   -0.005153
  14 H :   -0.004762
  15 H :    0.012394
  16 H :    0.148642
Sum of atomic charges:   -0.0000000

LOEWDIN ATOMIC CHARGES
----------------------
   0 O :   -0.130495
   1 C :    0.060628
   2 C :   -0.053299
   3 C :   -0.029689
   4 C :   -0.073795
   5 C :    0.054521
   6 O :   -0.125896
   7 H :    0.072733
   8 H :    0.004408
   9 H :    0.005360
  10 H :    0.032754
  11 H :    0.038687
  12 H :    0.024016
  13 H :    0.021289
  14 H :    0.007168
  15 H :    0.026421
  16 H :    0.065189

  Mayer bond orders larger than 0.1
B(  0-O ,  1-C ) :   1.0860 B(  0-O ,  7-H ) :   0.9801 B(  1-C ,  2-C ) :   1.0768
B(  1-C ,  8-H ) :   0.9302 B(  1-C ,  9-H ) :   0.9344 B(  2-C ,  3-C ) :   1.0605
B(  2-C , 10-H ) :   0.9265 B(  2-C , 11-H ) :   0.9085 B(  3-C ,  4-C ) :   1.8737
B(  3-C , 12-H ) :   0.9547 B(  4-C ,  5-C ) :   1.0669 B(  4-C , 13-H ) :   0.9542
B(  5-C ,  6-O ) :   1.0252 B(  5-C , 14-H ) :   0.9350 B(  5-C , 15-H ) :   0.9174
B(  6-O , 16-H ) :   0.9859

FINAL SINGLE POINT ENERGY      -346.268852511535

DIPOLE MOMENT
-------------
                                X             Y             Z
Electronic contribution:      1.91584       0.97601       0.81248
Nuclear contribution   :     -2.76506      -0.92196      -1.38405
                        -----------------------------------------
Total Dipole Moment    :     -0.84922       0.05405      -0.57157
                        -----------------------------------------
Magnitude (a.u.)       :      1.02508
Magnitude (Debye)      :      2.60555

                             ****ORCA TERMINATED NORMALLY****
TOTAL RUN TIME: 0 days 0 hours 0 minutes 7 seconds 150 msec
