                         Program Version 3.0.3 - RELEASE   -
|  1> ! RI PBE def2-SVP def2-SVP/J NBO PAL2
|  2> % maxcore 2000
|  3> % output
|  4>     # printlevel mini
|  5>     print[ P_Basis ] 0
|  6>     print[ P_SCFInfo ] 1
|  7>     print[ P_SCFIterInfo ] 1
|  8>     print[ P_OrbEn ] 0
|  9>     print[ P_Cartesian ] 0
| 10> end
| 11> *xyz 0 1
| 12>  O        2.6219010000     0.2815450000     1.4151960000
| 13>  C        2.2126320000    -0.0187210000     0.0971950000
| 14>  C        2.8940370000     0.9627450000    -0.8410510000
| 15>  C        4.3754630000     0.8388880000    -0.8254440000
| 16>  C        5.1517040000     0.6669440000    -1.8967290000
| 17>  C        6.6019790000     0.5546010000    -1.7560540000
| 18>  O        7.3703680000     0.3968060000    -2.6721860000
| 19>  H        2.2532400000    -0.3725120000     2.0126130000
| 20>  H        1.1245430000     0.0808830000    -0.0109730000
| 21>  H        2.4876010000    -1.0456650000    -0.1784820000
| 22>  H        2.6172610000     1.9735930000    -0.5165810000
| 23>  H        2.5075130000     0.8243340000    -1.8540480000
| 24>  H        4.8462320000     0.8907010000     0.1550820000
| 25>  H        4.7479310000     0.6043850000    -2.9036460000
| 26>  H        6.9697960000     0.6251650000    -0.7083830000
| 27> *
| 28>
| 29>                          ****END OF INPUT****
 Total Charge           Charge          ....    0
 Multiplicity           Mult            ....    1
 Number of Electrons    NEL             ....   54
 Basis Dimension        Dim             ....  138

MULLIKEN ATOMIC CHARGES
-----------------------
   0 O :   -0.280464
   1 C :    0.125413
   2 C :    0.050617
   3 C :   -0.057716
   4 C :   -0.020587
   5 C :    0.121099
   6 O :   -0.174630
   7 H :    0.161506
   8 H :    0.014757
   9 H :    0.008380
  10 H :    0.041743
  11 H :    0.015520
  12 H :    0.022595
  13 H :    0.001795
  14 H :   -0.030028
Sum of atomic charges:   -0.0000000

LOEWDIN ATOMIC CHARGES
----------------------
   0 O :   -0.127265
   1 C :    0.063008
   2 C :   -0.050322
   3 C :    0.025190
   4 C :   -0.079641
   5 C :    0.067259
   6 O :   -0.120808
   7 H :    0.075671
   8 H :    0.009506
   9 H :    0.007215
  10 H :    0.047483
  11 H :    0.036276
  12 H :    0.030541
  13 H :    0.030669
  14 H :   -0.014783

  Mayer bond orders larger than 0.1
B(  0-O ,  1-C ) :   1.0866 B(  0-O ,  7-H ) :   0.9783 B(  1-C ,  2-C ) :   1.0722
B(  1-C ,  8-H ) :   0.9352 B(  1-C ,  9-H ) :   0.9333 B(  2-C ,  3-C ) :   1.0577
B(  2-C , 10-H ) :   0.9013 B(  2-C , 11-H ) :   0.9276 B(  3-C ,  4-C ) :   1.7425
B(  3-C ,  6-O ) :   0.1034 B(  3-C , 12-H ) :   0.9570 B(  4-C ,  5-C ) :   1.0429
B(  4-C , 13-H ) :   0.9641 B(  5-C ,  6-O ) :   2.1026 B(  5-C , 14-H ) :   0.9311

FINAL SINGLE POINT ENERGY      -345.081268457343

DIPOLE MOMENT
-------------
                                X             Y             Z
Electronic contribution:      5.73164       0.13252      -1.94036
Nuclear contribution   :     -7.32034      -0.43488       2.76252
                        -----------------------------------------
Total Dipole Moment    :     -1.58870      -0.30236       0.82215
                        -----------------------------------------
Magnitude (a.u.)       :      1.81420
Magnitude (Debye)      :      4.61133

                             ****ORCA TERMINATED NORMALLY****
TOTAL RUN TIME: 0 days 0 hours 0 minutes 6 seconds 719 msec
