                         Program Version 3.0.3 - RELEASE   -
|  1> ! RI PBE def2-SVP def2-SVP/J NBO PAL2
|  2> % maxcore 2000
|  3> % output
|  4>     # printlevel mini
|  5>     print[ P_Basis ] 0
|  6>     print[ P_SCFInfo ] 1
|  7>     print[ P_SCFIterInfo ] 1
|  8>     print[ P_OrbEn ] 0
|  9>     print[ P_Cartesian ] 0
| 10> end
| 11> *xyz 0 1
| 12>  O        2.5619580000    -0.4717400000    -3.3971580000
| 13>  C        2.4745690000     0.1371620000    -2.1128990000
| 14>  C        3.0012560000    -0.8182200000    -1.0550070000
| 15>  C        4.4964170000    -0.9830310000    -0.9768060000
| 16>  C        5.1823800000    -0.4872260000     0.0484280000
| 17>  C        5.1981200000    -1.7597740000    -2.0608280000
| 18>  O        5.2589210000    -1.0909220000    -3.2990040000
| 19>  H        2.2413450000     0.1482940000    -4.0567980000
| 20>  H        1.4256000000     0.3657230000    -1.8900490000
| 21>  H        3.0455700000     1.0729650000    -2.0897030000
| 22>  H        2.5254790000    -1.7920500000    -1.2237440000
| 23>  H        2.6419580000    -0.4518080000    -0.0893010000
| 24>  H        4.6968540000     0.0527760000     0.8555670000
| 25>  H        6.2581280000    -0.6079440000     0.1169110000
| 26>  H        4.7073060000    -2.7402510000    -2.1705610000
| 27>  H        6.2304640000    -1.9441040000    -1.7569930000
| 28>  H        4.3460660000    -0.9214720000    -3.5789550000
| 29> *
| 30>
| 31>                          ****END OF INPUT****
 Total Charge           Charge          ....    0
 Multiplicity           Mult            ....    1
 Number of Electrons    NEL             ....   56
 Basis Dimension        Dim             ....  148

MULLIKEN ATOMIC CHARGES
-----------------------
   0 O :   -0.285210
   1 C :    0.147886
   2 C :    0.048462
   3 C :   -0.212442
   4 C :   -0.039861
   5 C :    0.284207
   6 O :   -0.303217
   7 H :    0.172694
   8 H :    0.012755
   9 H :    0.012060
  10 H :    0.022794
  11 H :    0.006002
  12 H :    0.007111
  13 H :    0.017082
  14 H :   -0.012179
  15 H :   -0.011716
  16 H :    0.133572
Sum of atomic charges:   -0.0000000

LOEWDIN ATOMIC CHARGES
----------------------
   0 O :   -0.100714
   1 C :    0.064034
   2 C :   -0.046046
   3 C :   -0.050488
   4 C :   -0.062728
   5 C :    0.061744
   6 O :   -0.133430
   7 H :    0.079882
   8 H :    0.013150
   9 H :    0.011795
  10 H :    0.035881
  11 H :    0.037408
  12 H :    0.016821
  13 H :    0.022294
  14 H :    0.005609
  15 H :    0.019297
  16 H :    0.025491

  Mayer bond orders larger than 0.1
B(  0-O ,  1-C ) :   1.0172 B(  0-O ,  7-H ) :   0.9680 B(  0-O , 16-H ) :   0.1385
B(  1-C ,  2-C ) :   1.0907 B(  1-C ,  8-H ) :   0.9351 B(  1-C ,  9-H ) :   0.9326
B(  2-C ,  3-C ) :   1.0724 B(  2-C , 10-H ) :   0.9063 B(  2-C , 11-H ) :   0.9123
B(  3-C ,  4-C ) :   1.9745 B(  3-C ,  5-C ) :   1.0256 B(  4-C , 12-H ) :   0.9366
B(  4-C , 13-H ) :   0.9350 B(  5-C ,  6-O ) :   1.0860 B(  5-C , 14-H ) :   0.9090
B(  5-C , 15-H ) :   0.9214 B(  6-O , 16-H ) :   0.9383

FINAL SINGLE POINT ENERGY      -346.274851160421

DIPOLE MOMENT
-------------
                                X             Y             Z
Electronic contribution:      0.62937      -0.31820      -2.99633
Nuclear contribution   :     -1.71917       0.84634       3.16128
                        -----------------------------------------
Total Dipole Moment    :     -1.08980       0.52815       0.16495
                        -----------------------------------------
Magnitude (a.u.)       :      1.22222
Magnitude (Debye)      :      3.10663

                             ****ORCA TERMINATED NORMALLY****
TOTAL RUN TIME: 0 days 0 hours 0 minutes 7 seconds 507 msec
