                         Program Version 3.0.3 - RELEASE   -
|  1> ! RI PBE def2-SVP def2-SVP/J NBO PAL2
|  2> % maxcore 2000
|  3> % output
|  4>     # printlevel mini
|  5>     print[ P_Basis ] 0
|  6>     print[ P_SCFInfo ] 1
|  7>     print[ P_SCFIterInfo ] 1
|  8>     print[ P_OrbEn ] 0
|  9>     print[ P_Cartesian ] 0
| 10> end
| 11> *xyz 0 1
| 12>  O        1.8753880000     1.0004160000    -0.8617270000
| 13>  C        2.1206920000    -0.0698640000     0.0288260000
| 14>  C        3.4560410000     0.1741130000     0.7101230000
| 15>  C        4.6140840000     0.0905950000    -0.2319000000
| 16>  C        5.2321630000     1.1385200000    -0.7763220000
| 17>  C        5.1046360000    -1.2484640000    -0.6054030000
| 18>  O        4.6451720000    -2.2843120000    -0.1932490000
| 19>  H        1.1019250000     0.7904510000    -1.3889190000
| 20>  H        2.1457560000    -1.0314210000    -0.4975340000
| 21>  H        1.3379930000    -0.1256460000     0.7971790000
| 22>  H        3.5769220000    -0.5827370000     1.4901150000
| 23>  H        3.4305660000     1.1571950000     1.1864040000
| 24>  H        4.9348840000     2.1581940000    -0.5613820000
| 25>  H        6.0591420000     0.9956070000    -1.4655080000
| 26>  H        5.9596350000    -1.2454470000    -1.3151320000
| 27> *
| 28>
| 29>                          ****END OF INPUT****
 Total Charge           Charge          ....    0
 Multiplicity           Mult            ....    1
 Number of Electrons    NEL             ....   54
 Basis Dimension        Dim             ....  138

MULLIKEN ATOMIC CHARGES
-----------------------
   0 O :   -0.284419
   1 C :    0.137639
   2 C :    0.075021
   3 C :   -0.151986
   4 C :    0.010448
   5 C :    0.128131
   6 O :   -0.166521
   7 H :    0.157580
   8 H :    0.009272
   9 H :    0.009581
  10 H :    0.025773
  11 H :    0.012319
  12 H :    0.034781
  13 H :    0.027871
  14 H :   -0.025489
Sum of atomic charges:    0.0000000

LOEWDIN ATOMIC CHARGES
----------------------
   0 O :   -0.131173
   1 C :    0.064096
   2 C :   -0.041912
   3 C :   -0.071307
   4 C :    0.007536
   5 C :    0.078814
   6 O :   -0.116822
   7 H :    0.072063
   8 H :    0.008558
   9 H :    0.007707
  10 H :    0.041527
  11 H :    0.034283
  12 H :    0.031397
  13 H :    0.026113
  14 H :   -0.010881

  Mayer bond orders larger than 0.1
B(  0-O ,  1-C ) :   1.0912 B(  0-O ,  7-H ) :   0.9811 B(  1-C ,  2-C ) :   1.0811
B(  1-C ,  8-H ) :   0.9343 B(  1-C ,  9-H ) :   0.9324 B(  2-C ,  3-C ) :   1.0582
B(  2-C , 10-H ) :   0.9008 B(  2-C , 11-H ) :   0.9124 B(  3-C ,  4-C ) :   1.8751
B(  3-C ,  5-C ) :   0.9994 B(  4-C ,  6-O ) :   0.1019 B(  4-C , 12-H ) :   0.9353
B(  4-C , 13-H ) :   0.9337 B(  5-C ,  6-O ) :   2.1130 B(  5-C , 14-H ) :   0.9302

FINAL SINGLE POINT ENERGY      -345.080413097180

DIPOLE MOMENT
-------------
                                X             Y             Z
Electronic contribution:      1.41600      -2.67191      -0.74745
Nuclear contribution   :     -1.69513       3.27504       0.53222
                        -----------------------------------------
Total Dipole Moment    :     -0.27913       0.60314      -0.21523
                        -----------------------------------------
Magnitude (a.u.)       :      0.69858
Magnitude (Debye)      :      1.77565

                             ****ORCA TERMINATED NORMALLY****
TOTAL RUN TIME: 0 days 0 hours 0 minutes 6 seconds 955 msec
