                         Program Version 3.0.3 - RELEASE   -
|  1> ! RI PBE def2-SVP def2-SVP/J NBO PAL2
|  2> % maxcore 2000
|  3> % output
|  4>     # printlevel mini
|  5>     print[ P_Basis ] 0
|  6>     print[ P_SCFInfo ] 1
|  7>     print[ P_SCFIterInfo ] 1
|  8>     print[ P_OrbEn ] 0
|  9>     print[ P_Cartesian ] 0
| 10> end
| 11> *xyz 0 1
| 12>  O        0.9989130000     0.0203760000     0.1833280000
| 13>  C        2.3955630000     0.2102930000     0.1177710000
| 14>  C        3.0045620000    -0.5353470000     1.2939140000
| 15>  C        4.4514180000    -0.4193680000     1.3355740000
| 16>  C        5.6488880000    -0.2995890000     1.3420130000
| 17>  C        7.1032800000    -0.2043080000     1.3708560000
| 18>  O        7.7495780000    -1.1376120000     0.5294510000
| 19>  H        0.5904730000     0.4812310000    -0.5525080000
| 20>  H        2.6610070000     1.2731460000     0.1838220000
| 21>  H        2.8125810000    -0.1835230000    -0.8178100000
| 22>  H        2.7145180000    -1.5891940000     1.2309590000
| 23>  H        2.5709880000    -0.1472530000     2.2213080000
| 24>  H        7.4472070000    -0.3043940000     2.4099660000
| 25>  H        7.4182820000     0.7833290000     1.0242170000
| 26>  H        7.3741220000    -2.0039560000     0.7081980000
| 27> *
| 28>
| 29>                          ****END OF INPUT****
 Total Charge           Charge          ....    0
 Multiplicity           Mult            ....    1
 Number of Electrons    NEL             ....   54
 Basis Dimension        Dim             ....  138

MULLIKEN ATOMIC CHARGES
-----------------------
   0 O :   -0.271264
   1 C :    0.117738
   2 C :    0.066307
   3 C :   -0.145932
   4 C :   -0.215084
   5 C :    0.272682
   6 O :   -0.287454
   7 H :    0.157965
   8 H :    0.012589
   9 H :    0.010318
  10 H :    0.039416
  11 H :    0.039019
  12 H :    0.022933
  13 H :    0.025378
  14 H :    0.155390
Sum of atomic charges:   -0.0000000

LOEWDIN ATOMIC CHARGES
----------------------
   0 O :   -0.127523
   1 C :    0.065484
   2 C :   -0.055136
   3 C :   -0.049103
   4 C :   -0.094435
   5 C :    0.051959
   6 O :   -0.117932
   7 H :    0.074021
   8 H :    0.008560
   9 H :    0.008187
  10 H :    0.050123
  11 H :    0.050102
  12 H :    0.025190
  13 H :    0.040734
  14 H :    0.069769

  Mayer bond orders larger than 0.1
B(  0-O ,  1-C ) :   1.1080 B(  0-O ,  7-H ) :   0.9772 B(  1-C ,  2-C ) :   1.0685
B(  1-C ,  8-H ) :   0.9395 B(  1-C ,  9-H ) :   0.9402 B(  2-C ,  3-C ) :   1.0240
B(  2-C , 10-H ) :   0.8922 B(  2-C , 11-H ) :   0.8993 B(  3-C ,  4-C ) :   2.6866
B(  4-C ,  5-C ) :   1.0195 B(  5-C ,  6-O ) :   1.0616 B(  5-C , 12-H ) :   0.9233
B(  5-C , 13-H ) :   0.8980 B(  6-O , 14-H ) :   0.9838

FINAL SINGLE POINT ENERGY      -345.028604841750

DIPOLE MOMENT
-------------
                                X             Y             Z
Electronic contribution:      1.43860      -0.86072       0.16151
Nuclear contribution   :     -1.87351       0.99936      -0.25769
                        -----------------------------------------
Total Dipole Moment    :     -0.43490       0.13864      -0.09618
                        -----------------------------------------
Magnitude (a.u.)       :      0.46649
Magnitude (Debye)      :      1.18573

                             ****ORCA TERMINATED NORMALLY****
TOTAL RUN TIME: 0 days 0 hours 0 minutes 6 seconds 179 msec
