                         Program Version 3.0.3 - RELEASE   -
|  1> ! RI PBE def2-SVP def2-SVP/J NBO PAL2
|  2> % maxcore 2000
|  3> % output
|  4>     # printlevel mini
|  5>     print[ P_Basis ] 0
|  6>     print[ P_SCFInfo ] 1
|  7>     print[ P_SCFIterInfo ] 1
|  8>     print[ P_OrbEn ] 0
|  9>     print[ P_Cartesian ] 0
| 10> end
| 11> *xyz 0 1
| 12>  O        0.9250140000    -0.0338190000    -0.1748690000
| 13>  C        2.3267560000    -0.1757630000    -0.1586060000
| 14>  C        2.8920830000     0.9674590000    -0.9873020000
| 15>  C        4.3371690000     0.9461640000    -1.0568490000
| 16>  C        5.5417890000     0.8915770000    -1.0891350000
| 17>  C        6.9769370000     0.8878930000    -1.1695290000
| 18>  O        7.6860320000     0.0687860000    -0.6421440000
| 19>  H        0.5358570000    -0.7449970000     0.3387150000
| 20>  H        2.6428160000    -1.1320130000    -0.5938760000
| 21>  H        2.7283770000    -0.1197520000     0.8608870000
| 22>  H        2.5594700000     1.9198550000    -0.5607730000
| 23>  H        2.4755020000     0.9188550000    -1.9990840000
| 24>  H        7.4030590000     1.7158840000    -1.7683240000
| 25> *
| 26>
| 27>                          ****END OF INPUT****
 Total Charge           Charge          ....    0
 Multiplicity           Mult            ....    1
 Number of Electrons    NEL             ....   52
 Basis Dimension        Dim             ....  128

MULLIKEN ATOMIC CHARGES
-----------------------
   0 O :   -0.269169
   1 C :    0.123128
   2 C :    0.054806
   3 C :   -0.061004
   4 C :   -0.079020
   5 C :    0.069587
   6 O :   -0.157733
   7 H :    0.161361
   8 H :    0.017796
   9 H :    0.019509
  10 H :    0.052570
  11 H :    0.053755
  12 H :    0.014414
Sum of atomic charges:   -0.0000000

LOEWDIN ATOMIC CHARGES
----------------------
   0 O :   -0.123939
   1 C :    0.068274
   2 C :   -0.054273
   3 C :    0.013529
   4 C :   -0.093276
   5 C :    0.066478
   6 O :   -0.097427
   7 H :    0.076772
   8 H :    0.011337
   9 H :    0.011861
  10 H :    0.058712
  11 H :    0.059218
  12 H :    0.002735

  Mayer bond orders larger than 0.1
B(  0-O ,  1-C ) :   1.1099 B(  0-O ,  7-H ) :   0.9759 B(  1-C ,  2-C ) :   1.0624
B(  1-C ,  8-H ) :   0.9409 B(  1-C ,  9-H ) :   0.9401 B(  2-C ,  3-C ) :   1.0256
B(  2-C , 10-H ) :   0.8926 B(  2-C , 11-H ) :   0.8888 B(  3-C ,  4-C ) :   2.5859
B(  3-C ,  6-O ) :   0.1187 B(  4-C ,  5-C ) :   0.8981 B(  5-C ,  6-O ) :   2.1353
B(  5-C , 12-H ) :   0.9441

FINAL SINGLE POINT ENERGY      -343.833881713899

DIPOLE MOMENT
-------------
                                X             Y             Z
Electronic contribution:      5.81687       0.28208      -0.53478
Nuclear contribution   :     -6.96879      -0.21764       0.55696
                        -----------------------------------------
Total Dipole Moment    :     -1.15193       0.06444       0.02217
                        -----------------------------------------
Magnitude (a.u.)       :      1.15394
Magnitude (Debye)      :      2.93308

                             ****ORCA TERMINATED NORMALLY****
TOTAL RUN TIME: 0 days 0 hours 0 minutes 5 seconds 725 msec
