                         Program Version 3.0.3 - RELEASE   -
|  1> ! RI PBE def2-SVP def2-SVP/J NBO PAL2
|  2> % maxcore 2000
|  3> % output
|  4>     # printlevel mini
|  5>     print[ P_Basis ] 0
|  6>     print[ P_SCFInfo ] 1
|  7>     print[ P_SCFIterInfo ] 1
|  8>     print[ P_OrbEn ] 0
|  9>     print[ P_Cartesian ] 0
| 10> end
| 11> *xyz 0 1
| 12>  O        0.8935050000     0.0005080000    -0.1173380000
| 13>  C        2.3050400000     0.0409730000    -0.0531120000
| 14>  C        2.8542310000    -0.5297000000    -1.3393510000
| 15>  C        4.3730850000    -0.5330160000    -1.3740970000
| 16>  C        4.9237100000    -1.1053130000    -2.6640030000
| 17>  C        6.4188560000    -1.1329820000    -2.7528530000
| 18>  O        7.1667130000    -0.7447340000    -1.8976670000
| 19>  H        0.5386290000     0.3635150000     0.6969700000
| 20>  H        2.6765670000    -0.5453380000     0.8000280000
| 21>  H        2.6631410000     1.0727740000     0.0763890000
| 22>  H        2.4558320000     0.0547370000    -2.1760500000
| 23>  H        2.4687500000    -1.5482160000    -1.4593120000
| 24>  H        4.7701730000    -1.1083430000    -0.5316820000
| 25>  H        4.7573690000     0.4836510000    -1.2434770000
| 26>  H        4.5623290000    -0.5488650000    -3.5405360000
| 27>  H        4.5751060000    -2.1343510000    -2.8316350000
| 28>  H        6.8204740000    -1.5540910000    -3.7015850000
| 29> *
| 30>
| 31>                          ****END OF INPUT****
 Total Charge           Charge          ....    0
 Multiplicity           Mult            ....    1
 Number of Electrons    NEL             ....   56
 Basis Dimension        Dim             ....  148

MULLIKEN ATOMIC CHARGES
-----------------------
   0 O :   -0.275338
   1 C :    0.157498
   2 C :   -0.033411
   3 C :   -0.036659
   4 C :   -0.006366
   5 C :    0.090296
   6 O :   -0.161835
   7 H :    0.154539
   8 H :   -0.005640
   9 H :   -0.007047
  10 H :    0.013413
  11 H :    0.013738
  12 H :    0.021289
  13 H :    0.022273
  14 H :    0.033551
  15 H :    0.032840
  16 H :   -0.013139
Sum of atomic charges:   -0.0000000

LOEWDIN ATOMIC CHARGES
----------------------
   0 O :   -0.130155
   1 C :    0.056744
   2 C :   -0.051970
   3 C :   -0.038066
   4 C :   -0.082928
   5 C :    0.091944
   6 O :   -0.110427
   7 H :    0.070504
   8 H :    0.002964
   9 H :    0.002668
  10 H :    0.025746
  11 H :    0.025632
  12 H :    0.028861
  13 H :    0.028850
  14 H :    0.046458
  15 H :    0.046303
  16 H :   -0.013129

  Mayer bond orders larger than 0.1
B(  0-O ,  1-C ) :   1.1085 B(  0-O ,  7-H ) :   0.9786 B(  1-C ,  2-C ) :   1.0935
B(  1-C ,  8-H ) :   0.9328 B(  1-C ,  9-H ) :   0.9316 B(  2-C ,  3-C ) :   1.0730
B(  2-C , 10-H ) :   0.9309 B(  2-C , 11-H ) :   0.9315 B(  3-C ,  4-C ) :   1.0853
B(  3-C , 12-H ) :   0.9340 B(  3-C , 13-H ) :   0.9351 B(  4-C ,  5-C ) :   0.9705
B(  4-C , 14-H ) :   0.9026 B(  4-C , 15-H ) :   0.9027 B(  5-C ,  6-O ) :   2.1870
B(  5-C , 16-H ) :   0.9275

FINAL SINGLE POINT ENERGY      -346.294021230935

DIPOLE MOMENT
-------------
                                X             Y             Z
Electronic contribution:      3.65774      -0.08933      -0.26479
Nuclear contribution   :     -4.19365       0.07524       0.23943
                        -----------------------------------------
Total Dipole Moment    :     -0.53591      -0.01408      -0.02536
                        -----------------------------------------
Magnitude (a.u.)       :      0.53670
Magnitude (Debye)      :      1.36418

                             ****ORCA TERMINATED NORMALLY****
TOTAL RUN TIME: 0 days 0 hours 0 minutes 7 seconds 703 msec
