                         Program Version 3.0.3 - RELEASE   -
|  1> ! RI PBE def2-SVP def2-SVP/J NBO PAL2
|  2> % maxcore 2000
|  3> % output
|  4>     # printlevel mini
|  5>     print[ P_Basis ] 0
|  6>     print[ P_SCFInfo ] 1
|  7>     print[ P_SCFIterInfo ] 1
|  8>     print[ P_OrbEn ] 0
|  9>     print[ P_Cartesian ] 0
| 10> end
| 11> *xyz 0 1
| 12>  O        1.2486670000    -0.4751740000     0.3986010000
| 13>  C        2.1904060000     0.0211970000    -0.1432500000
| 14>  C        3.0190950000     1.1459500000     0.4802210000
| 15>  C        2.6276190000     1.3442630000     1.9430970000
| 16>  O        2.0893510000     2.3320220000     2.3418610000
| 17>  C        4.4337730000     0.8540370000     0.3491930000
| 18>  C        5.5970930000     0.5712350000     0.2683940000
| 19>  H        2.5336090000    -0.2980490000    -1.1472250000
| 20>  H        2.7682070000     2.0676820000    -0.0613120000
| 21>  H        2.8896240000     0.5006970000     2.6097570000
| 22>  H        6.6329570000     0.3360390000     0.1925630000
| 23> *
| 24>
| 25>                          ****END OF INPUT****
 Total Charge           Charge          ....    0
 Multiplicity           Mult            ....    1
 Number of Electrons    NEL             ....   50
 Basis Dimension        Dim             ....  118

MULLIKEN ATOMIC CHARGES
-----------------------
   0 O :   -0.130940
   1 C :    0.137768
   2 C :   -0.026556
   3 C :    0.139481
   4 O :   -0.132595
   5 C :    0.357680
   6 C :   -0.463210
   7 H :    0.019575
   8 H :    0.073009
   9 H :    0.013580
  10 H :    0.012211
Sum of atomic charges:   -0.0000000

LOEWDIN ATOMIC CHARGES
----------------------
   0 O :   -0.079290
   1 C :    0.121168
   2 C :   -0.125684
   3 C :    0.120725
   4 O :   -0.076280
   5 C :   -0.027765
   6 C :   -0.051326
   7 H :    0.001734
   8 H :    0.073114
   9 H :    0.001472
  10 H :    0.042132

  Mayer bond orders larger than 0.1
B(  0-O ,  1-C ) :   2.2149 B(  1-C ,  2-C ) :   0.8799 B(  1-C ,  7-H ) :   0.9328
B(  2-C ,  3-C ) :   0.8839 B(  2-C ,  5-C ) :   0.9515 B(  2-C ,  8-H ) :   0.8505
B(  3-C ,  4-O ) :   2.2093 B(  3-C ,  9-H ) :   0.9270 B(  5-C ,  6-C ) :   2.3474
B(  5-C , 10-H ) :  -0.1165 B(  6-C , 10-H ) :   1.1071

FINAL SINGLE POINT ENERGY      -342.622968273894

DIPOLE MOMENT
-------------
                                X             Y             Z
Electronic contribution:     -1.89671       0.42880       0.95253
Nuclear contribution   :      2.81883      -0.66140      -1.62337
                        -----------------------------------------
Total Dipole Moment    :      0.92213      -0.23260      -0.67084
                        -----------------------------------------
Magnitude (a.u.)       :      1.16381
Magnitude (Debye)      :      2.95817

                             ****ORCA TERMINATED NORMALLY****
TOTAL RUN TIME: 0 days 0 hours 0 minutes 5 seconds 82 msec
