                         Program Version 3.0.3 - RELEASE   -
|  1> ! RI PBE def2-SVP def2-SVP/J NBO PAL2
|  2> % maxcore 2000
|  3> % output
|  4>     # printlevel mini
|  5>     print[ P_Basis ] 0
|  6>     print[ P_SCFInfo ] 1
|  7>     print[ P_SCFIterInfo ] 1
|  8>     print[ P_OrbEn ] 0
|  9>     print[ P_Cartesian ] 0
| 10> end
| 11> *xyz 0 1
| 12>  O        1.0941140000    -0.5542910000     0.6330030000
| 13>  C        2.1770390000    -1.0579770000     0.5558660000
| 14>  C        3.4337270000    -0.2756030000     0.2474230000
| 15>  C        4.5717190000    -0.5582520000     1.2007520000
| 16>  O        5.1054810000     0.3065300000     1.8470760000
| 17>  C        4.9916600000    -1.9447070000     1.2914290000
| 18>  C        5.3203170000    -3.0990030000     1.3500860000
| 19>  H        2.3164580000    -2.1492660000     0.6957060000
| 20>  H        3.7582600000    -0.5943940000    -0.7527390000
| 21>  H        3.2192200000     0.7919840000     0.2424600000
| 22>  H        5.6287050000    -4.1170220000     1.4180390000
| 23> *
| 24>
| 25>                          ****END OF INPUT****
 Total Charge           Charge          ....    0
 Multiplicity           Mult            ....    1
 Number of Electrons    NEL             ....   50
 Basis Dimension        Dim             ....  118

MULLIKEN ATOMIC CHARGES
-----------------------
   0 O :   -0.143474
   1 C :    0.072312
   2 C :    0.047637
   3 C :   -0.013866
   4 O :   -0.120882
   5 C :    0.384163
   6 C :   -0.388676
   7 H :    0.013853
   8 H :    0.074742
   9 H :    0.045942
  10 H :    0.028250
Sum of atomic charges:    0.0000000

LOEWDIN ATOMIC CHARGES
----------------------
   0 O :   -0.086936
   1 C :    0.096859
   2 C :   -0.086989
   3 C :    0.037558
   4 O :   -0.077694
   5 C :   -0.043699
   6 C :   -0.001922
   7 H :   -0.003391
   8 H :    0.069301
   9 H :    0.050144
  10 H :    0.046768

  Mayer bond orders larger than 0.1
B(  0-O ,  1-C ) :   2.1818 B(  1-C ,  2-C ) :   0.9426 B(  1-C ,  7-H ) :   0.9167
B(  2-C ,  3-C ) :   0.9981 B(  2-C ,  8-H ) :   0.8980 B(  2-C ,  9-H ) :   0.9032
B(  3-C ,  4-O ) :   2.1658 B(  3-C ,  5-C ) :   0.8534 B(  4-O ,  6-C ) :   0.1080
B(  5-C ,  6-C ) :   2.3318 B(  6-C , 10-H ) :   1.0864

FINAL SINGLE POINT ENERGY      -342.632129048740

DIPOLE MOMENT
-------------
                                X             Y             Z
Electronic contribution:      0.55093       0.93596       1.65973
Nuclear contribution   :     -0.09455      -2.02121      -2.28094
                        -----------------------------------------
Total Dipole Moment    :      0.45638      -1.08526      -0.62121
                        -----------------------------------------
Magnitude (a.u.)       :      1.33115
Magnitude (Debye)      :      3.38352

                             ****ORCA TERMINATED NORMALLY****
TOTAL RUN TIME: 0 days 0 hours 0 minutes 5 seconds 199 msec
