                         Program Version 3.0.3 - RELEASE   -
|  1> ! RI PBE def2-SVP def2-SVP/J NBO PAL2
|  2> % maxcore 2000
|  3> % output
|  4>     # printlevel mini
|  5>     print[ P_Basis ] 0
|  6>     print[ P_SCFInfo ] 1
|  7>     print[ P_SCFIterInfo ] 1
|  8>     print[ P_OrbEn ] 0
|  9>     print[ P_Cartesian ] 0
| 10> end
| 11> *xyz 0 1
| 12>  O        1.2437760000     0.0058920000     0.2710100000
| 13>  C        2.6496230000    -0.0171440000     0.4711100000
| 14>  C        3.0162500000     1.3695290000     0.9610590000
| 15>  C        3.0086450000     2.4209670000    -0.1148220000
| 16>  O        3.0286250000     2.1990000000    -1.2927550000
| 17>  C        3.0260040000    -1.0834520000     1.4517390000
| 18>  C        3.8700830000    -2.0707600000     1.1880320000
| 19>  H        0.9866260000    -0.8267280000    -0.1336510000
| 20>  H        3.1679670000    -0.1947930000    -0.4798310000
| 21>  H        4.0257390000     1.3751300000     1.3923300000
| 22>  H        2.3397740000     1.6766290000     1.7660580000
| 23>  H        3.0189770000     3.4676590000     0.2606210000
| 24>  H        2.5390070000    -1.0208030000     2.4233880000
| 25>  H        4.3555820000    -2.1534050000     0.2200050000
| 26>  H        4.1120030000    -2.8280220000     1.9247970000
| 27> *
| 28>
| 29>                          ****END OF INPUT****
 Total Charge           Charge          ....    0
 Multiplicity           Mult            ....    1
 Number of Electrons    NEL             ....   54
 Basis Dimension        Dim             ....  138

MULLIKEN ATOMIC CHARGES
-----------------------
   0 O :   -0.269542
   1 C :    0.142791
   2 C :    0.001868
   3 C :    0.094819
   4 O :   -0.156965
   5 C :   -0.069784
   6 C :   -0.033069
   7 H :    0.157560
   8 H :   -0.001202
   9 H :    0.047020
  10 H :    0.036524
  11 H :   -0.007312
  12 H :    0.001927
  13 H :    0.025136
  14 H :    0.030230
Sum of atomic charges:    0.0000000

LOEWDIN ATOMIC CHARGES
----------------------
   0 O :   -0.109512
   1 C :    0.049210
   2 C :   -0.085746
   3 C :    0.099645
   4 O :   -0.102404
   5 C :   -0.046705
   6 C :   -0.057404
   7 H :    0.073013
   8 H :    0.013359
   9 H :    0.056016
  10 H :    0.043997
  11 H :   -0.010426
  12 H :    0.026112
  13 H :    0.023909
  14 H :    0.026935

  Mayer bond orders larger than 0.1
B(  0-O ,  1-C ) :   1.0465 B(  0-O ,  7-H ) :   0.9807 B(  1-C ,  2-C ) :   1.0202
B(  1-C ,  5-C ) :   1.0437 B(  1-C ,  8-H ) :   0.9094 B(  2-C ,  3-C ) :   0.9561
B(  2-C ,  9-H ) :   0.9007 B(  2-C , 10-H ) :   0.9072 B(  3-C ,  4-O ) :   2.1832
B(  3-C , 11-H ) :   0.9283 B(  5-C ,  6-C ) :   1.9762 B(  5-C , 12-H ) :   0.9503
B(  6-C , 13-H ) :   0.9480 B(  6-C , 14-H ) :   0.9399

FINAL SINGLE POINT ENERGY      -345.073342857828

DIPOLE MOMENT
-------------
                                X             Y             Z
Electronic contribution:     -1.76666       3.18407      -3.26995
Nuclear contribution   :      2.00941      -3.61691       3.99652
                        -----------------------------------------
Total Dipole Moment    :      0.24275      -0.43284       0.72657
                        -----------------------------------------
Magnitude (a.u.)       :      0.87988
Magnitude (Debye)      :      2.23648

                             ****ORCA TERMINATED NORMALLY****
TOTAL RUN TIME: 0 days 0 hours 0 minutes 6 seconds 687 msec
