                         Program Version 3.0.3 - RELEASE   -
|  1> ! RI PBE def2-SVP def2-SVP/J NBO PAL2
|  2> % maxcore 2000
|  3> % output
|  4>     # printlevel mini
|  5>     print[ P_Basis ] 0
|  6>     print[ P_SCFInfo ] 1
|  7>     print[ P_SCFIterInfo ] 1
|  8>     print[ P_OrbEn ] 0
|  9>     print[ P_Cartesian ] 0
| 10> end
| 11> *xyz 0 1
| 12>  O        1.0161030000    -0.0186080000     0.2265820000
| 13>  C        2.4008510000     0.0867990000    -0.0110420000
| 14>  C        2.7018140000     0.2023230000    -1.5052720000
| 15>  C        2.2375280000    -0.9858880000    -2.2871830000
| 16>  O        1.6119950000    -1.9044790000    -1.8229970000
| 17>  C        2.9266910000     1.2435100000     0.7047210000
| 18>  C        3.3896910000     2.1946010000     1.2696650000
| 19>  H        0.7499800000    -0.8590130000    -0.1676470000
| 20>  H        2.9182150000    -0.8062570000     0.3707250000
| 21>  H        3.7745570000     0.3374310000    -1.6869940000
| 22>  H        2.2126640000     1.0925140000    -1.9202700000
| 23>  H        2.5049000000    -0.9821770000    -3.3641810000
| 24>  H        3.7890210000     3.0377340000     1.7822840000
| 25> *
| 26>
| 27>                          ****END OF INPUT****
 Total Charge           Charge          ....    0
 Multiplicity           Mult            ....    1
 Number of Electrons    NEL             ....   52
 Basis Dimension        Dim             ....  128

MULLIKEN ATOMIC CHARGES
-----------------------
   0 O :   -0.253781
   1 C :    0.141123
   2 C :   -0.013405
   3 C :    0.103953
   4 O :   -0.177956
   5 C :    0.395642
   6 C :   -0.496508
   7 H :    0.155464
   8 H :    0.026326
   9 H :    0.047320
  10 H :    0.054965
  11 H :    0.011877
  12 H :    0.004980
Sum of atomic charges:    0.0000000

LOEWDIN ATOMIC CHARGES
----------------------
   0 O :   -0.105024
   1 C :    0.042376
   2 C :   -0.088090
   3 C :    0.107661
   4 O :   -0.110337
   5 C :   -0.019503
   6 C :   -0.064681
   7 H :    0.056884
   8 H :    0.032272
   9 H :    0.053672
  10 H :    0.058289
  11 H :   -0.000599
  12 H :    0.037081

  Mayer bond orders larger than 0.1
B(  0-O ,  1-C ) :   1.1341 B(  0-O ,  7-H ) :   0.9570 B(  1-C ,  2-C ) :   1.0156
B(  1-C ,  5-C ) :   0.9638 B(  1-C ,  8-H ) :   0.8955 B(  2-C ,  3-C ) :   0.9790
B(  2-C ,  9-H ) :   0.8977 B(  2-C , 10-H ) :   0.8851 B(  3-C ,  4-O ) :   2.1158
B(  3-C , 11-H ) :   0.9347 B(  5-C ,  6-C ) :   2.3615 B(  5-C , 12-H ) :  -0.1076
B(  6-C , 12-H ) :   1.0971

FINAL SINGLE POINT ENERGY      -343.829468703948

DIPOLE MOMENT
-------------
                                X             Y             Z
Electronic contribution:     -1.44031      -1.21883       1.00089
Nuclear contribution   :      2.18799       1.44890      -1.67104
                        -----------------------------------------
Total Dipole Moment    :      0.74768       0.23006      -0.67015
                        -----------------------------------------
Magnitude (a.u.)       :      1.03007
Magnitude (Debye)      :      2.61824

                             ****ORCA TERMINATED NORMALLY****
TOTAL RUN TIME: 0 days 0 hours 0 minutes 5 seconds 907 msec
