                         Program Version 3.0.3 - RELEASE   -
|  1> ! RI PBE def2-SVP def2-SVP/J NBO PAL2
|  2> % maxcore 2000
|  3> % output
|  4>     # printlevel mini
|  5>     print[ P_Basis ] 0
|  6>     print[ P_SCFInfo ] 1
|  7>     print[ P_SCFIterInfo ] 1
|  8>     print[ P_OrbEn ] 0
|  9>     print[ P_Cartesian ] 0
| 10> end
| 11> *xyz 0 1
| 12>  O        3.6559120000    -0.8616950000     0.4977460000
| 13>  C        2.4853690000    -0.1671360000     0.1271950000
| 14>  C        2.8352770000     1.1493370000    -0.4705470000
| 15>  C        4.0801110000     1.5741630000    -0.6177150000
| 16>  O        4.3536980000     2.7866590000    -1.1702030000
| 17>  C        5.6532270000     3.1482160000    -1.2855520000
| 18>  C        6.0190150000     4.3075340000    -1.8098860000
| 19>  H        3.4010590000    -1.7043940000     0.8778770000
| 20>  H        1.8335190000    -0.0057520000     1.0001620000
| 21>  H        1.8986710000    -0.7497960000    -0.6003410000
| 22>  H        2.0114670000     1.7765180000    -0.7952910000
| 23>  H        4.9367510000     0.9838870000    -0.3087800000
| 24>  H        6.3698460000     2.4178790000    -0.9167200000
| 25>  H        5.2908110000     5.0218760000    -2.1717420000
| 26>  H        7.0694680000     4.5498950000    -1.8798820000
| 27> *
| 28>
| 29>                          ****END OF INPUT****
 Total Charge           Charge          ....    0
 Multiplicity           Mult            ....    1
 Number of Electrons    NEL             ....   54
 Basis Dimension        Dim             ....  138

MULLIKEN ATOMIC CHARGES
-----------------------
   0 O :   -0.274836
   1 C :    0.206457
   2 C :   -0.171506
   3 C :    0.147466
   4 O :   -0.196429
   5 C :    0.103074
   6 C :   -0.077643
   7 H :    0.160339
   8 H :    0.012845
   9 H :    0.011451
  10 H :    0.009861
  11 H :    0.007962
  12 H :    0.003591
  13 H :    0.030622
  14 H :    0.026747
Sum of atomic charges:   -0.0000000

LOEWDIN ATOMIC CHARGES
----------------------
   0 O :   -0.122768
   1 C :    0.063605
   2 C :   -0.106264
   3 C :    0.033451
   4 O :   -0.013526
   5 C :    0.037125
   6 C :   -0.120456
   7 H :    0.074701
   8 H :    0.013821
   9 H :    0.013517
  10 H :    0.033407
  11 H :    0.015653
  12 H :    0.014798
  13 H :    0.030419
  14 H :    0.032516

  Mayer bond orders larger than 0.1
B(  0-O ,  1-C ) :   1.1024 B(  0-O ,  7-H ) :   0.9752 B(  1-C ,  2-C ) :   1.0557
B(  1-C ,  8-H ) :   0.9203 B(  1-C ,  9-H ) :   0.9200 B(  2-C ,  3-C ) :   1.8400
B(  2-C , 10-H ) :   0.9445 B(  3-C ,  4-O ) :   1.0685 B(  3-C , 11-H ) :   0.9381
B(  4-O ,  5-C ) :   1.0873 B(  5-C ,  6-C ) :   1.9241 B(  5-C , 12-H ) :   0.9453
B(  6-C , 13-H ) :   0.9471 B(  6-C , 14-H ) :   0.9373

FINAL SINGLE POINT ENERGY      -345.049036420242

DIPOLE MOMENT
-------------
                                X             Y             Z
Electronic contribution:      0.00718      -0.00978       0.00616
Nuclear contribution   :     -0.28154      -0.74214       0.33218
                        -----------------------------------------
Total Dipole Moment    :     -0.27436      -0.75192       0.33834
                        -----------------------------------------
Magnitude (a.u.)       :      0.86898
Magnitude (Debye)      :      2.20878

                             ****ORCA TERMINATED NORMALLY****
TOTAL RUN TIME: 0 days 0 hours 0 minutes 6 seconds 584 msec
