                         Program Version 3.0.3 - RELEASE   -
|  1> ! RI PBE def2-SVP def2-SVP/J NBO PAL2
|  2> % maxcore 2000
|  3> % output
|  4>     # printlevel mini
|  5>     print[ P_Basis ] 0
|  6>     print[ P_SCFInfo ] 1
|  7>     print[ P_SCFIterInfo ] 1
|  8>     print[ P_OrbEn ] 0
|  9>     print[ P_Cartesian ] 0
| 10> end
| 11> *xyz 0 1
| 12>  O        0.8093340000    -1.2201580000    -0.0997980000
| 13>  C        2.0381790000    -0.5690860000     0.0912160000
| 14>  C        2.5599460000    -0.0629930000    -1.2144960000
| 15>  C        1.9279390000    -0.1406650000    -2.3772590000
| 16>  O        3.8002590000     0.4720430000    -1.0151560000
| 17>  C        4.2830840000     1.3504060000    -1.9336150000
| 18>  C        5.5807600000     1.4983430000    -2.1420060000
| 19>  H        0.4887930000    -1.5158550000     0.7542420000
| 20>  H        2.7975130000    -1.2410020000     0.5169980000
| 21>  H        1.9449730000     0.2868280000     0.7757770000
| 22>  H        0.9438960000    -0.5844910000    -2.4033080000
| 23>  H        2.3744510000     0.1989970000    -3.3016430000
| 24>  H        3.5236580000     1.9436380000    -2.4358900000
| 25>  H        6.3101500000     0.8816670000    -1.6324570000
| 26>  H        5.9278570000     2.2604200000    -2.8254170000
| 27> *
| 28>
| 29>                          ****END OF INPUT****
 Total Charge           Charge          ....    0
 Multiplicity           Mult            ....    1
 Number of Electrons    NEL             ....   54
 Basis Dimension        Dim             ....  138

MULLIKEN ATOMIC CHARGES
-----------------------
   0 O :   -0.264586
   1 C :    0.219826
   2 C :   -0.024461
   3 C :   -0.062893
   4 O :   -0.223987
   5 C :    0.093813
   6 C :   -0.062060
   7 H :    0.162100
   8 H :    0.016300
   9 H :    0.017766
  10 H :    0.028903
  11 H :    0.023218
  12 H :    0.014035
  13 H :    0.030881
  14 H :    0.031143
Sum of atomic charges:    0.0000000

LOEWDIN ATOMIC CHARGES
----------------------
   0 O :   -0.112191
   1 C :    0.053278
   2 C :    0.014759
   3 C :   -0.125543
   4 O :   -0.025515
   5 C :    0.042682
   6 C :   -0.106033
   7 H :    0.076708
   8 H :    0.019037
   9 H :    0.018535
  10 H :    0.035378
  11 H :    0.026902
  12 H :    0.017527
  13 H :    0.030863
  14 H :    0.033615

  Mayer bond orders larger than 0.1
B(  0-O ,  1-C ) :   1.1194 B(  0-O ,  7-H ) :   0.9734 B(  1-C ,  2-C ) :   1.0094
B(  1-C ,  8-H ) :   0.9128 B(  1-C ,  9-H ) :   0.9153 B(  2-C ,  3-C ) :   1.9130
B(  2-C ,  4-O ) :   1.0656 B(  3-C , 10-H ) :   0.9063 B(  3-C , 11-H ) :   0.9297
B(  4-O ,  5-C ) :   1.0680 B(  5-C ,  6-C ) :   1.9465 B(  5-C , 12-H ) :   0.9373
B(  6-C , 13-H ) :   0.9487 B(  6-C , 14-H ) :   0.9398

FINAL SINGLE POINT ENERGY      -345.050692065651

DIPOLE MOMENT
-------------
                                X             Y             Z
Electronic contribution:     -0.79822      -0.89999       1.45652
Nuclear contribution   :      0.66564       0.93624      -0.92420
                        -----------------------------------------
Total Dipole Moment    :     -0.13258       0.03625       0.53233
                        -----------------------------------------
Magnitude (a.u.)       :      0.54979
Magnitude (Debye)      :      1.39744

                             ****ORCA TERMINATED NORMALLY****
TOTAL RUN TIME: 0 days 0 hours 0 minutes 6 seconds 537 msec
