                         Program Version 3.0.3 - RELEASE   -
|  1> ! RI PBE def2-SVP def2-SVP/J NBO PAL2
|  2> % maxcore 2000
|  3> % output
|  4>     # printlevel mini
|  5>     print[ P_Basis ] 0
|  6>     print[ P_SCFInfo ] 1
|  7>     print[ P_SCFIterInfo ] 1
|  8>     print[ P_OrbEn ] 0
|  9>     print[ P_Cartesian ] 0
| 10> end
| 11> *xyz 0 1
| 12>  O        2.7367500000     1.5289010000     0.0615340000
| 13>  C        2.4007200000     0.1693970000    -0.0813210000
| 14>  C        3.0278540000    -0.3367710000    -1.3816340000
| 15>  C        2.4691450000     0.4895060000    -2.5418050000
| 16>  O        1.3685340000     0.3093880000    -2.9754200000
| 17>  C        4.4799780000    -0.3239240000    -1.3601910000
| 18>  C        5.6794790000    -0.3034640000    -1.3752730000
| 19>  H        2.3234300000     1.8702400000     0.8573150000
| 20>  H        1.3159110000     0.0278420000    -0.1617920000
| 21>  H        2.7772390000    -0.4328000000     0.7542880000
| 22>  H        2.6676750000    -1.3604910000    -1.5328100000
| 23>  H        3.1411770000     1.2697400000    -2.9467100000
| 24>  H        6.7437770000    -0.2878840000    -1.3800390000
| 25> *
| 26>
| 27>                          ****END OF INPUT****
 Total Charge           Charge          ....    0
 Multiplicity           Mult            ....    1
 Number of Electrons    NEL             ....   52
 Basis Dimension        Dim             ....  128

MULLIKEN ATOMIC CHARGES
-----------------------
   0 O :   -0.270923
   1 C :    0.176334
   2 C :   -0.069229
   3 C :    0.124919
   4 O :   -0.149869
   5 C :    0.415630
   6 C :   -0.505774
   7 H :    0.164409
   8 H :    0.021036
   9 H :    0.022300
  10 H :    0.054071
  11 H :    0.017592
  12 H :   -0.000495
Sum of atomic charges:   -0.0000000

LOEWDIN ATOMIC CHARGES
----------------------
   0 O :   -0.116382
   1 C :    0.080570
   2 C :   -0.099858
   3 C :    0.118626
   4 O :   -0.093596
   5 C :   -0.020171
   6 C :   -0.071957
   7 H :    0.078409
   8 H :    0.011494
   9 H :    0.012502
  10 H :    0.064378
  11 H :   -0.000080
  12 H :    0.036067

  Mayer bond orders larger than 0.1
B(  0-O ,  1-C ) :   1.0965 B(  0-O ,  7-H ) :   0.9773 B(  1-C ,  2-C ) :   1.0458
B(  1-C ,  8-H ) :   0.9267 B(  1-C ,  9-H ) :   0.9337 B(  2-C ,  3-C ) :   0.8787
B(  2-C ,  5-C ) :   0.9403 B(  2-C , 10-H ) :   0.8656 B(  3-C ,  4-O ) :   2.1906
B(  3-C , 11-H ) :   0.9411 B(  5-C ,  6-C ) :   2.3188 B(  5-C , 12-H ) :  -0.1210
B(  6-C , 12-H ) :   1.1116

FINAL SINGLE POINT ENERGY      -343.821705350406

DIPOLE MOMENT
-------------
                                X             Y             Z
Electronic contribution:     -0.26928       0.40162      -2.50095
Nuclear contribution   :      0.45539      -0.50151       3.43499
                        -----------------------------------------
Total Dipole Moment    :      0.18611      -0.09989       0.93404
                        -----------------------------------------
Magnitude (a.u.)       :      0.95763
Magnitude (Debye)      :      2.43410

                             ****ORCA TERMINATED NORMALLY****
TOTAL RUN TIME: 0 days 0 hours 0 minutes 6 seconds 210 msec
