                         Program Version 3.0.3 - RELEASE   -
|  1> ! RI PBE def2-SVP def2-SVP/J NBO PAL2
|  2> % maxcore 2000
|  3> % output
|  4>     # printlevel mini
|  5>     print[ P_Basis ] 0
|  6>     print[ P_SCFInfo ] 1
|  7>     print[ P_SCFIterInfo ] 1
|  8>     print[ P_OrbEn ] 0
|  9>     print[ P_Cartesian ] 0
| 10> end
| 11> *xyz 0 1
| 12>  O        2.7336690000     0.3929100000     1.2151900000
| 13>  C        2.3826690000    -0.0769770000    -0.0726660000
| 14>  C        2.9748840000    -1.4712630000    -0.2483340000
| 15>  C        2.3761530000    -2.1648690000    -1.4554160000
| 16>  O        2.5850990000    -1.3807600000    -2.6158790000
| 17>  C        4.4743170000    -1.4306410000    -0.2059430000
| 18>  C        5.3083860000    -1.8648170000    -1.1400920000
| 19>  H        2.5423720000     1.3315600000     1.2604560000
| 20>  H        2.7650410000     0.5833170000    -0.8581510000
| 21>  H        1.2899580000    -0.1356380000    -0.1805200000
| 22>  H        2.6439290000    -2.0467170000     0.6285580000
| 23>  H        1.3009330000    -2.3073930000    -1.2782130000
| 24>  H        2.8307420000    -3.1585730000    -1.5634990000
| 25>  H        2.1596700000    -1.8158060000    -3.3576270000
| 26>  H        4.8782490000    -0.9871150000     0.7003180000
| 27>  H        4.9607580000    -2.2845270000    -2.0771420000
| 28>  H        6.3812810000    -1.7934110000    -1.0019300000
| 29> *
| 30>
| 31>                          ****END OF INPUT****
 Total Charge           Charge          ....    0
 Multiplicity           Mult            ....    1
 Number of Electrons    NEL             ....   56
 Basis Dimension        Dim             ....  148

MULLIKEN ATOMIC CHARGES
-----------------------
   0 O :   -0.274625
   1 C :    0.169912
   2 C :   -0.085239
   3 C :    0.160839
   4 O :   -0.274656
   5 C :   -0.052731
   6 C :   -0.015427
   7 H :    0.156032
   8 H :    0.013271
   9 H :   -0.007222
  10 H :    0.023032
  11 H :   -0.003068
  12 H :    0.006043
  13 H :    0.155952
  14 H :   -0.000059
  15 H :    0.010156
  16 H :    0.017789
Sum of atomic charges:   -0.0000000

LOEWDIN ATOMIC CHARGES
----------------------
   0 O :   -0.126824
   1 C :    0.067708
   2 C :   -0.068028
   3 C :    0.063456
   4 O :   -0.124480
   5 C :   -0.020408
   6 C :   -0.068088
   7 H :    0.072013
   8 H :    0.009647
   9 H :    0.003111
  10 H :    0.043149
  11 H :    0.005148
  12 H :    0.006367
  13 H :    0.072218
  14 H :    0.025246
  15 H :    0.016698
  16 H :    0.023065

  Mayer bond orders larger than 0.1
B(  0-O ,  1-C ) :   1.0966 B(  0-O ,  7-H ) :   0.9795 B(  1-C ,  2-C ) :   1.0248
B(  1-C ,  8-H ) :   0.9302 B(  1-C ,  9-H ) :   0.9321 B(  2-C ,  3-C ) :   1.0772
B(  2-C ,  5-C ) :   1.0159 B(  2-C , 10-H ) :   0.8824 B(  3-C ,  4-O ) :   1.0715
B(  3-C , 11-H ) :   0.9211 B(  3-C , 12-H ) :   0.9243 B(  4-O , 13-H ) :   0.9798
B(  5-C ,  6-C ) :   2.0300 B(  5-C , 14-H ) :   0.9528 B(  6-C , 15-H ) :   0.9176
B(  6-C , 16-H ) :   0.9422

FINAL SINGLE POINT ENERGY      -346.262394526408

DIPOLE MOMENT
-------------
                                X             Y             Z
Electronic contribution:     -0.35458       1.46161       0.63486
Nuclear contribution   :     -0.30915      -1.46401      -1.03202
                        -----------------------------------------
Total Dipole Moment    :     -0.66372      -0.00239      -0.39716
                        -----------------------------------------
Magnitude (a.u.)       :      0.77348
Magnitude (Debye)      :      1.96603

                             ****ORCA TERMINATED NORMALLY****
TOTAL RUN TIME: 0 days 0 hours 0 minutes 7 seconds 572 msec
