                         Program Version 3.0.3 - RELEASE   -
|  1> ! RI PBE def2-SVP def2-SVP/J NBO PAL2
|  2> % maxcore 2000
|  3> % output
|  4>     # printlevel mini
|  5>     print[ P_Basis ] 0
|  6>     print[ P_SCFInfo ] 1
|  7>     print[ P_SCFIterInfo ] 1
|  8>     print[ P_OrbEn ] 0
|  9>     print[ P_Cartesian ] 0
| 10> end
| 11> *xyz 0 1
| 12>  O        0.9278670000     0.0302660000    -0.0727150000
| 13>  C        2.3457700000     0.0235340000    -0.0147360000
| 14>  C        2.8218510000    -1.4261270000     0.0178770000
| 15>  C        2.3409020000    -2.2269130000    -1.2047620000
| 16>  O        0.9716700000    -2.5189630000    -1.1566670000
| 17>  C        4.2730290000    -1.4473170000     0.1087880000
| 18>  C        5.4729590000    -1.4559140000     0.1491930000
| 19>  H        0.6237900000     0.9336770000    -0.1824880000
| 20>  H        2.7015220000     0.5469600000     0.8799190000
| 21>  H        2.7756870000     0.5171150000    -0.8956040000
| 22>  H        2.4005240000    -1.9087530000     0.9084300000
| 23>  H        2.8705510000    -3.1808790000    -1.2355380000
| 24>  H        2.6112450000    -1.6703530000    -2.1154120000
| 25>  H        0.5147660000    -1.6904590000    -0.9664950000
| 26>  H        6.5361870000    -1.4731460000     0.1953420000
| 27> *
| 28>
| 29>                          ****END OF INPUT****
 Total Charge           Charge          ....    0
 Multiplicity           Mult            ....    1
 Number of Electrons    NEL             ....   54
 Basis Dimension        Dim             ....  138

MULLIKEN ATOMIC CHARGES
-----------------------
   0 O :   -0.280141
   1 C :    0.177842
   2 C :   -0.105453
   3 C :    0.212517
   4 O :   -0.278408
   5 C :    0.404491
   6 C :   -0.524472
   7 H :    0.168775
   8 H :    0.020806
   9 H :    0.012126
  10 H :    0.036357
  11 H :    0.019716
  12 H :   -0.007895
  13 H :    0.146278
  14 H :   -0.002539
Sum of atomic charges:    0.0000000

LOEWDIN ATOMIC CHARGES
----------------------
   0 O :   -0.110715
   1 C :    0.074371
   2 C :   -0.078825
   3 C :    0.070847
   4 O :   -0.119919
   5 C :   -0.013619
   6 C :   -0.084550
   7 H :    0.079727
   8 H :    0.014387
   9 H :    0.010997
  10 H :    0.049833
  11 H :    0.024992
  12 H :    0.003895
  13 H :    0.043440
  14 H :    0.035138

  Mayer bond orders larger than 0.1
B(  0-O ,  1-C ) :   1.0574 B(  0-O ,  7-H ) :   0.9695 B(  1-C ,  2-C ) :   1.0360
B(  1-C ,  8-H ) :   0.9401 B(  1-C ,  9-H ) :   0.9332 B(  2-C ,  3-C ) :   1.0066
B(  2-C ,  5-C ) :   0.9672 B(  2-C , 10-H ) :   0.8607 B(  3-C ,  4-O ) :   1.1024
B(  3-C , 11-H ) :   0.9412 B(  3-C , 12-H ) :   0.9246 B(  4-O , 13-H ) :   0.9573
B(  5-C ,  6-C ) :   2.3062 B(  5-C , 14-H ) :  -0.1231 B(  6-C , 14-H ) :   1.1131

FINAL SINGLE POINT ENERGY      -345.027493018823

DIPOLE MOMENT
-------------
                                X             Y             Z
Electronic contribution:     -0.12057      -0.81798       0.73641
Nuclear contribution   :      0.28139       2.03072      -0.62692
                        -----------------------------------------
Total Dipole Moment    :      0.16081       1.21273       0.10949
                        -----------------------------------------
Magnitude (a.u.)       :      1.22824
Magnitude (Debye)      :      3.12194

                             ****ORCA TERMINATED NORMALLY****
TOTAL RUN TIME: 0 days 0 hours 0 minutes 6 seconds 516 msec
