                         Program Version 3.0.3 - RELEASE   -
|  1> ! RI PBE def2-SVP def2-SVP/J NBO PAL2
|  2> % maxcore 2000
|  3> % output
|  4>     # printlevel mini
|  5>     print[ P_Basis ] 0
|  6>     print[ P_SCFInfo ] 1
|  7>     print[ P_SCFIterInfo ] 1
|  8>     print[ P_OrbEn ] 0
|  9>     print[ P_Cartesian ] 0
| 10> end
| 11> *xyz 0 1
| 12>  O        0.8194160000     0.2011360000    -0.7305920000
| 13>  C        2.1132230000     0.1902840000    -0.1571960000
| 14>  C        2.8783780000    -0.9357720000    -0.8085130000
| 15>  C        4.2873540000    -1.0655750000    -0.2883770000
| 16>  O        4.7190080000    -0.3212020000     0.5658490000
| 17>  C        5.1616110000    -2.1301050000    -0.8338860000
| 18>  C        4.8091170000    -3.0067490000    -1.7676890000
| 19>  H        0.3162680000     0.9130840000    -0.3294180000
| 20>  H        2.0708350000     0.0307680000     0.9267330000
| 21>  H        2.6355470000     1.1393200000    -0.3264150000
| 22>  H        2.9061460000    -0.7833870000    -1.8931030000
| 23>  H        2.3468950000    -1.8810160000    -0.6523810000
| 24>  H        6.1555400000    -2.1433480000    -0.3965830000
| 25>  H        3.8209480000    -3.0071390000    -2.2144320000
| 26>  H        5.5022140000    -3.7613890000    -2.1214080000
| 27> *
| 28>
| 29>                          ****END OF INPUT****
 Total Charge           Charge          ....    0
 Multiplicity           Mult            ....    1
 Number of Electrons    NEL             ....   54
 Basis Dimension        Dim             ....  138

MULLIKEN ATOMIC CHARGES
-----------------------
   0 O :   -0.276312
   1 C :    0.158477
   2 C :   -0.048796
   3 C :   -0.006883
   4 O :   -0.167703
   5 C :   -0.001811
   6 C :   -0.006342
   7 H :    0.155265
   8 H :    0.008083
   9 H :    0.006177
  10 H :    0.045997
  11 H :    0.044653
  12 H :    0.006378
  13 H :    0.039988
  14 H :    0.042830
Sum of atomic charges:   -0.0000000

LOEWDIN ATOMIC CHARGES
----------------------
   0 O :   -0.131347
   1 C :    0.061500
   2 C :   -0.082938
   3 C :    0.051597
   4 O :   -0.119842
   5 C :   -0.051763
   6 C :   -0.006871
   7 H :    0.071722
   8 H :    0.008881
   9 H :    0.008259
  10 H :    0.045754
  11 H :    0.045313
  12 H :    0.036377
  13 H :    0.029505
  14 H :    0.033852

  Mayer bond orders larger than 0.1
B(  0-O ,  1-C ) :   1.1057 B(  0-O ,  7-H ) :   0.9782 B(  1-C ,  2-C ) :   1.0918
B(  1-C ,  8-H ) :   0.9345 B(  1-C ,  9-H ) :   0.9352 B(  2-C ,  3-C ) :   0.9712
B(  2-C , 10-H ) :   0.8986 B(  2-C , 11-H ) :   0.9013 B(  3-C ,  4-O ) :   2.1043
B(  3-C ,  5-C ) :   1.0441 B(  5-C ,  6-C ) :   1.9073 B(  5-C , 12-H ) :   0.9524
B(  6-C , 13-H ) :   0.9310 B(  6-C , 14-H ) :   0.9408

FINAL SINGLE POINT ENERGY      -345.082001076226

DIPOLE MOMENT
-------------
                                X             Y             Z
Electronic contribution:      1.53231       1.44220       1.96658
Nuclear contribution   :     -1.77979      -1.76252      -2.36089
                        -----------------------------------------
Total Dipole Moment    :     -0.24748      -0.32032      -0.39431
                        -----------------------------------------
Magnitude (a.u.)       :      0.56510
Magnitude (Debye)      :      1.43636

                             ****ORCA TERMINATED NORMALLY****
TOTAL RUN TIME: 0 days 0 hours 0 minutes 6 seconds 814 msec
