                         Program Version 3.0.3 - RELEASE   -
|  1> ! RI PBE def2-SVP def2-SVP/J NBO PAL2
|  2> % maxcore 2000
|  3> % output
|  4>     # printlevel mini
|  5>     print[ P_Basis ] 0
|  6>     print[ P_SCFInfo ] 1
|  7>     print[ P_SCFIterInfo ] 1
|  8>     print[ P_OrbEn ] 0
|  9>     print[ P_Cartesian ] 0
| 10> end
| 11> *xyz 0 1
| 12>  O        1.0736650000     0.0187740000     0.0574470000
| 13>  C        2.4716820000    -0.0579760000    -0.1345420000
| 14>  C        3.1157740000     0.7097200000     0.9944370000
| 15>  C        4.6158120000     0.7181110000     0.9230790000
| 16>  O        5.2470000000     0.1678340000     0.0526180000
| 17>  C        5.2847750000     1.4458020000     1.9895360000
| 18>  C        5.8200010000     2.0513520000     2.8785040000
| 19>  H        0.6423110000    -0.4664200000    -0.6490950000
| 20>  H        2.7716470000     0.3777510000    -1.0951010000
| 21>  H        2.8241980000    -1.0962870000    -0.1230840000
| 22>  H        2.8173450000     0.2932050000     1.9634150000
| 23>  H        2.7635640000     1.7476840000     1.0044830000
| 24>  H        6.3103260000     2.5844600000     3.6598920000
| 25> *
| 26>
| 27>                          ****END OF INPUT****
 Total Charge           Charge          ....    0
 Multiplicity           Mult            ....    1
 Number of Electrons    NEL             ....   52
 Basis Dimension        Dim             ....  128

MULLIKEN ATOMIC CHARGES
-----------------------
   0 O :   -0.275724
   1 C :    0.166374
   2 C :   -0.028495
   3 C :   -0.012775
   4 O :   -0.153061
   5 C :    0.412258
   6 C :   -0.403688
   7 H :    0.158286
   8 H :    0.005496
   9 H :    0.007896
  10 H :    0.050197
  11 H :    0.052067
  12 H :    0.021169
Sum of atomic charges:   -0.0000000

LOEWDIN ATOMIC CHARGES
----------------------
   0 O :   -0.128055
   1 C :    0.060907
   2 C :   -0.070857
   3 C :    0.044357
   4 O :   -0.097738
   5 C :   -0.035772
   6 C :   -0.012974
   7 H :    0.072827
   8 H :    0.009257
   9 H :    0.009915
  10 H :    0.052166
  11 H :    0.052684
  12 H :    0.043283

  Mayer bond orders larger than 0.1
B(  0-O ,  1-C ) :   1.1080 B(  0-O ,  7-H ) :   0.9779 B(  1-C ,  2-C ) :   1.0833
B(  1-C ,  8-H ) :   0.9338 B(  1-C ,  9-H ) :   0.9333 B(  2-C ,  3-C ) :   0.9687
B(  2-C , 10-H ) :   0.9068 B(  2-C , 11-H ) :   0.9055 B(  3-C ,  4-O ) :   2.1286
B(  3-C ,  5-C ) :   0.9112 B(  4-O ,  6-C ) :   0.1026 B(  5-C ,  6-C ) :   2.3301
B(  6-C , 12-H ) :   1.0858

FINAL SINGLE POINT ENERGY      -343.831830336936

DIPOLE MOMENT
-------------
                                X             Y             Z
Electronic contribution:      4.15893       0.69288       0.81960
Nuclear contribution   :     -4.54763      -0.51373      -0.51846
                        -----------------------------------------
Total Dipole Moment    :     -0.38869       0.17915       0.30114
                        -----------------------------------------
Magnitude (a.u.)       :      0.52332
Magnitude (Debye)      :      1.33017

                             ****ORCA TERMINATED NORMALLY****
TOTAL RUN TIME: 0 days 0 hours 0 minutes 6 seconds 83 msec
