                         Program Version 3.0.3 - RELEASE   -
|  1> ! RI PBE def2-SVP def2-SVP/J NBO PAL2
|  2> % maxcore 2000
|  3> % output
|  4>     # printlevel mini
|  5>     print[ P_Basis ] 0
|  6>     print[ P_SCFInfo ] 1
|  7>     print[ P_SCFIterInfo ] 1
|  8>     print[ P_OrbEn ] 0
|  9>     print[ P_Cartesian ] 0
| 10> end
| 11> *xyz 0 1
| 12>  O        0.7133960000     0.9926060000     1.0324160000
| 13>  C        2.0686580000     0.6499350000     1.2500490000
| 14>  C        2.9168600000     1.8332320000     0.8462560000
| 15>  C        4.4102130000     1.5822880000     1.0331460000
| 16>  O        4.8584340000     0.4808860000     0.2723860000
| 17>  C        5.2008070000     2.8313050000     0.7767960000
| 18>  C        6.2789900000     2.9066680000     0.0108810000
| 19>  H        0.1700060000     0.2259420000     1.2263100000
| 20>  H        2.3567320000    -0.2298570000     0.6629140000
| 21>  H        2.2490230000     0.4150630000     2.3096900000
| 22>  H        2.6154860000     2.7041030000     1.4371190000
| 23>  H        2.7175400000     2.0815760000    -0.2029050000
| 24>  H        4.5791310000     1.2829420000     2.0768160000
| 25>  H        4.7816960000     0.7191990000    -0.6574780000
| 26>  H        4.8263190000     3.7256930000     1.2700740000
| 27>  H        6.6916760000     2.0285450000    -0.4736890000
| 28>  H        6.7964350000     3.8463740000    -0.1400710000
| 29> *
| 30>
| 31>                          ****END OF INPUT****
 Total Charge           Charge          ....    0
 Multiplicity           Mult            ....    1
 Number of Electrons    NEL             ....   56
 Basis Dimension        Dim             ....  148

MULLIKEN ATOMIC CHARGES
-----------------------
   0 O :   -0.278472
   1 C :    0.184080
   2 C :   -0.060525
   3 C :    0.153876
   4 O :   -0.269355
   5 C :   -0.068665
   6 C :   -0.038606
   7 H :    0.155180
   8 H :   -0.005710
   9 H :   -0.013614
  10 H :    0.018318
  11 H :    0.009756
  12 H :    0.017066
  13 H :    0.154419
  14 H :    0.001631
  15 H :    0.013451
  16 H :    0.027169
Sum of atomic charges:   -0.0000000

LOEWDIN ATOMIC CHARGES
----------------------
   0 O :   -0.131065
   1 C :    0.056622
   2 C :   -0.062210
   3 C :    0.044037
   4 O :   -0.100020
   5 C :   -0.043454
   6 C :   -0.067775
   7 H :    0.070438
   8 H :    0.002281
   9 H :    0.002534
  10 H :    0.030865
  11 H :    0.025483
  12 H :    0.032784
  13 H :    0.066543
  14 H :    0.028216
  15 H :    0.018041
  16 H :    0.026678

  Mayer bond orders larger than 0.1
B(  0-O ,  1-C ) :   1.1038 B(  0-O ,  7-H ) :   0.9799 B(  1-C ,  2-C ) :   1.0812
B(  1-C ,  8-H ) :   0.9275 B(  1-C ,  9-H ) :   0.9281 B(  2-C ,  3-C ) :   1.0246
B(  2-C , 10-H ) :   0.9199 B(  2-C , 11-H ) :   0.9273 B(  3-C ,  4-O ) :   1.0497
B(  3-C ,  5-C ) :   1.0067 B(  3-C , 12-H ) :   0.8854 B(  4-O , 13-H ) :   0.9737
B(  5-C ,  6-C ) :   2.0105 B(  5-C , 14-H ) :   0.9444 B(  6-C , 15-H ) :   0.9363
B(  6-C , 16-H ) :   0.9404

FINAL SINGLE POINT ENERGY      -346.269336651501

DIPOLE MOMENT
-------------
                                X             Y             Z
Electronic contribution:     -0.87730      -1.30859      -0.12820
Nuclear contribution   :      0.70173       1.19968       0.10733
                        -----------------------------------------
Total Dipole Moment    :     -0.17558      -0.10892      -0.02087
                        -----------------------------------------
Magnitude (a.u.)       :      0.20767
Magnitude (Debye)      :      0.52785

                             ****ORCA TERMINATED NORMALLY****
TOTAL RUN TIME: 0 days 0 hours 0 minutes 7 seconds 22 msec
