                         Program Version 3.0.3 - RELEASE   -
|  1> ! RI PBE def2-SVP def2-SVP/J NBO PAL2
|  2> % maxcore 2000
|  3> % output
|  4>     # printlevel mini
|  5>     print[ P_Basis ] 0
|  6>     print[ P_SCFInfo ] 1
|  7>     print[ P_SCFIterInfo ] 1
|  8>     print[ P_OrbEn ] 0
|  9>     print[ P_Cartesian ] 0
| 10> end
| 11> *xyz 0 1
| 12>  O        1.0253550000     0.0141660000    -0.0485580000
| 13>  C        2.4346980000    -0.0465790000     0.0396970000
| 14>  C        2.9951280000     1.0699230000    -0.8111110000
| 15>  C        4.5208490000     1.0916410000    -0.8644520000
| 16>  O        4.9942350000     2.0372160000    -1.8038720000
| 17>  C        5.1112890000     1.3113960000     0.4575480000
| 18>  C        5.5827250000     1.5258330000     1.5409250000
| 19>  H        0.6539450000    -0.6590880000     0.5255160000
| 20>  H        2.8090730000    -1.0141690000    -0.3268400000
| 21>  H        2.7722160000     0.0687900000     1.0775940000
| 22>  H        2.6311330000     2.0293960000    -0.4297180000
| 23>  H        2.6323970000     0.9616000000    -1.8363300000
| 24>  H        4.8751970000     0.1249760000    -1.2395890000
| 25>  H        4.8282980000     2.9162020000    -1.4498400000
| 26>  H        6.0114620000     1.7109960000     2.4976290000
| 27> *
| 28>
| 29>                          ****END OF INPUT****
 Total Charge           Charge          ....    0
 Multiplicity           Mult            ....    1
 Number of Electrons    NEL             ....   54
 Basis Dimension        Dim             ....  138

MULLIKEN ATOMIC CHARGES
-----------------------
   0 O :   -0.274931
   1 C :    0.136458
   2 C :    0.005471
   3 C :    0.172249
   4 O :   -0.265773
   5 C :    0.348017
   6 C :   -0.498498
   7 H :    0.154653
   8 H :   -0.007691
   9 H :    0.010769
  10 H :    0.009137
  11 H :    0.027385
  12 H :    0.021106
  13 H :    0.158688
  14 H :    0.002959
Sum of atomic charges:   -0.0000000

LOEWDIN ATOMIC CHARGES
----------------------
   0 O :   -0.127869
   1 C :    0.057261
   2 C :   -0.052802
   3 C :    0.040917
   4 O :   -0.095511
   5 C :   -0.038324
   6 C :   -0.075573
   7 H :    0.071215
   8 H :    0.003267
   9 H :    0.008135
  10 H :    0.026570
  11 H :    0.033419
  12 H :    0.040792
  13 H :    0.071635
  14 H :    0.036868

  Mayer bond orders larger than 0.1
B(  0-O ,  1-C ) :   1.0968 B(  0-O ,  7-H ) :   0.9791 B(  1-C ,  2-C ) :   1.0633
B(  1-C ,  8-H ) :   0.9300 B(  1-C ,  9-H ) :   0.9327 B(  2-C ,  3-C ) :   1.0428
B(  2-C , 10-H ) :   0.9213 B(  2-C , 11-H ) :   0.9217 B(  3-C ,  4-O ) :   1.0323
B(  3-C ,  5-C ) :   0.9582 B(  3-C , 12-H ) :   0.8753 B(  4-O , 13-H ) :   0.9814
B(  5-C ,  6-C ) :   2.3429 B(  5-C , 14-H ) :  -0.1139 B(  6-C , 14-H ) :   1.1037

FINAL SINGLE POINT ENERGY      -345.020900531933

DIPOLE MOMENT
-------------
                                X             Y             Z
Electronic contribution:      2.21135       1.38885      -0.13548
Nuclear contribution   :     -2.35470      -1.62293       0.85647
                        -----------------------------------------
Total Dipole Moment    :     -0.14334      -0.23408       0.72099
                        -----------------------------------------
Magnitude (a.u.)       :      0.77147
Magnitude (Debye)      :      1.96092

                             ****ORCA TERMINATED NORMALLY****
TOTAL RUN TIME: 0 days 0 hours 0 minutes 6 seconds 849 msec
