                         Program Version 3.0.3 - RELEASE   -
|  1> ! RI PBE def2-SVP def2-SVP/J NBO PAL2
|  2> % maxcore 2000
|  3> % output
|  4>     # printlevel mini
|  5>     print[ P_Basis ] 0
|  6>     print[ P_SCFInfo ] 1
|  7>     print[ P_SCFIterInfo ] 1
|  8>     print[ P_OrbEn ] 0
|  9>     print[ P_Cartesian ] 0
| 10> end
| 11> *xyz 0 1
| 12>  O        4.6654200000    -0.5395520000    -1.1936000000
| 13>  C        4.4710940000     0.7254550000    -0.5899040000
| 14>  C        3.0869430000     0.7620290000     0.0146900000
| 15>  C        2.9083880000    -0.2615290000     1.1111680000
| 16>  O        1.6028950000    -0.1159140000     1.6373030000
| 17>  C        1.2506300000    -0.9541220000     2.6264500000
| 18>  C        1.9774070000    -1.9160440000     3.1886830000
| 19>  H        5.5447000000    -0.5677590000    -1.5765110000
| 20>  H        4.5641270000     1.5312740000    -1.3297010000
| 21>  H        5.2247810000     0.9037960000     0.1914260000
| 22>  H        2.3445650000     0.5873970000    -0.7692550000
| 23>  H        2.9044040000     1.7614630000     0.4207710000
| 24>  H        3.6442020000    -0.1064240000     1.9124220000
| 25>  H        3.0427990000    -1.2762200000     0.7223790000
| 26>  H        0.2338660000    -0.7493530000     2.9456650000
| 27>  H        2.9913440000    -2.1493910000     2.8947480000
| 28>  H        1.5344550000    -2.5030460000     3.9810780000
| 29> *
| 30>
| 31>                          ****END OF INPUT****
 Total Charge           Charge          ....    0
 Multiplicity           Mult            ....    1
 Number of Electrons    NEL             ....   56
 Basis Dimension        Dim             ....  148

MULLIKEN ATOMIC CHARGES
-----------------------
   0 O :   -0.281548
   1 C :    0.123822
   2 C :   -0.016064
   3 C :    0.134684
   4 O :   -0.260525
   5 C :    0.109637
   6 C :   -0.122086
   7 H :    0.157458
   8 H :    0.008348
   9 H :   -0.002983
  10 H :    0.029506
  11 H :    0.017908
  12 H :    0.009681
  13 H :    0.033428
  14 H :    0.008561
  15 H :    0.028334
  16 H :    0.021841
Sum of atomic charges:    0.0000000

LOEWDIN ATOMIC CHARGES
----------------------
   0 O :   -0.130023
   1 C :    0.058061
   2 C :   -0.058879
   3 C :    0.070437
   4 O :   -0.066274
   5 C :    0.031314
   6 C :   -0.161270
   7 H :    0.072779
   8 H :    0.008153
   9 H :    0.003305
  10 H :    0.033642
  11 H :    0.032976
  12 H :    0.012513
  13 H :    0.018084
  14 H :    0.022082
  15 H :    0.022650
  16 H :    0.030452

  Mayer bond orders larger than 0.1
B(  0-O ,  1-C ) :   1.0816 B(  0-O ,  7-H ) :   0.9793 B(  1-C ,  2-C ) :   1.0868
B(  1-C ,  8-H ) :   0.9368 B(  1-C ,  9-H ) :   0.9272 B(  2-C ,  3-C ) :   1.0776
B(  2-C , 10-H ) :   0.9248 B(  2-C , 11-H ) :   0.9276 B(  3-C ,  4-O ) :   0.9773
B(  3-C , 12-H ) :   0.9314 B(  3-C , 13-H ) :   0.9326 B(  4-O ,  5-C ) :   1.1646
B(  4-O ,  6-C ) :   0.1050 B(  5-C ,  6-C ) :   1.8591 B(  5-C , 14-H ) :   0.9644
B(  6-C , 15-H ) :   0.9507 B(  6-C , 16-H ) :   0.9381

FINAL SINGLE POINT ENERGY      -346.268409002673

DIPOLE MOMENT
-------------
                                X             Y             Z
Electronic contribution:     -1.97138      -0.22690      -0.55739
Nuclear contribution   :      2.76865       0.60551       0.26295
                        -----------------------------------------
Total Dipole Moment    :      0.79727       0.37861      -0.29444
                        -----------------------------------------
Magnitude (a.u.)       :      0.93042
Magnitude (Debye)      :      2.36494

                             ****ORCA TERMINATED NORMALLY****
TOTAL RUN TIME: 0 days 0 hours 0 minutes 7 seconds 240 msec
