                         Program Version 3.0.3 - RELEASE   -
|  1> ! RI PBE def2-SVP def2-SVP/J NBO PAL2
|  2> % maxcore 2000
|  3> % output
|  4>     # printlevel mini
|  5>     print[ P_Basis ] 0
|  6>     print[ P_SCFInfo ] 1
|  7>     print[ P_SCFIterInfo ] 1
|  8>     print[ P_OrbEn ] 0
|  9>     print[ P_Cartesian ] 0
| 10> end
| 11> *xyz 0 1
| 12>  O        2.4262800000     1.0242060000    -0.1580680000
| 13>  C        2.1252820000     0.4407050000     1.0916540000
| 14>  C        3.4352840000     0.0262280000     1.7162540000
| 15>  O        3.1515290000    -0.5522700000     2.9676780000
| 16>  C        4.2908870000    -0.9712370000     3.6363340000
| 17>  C        4.1221200000    -2.0823860000     4.6031260000
| 18>  C        4.8715400000    -2.3136980000     3.3163830000
| 19>  H        1.6065010000     1.2981290000    -0.5733310000
| 20>  H        1.4831910000    -0.4432030000     0.9833240000
| 21>  H        1.6165990000     1.1484630000     1.7589750000
| 22>  H        4.0840070000     0.9063190000     1.8295220000
| 23>  H        3.9520360000    -0.6879990000     1.0614470000
| 24>  H        4.9819270000    -0.1677050000     3.8893840000
| 25>  H        3.1288890000    -2.5069140000     4.6758130000
| 26>  H        4.6751950000    -2.0461810000     5.5330280000
| 27>  H        4.3645210000    -2.8929800000     2.5545470000
| 28>  H        5.9465030000    -2.4404870000     3.3503300000
| 29> *
| 30>
| 31>                          ****END OF INPUT****
 Total Charge           Charge          ....    0
 Multiplicity           Mult            ....    1
 Number of Electrons    NEL             ....   56
 Basis Dimension        Dim             ....  148

MULLIKEN ATOMIC CHARGES
-----------------------
   0 O :   -0.282655
   1 C :    0.133485
   2 C :    0.164123
   3 O :   -0.312797
   4 C :    0.052526
   5 C :   -0.027950
   6 C :   -0.073709
   7 H :    0.158107
   8 H :    0.004665
   9 H :    0.006355
  10 H :    0.003289
  11 H :    0.003356
  12 H :    0.011496
  13 H :    0.044312
  14 H :    0.033873
  15 H :    0.040575
  16 H :    0.040948
Sum of atomic charges:    0.0000000

LOEWDIN ATOMIC CHARGES
----------------------
   0 O :   -0.127310
   1 C :    0.047466
   2 C :    0.055930
   3 O :   -0.125025
   4 C :    0.035142
   5 C :   -0.050052
   6 C :   -0.066401
   7 H :    0.072954
   8 H :    0.005516
   9 H :    0.006073
  10 H :    0.008344
  11 H :    0.007365
  12 H :    0.009272
  13 H :    0.033679
  14 H :    0.028659
  15 H :    0.030935
  16 H :    0.027456

  Mayer bond orders larger than 0.1
B(  0-O ,  1-C ) :   1.0885 B(  0-O ,  7-H ) :   0.9795 B(  1-C ,  2-C ) :   1.0693
B(  1-C ,  8-H ) :   0.9307 B(  1-C ,  9-H ) :   0.9329 B(  2-C ,  3-O ) :   0.9937
B(  2-C , 10-H ) :   0.9293 B(  2-C , 11-H ) :   0.9279 B(  3-O ,  4-C ) :   1.0760
B(  4-C ,  5-C ) :   1.0040 B(  4-C ,  6-C ) :   1.0000 B(  4-C , 12-H ) :   0.9315
B(  5-C ,  6-C ) :   1.0334 B(  5-C , 13-H ) :   0.9461 B(  5-C , 14-H ) :   0.9420
B(  6-C , 15-H ) :   0.9416 B(  6-C , 16-H ) :   0.9446

FINAL SINGLE POINT ENERGY      -346.252951210132

DIPOLE MOMENT
-------------
                                X             Y             Z
Electronic contribution:     -1.50020       1.91452      -1.24772
Nuclear contribution   :      1.29642      -1.88588       1.18735
                        -----------------------------------------
Total Dipole Moment    :     -0.20378       0.02863      -0.06037
                        -----------------------------------------
Magnitude (a.u.)       :      0.21445
Magnitude (Debye)      :      0.54509

                             ****ORCA TERMINATED NORMALLY****
TOTAL RUN TIME: 0 days 0 hours 0 minutes 7 seconds 255 msec
