                         Program Version 3.0.3 - RELEASE   -
|  1> ! RI PBE def2-SVP def2-SVP/J NBO PAL2
|  2> % maxcore 2000
|  3> % output
|  4>     # printlevel mini
|  5>     print[ P_Basis ] 0
|  6>     print[ P_SCFInfo ] 1
|  7>     print[ P_SCFIterInfo ] 1
|  8>     print[ P_OrbEn ] 0
|  9>     print[ P_Cartesian ] 0
| 10> end
| 11> *xyz 0 1
| 12>  O        2.2485660000     0.1614020000    -0.7974230000
| 13>  C        3.0061510000    -0.6876340000    -0.4220080000
| 14>  C        3.8276710000    -0.5665510000     0.8342550000
| 15>  O        4.5814990000    -1.7364950000     0.9914920000
| 16>  C        5.4019010000    -1.7066840000     2.1122480000
| 17>  C        6.6331310000    -2.5285820000     2.0514930000
| 18>  C        6.7313190000    -1.0253720000     2.0192550000
| 19>  H        3.1586340000    -1.6346780000    -0.9818370000
| 20>  H        3.1455710000    -0.3997630000     1.6814900000
| 21>  H        4.4669630000     0.3247150000     0.7516210000
| 22>  H        4.8625670000    -1.6482410000     3.0566610000
| 23>  H        6.8145030000    -3.0520160000     1.1214720000
| 24>  H        6.9446160000    -3.0556480000     2.9440780000
| 25>  H        6.9835450000    -0.5748230000     1.0670920000
| 26>  H        7.1130430000    -0.5050300000     2.8887310000
| 27> *
| 28>
| 29>                          ****END OF INPUT****
 Total Charge           Charge          ....    0
 Multiplicity           Mult            ....    1
 Number of Electrons    NEL             ....   54
 Basis Dimension        Dim             ....  138

MULLIKEN ATOMIC CHARGES
-----------------------
   0 O :   -0.163231
   1 C :    0.065176
   2 C :    0.201759
   3 O :   -0.312768
   4 C :    0.041076
   5 C :   -0.025183
   6 C :   -0.061761
   7 H :    0.008656
   8 H :    0.028153
   9 H :    0.030366
  10 H :    0.014871
  11 H :    0.049387
  12 H :    0.038664
  13 H :    0.043719
  14 H :    0.041115
Sum of atomic charges:   -0.0000000

LOEWDIN ATOMIC CHARGES
----------------------
   0 O :   -0.100683
   1 C :    0.086514
   2 C :    0.023465
   3 O :   -0.123626
   4 C :    0.034883
   5 C :   -0.046773
   6 C :   -0.062425
   7 H :   -0.007009
   8 H :    0.028578
   9 H :    0.028339
  10 H :    0.010961
  11 H :    0.035873
  12 H :    0.031019
  13 H :    0.032010
  14 H :    0.028873

  Mayer bond orders larger than 0.1
B(  0-O ,  1-C ) :   2.1724 B(  1-C ,  2-C ) :   0.9313 B(  1-C ,  7-H ) :   0.9286
B(  2-C ,  3-O ) :   0.9890 B(  2-C ,  8-H ) :   0.9102 B(  2-C ,  9-H ) :   0.9086
B(  3-O ,  4-C ) :   1.0576 B(  4-C ,  5-C ) :   1.0021 B(  4-C ,  6-C ) :   1.0001
B(  4-C , 10-H ) :   0.9328 B(  5-C ,  6-C ) :   1.0317 B(  5-C , 11-H ) :   0.9471
B(  5-C , 12-H ) :   0.9417 B(  6-C , 13-H ) :   0.9419 B(  6-C , 14-H ) :   0.9453

FINAL SINGLE POINT ENERGY      -345.055465609923

DIPOLE MOMENT
-------------
                                X             Y             Z
Electronic contribution:     -5.53450       1.13432      -3.89500
Nuclear contribution   :      6.23653      -1.33100       4.61147
                        -----------------------------------------
Total Dipole Moment    :      0.70203      -0.19668       0.71647
                        -----------------------------------------
Magnitude (a.u.)       :      1.02219
Magnitude (Debye)      :      2.59819

                             ****ORCA TERMINATED NORMALLY****
TOTAL RUN TIME: 0 days 0 hours 0 minutes 6 seconds 377 msec
