                         Program Version 3.0.3 - RELEASE   -
|  1> ! RI PBE def2-SVP def2-SVP/J NBO PAL2
|  2> % maxcore 2000
|  3> % output
|  4>     # printlevel mini
|  5>     print[ P_Basis ] 0
|  6>     print[ P_SCFInfo ] 1
|  7>     print[ P_SCFIterInfo ] 1
|  8>     print[ P_OrbEn ] 0
|  9>     print[ P_Cartesian ] 0
| 10> end
| 11> *xyz 0 1
| 12>  O        2.3780870000     1.2094560000     0.8321270000
| 13>  C        1.9529650000     0.9669570000    -0.2606680000
| 14>  C        2.8356780000     0.6406870000    -1.4664630000
| 15>  O        2.2785360000     0.4135380000    -2.5163410000
| 16>  C        4.2870180000     0.6280680000    -1.2586770000
| 17>  C        5.0919540000    -0.3608840000    -2.0772990000
| 18>  C        5.1534020000     1.0725540000    -2.4196220000
| 19>  H        0.8715610000     0.9555980000    -0.5045410000
| 20>  H        4.6172190000     0.8539060000    -0.2538650000
| 21>  H        4.5146900000    -1.0066010000    -2.7273600000
| 22>  H        5.9360110000    -0.8204540000    -1.5798260000
| 23>  H        4.6179480000     1.4001680000    -3.3020860000
| 24>  H        6.0413320000     1.6372180000    -2.1668880000
| 25> *
| 26>
| 27>                          ****END OF INPUT****
 Total Charge           Charge          ....    0
 Multiplicity           Mult            ....    1
 Number of Electrons    NEL             ....   52
 Basis Dimension        Dim             ....  128

MULLIKEN ATOMIC CHARGES
-----------------------
   0 O :   -0.113809
   1 C :    0.142604
   2 C :    0.037240
   3 O :   -0.149995
   4 C :   -0.154897
   5 C :    0.005577
   6 C :   -0.001546
   7 H :   -0.000849
   8 H :    0.027542
   9 H :    0.055243
  10 H :    0.048567
  11 H :    0.054005
  12 H :    0.050318
Sum of atomic charges:   -0.0000000

LOEWDIN ATOMIC CHARGES
----------------------
   0 O :   -0.069155
   1 C :    0.077277
   2 C :    0.015055
   3 O :   -0.105458
   4 C :   -0.073837
   5 C :   -0.007060
   6 C :   -0.008049
   7 H :   -0.001714
   8 H :    0.033235
   9 H :    0.035006
  10 H :    0.034930
  11 H :    0.034568
  12 H :    0.035203

  Mayer bond orders larger than 0.1
B(  0-O ,  1-C ) :   2.1916 B(  1-C ,  2-C ) :   0.8777 B(  1-C ,  7-H ) :   0.9067
B(  2-C ,  3-O ) :   2.1135 B(  2-C ,  4-C ) :   1.0086 B(  4-C ,  5-C ) :   0.9339
B(  4-C ,  6-C ) :   0.9307 B(  4-C ,  8-H ) :   0.9324 B(  5-C ,  6-C ) :   1.0671
B(  5-C ,  9-H ) :   0.9424 B(  5-C , 10-H ) :   0.9478 B(  6-C , 11-H ) :   0.9431
B(  6-C , 12-H ) :   0.9489

FINAL SINGLE POINT ENERGY      -343.881714880286

DIPOLE MOMENT
-------------
                                X             Y             Z
Electronic contribution:     -5.16748       0.80958       2.46148
Nuclear contribution   :      5.79340      -0.85821      -2.55725
                        -----------------------------------------
Total Dipole Moment    :      0.62591      -0.04863      -0.09577
                        -----------------------------------------
Magnitude (a.u.)       :      0.63506
Magnitude (Debye)      :      1.61420

                             ****ORCA TERMINATED NORMALLY****
TOTAL RUN TIME: 0 days 0 hours 0 minutes 5 seconds 866 msec
