                         Program Version 3.0.3 - RELEASE   -
|  1> ! RI PBE def2-SVP def2-SVP/J NBO PAL2
|  2> % maxcore 2000
|  3> % output
|  4>     # printlevel mini
|  5>     print[ P_Basis ] 0
|  6>     print[ P_SCFInfo ] 1
|  7>     print[ P_SCFIterInfo ] 1
|  8>     print[ P_OrbEn ] 0
|  9>     print[ P_Cartesian ] 0
| 10> end
| 11> *xyz 0 1
| 12>  O        3.3965640000    -0.9500720000    -0.7421340000
| 13>  C        2.5230220000     0.0870430000    -0.4228880000
| 14>  C        1.1861450000    -0.4644140000     0.0017340000
| 15>  O        0.9633580000    -1.6461110000     0.0265220000
| 16>  C        3.0754830000     0.9894820000     0.6503550000
| 17>  C        4.0425470000     2.0645360000     0.2697760000
| 18>  C        2.6556270000     2.4290600000     0.6970390000
| 19>  H        2.8871460000    -1.7689420000    -0.6435230000
| 20>  H        2.3224840000     0.7121650000    -1.3132950000
| 21>  H        0.4202000000     0.2782420000     0.2962770000
| 22>  H        3.2485940000     0.4928470000     1.5997940000
| 23>  H        4.2945890000     2.1579680000    -0.7796140000
| 24>  H        4.8601480000     2.2707170000     0.9482050000
| 25>  H        1.9704540000     2.7843260000    -0.0642780000
| 26>  H        2.5166470000     2.8869430000     1.6678400000
| 27> *
| 28>
| 29>                          ****END OF INPUT****
 Total Charge           Charge          ....    0
 Multiplicity           Mult            ....    1
 Number of Electrons    NEL             ....   54
 Basis Dimension        Dim             ....  138

MULLIKEN ATOMIC CHARGES
-----------------------
   0 O :   -0.230302
   1 C :    0.150026
   2 C :    0.116681
   3 O :   -0.173164
   4 C :   -0.146425
   5 C :    0.000291
   6 C :   -0.037334
   7 H :    0.143210
   8 H :    0.000134
   9 H :    0.003198
  10 H :    0.022797
  11 H :    0.037030
  12 H :    0.040317
  13 H :    0.035485
  14 H :    0.038055
Sum of atomic charges:   -0.0000000

LOEWDIN ATOMIC CHARGES
----------------------
   0 O :   -0.101493
   1 C :    0.005460
   2 C :    0.090490
   3 O :   -0.100986
   4 C :   -0.049502
   5 C :   -0.030933
   6 C :   -0.045337
   7 H :    0.054869
   8 H :    0.028943
   9 H :    0.000217
  10 H :    0.030044
  11 H :    0.030188
  12 H :    0.032065
  13 H :    0.025318
  14 H :    0.030658

  Mayer bond orders larger than 0.1
B(  0-O ,  1-C ) :   1.1841 B(  0-O ,  7-H ) :   0.9413 B(  1-C ,  2-C ) :   0.9244
B(  1-C ,  4-C ) :   0.9966 B(  1-C ,  8-H ) :   0.8633 B(  2-C ,  3-O ) :   2.1201
B(  2-C ,  9-H ) :   0.9275 B(  3-O ,  7-H ) :   0.1019 B(  4-C ,  5-C ) :   0.9860
B(  4-C ,  6-C ) :   0.9520 B(  4-C , 10-H ) :   0.9388 B(  5-C ,  6-C ) :   1.0572
B(  5-C , 11-H ) :   0.9442 B(  5-C , 12-H ) :   0.9455 B(  6-C , 13-H ) :   0.9468
B(  6-C , 14-H ) :   0.9429

FINAL SINGLE POINT ENERGY      -345.075023679981

DIPOLE MOMENT
-------------
                                X             Y             Z
Electronic contribution:     -2.23782      -6.11528      -1.06224
Nuclear contribution   :      2.04607       6.93526       1.24570
                        -----------------------------------------
Total Dipole Moment    :     -0.19175       0.81999       0.18346
                        -----------------------------------------
Magnitude (a.u.)       :      0.86186
Magnitude (Debye)      :      2.19067

                             ****ORCA TERMINATED NORMALLY****
TOTAL RUN TIME: 0 days 0 hours 0 minutes 7 seconds 208 msec
