                         Program Version 3.0.3 - RELEASE   -
|  1> ! RI PBE def2-SVP def2-SVP/J NBO PAL2
|  2> % maxcore 2000
|  3> % output
|  4>     # printlevel mini
|  5>     print[ P_Basis ] 0
|  6>     print[ P_SCFInfo ] 1
|  7>     print[ P_SCFIterInfo ] 1
|  8>     print[ P_OrbEn ] 0
|  9>     print[ P_Cartesian ] 0
| 10> end
| 11> *xyz 0 1
| 12>  O        0.9492370000    -0.2086560000    -1.0535060000
| 13>  C        2.1303670000     0.4690670000    -1.3240920000
| 14>  C        3.2675320000    -0.0791100000    -0.4837320000
| 15>  O        2.9993080000    -0.8852590000     0.3819520000
| 16>  C        4.6524190000     0.3724380000    -0.7106060000
| 17>  C        5.2322270000     0.3520270000    -2.1111900000
| 18>  C        4.9694950000     1.6499550000    -1.4465370000
| 19>  H        1.1603510000    -0.7843060000    -0.2995010000
| 20>  H        2.3777290000     0.4000280000    -2.3915490000
| 21>  H        2.0367340000     1.5415290000    -1.0899890000
| 22>  H        5.3221810000     0.0733750000     0.0862670000
| 23>  H        4.5815860000     0.0467410000    -2.9204630000
| 24>  H        6.2533030000     0.0043690000    -2.1983030000
| 25>  H        4.1413610000     2.2478800000    -1.8047810000
| 26>  H        5.8087800000     2.2235230000    -1.0751610000
| 27> *
| 28>
| 29>                          ****END OF INPUT****
 Total Charge           Charge          ....    0
 Multiplicity           Mult            ....    1
 Number of Electrons    NEL             ....   54
 Basis Dimension        Dim             ....  138

MULLIKEN ATOMIC CHARGES
-----------------------
   0 O :   -0.264585
   1 C :    0.166879
   2 C :    0.010545
   3 O :   -0.187808
   4 C :   -0.117660
   5 C :   -0.030925
   6 C :   -0.020546
   7 H :    0.147307
   8 H :    0.025042
   9 H :    0.027281
  10 H :    0.034733
  11 H :    0.051595
  12 H :    0.051798
  13 H :    0.053334
  14 H :    0.053011
Sum of atomic charges:   -0.0000000

LOEWDIN ATOMIC CHARGES
----------------------
   0 O :   -0.116791
   1 C :    0.019356
   2 C :    0.047855
   3 O :   -0.126230
   4 C :   -0.059415
   5 C :   -0.016040
   6 C :   -0.028061
   7 H :    0.051985
   8 H :    0.024540
   9 H :    0.028841
  10 H :    0.039908
  11 H :    0.028793
  12 H :    0.036342
  13 H :    0.031587
  14 H :    0.037328

  Mayer bond orders larger than 0.1
B(  0-O ,  1-C ) :   1.1523 B(  0-O ,  7-H ) :   0.9399 B(  1-C ,  2-C ) :   0.9796
B(  1-C ,  8-H ) :   0.9150 B(  1-C ,  9-H ) :   0.8805 B(  2-C ,  3-O ) :   2.0791
B(  2-C ,  4-C ) :   1.0268 B(  3-O ,  7-H ) :   0.1096 B(  4-C ,  5-C ) :   0.9366
B(  4-C ,  6-C ) :   0.9457 B(  4-C , 10-H ) :   0.9325 B(  5-C ,  6-C ) :   1.0514
B(  5-C , 11-H ) :   0.9534 B(  5-C , 12-H ) :   0.9444 B(  6-C , 13-H ) :   0.9388
B(  6-C , 14-H ) :   0.9425

FINAL SINGLE POINT ENERGY      -345.084330786878

DIPOLE MOMENT
-------------
                                X             Y             Z
Electronic contribution:     -3.22396      -3.11278       3.32267
Nuclear contribution   :      4.31647       3.76311      -3.79207
                        -----------------------------------------
Total Dipole Moment    :      1.09251       0.65033      -0.46941
                        -----------------------------------------
Magnitude (a.u.)       :      1.35530
Magnitude (Debye)      :      3.44491

                             ****ORCA TERMINATED NORMALLY****
TOTAL RUN TIME: 0 days 0 hours 0 minutes 7 seconds 243 msec
