                         Program Version 3.0.3 - RELEASE   -
|  1> ! RI PBE def2-SVP def2-SVP/J NBO PAL2
|  2> % maxcore 2000
|  3> % output
|  4>     # printlevel mini
|  5>     print[ P_Basis ] 0
|  6>     print[ P_SCFInfo ] 1
|  7>     print[ P_SCFIterInfo ] 1
|  8>     print[ P_OrbEn ] 0
|  9>     print[ P_Cartesian ] 0
| 10> end
| 11> *xyz 0 1
| 12>  O        2.0142430000     0.9688700000    -0.9944740000
| 13>  C        2.0995010000     0.2019960000     0.1962880000
| 14>  C        2.9984050000    -0.9841280000    -0.1007760000
| 15>  O        2.4537380000    -1.7419130000    -1.1611720000
| 16>  C        4.4201820000    -0.5633750000    -0.3662900000
| 17>  C        5.3790090000    -0.4565560000     0.7808440000
| 18>  C        5.5154690000    -1.5668400000    -0.2170340000
| 19>  H        1.2935930000     1.5956620000    -0.9127700000
| 20>  H        1.1100570000    -0.1674660000     0.4911150000
| 21>  H        2.5198190000     0.7936520000     1.0193730000
| 22>  H        2.9898370000    -1.6413780000     0.7767000000
| 23>  H        2.2338720000    -1.1126650000    -1.8572780000
| 24>  H        4.5293530000     0.1689070000    -1.1597550000
| 25>  H        5.0144270000    -0.7106940000     1.7701650000
| 26>  H        6.1094300000     0.3426340000     0.7684700000
| 27>  H        5.2356700000    -2.5669630000     0.0924540000
| 28>  H        6.3429940000    -1.5308420000    -0.9142610000
| 29> *
| 30>
| 31>                          ****END OF INPUT****
 Total Charge           Charge          ....    0
 Multiplicity           Mult            ....    1
 Number of Electrons    NEL             ....   56
 Basis Dimension        Dim             ....  148

MULLIKEN ATOMIC CHARGES
-----------------------
   0 O :   -0.291521
   1 C :    0.178968
   2 C :    0.146572
   3 O :   -0.279879
   4 C :   -0.124342
   5 C :   -0.044788
   6 C :   -0.014208
   7 H :    0.162138
   8 H :    0.003212
   9 H :   -0.005116
  10 H :   -0.020040
  11 H :    0.148665
  12 H :    0.017086
  13 H :    0.025440
  14 H :    0.033651
  15 H :    0.031069
  16 H :    0.033093
Sum of atomic charges:   -0.0000000

LOEWDIN ATOMIC CHARGES
----------------------
   0 O :   -0.125626
   1 C :    0.048532
   2 C :    0.034927
   3 O :   -0.111623
   4 C :   -0.057382
   5 C :   -0.049160
   6 C :   -0.040490
   7 H :    0.075233
   8 H :    0.007415
   9 H :    0.008132
  10 H :    0.022563
  11 H :    0.058016
  12 H :    0.025622
  13 H :    0.022186
  14 H :    0.026866
  15 H :    0.027161
  16 H :    0.027628

  Mayer bond orders larger than 0.1
B(  0-O ,  1-C ) :   1.0613 B(  0-O ,  7-H ) :   0.9772 B(  1-C ,  2-C ) :   1.0537
B(  1-C ,  8-H ) :   0.9275 B(  1-C ,  9-H ) :   0.9232 B(  2-C ,  3-O ) :   1.0491
B(  2-C ,  4-C ) :   1.0353 B(  2-C , 10-H ) :   0.8914 B(  3-O , 11-H ) :   0.9724
B(  4-C ,  5-C ) :   0.9751 B(  4-C ,  6-C ) :   0.9923 B(  4-C , 12-H ) :   0.9341
B(  5-C ,  6-C ) :   1.0525 B(  5-C , 13-H ) :   0.9441 B(  5-C , 14-H ) :   0.9423
B(  6-C , 15-H ) :   0.9444 B(  6-C , 16-H ) :   0.9464

FINAL SINGLE POINT ENERGY      -346.269153812445

DIPOLE MOMENT
-------------
                                X             Y             Z
Electronic contribution:     -2.86668       0.01325      -2.57574
Nuclear contribution   :      2.48284       0.77487       2.88454
                        -----------------------------------------
Total Dipole Moment    :     -0.38384       0.78812       0.30880
                        -----------------------------------------
Magnitude (a.u.)       :      0.92942
Magnitude (Debye)      :      2.36240

                             ****ORCA TERMINATED NORMALLY****
TOTAL RUN TIME: 0 days 0 hours 0 minutes 7 seconds 30 msec
