                         Program Version 3.0.3 - RELEASE   -
|  1> ! RI PBE def2-SVP def2-SVP/J NBO PAL2
|  2> % maxcore 2000
|  3> % output
|  4>     # printlevel mini
|  5>     print[ P_Basis ] 0
|  6>     print[ P_SCFInfo ] 1
|  7>     print[ P_SCFIterInfo ] 1
|  8>     print[ P_OrbEn ] 0
|  9>     print[ P_Cartesian ] 0
| 10> end
| 11> *xyz 0 1
| 12>  O        2.9445180000     1.1771220000     0.3350930000
| 13>  C        2.2618910000     0.2769100000    -0.0608180000
| 14>  C        2.8317630000    -1.0537050000    -0.5555410000
| 15>  O        2.0664420000    -1.8961140000    -0.9336530000
| 16>  C        4.3374910000    -1.1729140000    -0.5161110000
| 17>  C        4.8513690000    -2.4388050000    -0.9882640000
| 18>  C        5.2768680000    -3.4884380000    -1.3799300000
| 19>  H        1.1556300000     0.3209500000    -0.1067710000
| 20>  H        4.6553130000    -0.9723590000     0.5145470000
| 21>  H        4.7478330000    -0.3350480000    -1.0932540000
| 22>  H        5.6511930000    -4.4218980000    -1.7285090000
| 23> *
| 24>
| 25>                          ****END OF INPUT****
 Total Charge           Charge          ....    0
 Multiplicity           Mult            ....    1
 Number of Electrons    NEL             ....   50
 Basis Dimension        Dim             ....  118

MULLIKEN ATOMIC CHARGES
-----------------------
   0 O :   -0.115531
   1 C :    0.144570
   2 C :   -0.051826
   3 O :   -0.103891
   4 C :    0.102673
   5 C :    0.338836
   6 C :   -0.469405
   7 H :    0.010896
   8 H :    0.067647
   9 H :    0.069653
  10 H :    0.006376
Sum of atomic charges:   -0.0000000

LOEWDIN ATOMIC CHARGES
----------------------
   0 O :   -0.067784
   1 C :    0.074658
   2 C :    0.021059
   3 O :   -0.060304
   4 C :   -0.074555
   5 C :   -0.024472
   6 C :   -0.058511
   7 H :    0.002338
   8 H :    0.074559
   9 H :    0.074920
  10 H :    0.038091

  Mayer bond orders larger than 0.1
B(  0-O ,  1-C ) :   2.1839 B(  1-C ,  2-C ) :   0.8706 B(  1-C ,  7-H ) :   0.9199
B(  2-C ,  3-O ) :   2.1901 B(  2-C ,  4-C ) :   0.9083 B(  4-C ,  5-C ) :   1.0542
B(  4-C ,  8-H ) :   0.8666 B(  4-C ,  9-H ) :   0.8663 B(  5-C ,  6-C ) :   2.3556
B(  5-C , 10-H ) :  -0.1041 B(  6-C , 10-H ) :   1.0947

FINAL SINGLE POINT ENERGY      -342.630591813814

DIPOLE MOMENT
-------------
                                X             Y             Z
Electronic contribution:     -2.00988       0.78600       0.19519
Nuclear contribution   :      2.23522      -0.69299      -0.14574
                        -----------------------------------------
Total Dipole Moment    :      0.22534       0.09301       0.04946
                        -----------------------------------------
Magnitude (a.u.)       :      0.24875
Magnitude (Debye)      :      0.63227

                             ****ORCA TERMINATED NORMALLY****
TOTAL RUN TIME: 0 days 0 hours 0 minutes 5 seconds 504 msec
