                         Program Version 3.0.3 - RELEASE   -
|  1> ! RI PBE def2-SVP def2-SVP/J NBO PAL2
|  2> % maxcore 2000
|  3> % output
|  4>     # printlevel mini
|  5>     print[ P_Basis ] 0
|  6>     print[ P_SCFInfo ] 1
|  7>     print[ P_SCFIterInfo ] 1
|  8>     print[ P_OrbEn ] 0
|  9>     print[ P_Cartesian ] 0
| 10> end
| 11> *xyz 0 1
| 12>  O        0.6637080000    -0.1442620000     0.3944250000
| 13>  C        1.8611070000    -0.1639400000     0.4091130000
| 14>  C        2.6599880000    -1.4162150000     0.6656230000
| 15>  O        4.0200880000    -1.0963860000     0.6146010000
| 16>  C        4.8403780000    -2.2168500000     0.8451830000
| 17>  C        6.2399070000    -1.8358200000     0.7824850000
| 18>  C        7.4027230000    -1.5484740000     0.7362030000
| 19>  H        2.4735180000     0.7450310000     0.2336090000
| 20>  H        2.3831880000    -2.1664290000    -0.0915510000
| 21>  H        2.3670780000    -1.8206630000     1.6471210000
| 22>  H        4.6403910000    -2.9983550000     0.0961990000
| 23>  H        4.6241360000    -2.6529490000     1.8324920000
| 24>  H        8.4337910000    -1.2869970000     0.6938180000
| 25> *
| 26>
| 27>                          ****END OF INPUT****
 Total Charge           Charge          ....    0
 Multiplicity           Mult            ....    1
 Number of Electrons    NEL             ....   52
 Basis Dimension        Dim             ....  128

MULLIKEN ATOMIC CHARGES
-----------------------
   0 O :   -0.162936
   1 C :    0.074710
   2 C :    0.180313
   3 O :   -0.342102
   4 C :    0.232615
   5 C :    0.310890
   6 C :   -0.436813
   7 H :    0.013582
   8 H :    0.034771
   9 H :    0.029377
  10 H :    0.030478
  11 H :    0.024882
  12 H :    0.010234
Sum of atomic charges:   -0.0000000

LOEWDIN ATOMIC CHARGES
----------------------
   0 O :   -0.098129
   1 C :    0.089702
   2 C :    0.019591
   3 O :   -0.136226
   4 C :    0.058765
   5 C :   -0.030836
   6 C :   -0.053717
   7 H :   -0.004296
   8 H :    0.028539
   9 H :    0.027601
  10 H :    0.030697
  11 H :    0.029811
  12 H :    0.038499

  Mayer bond orders larger than 0.1
B(  0-O ,  1-C ) :   2.1729 B(  1-C ,  2-C ) :   0.9286 B(  1-C ,  7-H ) :   0.9298
B(  2-C ,  3-O ) :   0.9958 B(  2-C ,  8-H ) :   0.9127 B(  2-C ,  9-H ) :   0.9112
B(  3-O ,  4-C ) :   1.0257 B(  4-C ,  5-C ) :   1.0172 B(  4-C , 10-H ) :   0.9086
B(  4-C , 11-H ) :   0.9046 B(  5-C ,  6-C ) :   2.4045 B(  6-C , 12-H ) :   1.0891

FINAL SINGLE POINT ENERGY      -343.808054817984

DIPOLE MOMENT
-------------
                                X             Y             Z
Electronic contribution:     -1.07498       2.19521      -0.44760
Nuclear contribution   :      1.74151      -2.85716       0.58385
                        -----------------------------------------
Total Dipole Moment    :      0.66652      -0.66195       0.13625
                        -----------------------------------------
Magnitude (a.u.)       :      0.94921
Magnitude (Debye)      :      2.41269

                             ****ORCA TERMINATED NORMALLY****
TOTAL RUN TIME: 0 days 0 hours 0 minutes 5 seconds 985 msec
