                         Program Version 3.0.3 - RELEASE   -
|  1> ! RI PBE def2-SVP def2-SVP/J NBO PAL2
|  2> % maxcore 2000
|  3> % output
|  4>     # printlevel mini
|  5>     print[ P_Basis ] 0
|  6>     print[ P_SCFInfo ] 1
|  7>     print[ P_SCFIterInfo ] 1
|  8>     print[ P_OrbEn ] 0
|  9>     print[ P_Cartesian ] 0
| 10> end
| 11> *xyz 0 1
| 12>  O        0.2858790000     2.0192230000    -1.3987570000
| 13>  C        1.5432900000     2.1026160000    -0.8199070000
| 14>  C        2.6339600000     1.7434720000    -1.7954330000
| 15>  O        2.3478370000     1.4919160000    -2.9417980000
| 16>  C        4.0492260000     1.6932830000    -1.2720740000
| 17>  C        5.0542500000     2.2079530000    -2.2496380000
| 18>  C        5.9863270000     3.1016100000    -1.9557200000
| 19>  H        0.4466030000     1.7974510000    -2.3295850000
| 20>  H        1.6261170000     1.4373190000     0.0529060000
| 21>  H        1.7540000000     3.1204970000    -0.4535780000
| 22>  H        4.2408250000     0.6297740000    -1.0666070000
| 23>  H        4.1202900000     2.2151770000    -0.3139700000
| 24>  H        4.9768660000     1.8076930000    -3.2561040000
| 25>  H        6.0799620000     3.5237360000    -0.9597140000
| 26>  H        6.6934770000     3.4431800000    -2.7022120000
| 27> *
| 28>
| 29>                          ****END OF INPUT****
 Total Charge           Charge          ....    0
 Multiplicity           Mult            ....    1
 Number of Electrons    NEL             ....   54
 Basis Dimension        Dim             ....  138

MULLIKEN ATOMIC CHARGES
-----------------------
   0 O :   -0.262694
   1 C :    0.205351
   2 C :   -0.102916
   3 O :   -0.181771
   4 C :    0.102767
   5 C :   -0.082318
   6 C :   -0.032333
   7 H :    0.150995
   8 H :    0.024611
   9 H :    0.026546
  10 H :    0.063144
  11 H :    0.011058
  12 H :    0.023421
  13 H :    0.019614
  14 H :    0.034523
Sum of atomic charges:   -0.0000000

LOEWDIN ATOMIC CHARGES
----------------------
   0 O :   -0.114031
   1 C :    0.021188
   2 C :    0.050883
   3 O :   -0.117852
   4 C :   -0.064176
   5 C :   -0.022401
   6 C :   -0.057140
   7 H :    0.056520
   8 H :    0.030691
   9 H :    0.031853
  10 H :    0.064805
  11 H :    0.036235
  12 H :    0.032173
  13 H :    0.022152
  14 H :    0.029099

  Mayer bond orders larger than 0.1
B(  0-O ,  1-C ) :   1.1602 B(  0-O ,  7-H ) :   0.9463 B(  1-C ,  2-C ) :   0.9837
B(  1-C ,  8-H ) :   0.9038 B(  1-C ,  9-H ) :   0.8920 B(  2-C ,  3-O ) :   2.1120
B(  2-C ,  4-C ) :   0.9492 B(  4-C ,  5-C ) :   1.0484 B(  4-C , 10-H ) :   0.8758
B(  4-C , 11-H ) :   0.9231 B(  5-C ,  6-C ) :   2.0157 B(  5-C , 12-H ) :   0.9568
B(  6-C , 13-H ) :   0.9470 B(  6-C , 14-H ) :   0.9469

FINAL SINGLE POINT ENERGY      -345.084492007768

DIPOLE MOMENT
-------------
                                X             Y             Z
Electronic contribution:     -4.44342      -1.51977      -2.40966
Nuclear contribution   :      5.26685       1.51692       2.96763
                        -----------------------------------------
Total Dipole Moment    :      0.82343      -0.00285       0.55797
                        -----------------------------------------
Magnitude (a.u.)       :      0.99467
Magnitude (Debye)      :      2.52826

                             ****ORCA TERMINATED NORMALLY****
TOTAL RUN TIME: 0 days 0 hours 0 minutes 6 seconds 147 msec
