                         Program Version 3.0.3 - RELEASE   -
|  1> ! RI PBE def2-SVP def2-SVP/J NBO PAL2
|  2> % maxcore 2000
|  3> % output
|  4>     # printlevel mini
|  5>     print[ P_Basis ] 0
|  6>     print[ P_SCFInfo ] 1
|  7>     print[ P_SCFIterInfo ] 1
|  8>     print[ P_OrbEn ] 0
|  9>     print[ P_Cartesian ] 0
| 10> end
| 11> *xyz 0 1
| 12>  O        1.4402340000    -0.8342560000     0.1491480000
| 13>  C        2.5275640000    -0.4365020000    -0.6148960000
| 14>  C        3.0582270000     0.8949050000    -0.1663990000
| 15>  O        2.5384510000     1.4750090000     0.7551510000
| 16>  C        4.2530580000     1.5074830000    -0.8792530000
| 17>  C        4.8138950000     0.7408920000    -1.9753670000
| 18>  C        5.2814260000     0.1107470000    -2.8826900000
| 19>  H        1.3001360000    -0.1259270000     0.7962140000
| 20>  H        2.2690350000    -0.3564320000    -1.6815580000
| 21>  H        3.3510290000    -1.1646360000    -0.5625000000
| 22>  H        5.0132790000     1.6922570000    -0.1126670000
| 23>  H        3.9362590000     2.4968420000    -1.2264440000
| 24>  H        5.6971000000    -0.4477930000    -3.6881370000
| 25> *
| 26>
| 27>                          ****END OF INPUT****
 Total Charge           Charge          ....    0
 Multiplicity           Mult            ....    1
 Number of Electrons    NEL             ....   52
 Basis Dimension        Dim             ....  128

MULLIKEN ATOMIC CHARGES
-----------------------
   0 O :   -0.254380
   1 C :    0.235518
   2 C :   -0.155989
   3 O :   -0.181785
   4 C :    0.183821
   5 C :    0.249846
   6 C :   -0.454695
   7 H :    0.147660
   8 H :    0.036310
   9 H :    0.038416
  10 H :    0.074592
  11 H :    0.072240
  12 H :    0.008446
Sum of atomic charges:   -0.0000000

LOEWDIN ATOMIC CHARGES
----------------------
   0 O :   -0.111632
   1 C :    0.021994
   2 C :    0.053962
   3 O :   -0.114617
   4 C :   -0.067943
   5 C :   -0.035515
   6 C :   -0.067246
   7 H :    0.055613
   8 H :    0.037988
   9 H :    0.038196
  10 H :    0.075291
  11 H :    0.075008
  12 H :    0.038902

  Mayer bond orders larger than 0.1
B(  0-O ,  1-C ) :   1.1580 B(  0-O ,  7-H ) :   0.9473 B(  1-C ,  2-C ) :   1.0253
B(  1-C ,  8-H ) :   0.8831 B(  1-C ,  9-H ) :   0.8847 B(  2-C ,  3-O ) :   2.0963
B(  2-C ,  4-C ) :   0.8905 B(  4-C ,  5-C ) :   1.0226 B(  4-C , 10-H ) :   0.8752
B(  4-C , 11-H ) :   0.8735 B(  5-C ,  6-C ) :   2.3798 B(  5-C , 12-H ) :  -0.1053
B(  6-C , 12-H ) :   1.0960

FINAL SINGLE POINT ENERGY      -343.839794090568

DIPOLE MOMENT
-------------
                                X             Y             Z
Electronic contribution:     -0.82670       0.93146       1.46936
Nuclear contribution   :      1.55594      -0.69080      -2.00326
                        -----------------------------------------
Total Dipole Moment    :      0.72925       0.24065      -0.53390
                        -----------------------------------------
Magnitude (a.u.)       :      0.93529
Magnitude (Debye)      :      2.37731

                             ****ORCA TERMINATED NORMALLY****
TOTAL RUN TIME: 0 days 0 hours 0 minutes 5 seconds 981 msec
