                         Program Version 3.0.3 - RELEASE   -
|  1> ! RI PBE def2-SVP def2-SVP/J NBO PAL2
|  2> % maxcore 2000
|  3> % output
|  4>     # printlevel mini
|  5>     print[ P_Basis ] 0
|  6>     print[ P_SCFInfo ] 1
|  7>     print[ P_SCFIterInfo ] 1
|  8>     print[ P_OrbEn ] 0
|  9>     print[ P_Cartesian ] 0
| 10> end
| 11> *xyz 0 1
| 12>  O        2.1573230000     0.9557220000    -0.7572850000
| 13>  C        2.1537750000     0.1843060000     0.4329450000
| 14>  C        2.8527720000    -1.1254300000     0.1233230000
| 15>  O        2.1804070000    -1.7882280000    -0.9265000000
| 16>  C        4.3368720000    -0.9270030000    -0.1939860000
| 17>  C        5.0472990000    -2.2169420000    -0.4278850000
| 18>  C        6.1326840000    -2.6138890000     0.2221950000
| 19>  H        1.5213900000     1.6680720000    -0.6723280000
| 20>  H        1.1274760000    -0.0330460000     0.7516840000
| 21>  H        2.6725670000     0.7081890000     1.2462830000
| 22>  H        2.7621500000    -1.7735680000     1.0013530000
| 23>  H        2.0248940000    -1.1215050000    -1.6057170000
| 24>  H        4.8145670000    -0.3805970000     0.6261000000
| 25>  H        4.4054280000    -0.2922450000    -1.0857510000
| 26>  H        4.6102960000    -2.8625550000    -1.1857120000
| 27>  H        6.5943270000    -1.9975600000     0.9883820000
| 28>  H        6.6034850000    -3.5671220000     0.0108080000
| 29> *
| 30>
| 31>                          ****END OF INPUT****
 Total Charge           Charge          ....    0
 Multiplicity           Mult            ....    1
 Number of Electrons    NEL             ....   56
 Basis Dimension        Dim             ....  148

MULLIKEN ATOMIC CHARGES
-----------------------
   0 O :   -0.287780
   1 C :    0.174929
   2 C :    0.037050
   3 O :   -0.277212
   4 C :    0.084039
   5 C :   -0.062179
   6 C :   -0.041340
   7 H :    0.163983
   8 H :    0.008043
   9 H :   -0.003112
  10 H :    0.006845
  11 H :    0.148490
  12 H :   -0.008741
  13 H :    0.018647
  14 H :    0.006282
  15 H :    0.011217
  16 H :    0.020840
Sum of atomic charges:   -0.0000000

LOEWDIN ATOMIC CHARGES
----------------------
   0 O :   -0.123464
   1 C :    0.045781
   2 C :    0.034381
   3 O :   -0.109762
   4 C :   -0.054315
   5 C :   -0.024148
   6 C :   -0.073446
   7 H :    0.076350
   8 H :    0.009903
   9 H :    0.007631
  10 H :    0.024783
  11 H :    0.057929
  12 H :    0.027549
  13 H :    0.034594
  14 H :    0.025498
  15 H :    0.017945
  16 H :    0.022791

  Mayer bond orders larger than 0.1
B(  0-O ,  1-C ) :   1.0634 B(  0-O ,  7-H ) :   0.9759 B(  1-C ,  2-C ) :   1.0652
B(  1-C ,  8-H ) :   0.9287 B(  1-C ,  9-H ) :   0.9206 B(  2-C ,  3-O ) :   1.0417
B(  2-C ,  4-C ) :   1.0181 B(  2-C , 10-H ) :   0.9104 B(  3-O , 11-H ) :   0.9706
B(  4-C ,  5-C ) :   1.0676 B(  4-C , 12-H ) :   0.9167 B(  4-C , 13-H ) :   0.8968
B(  5-C ,  6-C ) :   2.0040 B(  5-C , 14-H ) :   0.9524 B(  6-C , 15-H ) :   0.9480
B(  6-C , 16-H ) :   0.9453

FINAL SINGLE POINT ENERGY      -346.272837534955

DIPOLE MOMENT
-------------
                                X             Y             Z
Electronic contribution:     -2.82086       0.46570      -2.04758
Nuclear contribution   :      2.34531       0.47066       2.34763
                        -----------------------------------------
Total Dipole Moment    :     -0.47555       0.93636       0.30005
                        -----------------------------------------
Magnitude (a.u.)       :      1.09222
Magnitude (Debye)      :      2.77621

                             ****ORCA TERMINATED NORMALLY****
TOTAL RUN TIME: 0 days 0 hours 0 minutes 7 seconds 389 msec
