                         Program Version 3.0.3 - RELEASE   -
|  1> ! RI PBE def2-SVP def2-SVP/J NBO PAL2
|  2> % maxcore 2000
|  3> % output
|  4>     # printlevel mini
|  5>     print[ P_Basis ] 0
|  6>     print[ P_SCFInfo ] 1
|  7>     print[ P_SCFIterInfo ] 1
|  8>     print[ P_OrbEn ] 0
|  9>     print[ P_Cartesian ] 0
| 10> end
| 11> *xyz 0 1
| 12>  O        2.7548560000     1.0663030000     0.0852330000
| 13>  C        2.3997010000    -0.2026860000     0.6071650000
| 14>  C        2.9048000000    -1.2472100000    -0.3700410000
| 15>  O        2.3189780000    -1.0536590000    -1.6319360000
| 16>  C        4.4386660000    -1.2416250000    -0.4397430000
| 17>  C        4.9752290000    -2.2897550000    -1.2877790000
| 18>  C        5.4150510000    -3.1680620000    -1.9773620000
| 19>  H        2.2500390000     1.7459360000     0.5351160000
| 20>  H        1.3112370000    -0.3023350000     0.6878950000
| 21>  H        2.8425400000    -0.3617460000     1.5992940000
| 22>  H        2.5741280000    -2.2311260000    -0.0245050000
| 23>  H        2.4220690000    -0.1184050000    -1.8418400000
| 24>  H        4.8412830000    -1.3572600000     0.5729960000
| 25>  H        4.7725390000    -0.2625930000    -0.7981190000
| 26>  H        5.8007750000    -3.9424590000    -2.5966730000
| 27> *
| 28>
| 29>                          ****END OF INPUT****
 Total Charge           Charge          ....    0
 Multiplicity           Mult            ....    1
 Number of Electrons    NEL             ....   54
 Basis Dimension        Dim             ....  138

MULLIKEN ATOMIC CHARGES
-----------------------
   0 O :   -0.290882
   1 C :    0.172708
   2 C :    0.053568
   3 O :   -0.270044
   4 C :    0.093926
   5 C :    0.368987
   6 C :   -0.510176
   7 H :    0.165419
   8 H :    0.017066
   9 H :   -0.006882
  10 H :    0.009922
  11 H :    0.150492
  12 H :    0.022665
  13 H :    0.029201
  14 H :   -0.005970
Sum of atomic charges:    0.0000000

LOEWDIN ATOMIC CHARGES
----------------------
   0 O :   -0.124128
   1 C :    0.045053
   2 C :    0.040218
   3 O :   -0.101669
   4 C :   -0.060098
   5 C :   -0.019630
   6 C :   -0.091200
   7 H :    0.077357
   8 H :    0.012441
   9 H :    0.006694
  10 H :    0.027700
  11 H :    0.060690
  12 H :    0.047645
  13 H :    0.046652
  14 H :    0.032277

  Mayer bond orders larger than 0.1
B(  0-O ,  1-C ) :   1.0615 B(  0-O ,  7-H ) :   0.9758 B(  1-C ,  2-C ) :   1.0653
B(  1-C ,  8-H ) :   0.9324 B(  1-C ,  9-H ) :   0.9173 B(  2-C ,  3-O ) :   1.0530
B(  2-C ,  4-C ) :   1.0131 B(  2-C , 10-H ) :   0.9083 B(  3-O , 11-H ) :   0.9719
B(  4-C ,  5-C ) :   1.0572 B(  4-C , 12-H ) :   0.8892 B(  4-C , 13-H ) :   0.8822
B(  5-C ,  6-C ) :   2.3206 B(  5-C , 14-H ) :  -0.1108 B(  6-C , 14-H ) :   1.1016

FINAL SINGLE POINT ENERGY      -345.028264189745

DIPOLE MOMENT
-------------
                                X             Y             Z
Electronic contribution:      0.73147      -0.68701      -2.47290
Nuclear contribution   :     -1.11190       1.46214       3.36535
                        -----------------------------------------
Total Dipole Moment    :     -0.38042       0.77513       0.89245
                        -----------------------------------------
Magnitude (a.u.)       :      1.24178
Magnitude (Debye)      :      3.15635

                             ****ORCA TERMINATED NORMALLY****
TOTAL RUN TIME: 0 days 0 hours 0 minutes 6 seconds 212 msec
