                         Program Version 3.0.3 - RELEASE   -
|  1> ! RI PBE def2-SVP def2-SVP/J NBO PAL2
|  2> % maxcore 2000
|  3> % output
|  4>     # printlevel mini
|  5>     print[ P_Basis ] 0
|  6>     print[ P_SCFInfo ] 1
|  7>     print[ P_SCFIterInfo ] 1
|  8>     print[ P_OrbEn ] 0
|  9>     print[ P_Cartesian ] 0
| 10> end
| 11> *xyz 0 1
| 12>  O        0.8700580000     0.0409430000     0.0152480000
| 13>  C        2.2816170000     0.0614510000     0.0311520000
| 14>  C        2.6999800000     1.2534120000     0.8575520000
| 15>  O        4.1017020000     1.2905980000     0.8867740000
| 16>  C        4.5998540000     2.3817830000     1.6218330000
| 17>  C        6.0859400000     2.3964230000     1.5330870000
| 18>  C        6.8932430000     2.5001340000     2.5775470000
| 19>  H        0.5807500000    -0.7144160000    -0.4997660000
| 20>  H        2.6982810000     0.1616410000    -0.9793950000
| 21>  H        2.6967990000    -0.8498480000     0.4803350000
| 22>  H        2.2855470000     1.1615310000     1.8722950000
| 23>  H        2.2903850000     2.1730010000     0.4135260000
| 24>  H        4.2786250000     2.3242970000     2.6725490000
| 25>  H        4.1932320000     3.3197540000     1.2069020000
| 26>  H        6.4945300000     2.3340950000     0.5274050000
| 27>  H        6.5048930000     2.5521240000     3.5901460000
| 28>  H        7.9698710000     2.5417870000     2.4613100000
| 29> *
| 30>
| 31>                          ****END OF INPUT****
 Total Charge           Charge          ....    0
 Multiplicity           Mult            ....    1
 Number of Electrons    NEL             ....   56
 Basis Dimension        Dim             ....  148

MULLIKEN ATOMIC CHARGES
-----------------------
   0 O :   -0.284310
   1 C :    0.141144
   2 C :    0.151676
   3 O :   -0.357192
   4 C :    0.244581
   5 C :   -0.083270
   6 C :   -0.038474
   7 H :    0.157638
   8 H :    0.004067
   9 H :    0.004611
  10 H :    0.001376
  11 H :   -0.001687
  12 H :   -0.007067
  13 H :    0.002078
  14 H :    0.011536
  15 H :    0.020739
  16 H :    0.032555
Sum of atomic charges:   -0.0000000

LOEWDIN ATOMIC CHARGES
----------------------
   0 O :   -0.127396
   1 C :    0.049683
   2 C :    0.051588
   3 O :   -0.146780
   4 C :    0.062937
   5 C :   -0.034756
   6 C :   -0.053269
   7 H :    0.072662
   8 H :    0.005800
   9 H :    0.006029
  10 H :    0.006597
  11 H :    0.005536
  12 H :    0.009079
  13 H :    0.013589
  14 H :    0.029103
  15 H :    0.022632
  16 H :    0.026966

  Mayer bond orders larger than 0.1
B(  0-O ,  1-C ) :   1.0885 B(  0-O ,  7-H ) :   0.9803 B(  1-C ,  2-C ) :   1.0691
B(  1-C ,  8-H ) :   0.9318 B(  1-C ,  9-H ) :   0.9343 B(  2-C ,  3-O ) :   1.0154
B(  2-C , 10-H ) :   0.9272 B(  2-C , 11-H ) :   0.9272 B(  3-O ,  4-C ) :   0.9854
B(  4-C ,  5-C ) :   1.0460 B(  4-C , 12-H ) :   0.9281 B(  4-C , 13-H ) :   0.9076
B(  5-C ,  6-C ) :   2.0124 B(  5-C , 14-H ) :   0.9590 B(  6-C , 15-H ) :   0.9472
B(  6-C , 16-H ) :   0.9481

FINAL SINGLE POINT ENERGY      -346.253305037234

DIPOLE MOMENT
-------------
                                X             Y             Z
Electronic contribution:     -1.60477      -1.37797      -1.43229
Nuclear contribution   :      1.57960       1.22850       1.28348
                        -----------------------------------------
Total Dipole Moment    :     -0.02517      -0.14947      -0.14881
                        -----------------------------------------
Magnitude (a.u.)       :      0.21241
Magnitude (Debye)      :      0.53992

                             ****ORCA TERMINATED NORMALLY****
TOTAL RUN TIME: 0 days 0 hours 0 minutes 7 seconds 50 msec
