                         Program Version 3.0.3 - RELEASE   -
|  1> ! RI PBE def2-SVP def2-SVP/J NBO PAL2
|  2> % maxcore 2000
|  3> % output
|  4>     # printlevel mini
|  5>     print[ P_Basis ] 0
|  6>     print[ P_SCFInfo ] 1
|  7>     print[ P_SCFIterInfo ] 1
|  8>     print[ P_OrbEn ] 0
|  9>     print[ P_Cartesian ] 0
| 10> end
| 11> *xyz 0 1
| 12>  O        1.0514630000     0.0334510000     0.0838730000
| 13>  C        2.4626510000     0.0147840000     0.0806730000
| 14>  C        2.9179500000     1.2550870000    -0.6488150000
| 15>  O        4.3227780000     1.2561410000    -0.6628790000
| 16>  C        4.8391780000     2.3811900000    -1.3254600000
| 17>  C        6.2918030000     2.3492260000    -1.3204090000
| 18>  C        7.4907800000     2.3497410000    -1.3319420000
| 19>  H        0.7356460000    -0.7478000000     0.5416160000
| 20>  H        2.8575310000    -0.8700750000    -0.4346070000
| 21>  H        2.8728360000     0.0260550000     1.0985430000
| 22>  H        2.5281620000     2.1481730000    -0.1385200000
| 23>  H        2.5134780000     1.2518580000    -1.6717150000
| 24>  H        4.4951500000     3.3072530000    -0.8388090000
| 25>  H        4.4808210000     2.4142670000    -2.3662660000
| 26>  H        8.5550850000     2.3438420000    -1.3384830000
| 27> *
| 28>
| 29>                          ****END OF INPUT****
 Total Charge           Charge          ....    0
 Multiplicity           Mult            ....    1
 Number of Electrons    NEL             ....   54
 Basis Dimension        Dim             ....  138

MULLIKEN ATOMIC CHARGES
-----------------------
   0 O :   -0.284465
   1 C :    0.145026
   2 C :    0.145536
   3 O :   -0.343146
   4 C :    0.240158
   5 C :    0.312663
   6 C :   -0.444370
   7 H :    0.159014
   8 H :    0.007526
   9 H :    0.008329
  10 H :    0.002867
  11 H :    0.004444
  12 H :    0.019501
  13 H :    0.022228
  14 H :    0.004690
Sum of atomic charges:   -0.0000000

LOEWDIN ATOMIC CHARGES
----------------------
   0 O :   -0.126844
   1 C :    0.050976
   2 C :    0.052034
   3 O :   -0.138057
   4 C :    0.056879
   5 C :   -0.027893
   6 C :   -0.062638
   7 H :    0.073592
   8 H :    0.007339
   9 H :    0.007696
  10 H :    0.007343
  11 H :    0.007843
  12 H :    0.027699
  13 H :    0.028082
  14 H :    0.035950

  Mayer bond orders larger than 0.1
B(  0-O ,  1-C ) :   1.0903 B(  0-O ,  7-H ) :   0.9795 B(  1-C ,  2-C ) :   1.0708
B(  1-C ,  8-H ) :   0.9337 B(  1-C ,  9-H ) :   0.9324 B(  2-C ,  3-O ) :   1.0030
B(  2-C , 10-H ) :   0.9281 B(  2-C , 11-H ) :   0.9270 B(  3-O ,  4-C ) :   1.0367
B(  4-C ,  5-C ) :   1.0116 B(  4-C , 12-H ) :   0.9039 B(  4-C , 13-H ) :   0.9052
B(  5-C ,  6-C ) :   2.4046 B(  5-C , 14-H ) :  -0.1013 B(  6-C , 14-H ) :   1.0924

FINAL SINGLE POINT ENERGY      -345.006297250066

DIPOLE MOMENT
-------------
                                X             Y             Z
Electronic contribution:      2.87151       0.39975      -0.26136
Nuclear contribution   :     -3.04869      -0.56781       0.35864
                        -----------------------------------------
Total Dipole Moment    :     -0.17718      -0.16806       0.09728
                        -----------------------------------------
Magnitude (a.u.)       :      0.26287
Magnitude (Debye)      :      0.66817

                             ****ORCA TERMINATED NORMALLY****
TOTAL RUN TIME: 0 days 0 hours 0 minutes 6 seconds 603 msec
