                         Program Version 3.0.3 - RELEASE   -
|  1> ! RI PBE def2-SVP def2-SVP/J NBO PAL2
|  2> % maxcore 2000
|  3> % output
|  4>     # printlevel mini
|  5>     print[ P_Basis ] 0
|  6>     print[ P_SCFInfo ] 1
|  7>     print[ P_SCFIterInfo ] 1
|  8>     print[ P_OrbEn ] 0
|  9>     print[ P_Cartesian ] 0
| 10> end
| 11> *xyz 0 1
| 12>  O        2.6344730000     0.5752470000    -0.6667520000
| 13>  C        2.1842650000    -0.0466020000     0.2509820000
| 14>  O        2.8829940000    -0.6277980000     1.2230510000
| 15>  C        4.3018920000    -0.4934650000     1.1481050000
| 16>  C        4.9427080000     0.7837690000     1.6981560000
| 17>  C        6.0431120000    -0.1164900000     2.2982160000
| 18>  C        5.0670330000    -1.3073790000     2.1858490000
| 19>  H        1.1118140000    -0.2269510000     0.4181380000
| 20>  H        4.6228870000    -0.6959690000     0.1246980000
| 21>  H        4.3149740000     1.2140150000     2.4817540000
| 22>  H        5.2183820000     1.5601360000     0.9857670000
| 23>  H        6.4156910000     0.1355830000     3.2903880000
| 24>  H        6.8925300000    -0.2228630000     1.6214690000
| 25>  H        4.4702400000    -1.4132800000     3.0940530000
| 26>  H        5.4528970000    -2.2834730000     1.8911170000
| 27> *
| 28>
| 29>                          ****END OF INPUT****
 Total Charge           Charge          ....    0
 Multiplicity           Mult            ....    1
 Number of Electrons    NEL             ....   54
 Basis Dimension        Dim             ....  138

MULLIKEN ATOMIC CHARGES
-----------------------
   0 O :   -0.207314
   1 C :    0.207768
   2 O :   -0.221395
   3 C :    0.004660
   4 C :    0.039066
   5 C :   -0.039787
   6 C :    0.049482
   7 H :    0.006102
   8 H :    0.024270
   9 H :    0.016707
  10 H :    0.034776
  11 H :    0.016203
  12 H :    0.028565
  13 H :    0.020118
  14 H :    0.020777
Sum of atomic charges:   -0.0000000

LOEWDIN ATOMIC CHARGES
----------------------
   0 O :   -0.143346
   1 C :    0.069782
   2 O :   -0.054514
   3 C :    0.057896
   4 C :   -0.037602
   5 C :   -0.029226
   6 C :   -0.033707
   7 H :   -0.005991
   8 H :    0.021490
   9 H :    0.030684
  10 H :    0.024880
  11 H :    0.020958
  12 H :    0.027311
  13 H :    0.031274
  14 H :    0.020110

  Mayer bond orders larger than 0.1
B(  0-O ,  1-C ) :   2.0474 B(  0-O ,  2-O ) :   0.1060 B(  1-C ,  2-O ) :   1.1925
B(  1-C ,  7-H ) :   0.9367 B(  2-O ,  3-C ) :   0.9448 B(  3-C ,  4-C ) :   1.1039
B(  3-C ,  6-C ) :   1.0748 B(  3-C ,  8-H ) :   0.9183 B(  4-C ,  5-C ) :   1.1172
B(  4-C ,  9-H ) :   0.9057 B(  4-C , 10-H ) :   0.9358 B(  5-C ,  6-C ) :   1.0982
B(  5-C , 11-H ) :   0.9322 B(  5-C , 12-H ) :   0.9429 B(  6-C , 13-H ) :   0.9130
B(  6-C , 14-H ) :   0.9361

FINAL SINGLE POINT ENERGY      -345.103096275166

DIPOLE MOMENT
-------------
                                X             Y             Z
Electronic contribution:     -5.94478       0.22943      -3.85575
Nuclear contribution   :      6.26188      -0.53734       4.47762
                        -----------------------------------------
Total Dipole Moment    :      0.31710      -0.30792       0.62186
                        -----------------------------------------
Magnitude (a.u.)       :      0.76294
Magnitude (Debye)      :      1.93924

                             ****ORCA TERMINATED NORMALLY****
TOTAL RUN TIME: 0 days 0 hours 0 minutes 6 seconds 588 msec
