                         Program Version 3.0.3 - RELEASE   -
|  1> ! RI PBE def2-SVP def2-SVP/J NBO PAL2
|  2> % maxcore 2000
|  3> % output
|  4>     # printlevel mini
|  5>     print[ P_Basis ] 0
|  6>     print[ P_SCFInfo ] 1
|  7>     print[ P_SCFIterInfo ] 1
|  8>     print[ P_OrbEn ] 0
|  9>     print[ P_Cartesian ] 0
| 10> end
| 11> *xyz 0 1
| 12>  O        1.1136410000     0.0518740000    -0.0996000000
| 13>  C        2.4319170000     0.2715640000     0.0551450000
| 14>  O        2.9493640000     0.3338640000     1.1389990000
| 15>  C        3.1518600000     0.4238610000    -1.2469300000
| 16>  C        4.0600760000     1.6663630000    -1.4023240000
| 17>  C        5.1013890000     0.7740290000    -2.0997410000
| 18>  C        4.4172860000    -0.4419820000    -1.4514300000
| 19>  H        0.7427180000    -0.0317380000     0.7906310000
| 20>  H        2.4554260000     0.3252680000    -2.0797610000
| 21>  H        4.4088760000     1.9957000000    -0.4220620000
| 22>  H        3.6503040000     2.5167160000    -1.9482810000
| 23>  H        6.1535450000     0.9469830000    -1.8719130000
| 24>  H        4.9723900000     0.7774300000    -3.1841750000
| 25>  H        4.8625730000    -0.6821260000    -0.4844310000
| 26>  H        4.3061460000    -1.3542070000    -2.0384370000
| 27> *
| 28>
| 29>                          ****END OF INPUT****
 Total Charge           Charge          ....    0
 Multiplicity           Mult            ....    1
 Number of Electrons    NEL             ....   54
 Basis Dimension        Dim             ....  138

MULLIKEN ATOMIC CHARGES
-----------------------
   0 O :   -0.131886
   1 C :    0.102416
   2 O :   -0.183515
   3 C :   -0.196789
   4 C :    0.068984
   5 C :   -0.040393
   6 C :    0.062169
   7 H :    0.164698
   8 H :    0.016437
   9 H :    0.022465
  10 H :    0.021636
  11 H :    0.018711
  12 H :    0.027330
  13 H :    0.024781
  14 H :    0.022954
Sum of atomic charges:   -0.0000000

LOEWDIN ATOMIC CHARGES
----------------------
   0 O :   -0.013515
   1 C :    0.039752
   2 O :   -0.160104
   3 C :   -0.064695
   4 C :   -0.012121
   5 C :   -0.036396
   6 C :   -0.013158
   7 H :    0.083711
   8 H :    0.032100
   9 H :    0.029677
  10 H :    0.019283
  11 H :    0.019397
  12 H :    0.026599
  13 H :    0.029991
  14 H :    0.019480

  Mayer bond orders larger than 0.1
B(  0-O ,  1-C ) :   1.2656 B(  0-O ,  7-H ) :   0.9469 B(  1-C ,  2-O ) :   2.1198
B(  1-C ,  3-C ) :   0.9308 B(  3-C ,  4-C ) :   1.0721 B(  3-C ,  6-C ) :   1.0686
B(  3-C ,  8-H ) :   0.9023 B(  4-C ,  5-C ) :   1.1222 B(  4-C ,  9-H ) :   0.9146
B(  4-C , 10-H ) :   0.9377 B(  5-C ,  6-C ) :   1.1267 B(  5-C , 11-H ) :   0.9357
B(  5-C , 12-H ) :   0.9338 B(  6-C , 13-H ) :   0.9155 B(  6-C , 14-H ) :   0.9383

FINAL SINGLE POINT ENERGY      -345.121170929316

DIPOLE MOMENT
-------------
                                X             Y             Z
Electronic contribution:     -5.30854      -1.01400       4.91041
Nuclear contribution   :      5.05308       0.98134      -5.37207
                        -----------------------------------------
Total Dipole Moment    :     -0.25546      -0.03266      -0.46166
                        -----------------------------------------
Magnitude (a.u.)       :      0.52864
Magnitude (Debye)      :      1.34369

                             ****ORCA TERMINATED NORMALLY****
TOTAL RUN TIME: 0 days 0 hours 0 minutes 7 seconds 295 msec
