                         Program Version 3.0.3 - RELEASE   -
|  1> ! RI PBE def2-SVP def2-SVP/J NBO PAL2
|  2> % maxcore 2000
|  3> % output
|  4>     # printlevel mini
|  5>     print[ P_Basis ] 0
|  6>     print[ P_SCFInfo ] 1
|  7>     print[ P_SCFIterInfo ] 1
|  8>     print[ P_OrbEn ] 0
|  9>     print[ P_Cartesian ] 0
| 10> end
| 11> *xyz 0 1
| 12>  O        5.3171190000    -1.8363450000    -1.0372280000
| 13>  C        4.2273340000    -2.0120600000    -1.5006110000
| 14>  O        3.4843150000    -1.1085920000    -2.1302420000
| 15>  C        4.0554110000     0.2079830000    -2.2621500000
| 16>  C        5.0185920000     0.2999000000    -3.3997010000
| 17>  C        4.4969120000     0.3966300000    -4.8002220000
| 18>  C        5.1126890000     1.5949050000    -4.1495290000
| 19>  H        3.6801700000    -2.9658680000    -1.4623870000
| 20>  H        4.5334460000     0.4752620000    -1.3175930000
| 21>  H        3.1965910000     0.8595760000    -2.4310820000
| 22>  H        5.9436480000    -0.2455720000    -3.2542470000
| 23>  H        3.4219530000     0.3901390000    -4.9366270000
| 24>  H        5.0507060000    -0.1039130000    -5.5840970000
| 25>  H        4.4546370000     2.4020810000    -3.8490360000
| 26>  H        6.0914970000     1.9180710000    -4.4794480000
| 27> *
| 28>
| 29>                          ****END OF INPUT****
 Total Charge           Charge          ....    0
 Multiplicity           Mult            ....    1
 Number of Electrons    NEL             ....   54
 Basis Dimension        Dim             ....  138

MULLIKEN ATOMIC CHARGES
-----------------------
   0 O :   -0.214143
   1 C :    0.208936
   2 O :   -0.246074
   3 C :    0.261604
   4 C :   -0.181127
   5 C :   -0.025763
   6 C :   -0.035751
   7 H :    0.004691
   8 H :    0.030905
   9 H :    0.003247
  10 H :    0.041824
  11 H :    0.039005
  12 H :    0.039558
  13 H :    0.034515
  14 H :    0.038573
Sum of atomic charges:   -0.0000000

LOEWDIN ATOMIC CHARGES
----------------------
   0 O :   -0.149192
   1 C :    0.070472
   2 O :   -0.058513
   3 C :    0.079976
   4 C :   -0.058243
   5 C :   -0.040548
   6 C :   -0.037243
   7 H :   -0.005202
   8 H :    0.024466
   9 H :    0.025261
  10 H :    0.032894
  11 H :    0.028177
  12 H :    0.030798
  13 H :    0.026372
  14 H :    0.030524

  Mayer bond orders larger than 0.1
B(  0-O ,  1-C ) :   2.0290 B(  0-O ,  2-O ) :   0.1065 B(  1-C ,  2-O ) :   1.2142
B(  1-C ,  7-H ) :   0.9339 B(  2-O ,  3-C ) :   0.9147 B(  3-C ,  4-C ) :   1.1016
B(  3-C ,  8-H ) :   0.9273 B(  3-C ,  9-H ) :   0.9255 B(  4-C ,  5-C ) :   0.9811
B(  4-C ,  6-C ) :   0.9814 B(  4-C , 10-H ) :   0.9396 B(  5-C ,  6-C ) :   1.0484
B(  5-C , 11-H ) :   0.9511 B(  5-C , 12-H ) :   0.9479 B(  6-C , 13-H ) :   0.9480
B(  6-C , 14-H ) :   0.9470

FINAL SINGLE POINT ENERGY      -345.096423333659

DIPOLE MOMENT
-------------
                                X             Y             Z
Electronic contribution:     -0.57797      -4.99049       4.76035
Nuclear contribution   :      0.18602       5.41585      -5.22154
                        -----------------------------------------
Total Dipole Moment    :     -0.39195       0.42536      -0.46119
                        -----------------------------------------
Magnitude (a.u.)       :      0.73976
Magnitude (Debye)      :      1.88033

                             ****ORCA TERMINATED NORMALLY****
TOTAL RUN TIME: 0 days 0 hours 0 minutes 6 seconds 697 msec
