                         Program Version 3.0.3 - RELEASE   -
|  1> ! RI PBE def2-SVP def2-SVP/J NBO PAL2
|  2> % maxcore 2000
|  3> % output
|  4>     # printlevel mini
|  5>     print[ P_Basis ] 0
|  6>     print[ P_SCFInfo ] 1
|  7>     print[ P_SCFIterInfo ] 1
|  8>     print[ P_OrbEn ] 0
|  9>     print[ P_Cartesian ] 0
| 10> end
| 11> *xyz 0 1
| 12>  O        3.2785550000     2.9632680000     0.7663170000
| 13>  C        2.5341360000     1.8835800000     0.4712260000
| 14>  O        1.4398660000     1.7478110000     0.9320730000
| 15>  C        3.1626850000     0.8952760000    -0.4951410000
| 16>  C        4.6658880000     0.8819940000    -0.5262230000
| 17>  C        5.3857970000     0.4523560000    -1.7618570000
| 18>  C        5.4219300000     1.8934710000    -1.3584300000
| 19>  H        4.1297100000     2.8867380000     0.3123000000
| 20>  H        2.7733670000     1.1463910000    -1.4891020000
| 21>  H        2.7571310000    -0.0873820000    -0.2471180000
| 22>  H        5.1373670000     0.6011310000     0.4109290000
| 23>  H        4.7849290000     0.1880350000    -2.6236910000
| 24>  H        6.2907880000    -0.1304880000    -1.6496530000
| 25>  H        4.8477280000     2.5917730000    -1.9578030000
| 26>  H        6.3524030000     2.2913340000    -0.9722270000
| 27> *
| 28>
| 29>                          ****END OF INPUT****
 Total Charge           Charge          ....    0
 Multiplicity           Mult            ....    1
 Number of Electrons    NEL             ....   54
 Basis Dimension        Dim             ....  138

MULLIKEN ATOMIC CHARGES
-----------------------
   0 O :   -0.121994
   1 C :    0.038324
   2 O :   -0.160979
   3 C :    0.106185
   4 C :   -0.249234
   5 C :   -0.006292
   6 C :   -0.077271
   7 H :    0.161758
   8 H :    0.034376
   9 H :    0.042499
  10 H :    0.043577
  11 H :    0.040752
  12 H :    0.044646
  13 H :    0.055116
  14 H :    0.048537
Sum of atomic charges:   -0.0000000

LOEWDIN ATOMIC CHARGES
----------------------
   0 O :   -0.008797
   1 C :    0.032679
   2 O :   -0.136863
   3 C :   -0.069456
   4 C :   -0.060453
   5 C :   -0.031730
   6 C :   -0.060065
   7 H :    0.075935
   8 H :    0.050585
   9 H :    0.049288
  10 H :    0.032988
  11 H :    0.030922
  12 H :    0.033490
  13 H :    0.029890
  14 H :    0.031588

  Mayer bond orders larger than 0.1
B(  0-O ,  1-C ) :   1.2305 B(  0-O ,  7-H ) :   0.9483 B(  1-C ,  2-O ) :   2.1584
B(  1-C ,  3-C ) :   0.9599 B(  3-C ,  4-C ) :   1.0319 B(  3-C ,  8-H ) :   0.8980
B(  3-C ,  9-H ) :   0.9162 B(  4-C ,  5-C ) :   0.9837 B(  4-C ,  6-C ) :   0.9549
B(  4-C , 10-H ) :   0.9539 B(  5-C ,  6-C ) :   1.0359 B(  5-C , 11-H ) :   0.9491
B(  5-C , 12-H ) :   0.9432 B(  6-C , 13-H ) :   0.9508 B(  6-C , 14-H ) :   0.9483

FINAL SINGLE POINT ENERGY      -345.111384491708

DIPOLE MOMENT
-------------
                                X             Y             Z
Electronic contribution:     -5.74079       2.46803       4.82280
Nuclear contribution   :      7.21970      -2.85164      -5.78706
                        -----------------------------------------
Total Dipole Moment    :      1.47891      -0.38361      -0.96426
                        -----------------------------------------
Magnitude (a.u.)       :      1.80669
Magnitude (Debye)      :      4.59224

                             ****ORCA TERMINATED NORMALLY****
TOTAL RUN TIME: 0 days 0 hours 0 minutes 6 seconds 859 msec
