                         Program Version 3.0.3 - RELEASE   -
|  1> ! RI PBE def2-SVP def2-SVP/J NBO PAL2
|  2> % maxcore 2000
|  3> % output
|  4>     # printlevel mini
|  5>     print[ P_Basis ] 0
|  6>     print[ P_SCFInfo ] 1
|  7>     print[ P_SCFIterInfo ] 1
|  8>     print[ P_OrbEn ] 0
|  9>     print[ P_Cartesian ] 0
| 10> end
| 11> *xyz 0 1
| 12>  O        2.6194080000     0.9105140000    -0.5740760000
| 13>  C        2.1447370000    -0.0332020000    -0.0255280000
| 14>  O        2.8320960000    -1.0391110000     0.5591930000
| 15>  C        4.1976400000    -0.9836240000     0.5269560000
| 16>  C        4.8995310000    -1.9618740000     1.0956070000
| 17>  C        6.3119510000    -1.9775690000     1.1047480000
| 18>  C        7.5138720000    -2.0240800000     1.1317970000
| 19>  H        1.0724880000    -0.2348200000     0.0916630000
| 20>  H        4.6241000000    -0.1238930000     0.0272130000
| 21>  H        4.3752860000    -2.7842040000     1.5736090000
| 22>  H        8.5774010000    -2.0572980000     1.1511070000
| 23> *
| 24>
| 25>                          ****END OF INPUT****
 Total Charge           Charge          ....    0
 Multiplicity           Mult            ....    1
 Number of Electrons    NEL             ....   50
 Basis Dimension        Dim             ....  118

MULLIKEN ATOMIC CHARGES
-----------------------
   0 O :   -0.177462
   1 C :    0.218645
   2 O :   -0.192694
   3 C :    0.120181
   4 C :   -0.057750
   5 C :    0.362274
   6 C :   -0.386538
   7 H :    0.020869
   8 H :    0.039371
   9 H :    0.043978
  10 H :    0.009126
Sum of atomic charges:   -0.0000000

LOEWDIN ATOMIC CHARGES
----------------------
   0 O :   -0.114509
   1 C :    0.087559
   2 O :   -0.014911
   3 C :    0.070075
   4 C :   -0.069886
   5 C :   -0.021227
   6 C :   -0.056204
   7 H :    0.002714
   8 H :    0.027712
   9 H :    0.051260
  10 H :    0.037418

  Mayer bond orders larger than 0.1
B(  0-O ,  1-C ) :   2.0798 B(  1-C ,  2-O ) :   1.1137 B(  1-C ,  7-H ) :   0.9410
B(  2-O ,  3-C ) :   1.0417 B(  3-C ,  4-C ) :   1.7476 B(  3-C ,  6-C ) :   0.1245
B(  3-C ,  8-H ) :   0.9606 B(  4-C ,  5-C ) :   1.0644 B(  4-C ,  9-H ) :   0.9377
B(  5-C ,  6-C ) :   2.2916 B(  6-C , 10-H ) :   1.0879

FINAL SINGLE POINT ENERGY      -342.642252452973

DIPOLE MOMENT
-------------
                                X             Y             Z
Electronic contribution:     -1.73547       0.89014      -0.51758
Nuclear contribution   :      1.55165      -1.29298       0.75160
                        -----------------------------------------
Total Dipole Moment    :     -0.18382      -0.40284       0.23402
                        -----------------------------------------
Magnitude (a.u.)       :      0.50084
Magnitude (Debye)      :      1.27302

                             ****ORCA TERMINATED NORMALLY****
TOTAL RUN TIME: 0 days 0 hours 0 minutes 5 seconds 294 msec
