                         Program Version 3.0.3 - RELEASE   -
|  1> ! RI PBE def2-SVP def2-SVP/J NBO PAL2
|  2> % maxcore 2000
|  3> % output
|  4>     # printlevel mini
|  5>     print[ P_Basis ] 0
|  6>     print[ P_SCFInfo ] 1
|  7>     print[ P_SCFIterInfo ] 1
|  8>     print[ P_OrbEn ] 0
|  9>     print[ P_Cartesian ] 0
| 10> end
| 11> *xyz 0 1
| 12>  O        2.8201250000     2.4787860000     1.6043230000
| 13>  C        2.2523360000     2.0349060000     0.6489980000
| 14>  O        2.8221210000     1.4339330000    -0.3931930000
| 15>  C        4.2466780000     1.3138280000    -0.3558580000
| 16>  C        4.9419340000     2.5908030000    -0.8060490000
| 17>  C        4.6434970000     2.9635820000    -2.1780810000
| 18>  C        4.3950630000     3.2608180000    -3.3136690000
| 19>  H        1.1634370000     2.0583720000     0.4995800000
| 20>  H        4.4766120000     0.4891330000    -1.0291240000
| 21>  H        4.5603520000     1.0657000000     0.6593190000
| 22>  H        6.0211380000     2.4369020000    -0.6965390000
| 23>  H        4.6733200000     3.4048480000    -0.1270060000
| 24>  H        4.1742900000     3.5287890000    -4.3197000000
| 25> *
| 26>
| 27>                          ****END OF INPUT****
 Total Charge           Charge          ....    0
 Multiplicity           Mult            ....    1
 Number of Electrons    NEL             ....   52
 Basis Dimension        Dim             ....  128

MULLIKEN ATOMIC CHARGES
-----------------------
   0 O :   -0.208487
   1 C :    0.204643
   2 O :   -0.234837
   3 C :    0.161318
   4 C :    0.016794
   5 C :    0.325124
   6 C :   -0.469339
   7 H :    0.015739
   8 H :    0.036655
   9 H :    0.035223
  10 H :    0.053580
  11 H :    0.062094
  12 H :    0.001493
Sum of atomic charges:    0.0000000

LOEWDIN ATOMIC CHARGES
----------------------
   0 O :   -0.144467
   1 C :    0.074090
   2 O :   -0.050773
   3 C :    0.082892
   4 C :   -0.060065
   5 C :   -0.027557
   6 C :   -0.079078
   7 H :   -0.000743
   8 H :    0.030615
   9 H :    0.023178
  10 H :    0.059885
  11 H :    0.056271
  12 H :    0.035752

  Mayer bond orders larger than 0.1
B(  0-O ,  1-C ) :   2.0316 B(  0-O ,  2-O ) :   0.1038 B(  1-C ,  2-O ) :   1.2059
B(  1-C ,  7-H ) :   0.9356 B(  2-O ,  3-C ) :   0.9353 B(  3-C ,  4-C ) :   1.0910
B(  3-C ,  8-H ) :   0.9443 B(  3-C ,  9-H ) :   0.9304 B(  4-C ,  5-C ) :   1.0645
B(  4-C , 10-H ) :   0.8941 B(  4-C , 11-H ) :   0.8949 B(  5-C ,  6-C ) :   2.3612
B(  5-C , 12-H ) :  -0.1068 B(  6-C , 12-H ) :   1.0982

FINAL SINGLE POINT ENERGY      -343.854375478695

DIPOLE MOMENT
-------------
                                X             Y             Z
Electronic contribution:     -2.53460       0.21107       0.98544
Nuclear contribution   :      2.74966      -0.55423      -1.35168
                        -----------------------------------------
Total Dipole Moment    :      0.21506      -0.34316      -0.36624
                        -----------------------------------------
Magnitude (a.u.)       :      0.54602
Magnitude (Debye)      :      1.38788

                             ****ORCA TERMINATED NORMALLY****
TOTAL RUN TIME: 0 days 0 hours 0 minutes 6 seconds 266 msec
