                         Program Version 3.0.3 - RELEASE   -
|  1> ! RI PBE def2-SVP def2-SVP/J NBO PAL2
|  2> % maxcore 2000
|  3> % output
|  4>     # printlevel mini
|  5>     print[ P_Basis ] 0
|  6>     print[ P_SCFInfo ] 1
|  7>     print[ P_SCFIterInfo ] 1
|  8>     print[ P_OrbEn ] 0
|  9>     print[ P_Cartesian ] 0
| 10> end
| 11> *xyz 0 1
| 12>  O        1.4499920000     0.4213210000     0.7614170000
| 13>  C        2.7509140000     0.2534590000     0.4525690000
| 14>  O        3.6195740000     0.2720960000     1.2877800000
| 15>  C        2.9403270000     0.0536070000    -0.9898220000
| 16>  C        4.1651270000    -0.1313470000    -1.4944870000
| 17>  C        4.4473750000    -0.3350890000    -2.8944050000
| 18>  C        5.6801420000    -0.5171090000    -3.3694690000
| 19>  H        1.4123440000     0.5453860000     1.7199230000
| 20>  H        2.0562210000     0.0626240000    -1.6172770000
| 21>  H        5.0043780000    -0.1277840000    -0.8023080000
| 22>  H        3.5999800000    -0.3364640000    -3.5756200000
| 23>  H        6.5414390000    -0.5197740000    -2.7094470000
| 24>  H        5.8659080000    -0.6681360000    -4.4257630000
| 25> *
| 26>
| 27>                          ****END OF INPUT****
 Total Charge           Charge          ....    0
 Multiplicity           Mult            ....    1
 Number of Electrons    NEL             ....   52
 Basis Dimension        Dim             ....  128

MULLIKEN ATOMIC CHARGES
-----------------------
   0 O :   -0.139309
   1 C :    0.100721
   2 O :   -0.183699
   3 C :   -0.070921
   4 C :    0.048613
   5 C :    0.000159
   6 C :   -0.016052
   7 H :    0.163292
   8 H :    0.009733
   9 H :    0.014447
  10 H :    0.003343
  11 H :    0.032906
  12 H :    0.036767
Sum of atomic charges:   -0.0000000

LOEWDIN ATOMIC CHARGES
----------------------
   0 O :   -0.017776
   1 C :    0.030604
   2 O :   -0.163866
   3 C :   -0.070731
   4 C :    0.023245
   5 C :   -0.030467
   6 C :   -0.019045
   7 H :    0.084575
   8 H :    0.032532
   9 H :    0.038246
  10 H :    0.032833
  11 H :    0.029333
  12 H :    0.030518

  Mayer bond orders larger than 0.1
B(  0-O ,  1-C ) :   1.2406 B(  0-O ,  7-H ) :   0.9490 B(  1-C ,  2-O ) :   2.0937
B(  1-C ,  3-C ) :   0.9730 B(  3-C ,  4-C ) :   1.7057 B(  3-C ,  6-C ) :   0.1342
B(  3-C ,  8-H ) :   0.9606 B(  4-C ,  5-C ) :   1.1379 B(  4-C ,  9-H ) :   0.9571
B(  5-C ,  6-C ) :   1.8625 B(  5-C , 10-H ) :   0.9635 B(  6-C , 11-H ) :   0.9496
B(  6-C , 12-H ) :   0.9437

FINAL SINGLE POINT ENERGY      -343.913048117798

DIPOLE MOMENT
-------------
                                X             Y             Z
Electronic contribution:     -3.27970       1.02283       5.56372
Nuclear contribution   :      3.09483      -1.07987      -6.15508
                        -----------------------------------------
Total Dipole Moment    :     -0.18487      -0.05704      -0.59136
                        -----------------------------------------
Magnitude (a.u.)       :      0.62220
Magnitude (Debye)      :      1.58152

                             ****ORCA TERMINATED NORMALLY****
TOTAL RUN TIME: 0 days 0 hours 0 minutes 6 seconds 262 msec
