                         Program Version 3.0.3 - RELEASE   -
|  1> ! RI PBE def2-SVP def2-SVP/J NBO PAL2
|  2> % maxcore 2000
|  3> % output
|  4>     # printlevel mini
|  5>     print[ P_Basis ] 0
|  6>     print[ P_SCFInfo ] 1
|  7>     print[ P_SCFIterInfo ] 1
|  8>     print[ P_OrbEn ] 0
|  9>     print[ P_Cartesian ] 0
| 10> end
| 11> *xyz 0 1
| 12>  O        2.8650410000     0.3224160000    -1.3436160000
| 13>  C        2.2369630000    -0.0528390000    -0.2117340000
| 14>  O        1.0974310000     0.2578640000    -0.0167970000
| 15>  C        3.0136400000    -0.8404940000     0.7732910000
| 16>  C        4.3464680000    -0.8166990000     0.8875560000
| 17>  C        5.0690370000    -1.5240800000     1.8745160000
| 18>  C        5.7126160000    -2.1150750000     2.7009720000
| 19>  H        3.7154750000    -0.1233610000    -1.4170660000
| 20>  H        2.4073180000    -1.3965660000     1.4779290000
| 21>  H        4.9490510000    -0.2045260000     0.2179260000
| 22>  H        6.2738690000    -2.6419590000     3.4367230000
| 23> *
| 24>
| 25>                          ****END OF INPUT****
 Total Charge           Charge          ....    0
 Multiplicity           Mult            ....    1
 Number of Electrons    NEL             ....   50
 Basis Dimension        Dim             ....  118

MULLIKEN ATOMIC CHARGES
-----------------------
   0 O :   -0.123984
   1 C :    0.117192
   2 O :   -0.149670
   3 C :   -0.038650
   4 C :   -0.065784
   5 C :    0.374194
   6 C :   -0.371468
   7 H :    0.162194
   8 H :    0.039793
   9 H :    0.035474
  10 H :    0.020710
Sum of atomic charges:   -0.0000000

LOEWDIN ATOMIC CHARGES
----------------------
   0 O :   -0.008377
   1 C :    0.028258
   2 O :   -0.117355
   3 C :   -0.037002
   4 C :   -0.033521
   5 C :   -0.018712
   6 C :   -0.028168
   7 H :    0.080446
   8 H :    0.050286
   9 H :    0.041421
  10 H :    0.042725

  Mayer bond orders larger than 0.1
B(  0-O ,  1-C ) :   1.2204 B(  0-O ,  7-H ) :   0.9542 B(  1-C ,  2-O ) :   2.1123
B(  1-C ,  3-C ) :   0.9811 B(  3-C ,  4-C ) :   1.7069 B(  3-C ,  6-C ) :   0.1272
B(  3-C ,  8-H ) :   0.9608 B(  4-C ,  5-C ) :   1.0845 B(  4-C ,  9-H ) :   0.9260
B(  5-C ,  6-C ) :   2.2741 B(  6-C , 10-H ) :   1.0828

FINAL SINGLE POINT ENERGY      -342.652222438150

DIPOLE MOMENT
-------------
                                X             Y             Z
Electronic contribution:     -2.01693       1.04936      -1.07623
Nuclear contribution   :      3.51312      -1.75098       1.32659
                        -----------------------------------------
Total Dipole Moment    :      1.49618      -0.70163       0.25036
                        -----------------------------------------
Magnitude (a.u.)       :      1.67138
Magnitude (Debye)      :      4.24832

                             ****ORCA TERMINATED NORMALLY****
TOTAL RUN TIME: 0 days 0 hours 0 minutes 5 seconds 136 msec
