                         Program Version 3.0.3 - RELEASE   -
|  1> ! RI PBE def2-SVP def2-SVP/J NBO PAL2
|  2> % maxcore 2000
|  3> % output
|  4>     # printlevel mini
|  5>     print[ P_Basis ] 0
|  6>     print[ P_SCFInfo ] 1
|  7>     print[ P_SCFIterInfo ] 1
|  8>     print[ P_OrbEn ] 0
|  9>     print[ P_Cartesian ] 0
| 10> end
| 11> *xyz 0 1
| 12>  O        2.8991810000     0.2727630000     0.9285450000
| 13>  C        2.0518130000     0.0165350000    -0.0838600000
| 14>  O        0.8593890000     0.1056440000     0.0409580000
| 15>  C        2.7625610000    -0.3796520000    -1.3349920000
| 16>  C        2.0013160000    -0.7585660000    -2.3631410000
| 17>  C        4.2292270000    -0.3585670000    -1.3640060000
| 18>  C        4.9519730000    -0.0348020000    -2.4311970000
| 19>  H        2.3486940000     0.5134370000     1.6866280000
| 20>  H        0.9220830000    -0.7302430000    -2.2781850000
| 21>  H        2.4425460000    -1.1120530000    -3.2869160000
| 22>  H        4.7325480000    -0.6081540000    -0.4355570000
| 23>  H        4.4887590000     0.2812690000    -3.3600070000
| 24>  H        6.0345080000    -0.0600190000    -2.4022800000
| 25> *
| 26>
| 27>                          ****END OF INPUT****
 Total Charge           Charge          ....    0
 Multiplicity           Mult            ....    1
 Number of Electrons    NEL             ....   52
 Basis Dimension        Dim             ....  128

MULLIKEN ATOMIC CHARGES
-----------------------
   0 O :   -0.128495
   1 C :    0.110802
   2 O :   -0.169552
   3 C :   -0.122522
   4 C :    0.008754
   5 C :    0.011112
   6 C :   -0.028122
   7 H :    0.168084
   8 H :    0.047300
   9 H :    0.027602
  10 H :    0.015819
  11 H :    0.023982
  12 H :    0.035236
Sum of atomic charges:    0.0000000

LOEWDIN ATOMIC CHARGES
----------------------
   0 O :   -0.007425
   1 C :    0.042585
   2 O :   -0.151298
   3 C :   -0.077713
   4 C :    0.019121
   5 C :   -0.027615
   6 C :   -0.036669
   7 H :    0.087892
   8 H :    0.035100
   9 H :    0.029436
  10 H :    0.033571
  11 H :    0.024091
  12 H :    0.028925

  Mayer bond orders larger than 0.1
B(  0-O ,  1-C ) :   1.2716 B(  0-O ,  7-H ) :   0.9452 B(  1-C ,  2-O ) :   2.1184
B(  1-C ,  3-C ) :   0.9204 B(  3-C ,  4-C ) :   1.9328 B(  3-C ,  5-C ) :   1.0471
B(  4-C ,  8-H ) :   0.9235 B(  4-C ,  9-H ) :   0.9304 B(  5-C ,  6-C ) :   1.9518
B(  5-C , 10-H ) :   0.9424 B(  6-C , 11-H ) :   0.9480 B(  6-C , 12-H ) :   0.9439

FINAL SINGLE POINT ENERGY      -343.902601079835

DIPOLE MOMENT
-------------
                                X             Y             Z
Electronic contribution:     -3.41728       0.76505       4.50618
Nuclear contribution   :      3.95763      -0.80389      -4.49826
                        -----------------------------------------
Total Dipole Moment    :      0.54036      -0.03885       0.00792
                        -----------------------------------------
Magnitude (a.u.)       :      0.54181
Magnitude (Debye)      :      1.37717

                             ****ORCA TERMINATED NORMALLY****
TOTAL RUN TIME: 0 days 0 hours 0 minutes 5 seconds 650 msec
