                         Program Version 3.0.3 - RELEASE   -
|  1> ! RI PBE def2-SVP def2-SVP/J NBO PAL2
|  2> % maxcore 2000
|  3> % output
|  4>     # printlevel mini
|  5>     print[ P_Basis ] 0
|  6>     print[ P_SCFInfo ] 1
|  7>     print[ P_SCFIterInfo ] 1
|  8>     print[ P_OrbEn ] 0
|  9>     print[ P_Cartesian ] 0
| 10> end
| 11> *xyz 0 1
| 12>  O        1.0147530000     0.1393010000     0.1070350000
| 13>  C        2.3538720000     0.0995110000     0.0007810000
| 14>  O        2.9169160000    -0.2699770000    -0.9915590000
| 15>  C        3.0455170000     0.5610800000     1.2412710000
| 16>  C        2.3582100000     0.9612080000     2.3161220000
| 17>  C        4.4672030000     0.5476440000     1.2057480000
| 18>  C        5.6678660000     0.5385350000     1.1817530000
| 19>  H        0.6695280000    -0.1756530000    -0.7392660000
| 20>  H        1.2768030000     0.9598020000     2.3118880000
| 21>  H        2.8725710000     1.2933850000     3.2088860000
| 22>  H        6.7318210000     0.5276930000     1.1530320000
| 23> *
| 24>
| 25>                          ****END OF INPUT****
 Total Charge           Charge          ....    0
 Multiplicity           Mult            ....    1
 Number of Electrons    NEL             ....   50
 Basis Dimension        Dim             ....  118

MULLIKEN ATOMIC CHARGES
-----------------------
   0 O :   -0.137523
   1 C :    0.120405
   2 O :   -0.140931
   3 C :   -0.159648
   4 C :    0.050499
   5 C :    0.427030
   6 C :   -0.427224
   7 H :    0.172581
   8 H :    0.047785
   9 H :    0.037150
  10 H :    0.009874
Sum of atomic charges:   -0.0000000

LOEWDIN ATOMIC CHARGES
----------------------
   0 O :   -0.012138
   1 C :    0.046842
   2 O :   -0.131991
   3 C :   -0.087186
   4 C :    0.027019
   5 C :   -0.005603
   6 C :   -0.037409
   7 H :    0.090402
   8 H :    0.034604
   9 H :    0.036601
  10 H :    0.038858

  Mayer bond orders larger than 0.1
B(  0-O ,  1-C ) :   1.2682 B(  0-O ,  7-H ) :   0.9455 B(  1-C ,  2-O ) :   2.1625
B(  1-C ,  3-C ) :   0.9122 B(  3-C ,  4-C ) :   1.8876 B(  3-C ,  5-C ) :   0.9994
B(  4-C ,  6-C ) :   0.1241 B(  4-C ,  8-H ) :   0.9262 B(  4-C ,  9-H ) :   0.9319
B(  5-C ,  6-C ) :   2.2881 B(  5-C , 10-H ) :  -0.1050 B(  6-C , 10-H ) :   1.0950

FINAL SINGLE POINT ENERGY      -342.656953730710

DIPOLE MOMENT
-------------
                                X             Y             Z
Electronic contribution:      0.02002      -0.96328      -2.58884
Nuclear contribution   :     -0.49932       1.14082       3.06503
                        -----------------------------------------
Total Dipole Moment    :     -0.47930       0.17754       0.47619
                        -----------------------------------------
Magnitude (a.u.)       :      0.69857
Magnitude (Debye)      :      1.77563

                             ****ORCA TERMINATED NORMALLY****
TOTAL RUN TIME: 0 days 0 hours 0 minutes 5 seconds 389 msec
