                         Program Version 3.0.3 - RELEASE   -
|  1> ! RI PBE def2-SVP def2-SVP/J NBO PAL2
|  2> % maxcore 2000
|  3> % output
|  4>     # printlevel mini
|  5>     print[ P_Basis ] 0
|  6>     print[ P_SCFInfo ] 1
|  7>     print[ P_SCFIterInfo ] 1
|  8>     print[ P_OrbEn ] 0
|  9>     print[ P_Cartesian ] 0
| 10> end
| 11> *xyz 0 1
| 12>  O        1.2453210000     0.5875490000     0.5438240000
| 13>  C        2.2684890000    -0.0802920000    -0.0223670000
| 14>  O        2.6091460000    -1.1531230000     0.3784230000
| 15>  C        2.8945780000     0.6085530000    -1.1278290000
| 16>  C        3.4419650000     1.1530270000    -2.0559870000
| 17>  C        4.0769730000     1.7996090000    -3.1425740000
| 18>  C        5.1024550000     1.2680620000    -3.8085470000
| 19>  H        1.1175260000     1.4281870000     0.0889500000
| 20>  H        3.6886450000     2.7743150000    -3.4246430000
| 21>  H        5.5052260000     0.2978720000    -3.5438680000
| 22>  H        5.5597760000     1.7977430000    -4.6350830000
| 23> *
| 24>
| 25>                          ****END OF INPUT****
 Total Charge           Charge          ....    0
 Multiplicity           Mult            ....    1
 Number of Electrons    NEL             ....   50
 Basis Dimension        Dim             ....  118

MULLIKEN ATOMIC CHARGES
-----------------------
   0 O :   -0.118383
   1 C :    0.130197
   2 O :   -0.137520
   3 C :   -0.077787
   4 C :   -0.028204
   5 C :   -0.082065
   6 C :    0.008709
   7 H :    0.167138
   8 H :    0.038753
   9 H :    0.051691
  10 H :    0.047471
Sum of atomic charges:   -0.0000000

LOEWDIN ATOMIC CHARGES
----------------------
   0 O :    0.000067
   1 C :    0.021092
   2 O :   -0.102621
   3 C :   -0.091251
   4 C :   -0.001567
   5 C :   -0.047634
   6 C :    0.011752
   7 H :    0.089902
   8 H :    0.047398
   9 H :    0.038280
  10 H :    0.034582

  Mayer bond orders larger than 0.1
B(  0-O ,  1-C ) :   1.2337 B(  0-O ,  7-H ) :   0.9563 B(  1-C ,  2-O ) :   2.1344
B(  1-C ,  3-C ) :   0.8529 B(  3-C ,  4-C ) :   2.5229 B(  3-C ,  6-C ) :   0.1232
B(  4-C ,  5-C ) :   1.0751 B(  5-C ,  6-C ) :   1.8937 B(  5-C ,  8-H ) :   0.9451
B(  6-C ,  9-H ) :   0.9545 B(  6-C , 10-H ) :   0.9443

FINAL SINGLE POINT ENERGY      -342.655145461657

DIPOLE MOMENT
-------------
                                X             Y             Z
Electronic contribution:     -3.28486      -2.32574       4.91610
Nuclear contribution   :      3.48124       3.76136      -6.11068
                        -----------------------------------------
Total Dipole Moment    :      0.19638       1.43562      -1.19458
                        -----------------------------------------
Magnitude (a.u.)       :      1.87792
Magnitude (Debye)      :      4.77329

                             ****ORCA TERMINATED NORMALLY****
TOTAL RUN TIME: 0 days 0 hours 0 minutes 5 seconds 90 msec
