                         Program Version 3.0.3 - RELEASE   -
|  1> ! RI PBE def2-SVP def2-SVP/J NBO PAL2
|  2> % maxcore 2000
|  3> % output
|  4>     # printlevel mini
|  5>     print[ P_Basis ] 0
|  6>     print[ P_SCFInfo ] 1
|  7>     print[ P_SCFIterInfo ] 1
|  8>     print[ P_OrbEn ] 0
|  9>     print[ P_Cartesian ] 0
| 10> end
| 11> *xyz 0 1
| 12>  O        0.9470640000    -0.1016430000    -0.2300460000
| 13>  C        2.2703400000     0.1053490000    -0.1311810000
| 14>  O        2.8333940000     0.9167640000    -0.8016810000
| 15>  C        2.9397420000    -0.7292250000     0.8441230000
| 16>  C        3.5307270000    -1.4098370000     1.6498160000
| 17>  C        4.1954870000    -2.1755630000     2.5562430000
| 18>  C        4.7830180000    -2.8546380000     3.3596350000
| 19>  H        0.6740880000    -0.7913240000     0.3868930000
| 20>  H        5.3054410000    -3.4532830000     4.0688980000
| 21> *
| 22>
| 23>                          ****END OF INPUT****
 Total Charge           Charge          ....    0
 Multiplicity           Mult            ....    1
 Number of Electrons    NEL             ....   48
 Basis Dimension        Dim             ....  108

MULLIKEN ATOMIC CHARGES
-----------------------
   0 O :   -0.109331
   1 C :    0.133871
   2 O :   -0.125143
   3 C :   -0.090671
   4 C :    0.011168
   5 C :    0.356434
   6 C :   -0.378580
   7 H :    0.172158
   8 H :    0.030094
Sum of atomic charges:    0.0000000

LOEWDIN ATOMIC CHARGES
----------------------
   0 O :    0.009176
   1 C :    0.021153
   2 O :   -0.089554
   3 C :   -0.053822
   4 C :   -0.011838
   5 C :   -0.028943
   6 C :    0.012664
   7 H :    0.093715
   8 H :    0.047450

  Mayer bond orders larger than 0.1
B(  0-O ,  1-C ) :   1.2454 B(  0-O ,  2-O ) :   0.1032 B(  0-O ,  7-H ) :   0.9536
B(  1-C ,  2-O ) :   2.1332 B(  1-C ,  3-C ) :   0.8435 B(  3-C ,  4-C ) :   2.4404
B(  3-C ,  6-C ) :   0.2496 B(  4-C ,  5-C ) :   0.9538 B(  5-C ,  6-C ) :   2.1456
B(  6-C ,  8-H ) :   1.0873

FINAL SINGLE POINT ENERGY      -341.414289220134

DIPOLE MOMENT
-------------
                                X             Y             Z
Electronic contribution:     -0.19945       1.18411      -1.21017
Nuclear contribution   :      0.00611      -2.42864       2.39385
                        -----------------------------------------
Total Dipole Moment    :     -0.19335      -1.24453       1.18368
                        -----------------------------------------
Magnitude (a.u.)       :      1.72839
Magnitude (Debye)      :      4.39321

                             ****ORCA TERMINATED NORMALLY****
TOTAL RUN TIME: 0 days 0 hours 0 minutes 4 seconds 812 msec
