                         Program Version 3.0.3 - RELEASE   -
|  1> ! RI PBE def2-SVP def2-SVP/J NBO PAL2
|  2> % maxcore 2000
|  3> % output
|  4>     # printlevel mini
|  5>     print[ P_Basis ] 0
|  6>     print[ P_SCFInfo ] 1
|  7>     print[ P_SCFIterInfo ] 1
|  8>     print[ P_OrbEn ] 0
|  9>     print[ P_Cartesian ] 0
| 10> end
| 11> *xyz 0 1
| 12>  O        0.9285780000     0.3003300000     0.6110920000
| 13>  C        2.2459110000     0.1258030000     0.3993510000
| 14>  O        2.6713630000    -0.6662030000    -0.3963210000
| 15>  C        3.0682540000     1.0341190000     1.2668120000
| 16>  C        4.5652820000     0.8140710000     1.1105200000
| 17>  C        5.3607370000     1.7858620000     1.9172670000
| 18>  C        6.2218600000     1.4586970000     2.8701600000
| 19>  H        0.4706320000    -0.3107360000     0.0169610000
| 20>  H        2.7506910000     0.8909130000     2.3042060000
| 21>  H        2.7896090000     2.0640920000     1.0175290000
| 22>  H        4.8213410000     0.9118020000     0.0501140000
| 23>  H        4.8206510000    -0.2097650000     1.3943340000
| 24>  H        5.2038890000     2.8396760000     1.6892720000
| 25>  H        6.4096790000     0.4213790000     3.1304590000
| 26>  H        6.7743320000     2.2117710000     3.4199240000
| 27> *
| 28>
| 29>                          ****END OF INPUT****
 Total Charge           Charge          ....    0
 Multiplicity           Mult            ....    1
 Number of Electrons    NEL             ....   54
 Basis Dimension        Dim             ....  138

MULLIKEN ATOMIC CHARGES
-----------------------
   0 O :   -0.140337
   1 C :    0.060206
   2 O :   -0.182888
   3 C :   -0.046848
   4 C :    0.077551
   5 C :   -0.090255
   6 C :   -0.034067
   7 H :    0.166000
   8 H :    0.049132
   9 H :    0.046146
  10 H :    0.033833
  11 H :    0.015506
  12 H :    0.003131
  13 H :    0.017181
  14 H :    0.025709
Sum of atomic charges:    0.0000000

LOEWDIN ATOMIC CHARGES
----------------------
   0 O :   -0.018860
   1 C :    0.042117
   2 O :   -0.153302
   3 C :   -0.066661
   4 C :   -0.034988
   5 C :   -0.029828
   6 C :   -0.064726
   7 H :    0.084885
   8 H :    0.047824
   9 H :    0.047734
  10 H :    0.040698
  11 H :    0.033575
  12 H :    0.024341
  13 H :    0.022108
  14 H :    0.025084

  Mayer bond orders larger than 0.1
B(  0-O ,  1-C ) :   1.2542 B(  0-O ,  7-H ) :   0.9488 B(  1-C ,  2-O ) :   2.1097
B(  1-C ,  3-C ) :   0.9611 B(  3-C ,  4-C ) :   1.0697 B(  3-C ,  8-H ) :   0.9188
B(  3-C ,  9-H ) :   0.9152 B(  4-C ,  5-C ) :   1.0526 B(  4-C , 10-H ) :   0.9126
B(  4-C , 11-H ) :   0.9340 B(  5-C ,  6-C ) :   2.0204 B(  5-C , 12-H ) :   0.9519
B(  6-C , 13-H ) :   0.9492 B(  6-C , 14-H ) :   0.9440

FINAL SINGLE POINT ENERGY      -345.120048134454

DIPOLE MOMENT
-------------
                                X             Y             Z
Electronic contribution:     -6.05699      -3.00246      -3.89148
Nuclear contribution   :      5.67128       3.32258       4.13656
                        -----------------------------------------
Total Dipole Moment    :     -0.38570       0.32012       0.24509
                        -----------------------------------------
Magnitude (a.u.)       :      0.55795
Magnitude (Debye)      :      1.41820

                             ****ORCA TERMINATED NORMALLY****
TOTAL RUN TIME: 0 days 0 hours 0 minutes 6 seconds 469 msec
