                         Program Version 3.0.3 - RELEASE   -
|  1> ! RI PBE def2-SVP def2-SVP/J NBO PAL2
|  2> % maxcore 2000
|  3> % output
|  4>     # printlevel mini
|  5>     print[ P_Basis ] 0
|  6>     print[ P_SCFInfo ] 1
|  7>     print[ P_SCFIterInfo ] 1
|  8>     print[ P_OrbEn ] 0
|  9>     print[ P_Cartesian ] 0
| 10> end
| 11> *xyz 0 1
| 12>  O        1.1280400000     0.2497350000    -0.1576880000
| 13>  C        2.4759760000     0.2333010000    -0.1815880000
| 14>  O        3.0692460000     0.7819890000    -1.0606870000
| 15>  C        3.1278770000    -0.5122880000     0.9594360000
| 16>  C        4.6485210000    -0.4898150000     0.8655070000
| 17>  C        5.2745340000    -1.2060220000     1.9632950000
| 18>  C        5.7728370000    -1.8022250000     2.8781590000
| 19>  H        0.7998360000    -0.2330480000     0.6085230000
| 20>  H        2.7627150000    -1.5450470000     0.9614140000
| 21>  H        2.7992660000    -0.0681510000     1.9053260000
| 22>  H        4.9963690000     0.5465720000     0.8497650000
| 23>  H        4.9602110000    -0.9234280000    -0.0885280000
| 24>  H        6.2260720000    -2.3282610000     3.6847660000
| 25> *
| 26>
| 27>                          ****END OF INPUT****
 Total Charge           Charge          ....    0
 Multiplicity           Mult            ....    1
 Number of Electrons    NEL             ....   52
 Basis Dimension        Dim             ....  128

MULLIKEN ATOMIC CHARGES
-----------------------
   0 O :   -0.115670
   1 C :    0.083400
   2 O :   -0.159116
   3 C :   -0.112460
   4 C :    0.107718
   5 C :    0.329255
   6 C :   -0.505493
   7 H :    0.163076
   8 H :    0.055543
   9 H :    0.052706
  10 H :    0.051357
  11 H :    0.049462
  12 H :    0.000223
Sum of atomic charges:   -0.0000000

LOEWDIN ATOMIC CHARGES
----------------------
   0 O :   -0.008862
   1 C :    0.037348
   2 O :   -0.125734
   3 C :   -0.078552
   4 C :   -0.036903
   5 C :   -0.025353
   6 C :   -0.086744
   7 H :    0.085926
   8 H :    0.045799
   9 H :    0.045550
  10 H :    0.056264
  11 H :    0.056104
  12 H :    0.035158

  Mayer bond orders larger than 0.1
B(  0-O ,  1-C ) :   1.2324 B(  0-O ,  7-H ) :   0.9600 B(  1-C ,  2-O ) :   2.1387
B(  1-C ,  3-C ) :   0.9518 B(  3-C ,  4-C ) :   1.0786 B(  3-C ,  8-H ) :   0.9164
B(  3-C ,  9-H ) :   0.9156 B(  4-C ,  5-C ) :   1.0418 B(  4-C , 10-H ) :   0.8979
B(  4-C , 11-H ) :   0.8968 B(  5-C ,  6-C ) :   2.3386 B(  5-C , 12-H ) :  -0.1113
B(  6-C , 12-H ) :   1.1019

FINAL SINGLE POINT ENERGY      -343.868762625179

DIPOLE MOMENT
-------------
                                X             Y             Z
Electronic contribution:     -1.73260       1.65174      -2.51132
Nuclear contribution   :      1.27170      -2.32542       3.58456
                        -----------------------------------------
Total Dipole Moment    :     -0.46091      -0.67368       1.07324
                        -----------------------------------------
Magnitude (a.u.)       :      1.34837
Magnitude (Debye)      :      3.42729

                             ****ORCA TERMINATED NORMALLY****
TOTAL RUN TIME: 0 days 0 hours 0 minutes 5 seconds 560 msec
