                         Program Version 3.0.3 - RELEASE   -
|  1> ! RI PBE def2-SVP def2-SVP/J NBO PAL2
|  2> % maxcore 2000
|  3> % output
|  4>     # printlevel mini
|  5>     print[ P_Basis ] 0
|  6>     print[ P_SCFInfo ] 1
|  7>     print[ P_SCFIterInfo ] 1
|  8>     print[ P_OrbEn ] 0
|  9>     print[ P_Cartesian ] 0
| 10> end
| 11> *xyz 0 1
| 12>  C       -1.0066810000    -0.0059100000    -1.0769060000
| 13>  C       -0.6043830000     0.9927230000     0.0182230000
| 14>  C       -1.0538620000    -0.0579700000     1.0441040000
| 15>  C       -0.6205970000    -1.0832850000    -0.0330930000
| 16>  C        0.8733870000    -1.0854810000     0.0000870000
| 17>  N        1.5509990000    -0.0082770000     0.0415990000
| 18>  O        0.8133340000     1.1543790000     0.0537270000
| 19>  H       -0.4624790000     0.0205040000    -2.0209600000
| 20>  H       -2.0827330000     0.0224040000    -1.2486000000
| 21>  H       -1.0062660000     2.0045260000     0.0341180000
| 22>  H       -2.1365120000    -0.0369350000     1.1689910000
| 23>  H       -0.5521810000    -0.0784730000     2.0115690000
| 24>  H       -1.0620770000    -2.0775250000    -0.0673170000
| 25>  H        1.4585520000    -1.9999810000    -0.0093430000
| 26> *
| 27>
| 28>                          ****END OF INPUT****
 Total Charge           Charge          ....    0
 Multiplicity           Mult            ....    1
 Number of Electrons    NEL             ....   52
 Basis Dimension        Dim             ....  133

MULLIKEN ATOMIC CHARGES
-----------------------
   0 C :    0.106389
   1 C :    0.010733
   2 C :    0.104520
   3 C :   -0.160257
   4 C :   -0.019103
   5 N :    0.040228
   6 O :   -0.239398
   7 H :    0.033392
   8 H :    0.027130
   9 H :    0.019137
  10 H :    0.028112
  11 H :    0.033774
  12 H :    0.001350
  13 H :    0.013994
Sum of atomic charges:   -0.0000000

LOEWDIN ATOMIC CHARGES
----------------------
   0 C :   -0.028753
   1 C :    0.054125
   2 C :   -0.029055
   3 C :   -0.045360
   4 C :   -0.052026
   5 N :    0.000568
   6 O :   -0.077135
   7 H :    0.024131
   8 H :    0.031829
   9 H :    0.017206
  10 H :    0.031937
  11 H :    0.024254
  12 H :    0.020517
  13 H :    0.027760

  Mayer bond orders larger than 0.1
B(  0-C ,  1-C ) :   0.9885 B(  0-C ,  3-C ) :   0.9750 B(  0-C ,  7-H ) :   0.9322
B(  0-C ,  8-H ) :   0.9369 B(  1-C ,  2-C ) :   0.9888 B(  1-C ,  6-O ) :   0.9718
B(  1-C ,  9-H ) :   0.9363 B(  2-C ,  3-C ) :   0.9746 B(  2-C , 10-H ) :   0.9372
B(  2-C , 11-H ) :   0.9320 B(  3-C ,  4-C ) :   0.9630 B(  3-C , 12-H ) :   0.9272
B(  4-C ,  5-N ) :   1.8920 B(  4-C ,  6-O ) :   0.1136 B(  4-C , 13-H ) :   0.9697
B(  5-N ,  6-O ) :   0.9834

FINAL SINGLE POINT ENERGY      -323.986865935610

DIPOLE MOMENT
-------------
                                X             Y             Z
Electronic contribution:      4.26066       1.56028       0.13274
Nuclear contribution   :     -5.45335      -2.08383      -0.17245
                        -----------------------------------------
Total Dipole Moment    :     -1.19269      -0.52355      -0.03971
                        -----------------------------------------
Magnitude (a.u.)       :      1.30315
Magnitude (Debye)      :      3.31235

                             ****ORCA TERMINATED NORMALLY****
TOTAL RUN TIME: 0 days 0 hours 0 minutes 6 seconds 968 msec
