                         Program Version 3.0.3 - RELEASE   -
|  1> ! RI PBE def2-SVP def2-SVP/J NBO PAL2
|  2> % maxcore 2000
|  3> % output
|  4>     # printlevel mini
|  5>     print[ P_Basis ] 0
|  6>     print[ P_SCFInfo ] 1
|  7>     print[ P_SCFIterInfo ] 1
|  8>     print[ P_OrbEn ] 0
|  9>     print[ P_Cartesian ] 0
| 10> end
| 11> *xyz 0 1
| 12>  C       -0.8572910000     0.0000540000    -1.2589010000
| 13>  C       -0.6299550000     0.9873620000    -0.1026150000
| 14>  N       -1.2880870000    -0.0000910000     0.8374240000
| 15>  C       -0.6298960000    -0.9873880000    -0.1027410000
| 16>  C        0.8276510000    -0.7255330000     0.3012430000
| 17>  O        1.5953420000     0.0000880000    -0.6536660000
| 18>  C        0.8276080000     0.7255440000     0.3013340000
| 19>  H       -0.1842560000     0.0001290000    -2.1150670000
| 20>  H       -1.9025070000     0.0000420000    -1.5699510000
| 21>  H       -0.9918050000     2.0143520000    -0.1037300000
| 22>  H       -2.2876990000    -0.0001070000     0.6319840000
| 23>  H       -0.9916860000    -2.0143980000    -0.1039860000
| 24>  H        1.3673860000    -1.3549660000     0.9971060000
| 25>  H        1.3673060000     1.3549220000     0.9972760000
| 26> *
| 27>
| 28>                          ****END OF INPUT****
 Total Charge           Charge          ....    0
 Multiplicity           Mult            ....    1
 Number of Electrons    NEL             ....   52
 Basis Dimension        Dim             ....  133

MULLIKEN ATOMIC CHARGES
-----------------------
   0 C :    0.139589
   1 C :   -0.099687
   2 N :   -0.174139
   3 C :   -0.099700
   4 C :    0.155999
   5 O :   -0.235464
   6 C :    0.155989
   7 H :    0.034137
   8 H :    0.007605
   9 H :   -0.003441
  10 H :    0.091741
  11 H :   -0.003440
  12 H :    0.015405
  13 H :    0.015405
Sum of atomic charges:   -0.0000000

LOEWDIN ATOMIC CHARGES
----------------------
   0 C :   -0.032409
   1 C :    0.017076
   2 N :   -0.103455
   3 C :    0.017075
   4 C :    0.046442
   5 O :   -0.134922
   6 C :    0.046441
   7 H :    0.018435
   8 H :    0.022529
   9 H :    0.010874
  10 H :    0.042493
  11 H :    0.010875
  12 H :    0.019274
  13 H :    0.019274

  Mayer bond orders larger than 0.1
B(  0-C ,  1-C ) :   0.9972 B(  0-C ,  3-C ) :   0.9972 B(  0-C ,  5-O ) :   0.1041
B(  0-C ,  7-H ) :   0.9037 B(  0-C ,  8-H ) :   0.9177 B(  1-C ,  2-N ) :   0.9691
B(  1-C ,  6-C ) :   0.9094 B(  1-C ,  9-H ) :   0.9770 B(  2-N ,  3-C ) :   0.9691
B(  2-N , 10-H ) :   0.9415 B(  3-C ,  4-C ) :   0.9094 B(  3-C , 11-H ) :   0.9770
B(  4-C ,  5-O ) :   1.0459 B(  4-C ,  6-C ) :   1.0061 B(  4-C , 12-H ) :   0.9583
B(  5-O ,  6-C ) :   1.0459 B(  6-C , 13-H ) :   0.9583

FINAL SINGLE POINT ENERGY      -323.972863627486

DIPOLE MOMENT
-------------
                                X             Y             Z
Electronic contribution:      2.68196       0.00005       0.47344
Nuclear contribution   :     -3.26620      -0.00006      -0.49079
                        -----------------------------------------
Total Dipole Moment    :     -0.58425      -0.00002      -0.01735
                        -----------------------------------------
Magnitude (a.u.)       :      0.58450
Magnitude (Debye)      :      1.48569

                             ****ORCA TERMINATED NORMALLY****
TOTAL RUN TIME: 0 days 0 hours 0 minutes 6 seconds 513 msec
