                         Program Version 3.0.3 - RELEASE   -
|  1> ! RI PBE def2-SVP def2-SVP/J NBO PAL2
|  2> % maxcore 2000
|  3> % output
|  4>     # printlevel mini
|  5>     print[ P_Basis ] 0
|  6>     print[ P_SCFInfo ] 1
|  7>     print[ P_SCFIterInfo ] 1
|  8>     print[ P_OrbEn ] 0
|  9>     print[ P_Cartesian ] 0
| 10> end
| 11> *xyz 0 1
| 12>  C       -0.9823300000     0.1906250000     1.0248930000
| 13>  C       -1.2480430000    -0.1554740000    -0.4485460000
| 14>  N       -0.6168240000    -1.4802470000    -0.1372370000
| 15>  C        0.2785840000    -0.6317760000     0.7163900000
| 16>  C        1.0072260000     0.2392290000    -0.3287410000
| 17>  O        0.5619830000     1.5898980000    -0.4266680000
| 18>  C       -0.1138550000     0.5890650000    -1.1841550000
| 19>  H       -1.6535280000    -0.3594250000     1.6795730000
| 20>  H       -0.8730050000     1.2328840000     1.3077580000
| 21>  H       -2.2414120000    -0.1583330000    -0.8945390000
| 22>  H       -0.1278640000    -1.8775880000    -0.9404680000
| 23>  H        0.8722500000    -1.1297740000     1.4814120000
| 24>  H        2.0196780000     0.0377710000    -0.6605320000
| 25>  H       -0.0803610000     0.6931360000    -2.2629400000
| 26> *
| 27>
| 28>                          ****END OF INPUT****
 Total Charge           Charge          ....    0
 Multiplicity           Mult            ....    1
 Number of Electrons    NEL             ....   52
 Basis Dimension        Dim             ....  133

MULLIKEN ATOMIC CHARGES
-----------------------
   0 C :    0.167782
   1 C :   -0.092026
   2 N :   -0.158510
   3 C :   -0.083462
   4 C :    0.119503
   5 O :   -0.230428
   6 C :    0.108452
   7 H :    0.021963
   8 H :    0.037963
   9 H :   -0.003744
  10 H :    0.083588
  11 H :   -0.002184
  12 H :    0.011582
  13 H :    0.019522
Sum of atomic charges:    0.0000000

LOEWDIN ATOMIC CHARGES
----------------------
   0 C :   -0.017179
   1 C :    0.015847
   2 N :   -0.085462
   3 C :    0.016221
   4 C :    0.030502
   5 O :   -0.134874
   6 C :    0.028819
   7 H :    0.031434
   8 H :    0.020689
   9 H :    0.011532
  10 H :    0.037006
  11 H :    0.011891
  12 H :    0.016161
  13 H :    0.017414

  Mayer bond orders larger than 0.1
B(  0-C ,  1-C ) :   0.9919 B(  0-C ,  3-C ) :   0.9962 B(  0-C ,  7-H ) :   0.9096
B(  0-C ,  8-H ) :   0.9209 B(  1-C ,  2-N ) :   0.9912 B(  1-C ,  6-C ) :   0.8975
B(  1-C ,  9-H ) :   0.9750 B(  2-N ,  3-C ) :   0.9895 B(  2-N , 10-H ) :   0.9390
B(  3-C ,  4-C ) :   0.9014 B(  3-C , 11-H ) :   0.9735 B(  4-C ,  5-O ) :   1.0393
B(  4-C ,  6-C ) :   1.0052 B(  4-C , 12-H ) :   0.9608 B(  5-O ,  6-C ) :   1.0347
B(  6-C , 13-H ) :   0.9607

FINAL SINGLE POINT ENERGY      -323.976997513495

DIPOLE MOMENT
-------------
                                X             Y             Z
Electronic contribution:      1.15696       1.54238      -0.88495
Nuclear contribution   :     -0.96948      -1.85044       0.51371
                        -----------------------------------------
Total Dipole Moment    :      0.18747      -0.30805      -0.37124
                        -----------------------------------------
Magnitude (a.u.)       :      0.51756
Magnitude (Debye)      :      1.31553

                             ****ORCA TERMINATED NORMALLY****
TOTAL RUN TIME: 0 days 0 hours 0 minutes 6 seconds 531 msec
