                         Program Version 3.0.3 - RELEASE   -
|  1> ! RI PBE def2-SVP def2-SVP/J NBO PAL2
|  2> % maxcore 2000
|  3> % output
|  4>     # printlevel mini
|  5>     print[ P_Basis ] 0
|  6>     print[ P_SCFInfo ] 1
|  7>     print[ P_SCFIterInfo ] 1
|  8>     print[ P_OrbEn ] 0
|  9>     print[ P_Cartesian ] 0
| 10> end
| 11> *xyz 0 1
| 12>  C        2.0699310000    -0.1317320000    -0.1265620000
| 13>  C        0.7375130000    -0.8301480000     0.0842440000
| 14>  N       -0.3873690000    -1.2925040000    -0.6660140000
| 15>  C       -1.4200330000    -0.4445020000    -0.2291990000
| 16>  N       -1.3728770000     0.6966590000     0.3679140000
| 17>  O       -0.1097610000     1.3088000000     0.6285280000
| 18>  C        0.7777090000     0.6200610000    -0.1924850000
| 19>  H        2.6178350000    -0.1406070000    -1.0617600000
| 20>  H        2.6886310000    -0.1718250000     0.7615890000
| 21>  H        0.6242670000    -1.0045930000     1.1537650000
| 22>  H       -0.6277420000    -2.2746110000    -0.6543390000
| 23>  H       -2.4352140000    -0.7935610000    -0.3947620000
| 24>  H        0.5484090000     0.8334520000    -1.2351100000
| 25> *
| 26>
| 27>                          ****END OF INPUT****
 Total Charge           Charge          ....    0
 Multiplicity           Mult            ....    1
 Number of Electrons    NEL             ....   52
 Basis Dimension        Dim             ....  128

MULLIKEN ATOMIC CHARGES
-----------------------
   0 C :    0.048777
   1 C :   -0.052848
   2 N :   -0.111384
   3 C :    0.021622
   4 N :   -0.024921
   5 O :   -0.225459
   6 C :    0.041997
   7 H :    0.037980
   8 H :    0.041523
   9 H :    0.041121
  10 H :    0.116095
  11 H :    0.024643
  12 H :    0.040855
Sum of atomic charges:    0.0000000

LOEWDIN ATOMIC CHARGES
----------------------
   0 C :   -0.018094
   1 C :   -0.035245
   2 N :   -0.030135
   3 C :   -0.021147
   4 N :   -0.045172
   5 O :   -0.081584
   6 C :    0.005198
   7 H :    0.039422
   8 H :    0.042689
   9 H :    0.021950
  10 H :    0.069542
  11 H :    0.031046
  12 H :    0.021530

  Mayer bond orders larger than 0.1
B(  0-C ,  1-C ) :   1.0250 B(  0-C ,  6-C ) :   1.0439 B(  0-C ,  7-H ) :   0.9199
B(  0-C ,  8-H ) :   0.9133 B(  1-C ,  2-N ) :   1.0560 B(  1-C ,  6-C ) :   0.8804
B(  1-C ,  9-H ) :   0.9502 B(  2-N ,  3-C ) :   1.0943 B(  2-N ,  4-N ) :   0.1015
B(  2-N , 10-H ) :   0.9209 B(  3-C ,  4-N ) :   1.8677 B(  3-C , 11-H ) :   0.9478
B(  4-N ,  5-O ) :   0.9310 B(  5-O ,  6-C ) :   1.0371 B(  6-C , 12-H ) :   0.9605

FINAL SINGLE POINT ENERGY      -339.949387064975

DIPOLE MOMENT
-------------
                                X             Y             Z
Electronic contribution:     -2.47070       1.98845       0.86455
Nuclear contribution   :      3.01862      -3.29124      -1.26910
                        -----------------------------------------
Total Dipole Moment    :      0.54792      -1.30279      -0.40455
                        -----------------------------------------
Magnitude (a.u.)       :      1.47008
Magnitude (Debye)      :      3.73664

                             ****ORCA TERMINATED NORMALLY****
TOTAL RUN TIME: 0 days 0 hours 0 minutes 6 seconds 527 msec
