                         Program Version 3.0.3 - RELEASE   -
|  1> ! RI PBE def2-SVP def2-SVP/J NBO PAL2
|  2> % maxcore 2000
|  3> % output
|  4>     # printlevel mini
|  5>     print[ P_Basis ] 0
|  6>     print[ P_SCFInfo ] 1
|  7>     print[ P_SCFIterInfo ] 1
|  8>     print[ P_OrbEn ] 0
|  9>     print[ P_Cartesian ] 0
| 10> end
| 11> *xyz 0 1
| 12>  C        2.0678730000    -0.1334120000    -0.0724710000
| 13>  C        0.7004220000    -0.7912920000     0.0397590000
| 14>  N       -0.3844890000    -1.2535510000    -0.7669440000
| 15>  N       -1.4804070000    -0.4686150000    -0.3537120000
| 16>  C       -1.3080850000     0.6669700000     0.2027800000
| 17>  O       -0.1400200000     1.3734360000     0.4595950000
| 18>  C        0.8076460000     0.6431850000    -0.2777420000
| 19>  H        2.6929360000    -0.1829960000    -0.9566980000
| 20>  H        2.6077390000    -0.1558840000     0.8661840000
| 21>  H        0.4972810000    -0.9194080000     1.1055800000
| 22>  H       -0.6590170000    -2.2200580000    -0.6471830000
| 23>  H       -2.1850870000     1.2253360000     0.5072160000
| 24>  H        0.6656270000     0.8344680000    -1.3373720000
| 25> *
| 26>
| 27>                          ****END OF INPUT****
 Total Charge           Charge          ....    0
 Multiplicity           Mult            ....    1
 Number of Electrons    NEL             ....   52
 Basis Dimension        Dim             ....  128

MULLIKEN ATOMIC CHARGES
-----------------------
   0 C :    0.051873
   1 C :   -0.085477
   2 N :   -0.058978
   3 N :   -0.133443
   4 C :    0.105243
   5 O :   -0.239385
   6 C :    0.060679
   7 H :    0.040495
   8 H :    0.039838
   9 H :    0.039673
  10 H :    0.117162
  11 H :    0.017802
  12 H :    0.044517
Sum of atomic charges:   -0.0000000

LOEWDIN ATOMIC CHARGES
----------------------
   0 C :   -0.017187
   1 C :   -0.049584
   2 N :   -0.006204
   3 N :   -0.084983
   4 C :    0.010585
   5 O :   -0.087683
   6 C :    0.024113
   7 H :    0.040559
   8 H :    0.042002
   9 H :    0.019905
  10 H :    0.059441
  11 H :    0.023064
  12 H :    0.025972

  Mayer bond orders larger than 0.1
B(  0-C ,  1-C ) :   1.0120 B(  0-C ,  6-C ) :   1.0517 B(  0-C ,  7-H ) :   0.9172
B(  0-C ,  8-H ) :   0.9142 B(  1-C ,  2-N ) :   1.0634 B(  1-C ,  6-C ) :   0.8919
B(  1-C ,  9-H ) :   0.9421 B(  2-N ,  3-N ) :   1.0238 B(  2-N , 10-H ) :   0.9294
B(  3-N ,  4-C ) :   1.8774 B(  4-C ,  5-O ) :   1.0753 B(  4-C , 11-H ) :   0.9650
B(  5-O ,  6-C ) :   1.0015 B(  6-C , 12-H ) :   0.9574

FINAL SINGLE POINT ENERGY      -339.969562095103

DIPOLE MOMENT
-------------
                                X             Y             Z
Electronic contribution:     -2.59021       1.06014       0.02798
Nuclear contribution   :      3.23778      -1.38059       0.14929
                        -----------------------------------------
Total Dipole Moment    :      0.64756      -0.32045       0.17727
                        -----------------------------------------
Magnitude (a.u.)       :      0.74394
Magnitude (Debye)      :      1.89096

                             ****ORCA TERMINATED NORMALLY****
TOTAL RUN TIME: 0 days 0 hours 0 minutes 6 seconds 524 msec
