                         Program Version 3.0.3 - RELEASE   -
|  1> ! RI PBE def2-SVP def2-SVP/J NBO PAL2
|  2> % maxcore 2000
|  3> % output
|  4>     # printlevel mini
|  5>     print[ P_Basis ] 0
|  6>     print[ P_SCFInfo ] 1
|  7>     print[ P_SCFIterInfo ] 1
|  8>     print[ P_OrbEn ] 0
|  9>     print[ P_Cartesian ] 0
| 10> end
| 11> *xyz 0 1
| 12>  C       -0.8097370000     0.0002040000    -1.3156100000
| 13>  C       -0.6012760000     0.9649800000    -0.1450710000
| 14>  O       -1.3188490000    -0.0004920000     0.6894120000
| 15>  C       -0.6010200000    -0.9652490000    -0.1456750000
| 16>  C        0.8481790000    -0.7404020000     0.3212070000
| 17>  N        1.7774090000     0.0002990000    -0.5114470000
| 18>  C        0.8479800000     0.7402250000     0.3216730000
| 19>  H       -0.1549660000     0.0005640000    -2.1884520000
| 20>  H       -1.8519040000     0.0001630000    -1.6262590000
| 21>  H       -1.0114370000     1.9724180000    -0.1110690000
| 22>  H       -1.0109110000    -1.9728180000    -0.1123040000
| 23>  H        1.2671330000    -1.3528000000     1.1096230000
| 24>  H        1.5277260000     0.0005790000    -1.4924100000
| 25>  H        1.2667720000     1.3522400000     1.1104730000
| 26> *
| 27>
| 28>                          ****END OF INPUT****
 Total Charge           Charge          ....    0
 Multiplicity           Mult            ....    1
 Number of Electrons    NEL             ....   52
 Basis Dimension        Dim             ....  133

MULLIKEN ATOMIC CHARGES
-----------------------
   0 C :    0.021011
   1 C :    0.102283
   2 O :   -0.321350
   3 C :    0.102214
   4 C :   -0.015477
   5 N :   -0.074547
   6 C :   -0.015525
   7 H :    0.020976
   8 H :    0.027897
   9 H :    0.001125
  10 H :    0.001135
  11 H :    0.023670
  12 H :    0.102920
  13 H :    0.023670
Sum of atomic charges:    0.0000000

LOEWDIN ATOMIC CHARGES
----------------------
   0 C :   -0.044736
   1 C :    0.073999
   2 O :   -0.177552
   3 C :    0.073992
   4 C :   -0.013288
   5 N :   -0.062934
   6 C :   -0.013292
   7 H :    0.011135
   8 H :    0.037482
   9 H :    0.014109
  10 H :    0.014110
  11 H :    0.022148
  12 H :    0.042679
  13 H :    0.022147

  Mayer bond orders larger than 0.1
B(  0-C ,  1-C ) :   1.0209 B(  0-C ,  3-C ) :   1.0210 B(  0-C ,  7-H ) :   0.9247
B(  0-C ,  8-H ) :   0.8956 B(  1-C ,  2-O ) :   0.9511 B(  1-C ,  6-C ) :   0.9197
B(  1-C ,  9-H ) :   0.9767 B(  2-O ,  3-C ) :   0.9511 B(  3-C ,  4-C ) :   0.9197
B(  3-C , 10-H ) :   0.9768 B(  4-C ,  5-N ) :   1.0382 B(  4-C ,  6-C ) :   0.9576
B(  4-C , 11-H ) :   0.9475 B(  5-N ,  6-C ) :   1.0382 B(  5-N , 12-H ) :   0.9192
B(  6-C , 13-H ) :   0.9475

FINAL SINGLE POINT ENERGY      -323.971770345099

DIPOLE MOMENT
-------------
                                X             Y             Z
Electronic contribution:     -0.19472      -0.00058       1.75708
Nuclear contribution   :      0.01834       0.00074      -2.34929
                        -----------------------------------------
Total Dipole Moment    :     -0.17638       0.00017      -0.59221
                        -----------------------------------------
Magnitude (a.u.)       :      0.61792
Magnitude (Debye)      :      1.57063

                             ****ORCA TERMINATED NORMALLY****
TOTAL RUN TIME: 0 days 0 hours 0 minutes 6 seconds 518 msec
