                         Program Version 3.0.3 - RELEASE   -
|  1> ! RI PBE def2-SVP def2-SVP/J NBO PAL2
|  2> % maxcore 2000
|  3> % output
|  4>     # printlevel mini
|  5>     print[ P_Basis ] 0
|  6>     print[ P_SCFInfo ] 1
|  7>     print[ P_SCFIterInfo ] 1
|  8>     print[ P_OrbEn ] 0
|  9>     print[ P_Cartesian ] 0
| 10> end
| 11> *xyz 0 1
| 12>  C       -1.6367880000     0.6482000000     0.5815130000
| 13>  C       -1.0666920000    -0.3513170000    -0.3427470000
| 14>  C        0.0489430000    -1.1620080000     0.2179900000
| 15>  O        1.2196620000    -1.1201380000    -0.5887790000
| 16>  C        1.1367820000    -0.2422640000     0.5295260000
| 17>  C        0.7146320000     1.1539080000     0.1395580000
| 18>  N       -0.6487980000     1.0536970000    -0.4072540000
| 19>  H       -1.3297600000     0.5981680000     1.6242700000
| 20>  H       -2.6378830000     1.0295040000     0.4145620000
| 21>  H       -1.6358700000    -0.7317320000    -1.1845850000
| 22>  H       -0.1283570000    -2.0910890000     0.7520290000
| 23>  H        1.8566530000    -0.4221490000     1.3220250000
| 24>  H        1.3749260000     1.5537290000    -0.6346530000
| 25>  H        0.7356510000     1.8377810000     0.9930450000
| 26> *
| 27>
| 28>                          ****END OF INPUT****
 Total Charge           Charge          ....    0
 Multiplicity           Mult            ....    1
 Number of Electrons    NEL             ....   52
 Basis Dimension        Dim             ....  133

MULLIKEN ATOMIC CHARGES
-----------------------
   0 C :    0.093839
   1 C :   -0.016460
   2 C :    0.115030
   3 O :   -0.271684
   4 C :   -0.061471
   5 C :    0.229932
   6 N :   -0.285751
   7 H :    0.025736
   8 H :    0.037078
   9 H :    0.036729
  10 H :    0.024585
  11 H :    0.020931
  12 H :    0.032522
  13 H :    0.018983
Sum of atomic charges:   -0.0000000

LOEWDIN ATOMIC CHARGES
----------------------
   0 C :    0.012103
   1 C :   -0.007084
   2 C :    0.041047
   3 O :   -0.143461
   4 C :    0.032957
   5 C :    0.010269
   6 N :   -0.106089
   7 H :    0.014578
   8 H :    0.025633
   9 H :    0.025999
  10 H :    0.019336
  11 H :    0.017333
  12 H :    0.032656
  13 H :    0.024723

  Mayer bond orders larger than 0.1
B(  0-C ,  1-C ) :   1.0316 B(  0-C ,  6-N ) :   0.9632 B(  0-C ,  7-H ) :   0.9215
B(  0-C ,  8-H ) :   0.9406 B(  1-C ,  2-C ) :   0.9905 B(  1-C ,  6-N ) :   0.9609
B(  1-C ,  9-H ) :   0.9423 B(  2-C ,  3-O ) :   0.9774 B(  2-C ,  4-C ) :   1.0422
B(  2-C , 10-H ) :   0.9558 B(  3-O ,  4-C ) :   0.9673 B(  4-C ,  5-C ) :   1.0081
B(  4-C , 11-H ) :   0.9464 B(  5-C ,  6-N ) :   1.0331 B(  5-C , 12-H ) :   0.9056
B(  5-C , 13-H ) :   0.9321

FINAL SINGLE POINT ENERGY      -323.997091118720

DIPOLE MOMENT
-------------
                                X             Y             Z
Electronic contribution:      1.33151      -1.76518      -2.05783
Nuclear contribution   :     -1.57329       1.70903       2.95648
                        -----------------------------------------
Total Dipole Moment    :     -0.24178      -0.05615       0.89865
                        -----------------------------------------
Magnitude (a.u.)       :      0.93230
Magnitude (Debye)      :      2.36971

                             ****ORCA TERMINATED NORMALLY****
TOTAL RUN TIME: 0 days 0 hours 0 minutes 6 seconds 663 msec
