                         Program Version 3.0.3 - RELEASE   -
|  1> ! RI PBE def2-SVP def2-SVP/J NBO PAL2
|  2> % maxcore 2000
|  3> % output
|  4>     # printlevel mini
|  5>     print[ P_Basis ] 0
|  6>     print[ P_SCFInfo ] 1
|  7>     print[ P_SCFIterInfo ] 1
|  8>     print[ P_OrbEn ] 0
|  9>     print[ P_Cartesian ] 0
| 10> end
| 11> *xyz 0 1
| 12>  C        2.0386650000    -0.1801890000    -0.1361890000
| 13>  C        0.6795180000    -0.7735890000     0.1372640000
| 14>  O       -0.4343150000    -1.3280380000    -0.5313780000
| 15>  C       -1.4120760000    -0.4275130000    -0.1749130000
| 16>  N       -1.3574280000     0.7309520000     0.3782980000
| 17>  O       -0.1140350000     1.3662580000     0.6141920000
| 18>  C        0.7681900000     0.6403820000    -0.1920980000
| 19>  H        2.5433250000    -0.2292970000    -1.0935860000
| 20>  H        2.6937650000    -0.2331870000     0.7252640000
| 21>  H        0.5739850000    -0.9406310000     1.2062850000
| 22>  H       -2.4114970000    -0.8025330000    -0.3631970000
| 23>  H        0.5335020000     0.8255840000    -1.2402500000
| 24> *
| 25>
| 26>                          ****END OF INPUT****
 Total Charge           Charge          ....    0
 Multiplicity           Mult            ....    1
 Number of Electrons    NEL             ....   52
 Basis Dimension        Dim             ....  123

MULLIKEN ATOMIC CHARGES
-----------------------
   0 C :    0.030778
   1 C :    0.045129
   2 O :   -0.227806
   3 C :    0.104807
   4 N :   -0.017116
   5 O :   -0.218731
   6 C :    0.031260
   7 H :    0.055899
   8 H :    0.055682
   9 H :    0.053841
  10 H :    0.035157
  11 H :    0.051100
Sum of atomic charges:   -0.0000000

LOEWDIN ATOMIC CHARGES
----------------------
   0 C :   -0.009355
   1 C :    0.012420
   2 O :   -0.072849
   3 C :    0.006278
   4 N :   -0.037057
   5 O :   -0.071031
   6 C :   -0.008061
   7 H :    0.045196
   8 H :    0.046014
   9 H :    0.029494
  10 H :    0.033226
  11 H :    0.025725

  Mayer bond orders larger than 0.1
B(  0-C ,  1-C ) :   1.0280 B(  0-C ,  6-C ) :   1.0089 B(  0-C ,  7-H ) :   0.9265
B(  0-C ,  8-H ) :   0.9188 B(  1-C ,  2-O ) :   0.9810 B(  1-C ,  6-C ) :   0.9195
B(  1-C ,  9-H ) :   0.9569 B(  2-O ,  3-C ) :   1.1041 B(  2-O ,  4-N ) :   0.1015
B(  3-C ,  4-N ) :   1.8556 B(  3-C , 10-H ) :   0.9564 B(  4-N ,  5-O ) :   0.9486
B(  5-O ,  6-C ) :   1.0178 B(  6-C , 11-H ) :   0.9542

FINAL SINGLE POINT ENERGY      -359.776350573485

DIPOLE MOMENT
-------------
                                X             Y             Z
Electronic contribution:     -2.84634       0.71999       0.48809
Nuclear contribution   :      3.62224      -1.31685      -0.78434
                        -----------------------------------------
Total Dipole Moment    :      0.77590      -0.59686      -0.29624
                        -----------------------------------------
Magnitude (a.u.)       :      1.02276
Magnitude (Debye)      :      2.59964

                             ****ORCA TERMINATED NORMALLY****
TOTAL RUN TIME: 0 days 0 hours 0 minutes 5 seconds 911 msec
