                         Program Version 3.0.3 - RELEASE   -
|  1> ! RI PBE def2-SVP def2-SVP/J NBO PAL2
|  2> % maxcore 2000
|  3> % output
|  4>     # printlevel mini
|  5>     print[ P_Basis ] 0
|  6>     print[ P_SCFInfo ] 1
|  7>     print[ P_SCFIterInfo ] 1
|  8>     print[ P_OrbEn ] 0
|  9>     print[ P_Cartesian ] 0
| 10> end
| 11> *xyz 0 1
| 12>  C       -2.5892530000     0.4143950000     0.6342850000
| 13>  C       -2.4483100000     0.3582920000    -0.8691650000
| 14>  C       -1.2722180000     0.1353700000     0.0166500000
| 15>  C       -0.4996300000    -1.1583500000     0.1033260000
| 16>  C        0.8797020000    -0.6149510000    -0.0855360000
| 17>  N        0.9469400000     0.6528130000    -0.0873220000
| 18>  O       -0.3089810000     1.1886960000     0.0719640000
| 19>  H       -3.0985030000    -0.3961990000     1.1422410000
| 20>  H       -2.7207370000     1.3915930000     1.0823430000
| 21>  H       -2.4858030000     1.2992230000    -1.4038910000
| 22>  H       -2.8595070000    -0.4938110000    -1.3982430000
| 23>  H       -0.7809220000    -1.8779570000    -0.6692590000
| 24>  H       -0.5951960000    -1.6573820000     1.0748230000
| 25>  H        1.7917270000    -1.1887510000    -0.1867040000
| 26> *
| 27>
| 28>                          ****END OF INPUT****
 Total Charge           Charge          ....    0
 Multiplicity           Mult            ....    1
 Number of Electrons    NEL             ....   52
 Basis Dimension        Dim             ....  133

MULLIKEN ATOMIC CHARGES
-----------------------
   0 C :   -0.016990
   1 C :   -0.016389
   2 C :   -0.066244
   3 C :    0.109859
   4 C :   -0.064677
   5 N :    0.030209
   6 O :   -0.242890
   7 H :    0.036644
   8 H :    0.047444
   9 H :    0.047471
  10 H :    0.035282
  11 H :    0.038417
  12 H :    0.039651
  13 H :    0.022213
Sum of atomic charges:    0.0000000

LOEWDIN ATOMIC CHARGES
----------------------
   0 C :   -0.042184
   1 C :   -0.044752
   2 C :    0.012408
   3 C :   -0.052262
   4 C :   -0.054696
   5 N :    0.014120
   6 O :   -0.076729
   7 H :    0.030406
   8 H :    0.037692
   9 H :    0.036296
  10 H :    0.027775
  11 H :    0.042238
  12 H :    0.041357
  13 H :    0.028330

  Mayer bond orders larger than 0.1
B(  0-C ,  1-C ) :   1.0267 B(  0-C ,  2-C ) :   0.9909 B(  0-C ,  7-H ) :   0.9416
B(  0-C ,  8-H ) :   0.9339 B(  1-C ,  2-C ) :   0.9813 B(  1-C ,  9-H ) :   0.9339
B(  1-C , 10-H ) :   0.9404 B(  2-C ,  3-C ) :   1.0408 B(  2-C ,  6-O ) :   0.9755
B(  3-C ,  4-C ) :   1.0108 B(  3-C , 11-H ) :   0.9130 B(  3-C , 12-H ) :   0.8974
B(  4-C ,  5-N ) :   1.8991 B(  4-C ,  6-O ) :   0.1134 B(  4-C , 13-H ) :   0.9685
B(  5-N ,  6-O ) :   0.9927

FINAL SINGLE POINT ENERGY      -323.990511440210

DIPOLE MOMENT
-------------
                                X             Y             Z
Electronic contribution:      4.46468       2.65596       0.15720
Nuclear contribution   :     -5.08216      -3.72682      -0.14324
                        -----------------------------------------
Total Dipole Moment    :     -0.61748      -1.07086       0.01396
                        -----------------------------------------
Magnitude (a.u.)       :      1.23621
Magnitude (Debye)      :      3.14221

                             ****ORCA TERMINATED NORMALLY****
TOTAL RUN TIME: 0 days 0 hours 0 minutes 5 seconds 859 msec
