                         Program Version 3.0.3 - RELEASE   -
|  1> ! RI PBE def2-SVP def2-SVP/J NBO PAL2
|  2> % maxcore 2000
|  3> % output
|  4>     # printlevel mini
|  5>     print[ P_Basis ] 0
|  6>     print[ P_SCFInfo ] 1
|  7>     print[ P_SCFIterInfo ] 1
|  8>     print[ P_OrbEn ] 0
|  9>     print[ P_Cartesian ] 0
| 10> end
| 11> *xyz 0 1
| 12>  C       -2.5662590000     0.3864520000     0.6351510000
| 13>  C       -2.4233640000     0.3821410000    -0.8877770000
| 14>  C       -1.2487580000     0.2438420000     0.0031320000
| 15>  O       -0.5433960000    -0.9784110000     0.0570820000
| 16>  C        0.7341870000    -0.5981080000    -0.1163950000
| 17>  N        0.9662570000     0.6463250000    -0.1178150000
| 18>  O       -0.2802410000     1.2544530000     0.1042880000
| 19>  H       -2.9966560000    -0.4894470000     1.1041640000
| 20>  H       -2.7821090000     1.3303180000     1.1201130000
| 21>  H       -2.5436970000     1.3258700000    -1.4050140000
| 22>  H       -2.7639550000    -0.4971500000    -1.4204170000
| 23>  H        1.4891910000    -1.3612750000    -0.2260020000
| 24> *
| 25>
| 26>                          ****END OF INPUT****
 Total Charge           Charge          ....    0
 Multiplicity           Mult            ....    1
 Number of Electrons    NEL             ....   52
 Basis Dimension        Dim             ....  123

MULLIKEN ATOMIC CHARGES
-----------------------
   0 C :   -0.060083
   1 C :   -0.046564
   2 C :    0.179736
   3 O :   -0.223045
   4 C :    0.127533
   5 N :    0.000840
   6 O :   -0.244125
   7 H :    0.056988
   8 H :    0.059149
   9 H :    0.055242
  10 H :    0.050477
  11 H :    0.043850
Sum of atomic charges:   -0.0000000

LOEWDIN ATOMIC CHARGES
----------------------
   0 C :   -0.050282
   1 C :   -0.059639
   2 C :    0.069552
   3 O :   -0.052912
   4 C :    0.011751
   5 N :   -0.029632
   6 O :   -0.080115
   7 H :    0.040344
   8 H :    0.041597
   9 H :    0.039274
  10 H :    0.036734
  11 H :    0.033328

  Mayer bond orders larger than 0.1
B(  0-C ,  1-C ) :   0.9899 B(  0-C ,  2-C ) :   1.0113 B(  0-C ,  7-H ) :   0.9361
B(  0-C ,  8-H ) :   0.9349 B(  1-C ,  2-C ) :   0.9870 B(  1-C ,  9-H ) :   0.9357
B(  1-C , 10-H ) :   0.9339 B(  2-C ,  3-O ) :   1.0055 B(  2-C ,  6-O ) :   1.0322
B(  3-O ,  4-C ) :   1.1106 B(  3-O ,  5-N ) :   0.1059 B(  4-C ,  5-N ) :   1.8521
B(  4-C , 11-H ) :   0.9686 B(  5-N ,  6-O ) :   0.9411

FINAL SINGLE POINT ENERGY      -359.847800940820

DIPOLE MOMENT
-------------
                                X             Y             Z
Electronic contribution:      4.84981      -0.08445       0.49377
Nuclear contribution   :     -5.41328      -0.59769      -0.56934
                        -----------------------------------------
Total Dipole Moment    :     -0.56347      -0.68214      -0.07557
                        -----------------------------------------
Magnitude (a.u.)       :      0.88799
Magnitude (Debye)      :      2.25710

                             ****ORCA TERMINATED NORMALLY****
TOTAL RUN TIME: 0 days 0 hours 0 minutes 5 seconds 997 msec
