                         Program Version 3.0.3 - RELEASE   -
|  1> ! RI PBE def2-SVP def2-SVP/J NBO PAL2
|  2> % maxcore 2000
|  3> % output
|  4>     # printlevel mini
|  5>     print[ P_Basis ] 0
|  6>     print[ P_SCFInfo ] 1
|  7>     print[ P_SCFIterInfo ] 1
|  8>     print[ P_OrbEn ] 0
|  9>     print[ P_Cartesian ] 0
| 10> end
| 11> *xyz 0 1
| 12>  C        1.8765650000     0.0587760000    -0.7469520000
| 13>  O        1.6847950000    -0.1135250000     0.6493590000
| 14>  C        0.5374510000     0.0214800000    -0.1756170000
| 15>  C       -0.3464990000     1.2373640000     0.0485140000
| 16>  C       -1.7527200000     0.6954560000    -0.1829760000
| 17>  N       -1.6305620000    -0.6857040000     0.2608340000
| 18>  C       -0.3896800000    -1.1713750000    -0.3198440000
| 19>  H        2.2643190000    -0.8115110000    -1.2739670000
| 20>  H        2.3078150000     1.0122690000    -1.0452680000
| 21>  H       -0.0971950000     2.0749520000    -0.6041710000
| 22>  H       -0.2252680000     1.5582670000     1.0854520000
| 23>  H       -2.0164180000     0.7808580000    -1.2515480000
| 24>  H       -2.5134250000     1.2250550000     0.3941830000
| 25>  H       -2.4285650000    -1.2499870000     0.0027060000
| 26>  H       -0.4855730000    -1.4289010000    -1.3889590000
| 27>  H        0.0003510000    -2.0412630000     0.2126620000
| 28> *
| 29>
| 30>                          ****END OF INPUT****
 Total Charge           Charge          ....    0
 Multiplicity           Mult            ....    1
 Number of Electrons    NEL             ....   54
 Basis Dimension        Dim             ....  143

MULLIKEN ATOMIC CHARGES
-----------------------
   0 C :    0.176876
   1 O :   -0.283243
   2 C :   -0.266752
   3 C :    0.143601
   4 C :    0.086726
   5 N :   -0.277367
   6 C :    0.274022
   7 H :    0.019308
   8 H :    0.019364
   9 H :    0.007456
  10 H :    0.021545
  11 H :   -0.014415
  12 H :    0.010496
  13 H :    0.097534
  14 H :   -0.018022
  15 H :    0.002870
Sum of atomic charges:   -0.0000000

LOEWDIN ATOMIC CHARGES
----------------------
   0 C :    0.059083
   1 O :   -0.149318
   2 C :    0.008380
   3 C :   -0.039618
   4 C :    0.016707
   5 N :   -0.104183
   6 C :    0.015355
   7 H :    0.013040
   8 H :    0.013483
   9 H :    0.027869
  10 H :    0.039916
  11 H :   -0.003700
  12 H :    0.020265
  13 H :    0.054460
  14 H :    0.002533
  15 H :    0.025727

  Mayer bond orders larger than 0.1
B(  0-C ,  1-O ) :   1.0118 B(  0-C ,  2-C ) :   1.0998 B(  0-C ,  7-H ) :   0.9299
B(  0-C ,  8-H ) :   0.9262 B(  1-O ,  2-C ) :   0.9634 B(  2-C ,  3-C ) :   1.0594
B(  2-C ,  6-C ) :   1.0381 B(  3-C ,  4-C ) :   1.1181 B(  3-C ,  9-H ) :   0.9255
B(  3-C , 10-H ) :   0.8856 B(  4-C ,  5-N ) :   1.0476 B(  4-C , 11-H ) :   0.9117
B(  4-C , 12-H ) :   0.9326 B(  5-N ,  6-C ) :   1.0527 B(  5-N , 13-H ) :   0.9378
B(  6-C , 14-H ) :   0.9000 B(  6-C , 15-H ) :   0.9048

FINAL SINGLE POINT ENERGY      -325.224661479511

DIPOLE MOMENT
-------------
                                X             Y             Z
Electronic contribution:      2.52261      -0.99399       2.20671
Nuclear contribution   :     -2.98029       1.06065      -3.07269
                        -----------------------------------------
Total Dipole Moment    :     -0.45768       0.06665      -0.86598
                        -----------------------------------------
Magnitude (a.u.)       :      0.98175
Magnitude (Debye)      :      2.49541

                             ****ORCA TERMINATED NORMALLY****
TOTAL RUN TIME: 0 days 0 hours 0 minutes 9 seconds 749 msec
