                         Program Version 3.0.3 - RELEASE   -
|  1> ! RI PBE def2-SVP def2-SVP/J NBO PAL2
|  2> % maxcore 2000
|  3> % output
|  4>     # printlevel mini
|  5>     print[ P_Basis ] 0
|  6>     print[ P_SCFInfo ] 1
|  7>     print[ P_SCFIterInfo ] 1
|  8>     print[ P_OrbEn ] 0
|  9>     print[ P_Cartesian ] 0
| 10> end
| 11> *xyz 0 1
| 12>  C        1.8649790000     0.0820120000    -0.7715860000
| 13>  N        1.7963720000    -0.1829860000     0.6673760000
| 14>  C        0.5657120000     0.0208560000    -0.0814600000
| 15>  C       -0.3187500000     1.2359280000     0.1463430000
| 16>  C       -1.6974820000     0.6929120000    -0.2059790000
| 17>  O       -1.6588270000    -0.6662290000     0.1774890000
| 18>  C       -0.3947010000    -1.1510550000    -0.2284860000
| 19>  H        2.2003390000    -0.7576680000    -1.3731250000
| 20>  H        2.2183230000     1.0517620000    -1.1096280000
| 21>  H        2.0327880000     0.6543030000     1.1903270000
| 22>  H       -0.0295680000     2.0995050000    -0.4551720000
| 23>  H       -0.2920000000     1.5214250000     1.2024180000
| 24>  H       -1.8861350000     0.7814390000    -1.2870400000
| 25>  H       -2.5157350000     1.1745200000     0.3303900000
| 26>  H       -0.4364930000    -1.4868570000    -1.2755600000
| 27>  H       -0.1163100000    -1.9924660000     0.4068850000
| 28> *
| 29>
| 30>                          ****END OF INPUT****
 Total Charge           Charge          ....    0
 Multiplicity           Mult            ....    1
 Number of Electrons    NEL             ....   54
 Basis Dimension        Dim             ....  143

MULLIKEN ATOMIC CHARGES
-----------------------
   0 C :    0.075034
   1 N :   -0.165922
   2 C :   -0.406647
   3 C :    0.115070
   4 C :    0.180292
   5 O :   -0.355238
   6 C :    0.371207
   7 H :    0.030787
   8 H :    0.024968
   9 H :    0.104921
  10 H :    0.007398
  11 H :    0.015436
  12 H :   -0.005312
  13 H :    0.014412
  14 H :   -0.016346
  15 H :    0.009941
Sum of atomic charges:   -0.0000000

LOEWDIN ATOMIC CHARGES
----------------------
   0 C :    0.007480
   1 N :   -0.095141
   2 C :   -0.049098
   3 C :   -0.051507
   4 C :    0.066920
   5 O :   -0.151870
   6 C :    0.070711
   7 H :    0.019830
   8 H :    0.014561
   9 H :    0.052437
  10 H :    0.028472
  11 H :    0.031096
  12 H :    0.003457
  13 H :    0.020766
  14 H :    0.006299
  15 H :    0.025586

  Mayer bond orders larger than 0.1
B(  0-C ,  1-N ) :   1.0113 B(  0-C ,  2-C ) :   1.0295 B(  0-C ,  7-H ) :   0.9362
B(  0-C ,  8-H ) :   0.9417 B(  1-N ,  2-C ) :   0.9868 B(  1-N ,  9-H ) :   0.9434
B(  2-C ,  3-C ) :   1.0552 B(  2-C ,  6-C ) :   1.0117 B(  3-C ,  4-C ) :   1.1112
B(  3-C , 10-H ) :   0.9158 B(  3-C , 11-H ) :   0.8988 B(  4-C ,  5-O ) :   1.0179
B(  4-C , 12-H ) :   0.9193 B(  4-C , 13-H ) :   0.9411 B(  5-O ,  6-C ) :   1.0277
B(  6-C , 14-H ) :   0.9134 B(  6-C , 15-H ) :   0.9204

FINAL SINGLE POINT ENERGY      -325.219816440083

DIPOLE MOMENT
-------------
                                X             Y             Z
Electronic contribution:     -0.83911      -1.92513       1.52733
Nuclear contribution   :      1.08414       2.81044      -1.88395
                        -----------------------------------------
Total Dipole Moment    :      0.24503       0.88531      -0.35662
                        -----------------------------------------
Magnitude (a.u.)       :      0.98539
Magnitude (Debye)      :      2.50466

                             ****ORCA TERMINATED NORMALLY****
TOTAL RUN TIME: 0 days 0 hours 0 minutes 9 seconds 962 msec
