                         Program Version 3.0.3 - RELEASE   -
|  1> ! RI PBE def2-SVP def2-SVP/J NBO PAL2
|  2> % maxcore 2000
|  3> % output
|  4>     # printlevel mini
|  5>     print[ P_Basis ] 0
|  6>     print[ P_SCFInfo ] 1
|  7>     print[ P_SCFIterInfo ] 1
|  8>     print[ P_OrbEn ] 0
|  9>     print[ P_Cartesian ] 0
| 10> end
| 11> *xyz 0 1
| 12>  C        1.6226070000    -0.0700730000     0.2994620000
| 13>  C        0.8788700000    -1.4172760000     0.4573250000
| 14>  C       -0.2532790000    -0.8679110000    -0.4374870000
| 15>  C       -1.3243160000    -0.1045860000     0.2706170000
| 16>  N       -1.2344590000     1.1601250000     0.1840720000
| 17>  O       -0.1256840000     1.5086890000    -0.5660190000
| 18>  C        0.6367970000     0.3287310000    -0.8136960000
| 19>  H        2.6755310000    -0.1212240000     0.0217940000
| 20>  H        1.5186350000     0.5856510000     1.1647310000
| 21>  H        0.6029050000    -1.7132920000     1.4706350000
| 22>  H        1.4016880000    -2.2487650000    -0.0174880000
| 23>  H       -0.6568910000    -1.5338810000    -1.2044220000
| 24>  H       -2.1634800000    -0.5272780000     0.8097670000
| 25>  H        1.0416870000     0.3921000000    -1.8229800000
| 26> *
| 27>
| 28>                          ****END OF INPUT****
 Total Charge           Charge          ....    0
 Multiplicity           Mult            ....    1
 Number of Electrons    NEL             ....   52
 Basis Dimension        Dim             ....  133

MULLIKEN ATOMIC CHARGES
-----------------------
   0 C :    0.075319
   1 C :    0.091824
   2 C :   -0.161596
   3 C :   -0.004884
   4 N :    0.027093
   5 O :   -0.245917
   6 C :    0.058467
   7 H :    0.027003
   8 H :    0.024990
   9 H :    0.008870
  10 H :    0.019680
  11 H :    0.034788
  12 H :    0.027372
  13 H :    0.016991
Sum of atomic charges:    0.0000000

LOEWDIN ATOMIC CHARGES
----------------------
   0 C :   -0.041489
   1 C :   -0.019842
   2 C :   -0.061459
   3 C :   -0.050104
   4 N :    0.012628
   5 O :   -0.086189
   6 C :    0.053607
   7 H :    0.026864
   8 H :    0.036524
   9 H :    0.022791
  10 H :    0.026697
  11 H :    0.029262
  12 H :    0.029208
  13 H :    0.021501

  Mayer bond orders larger than 0.1
B(  0-C ,  1-C ) :   1.1691 B(  0-C ,  6-C ) :   1.0893 B(  0-C ,  7-H ) :   0.9285
B(  0-C ,  8-H ) :   0.8740 B(  1-C ,  2-C ) :   1.1091 B(  1-C ,  9-H ) :   0.9078
B(  1-C , 10-H ) :   0.9255 B(  2-C ,  3-C ) :   0.9485 B(  2-C ,  6-C ) :   1.0669
B(  2-C , 11-H ) :   0.9013 B(  3-C ,  4-N ) :   1.8944 B(  3-C ,  5-O ) :   0.1115
B(  3-C , 12-H ) :   0.9664 B(  4-N ,  5-O ) :   0.9840 B(  5-O ,  6-C ) :   0.9735
B(  6-C , 13-H ) :   0.9248

FINAL SINGLE POINT ENERGY      -323.996277114725

DIPOLE MOMENT
-------------
                                X             Y             Z
Electronic contribution:     -3.40972       4.27382      -1.08356
Nuclear contribution   :      3.87369      -5.46856       0.98142
                        -----------------------------------------
Total Dipole Moment    :      0.46397      -1.19474      -0.10215
                        -----------------------------------------
Magnitude (a.u.)       :      1.28573
Magnitude (Debye)      :      3.26807

                             ****ORCA TERMINATED NORMALLY****
TOTAL RUN TIME: 0 days 0 hours 0 minutes 8 seconds 82 msec
