                         Program Version 3.0.3 - RELEASE   -
|  1> ! RI PBE def2-SVP def2-SVP/J NBO PAL2
|  2> % maxcore 2000
|  3> % output
|  4>     # printlevel mini
|  5>     print[ P_Basis ] 0
|  6>     print[ P_SCFInfo ] 1
|  7>     print[ P_SCFIterInfo ] 1
|  8>     print[ P_OrbEn ] 0
|  9>     print[ P_Cartesian ] 0
| 10> end
| 11> *xyz 0 1
| 12>  C       -1.4908720000     0.7768320000     0.1464350000
| 13>  C       -1.3924970000    -0.7228140000    -0.0817020000
| 14>  C        0.0059200000    -1.2426630000     0.1737960000
| 15>  N        1.0453890000    -1.0484400000    -0.8381790000
| 16>  C        1.1081320000    -0.2794380000     0.3936510000
| 17>  C        0.7866320000     1.1898030000     0.3524820000
| 18>  O       -0.3779940000     1.4612430000    -0.3898810000
| 19>  H       -1.5591970000     0.9899760000     1.2241210000
| 20>  H       -2.3766250000     1.1948350000    -0.3355040000
| 21>  H       -1.6901250000    -0.9704460000    -1.1065250000
| 22>  H       -2.1006040000    -1.2318830000     0.5786040000
| 23>  H        0.0652210000    -2.2124320000     0.6588680000
| 24>  H        0.6779280000    -0.4526460000    -1.5766490000
| 25>  H        1.9280750000    -0.5452760000     1.0561990000
| 26>  H        1.5956280000     1.7474200000    -0.1280090000
| 27>  H        0.6774770000     1.5683280000     1.3811820000
| 28> *
| 29>
| 30>                          ****END OF INPUT****
 Total Charge           Charge          ....    0
 Multiplicity           Mult            ....    1
 Number of Electrons    NEL             ....   54
 Basis Dimension        Dim             ....  143

MULLIKEN ATOMIC CHARGES
-----------------------
   0 C :    0.175125
   1 C :    0.076370
   2 C :   -0.100960
   3 N :   -0.151141
   4 C :   -0.126576
   5 C :    0.276136
   6 O :   -0.348652
   7 H :   -0.005050
   8 H :    0.010379
   9 H :    0.020540
  10 H :    0.014379
  11 H :    0.021293
  12 H :    0.097351
  13 H :    0.022613
  14 H :    0.021087
  15 H :   -0.002893
Sum of atomic charges:   -0.0000000

LOEWDIN ATOMIC CHARGES
----------------------
   0 C :    0.063481
   1 C :   -0.063311
   2 C :   -0.003472
   3 N :   -0.093435
   4 C :   -0.028334
   5 C :    0.053868
   6 O :   -0.146904
   7 H :    0.006640
   8 H :    0.022258
   9 H :    0.030784
  10 H :    0.035654
  11 H :    0.020273
  12 H :    0.043231
  13 H :    0.022374
  14 H :    0.026720
  15 H :    0.010174

  Mayer bond orders larger than 0.1
B(  0-C ,  1-C ) :   1.0993 B(  0-C ,  6-O ) :   1.0061 B(  0-C ,  7-H ) :   0.9229
B(  0-C ,  8-H ) :   0.9382 B(  1-C ,  2-C ) :   1.0457 B(  1-C ,  9-H ) :   0.9070
B(  1-C , 10-H ) :   0.9162 B(  2-C ,  3-N ) :   0.9848 B(  2-C ,  4-C ) :   1.0413
B(  2-C , 11-H ) :   0.9405 B(  3-N ,  4-C ) :   1.0015 B(  3-N , 12-H ) :   0.9462
B(  4-C ,  5-C ) :   1.0188 B(  4-C , 13-H ) :   0.9267 B(  5-C ,  6-O ) :   1.0307
B(  5-C , 14-H ) :   0.9272 B(  5-C , 15-H ) :   0.9214

FINAL SINGLE POINT ENERGY      -325.228009265359

DIPOLE MOMENT
-------------
                                X             Y             Z
Electronic contribution:      1.61722       0.49904      -1.50986
Nuclear contribution   :     -2.09673      -0.36610       2.00796
                        -----------------------------------------
Total Dipole Moment    :     -0.47950       0.13293       0.49810
                        -----------------------------------------
Magnitude (a.u.)       :      0.70406
Magnitude (Debye)      :      1.78957

                             ****ORCA TERMINATED NORMALLY****
TOTAL RUN TIME: 0 days 0 hours 0 minutes 7 seconds 439 msec
