                         Program Version 3.0.3 - RELEASE   -
|  1> ! RI PBE def2-SVP def2-SVP/J NBO PAL2
|  2> % maxcore 2000
|  3> % output
|  4>     # printlevel mini
|  5>     print[ P_Basis ] 0
|  6>     print[ P_SCFInfo ] 1
|  7>     print[ P_SCFIterInfo ] 1
|  8>     print[ P_OrbEn ] 0
|  9>     print[ P_Cartesian ] 0
| 10> end
| 11> *xyz 0 1
| 12>  C       -1.7036260000     0.6540720000     0.3508930000
| 13>  N       -1.7577180000    -0.7246960000    -0.2682990000
| 14>  C       -0.2746930000    -0.7729020000     0.0107300000
| 15>  C        1.0375540000    -1.1411050000    -0.6366230000
| 16>  C        1.8881540000     0.0203260000     0.0105270000
| 17>  O        1.0053670000     1.0750920000     0.4832380000
| 18>  C       -0.2235060000     0.7003800000    -0.0824790000
| 19>  H       -1.8484830000     0.5664650000     1.4291820000
| 20>  H       -2.3947090000     1.3860660000    -0.0681520000
| 21>  H       -1.9068220000    -0.6067500000    -1.2684180000
| 22>  H       -0.2141660000    -1.0518550000     1.0696590000
| 23>  H        1.0088440000    -1.0388480000    -1.7237330000
| 24>  H        1.4478320000    -2.1197660000    -0.3839590000
| 25>  H        2.5863680000     0.4420740000    -0.7172460000
| 26>  H        2.4562120000    -0.3378330000     0.8717790000
| 27>  H       -0.2427070000     0.9942820000    -1.1459900000
| 28> *
| 29>
| 30>                          ****END OF INPUT****
 Total Charge           Charge          ....    0
 Multiplicity           Mult            ....    1
 Number of Electrons    NEL             ....   54
 Basis Dimension        Dim             ....  143

MULLIKEN ATOMIC CHARGES
-----------------------
   0 C :    0.134464
   1 N :   -0.230966
   2 C :   -0.038895
   3 C :    0.028565
   4 C :    0.182453
   5 O :   -0.331865
   6 C :    0.021958
   7 H :    0.026654
   8 H :    0.020306
   9 H :    0.100448
  10 H :    0.021488
  11 H :    0.015467
  12 H :    0.019475
  13 H :    0.015918
  14 H :    0.023164
  15 H :   -0.008637
Sum of atomic charges:   -0.0000000

LOEWDIN ATOMIC CHARGES
----------------------
   0 C :    0.031499
   1 N :   -0.103712
   2 C :   -0.012775
   3 C :   -0.055601
   4 C :    0.085765
   5 O :   -0.165730
   6 C :    0.016415
   7 H :    0.024915
   8 H :    0.015402
   9 H :    0.049633
  10 H :    0.025710
  11 H :    0.025843
  12 H :    0.026888
  13 H :    0.016130
  14 H :    0.018921
  15 H :    0.000697

  Mayer bond orders larger than 0.1
B(  0-C ,  1-N ) :   1.0203 B(  0-C ,  6-C ) :   1.0232 B(  0-C ,  7-H ) :   0.9248
B(  0-C ,  8-H ) :   0.9401 B(  1-N ,  2-C ) :   1.0196 B(  1-N ,  9-H ) :   0.9382
B(  2-C ,  3-C ) :   1.0697 B(  2-C ,  6-C ) :   1.0144 B(  2-C , 10-H ) :   0.9163
B(  3-C ,  4-C ) :   1.0343 B(  3-C , 11-H ) :   0.9286 B(  3-C , 12-H ) :   0.9300
B(  4-C ,  5-O ) :   0.9967 B(  4-C , 13-H ) :   0.9438 B(  4-C , 14-H ) :   0.9490
B(  5-O ,  6-C ) :   1.0474 B(  6-C , 15-H ) :   0.9243

FINAL SINGLE POINT ENERGY      -325.174768031641

DIPOLE MOMENT
-------------
                                X             Y             Z
Electronic contribution:     -0.53302       1.40497       1.08417
Nuclear contribution   :      0.75201      -1.54198      -1.62821
                        -----------------------------------------
Total Dipole Moment    :      0.21899      -0.13701      -0.54404
                        -----------------------------------------
Magnitude (a.u.)       :      0.60226
Magnitude (Debye)      :      1.53081

                             ****ORCA TERMINATED NORMALLY****
TOTAL RUN TIME: 0 days 0 hours 0 minutes 7 seconds 391 msec
