                         Program Version 3.0.3 - RELEASE   -
|  1> ! RI PBE def2-SVP def2-SVP/J NBO PAL2
|  2> % maxcore 2000
|  3> % output
|  4>     # printlevel mini
|  5>     print[ P_Basis ] 0
|  6>     print[ P_SCFInfo ] 1
|  7>     print[ P_SCFIterInfo ] 1
|  8>     print[ P_OrbEn ] 0
|  9>     print[ P_Cartesian ] 0
| 10> end
| 11> *xyz 0 1
| 12>  C        1.3306630000    -0.8074540000     0.1421490000
| 13>  C        2.5601830000     0.1690350000    -0.0174370000
| 14>  C        3.2238920000    -0.6593300000     1.0582450000
| 15>  N        4.2340920000    -0.9103800000     1.8299900000
| 16>  O        3.7958740000    -2.0251430000     2.5440620000
| 17>  C        2.5472750000    -2.3832330000     2.1630870000
| 18>  C        2.1368010000    -1.5291780000     1.2048990000
| 19>  H        1.1022300000    -1.3949820000    -0.7480950000
| 20>  H        0.4167420000    -0.3285330000     0.4961060000
| 21>  H        2.3606500000     1.2067400000     0.2526150000
| 22>  H        3.0469210000     0.1390730000    -0.9930190000
| 23>  H        2.1478870000    -3.2422240000     2.6793200000
| 24> *
| 25>
| 26>                          ****END OF INPUT****
 Total Charge           Charge          ....    0
 Multiplicity           Mult            ....    1
 Number of Electrons    NEL             ....   50
 Basis Dimension        Dim             ....  123

MULLIKEN ATOMIC CHARGES
-----------------------
   0 C :    0.117478
   1 C :    0.098139
   2 C :   -0.141201
   3 N :   -0.010762
   4 O :   -0.169854
   5 C :    0.056563
   6 C :   -0.118147
   7 H :    0.033662
   8 H :    0.031250
   9 H :    0.042579
  10 H :    0.040881
  11 H :    0.019411
Sum of atomic charges:   -0.0000000

LOEWDIN ATOMIC CHARGES
----------------------
   0 C :   -0.002731
   1 C :   -0.013109
   2 C :   -0.068478
   3 N :   -0.039862
   4 O :    0.027786
   5 C :    0.026085
   6 C :   -0.107921
   7 H :    0.035645
   8 H :    0.035257
   9 H :    0.040188
  10 H :    0.039647
  11 H :    0.027493

  Mayer bond orders larger than 0.1
B(  0-C ,  1-C ) :   1.1918 B(  0-C ,  6-C ) :   1.0926 B(  0-C ,  7-H ) :   0.8856
B(  0-C ,  8-H ) :   0.8847 B(  1-C ,  2-C ) :   1.1356 B(  1-C ,  9-H ) :   0.8837
B(  1-C , 10-H ) :   0.8829 B(  2-C ,  3-N ) :   1.6451 B(  2-C ,  6-C ) :   1.2764
B(  3-N ,  4-O ) :   1.0015 B(  3-N ,  5-C ) :   0.1360 B(  4-O ,  5-C ) :   1.1574
B(  5-C ,  6-C ) :   1.5531 B(  5-C , 11-H ) :   0.9812

FINAL SINGLE POINT ENERGY      -322.781127734540

DIPOLE MOMENT
-------------
                                X             Y             Z
Electronic contribution:      3.69190      -2.10845       3.83871
Nuclear contribution   :     -4.82714       2.08653      -4.44791
                        -----------------------------------------
Total Dipole Moment    :     -1.13524      -0.02192      -0.60920
                        -----------------------------------------
Magnitude (a.u.)       :      1.28856
Magnitude (Debye)      :      3.27525

                             ****ORCA TERMINATED NORMALLY****
TOTAL RUN TIME: 0 days 0 hours 0 minutes 5 seconds 906 msec
