                         Program Version 3.0.3 - RELEASE   -
|  1> ! RI PBE def2-SVP def2-SVP/J NBO PAL2
|  2> % maxcore 2000
|  3> % output
|  4>     # printlevel mini
|  5>     print[ P_Basis ] 0
|  6>     print[ P_SCFInfo ] 1
|  7>     print[ P_SCFIterInfo ] 1
|  8>     print[ P_OrbEn ] 0
|  9>     print[ P_Cartesian ] 0
| 10> end
| 11> *xyz 0 1
| 12>  C        1.4837260000     0.4521360000    -0.5516720000
| 13>  C        2.5637980000     0.0348460000     0.5294030000
| 14>  C        3.1014460000     1.4448110000     0.3965300000
| 15>  N        3.8936310000     2.4318490000     0.6523560000
| 16>  O        3.4114330000     3.4307980000    -0.1672030000
| 17>  N        2.3234540000     3.0385280000    -0.9185560000
| 18>  C        2.1514790000     1.8118510000    -0.5539700000
| 19>  H        0.4540150000     0.4445370000    -0.1940950000
| 20>  H        1.5452590000    -0.0941300000    -1.4929440000
| 21>  H        3.2476650000    -0.7521670000     0.2114480000
| 22>  H        2.1558960000    -0.2126620000     1.5095050000
| 23> *
| 24>
| 25>                          ****END OF INPUT****
 Total Charge           Charge          ....    0
 Multiplicity           Mult            ....    1
 Number of Electrons    NEL             ....   50
 Basis Dimension        Dim             ....  118

MULLIKEN ATOMIC CHARGES
-----------------------
   0 C :    0.137832
   1 C :    0.138351
   2 C :   -0.206770
   3 N :    0.045100
   4 O :   -0.131854
   5 N :    0.045126
   6 C :   -0.206500
   7 H :    0.044131
   8 H :    0.046243
   9 H :    0.045701
  10 H :    0.042641
Sum of atomic charges:   -0.0000000

LOEWDIN ATOMIC CHARGES
----------------------
   0 C :   -0.006255
   1 C :   -0.005410
   2 C :   -0.089022
   3 N :   -0.011046
   4 O :    0.035471
   5 N :   -0.011056
   6 C :   -0.088846
   7 H :    0.044110
   8 H :    0.044154
   9 H :    0.044280
  10 H :    0.043620

  Mayer bond orders larger than 0.1
B(  0-C ,  1-C ) :   1.2632 B(  0-C ,  6-C ) :   1.1911 B(  0-C ,  7-H ) :   0.8618
B(  0-C ,  8-H ) :   0.8653 B(  1-C ,  2-C ) :   1.1871 B(  1-C ,  9-H ) :   0.8624
B(  1-C , 10-H ) :   0.8649 B(  2-C ,  3-N ) :   1.6803 B(  2-C ,  6-C ) :   1.2487
B(  3-N ,  4-O ) :   1.0278 B(  3-N ,  5-N ) :   0.1893 B(  4-O ,  5-N ) :   1.0279
B(  5-N ,  6-C ) :   1.6797

FINAL SINGLE POINT ENERGY      -338.774285889460

DIPOLE MOMENT
-------------
                                X             Y             Z
Electronic contribution:      2.56052       5.88067      -0.28730
Nuclear contribution   :     -3.22684      -7.41086       0.36323
                        -----------------------------------------
Total Dipole Moment    :     -0.66632      -1.53019       0.07593
                        -----------------------------------------
Magnitude (a.u.)       :      1.67070
Magnitude (Debye)      :      4.24657

                             ****ORCA TERMINATED NORMALLY****
TOTAL RUN TIME: 0 days 0 hours 0 minutes 5 seconds 943 msec
