                         Program Version 3.0.3 - RELEASE   -
|  1> ! RI PBE def2-SVP def2-SVP/J NBO PAL2
|  2> % maxcore 2000
|  3> % output
|  4>     # printlevel mini
|  5>     print[ P_Basis ] 0
|  6>     print[ P_SCFInfo ] 1
|  7>     print[ P_SCFIterInfo ] 1
|  8>     print[ P_OrbEn ] 0
|  9>     print[ P_Cartesian ] 0
| 10> end
| 11> *xyz 0 1
| 12>  C       -1.5157610000     0.7799690000     0.1218040000
| 13>  C       -1.3668830000    -0.7239320000    -0.1157440000
| 14>  C        0.0339130000    -1.2087790000     0.1609720000
| 15>  O        1.0070880000    -0.9290490000    -0.8433280000
| 16>  C        1.1198590000    -0.2565650000     0.4002460000
| 17>  C        0.8299300000     1.2217730000     0.3676490000
| 18>  N       -0.3879540000     1.5724090000    -0.3327660000
| 19>  H       -1.6275090000     0.9678550000     1.1960460000
| 20>  H       -2.4266520000     1.1510370000    -0.3551280000
| 21>  H       -1.6130030000    -0.9742080000    -1.1534520000
| 22>  H       -2.0720720000    -1.2752370000     0.5143020000
| 23>  H        0.1267600000    -2.2102220000     0.5774650000
| 24>  H        1.9692000000    -0.5670460000     1.0088590000
| 25>  H        1.6694670000     1.7498530000    -0.0948170000
| 26>  H        0.7608690000     1.5815520000     1.4022890000
| 27>  H       -0.2506720000     1.4332090000    -1.3271970000
| 28> *
| 29>
| 30>                          ****END OF INPUT****
 Total Charge           Charge          ....    0
 Multiplicity           Mult            ....    1
 Number of Electrons    NEL             ....   54
 Basis Dimension        Dim             ....  143

MULLIKEN ATOMIC CHARGES
-----------------------
   0 C :    0.067624
   1 C :    0.085471
   2 C :    0.020771
   3 O :   -0.288937
   4 C :   -0.007808
   5 C :    0.177738
   6 N :   -0.242788
   7 H :    0.006521
   8 H :    0.007001
   9 H :    0.015741
  10 H :    0.006778
  11 H :    0.013712
  12 H :    0.011030
  13 H :    0.017247
  14 H :    0.008150
  15 H :    0.101750
Sum of atomic charges:   -0.0000000

LOEWDIN ATOMIC CHARGES
----------------------
   0 C :    0.009774
   1 C :   -0.067809
   2 C :    0.043283
   3 O :   -0.160456
   4 C :    0.022945
   5 C :   -0.000585
   6 N :   -0.090382
   7 H :    0.020972
   8 H :    0.022437
   9 H :    0.031762
  10 H :    0.031104
  11 H :    0.014680
  12 H :    0.013183
  13 H :    0.029928
  14 H :    0.025313
  15 H :    0.053849

  Mayer bond orders larger than 0.1
B(  0-C ,  1-C ) :   1.0851 B(  0-C ,  6-N ) :   1.0897 B(  0-C ,  7-H ) :   0.9349
B(  0-C ,  8-H ) :   0.9373 B(  1-C ,  2-C ) :   1.0422 B(  1-C ,  9-H ) :   0.9009
B(  1-C , 10-H ) :   0.9141 B(  2-C ,  3-O ) :   0.9420 B(  2-C ,  4-C ) :   1.0744
B(  2-C , 11-H ) :   0.9402 B(  3-O ,  4-C ) :   0.9927 B(  4-C ,  5-C ) :   0.9873
B(  4-C , 12-H ) :   0.9328 B(  5-C ,  6-N ) :   1.0986 B(  5-C , 13-H ) :   0.9284
B(  5-C , 14-H ) :   0.9246 B(  6-N , 15-H ) :   0.9462

FINAL SINGLE POINT ENERGY      -325.235271806728

DIPOLE MOMENT
-------------
                                X             Y             Z
Electronic contribution:      2.68625      -1.31454      -1.67243
Nuclear contribution   :     -2.92849       1.15804       2.08372
                        -----------------------------------------
Total Dipole Moment    :     -0.24224      -0.15650       0.41128
                        -----------------------------------------
Magnitude (a.u.)       :      0.50232
Magnitude (Debye)      :      1.27679

                             ****ORCA TERMINATED NORMALLY****
TOTAL RUN TIME: 0 days 0 hours 0 minutes 6 seconds 609 msec
