                         Program Version 3.0.3 - RELEASE   -
|  1> ! RI PBE def2-SVP def2-SVP/J NBO PAL2
|  2> % maxcore 2000
|  3> % output
|  4>     # printlevel mini
|  5>     print[ P_Basis ] 0
|  6>     print[ P_SCFInfo ] 1
|  7>     print[ P_SCFIterInfo ] 1
|  8>     print[ P_OrbEn ] 0
|  9>     print[ P_Cartesian ] 0
| 10> end
| 11> *xyz 0 1
| 12>  C       -1.7224970000     0.6586950000     0.3624230000
| 13>  O       -1.7091100000    -0.6604270000    -0.2632190000
| 14>  C       -0.2903210000    -0.6839210000     0.0370530000
| 15>  C        0.9738390000    -1.0874820000    -0.6746770000
| 16>  C        1.8962320000    -0.0199070000     0.0257020000
| 17>  N        1.0280030000     1.0928770000     0.5632750000
| 18>  C       -0.2400320000     0.7950770000    -0.0486360000
| 19>  H       -1.8859660000     0.5767710000     1.4428440000
| 20>  H       -2.4569530000     1.3175840000    -0.1019220000
| 21>  H       -0.1936580000    -0.9911280000     1.0899490000
| 22>  H        0.9101570000    -0.9172390000    -1.7511710000
| 23>  H        1.3321020000    -2.1012420000    -0.4914450000
| 24>  H        2.6397620000     0.3599780000    -0.6799170000
| 25>  H        2.4361730000    -0.4799580000     0.8566240000
| 26>  H        1.4026710000     1.9888960000     0.2832920000
| 27>  H       -0.2751220000     1.0702270000    -1.1138650000
| 28> *
| 29>
| 30>                          ****END OF INPUT****
 Total Charge           Charge          ....    0
 Multiplicity           Mult            ....    1
 Number of Electrons    NEL             ....   54
 Basis Dimension        Dim             ....  143

MULLIKEN ATOMIC CHARGES
-----------------------
   0 C :    0.245052
   1 O :   -0.346381
   2 C :    0.072877
   3 C :    0.035902
   4 C :    0.078442
   5 N :   -0.208135
   6 C :   -0.072964
   7 H :    0.004865
   8 H :    0.012987
   9 H :    0.006928
  10 H :    0.017941
  11 H :    0.020979
  12 H :    0.011943
  13 H :    0.022021
  14 H :    0.095494
  15 H :    0.002049
Sum of atomic charges:   -0.0000000

LOEWDIN ATOMIC CHARGES
----------------------
   0 C :    0.088580
   1 O :   -0.182084
   2 C :    0.049421
   3 C :   -0.049153
   4 C :    0.036398
   5 N :   -0.105897
   6 C :   -0.025872
   7 H :    0.011540
   8 H :    0.013216
   9 H :    0.012836
  10 H :    0.028344
  11 H :    0.026551
  12 H :    0.017342
  13 H :    0.019586
  14 H :    0.052155
  15 H :    0.007036

  Mayer bond orders larger than 0.1
B(  0-C ,  1-O ) :   0.9960 B(  0-C ,  6-C ) :   1.0488 B(  0-C ,  7-H ) :   0.9174
B(  0-C ,  8-H ) :   0.9329 B(  1-O ,  2-C ) :   1.0075 B(  2-C ,  3-C ) :   1.0816
B(  2-C ,  6-C ) :   1.0158 B(  2-C ,  9-H ) :   0.9189 B(  3-C ,  4-C ) :   1.0586
B(  3-C , 10-H ) :   0.9164 B(  3-C , 11-H ) :   0.9333 B(  4-C ,  5-N ) :   1.0250
B(  4-C , 12-H ) :   0.9395 B(  4-C , 13-H ) :   0.9448 B(  5-N ,  6-C ) :   1.0708
B(  5-N , 14-H ) :   0.9398 B(  6-C , 15-H ) :   0.9060

FINAL SINGLE POINT ENERGY      -325.177477460726

DIPOLE MOMENT
-------------
                                X             Y             Z
Electronic contribution:     -3.10737      -0.17273       0.18896
Nuclear contribution   :      3.78370       0.63959      -0.40588
                        -----------------------------------------
Total Dipole Moment    :      0.67634       0.46686      -0.21692
                        -----------------------------------------
Magnitude (a.u.)       :      0.84997
Magnitude (Debye)      :      2.16045

                             ****ORCA TERMINATED NORMALLY****
TOTAL RUN TIME: 0 days 0 hours 0 minutes 7 seconds 108 msec
