                         Program Version 3.0.3 - RELEASE   -
|  1> ! RI PBE def2-SVP def2-SVP/J NBO PAL2
|  2> % maxcore 2000
|  3> % output
|  4>     # printlevel mini
|  5>     print[ P_Basis ] 0
|  6>     print[ P_SCFInfo ] 1
|  7>     print[ P_SCFIterInfo ] 1
|  8>     print[ P_OrbEn ] 0
|  9>     print[ P_Cartesian ] 0
| 10> end
| 11> *xyz 0 1
| 12>  C       -1.3606330000     0.6260450000     0.1114410000
| 13>  C       -1.4961760000    -0.8534680000    -0.1793460000
| 14>  C       -0.2913140000    -1.6236010000     0.2129510000
| 15>  C        0.9234980000    -1.1073830000     0.4231970000
| 16>  C        1.3982160000     0.2549760000     0.2213870000
| 17>  N        0.8921580000     1.3090220000    -0.2992730000
| 18>  O       -0.4171910000     1.3017720000    -0.7038910000
| 19>  H       -1.0992360000     0.7845800000     1.1635010000
| 20>  H       -2.3038180000     1.1376160000    -0.0905670000
| 21>  H       -1.7173600000    -0.9961810000    -1.2431300000
| 22>  H       -2.3696790000    -1.2418400000     0.3599880000
| 23>  H       -0.4194500000    -2.6896630000     0.3795630000
| 24>  H        1.7058210000    -1.7850290000     0.7517210000
| 25>  H        2.4379540000     0.4234630000     0.4935580000
| 26> *
| 27>
| 28>                          ****END OF INPUT****
 Total Charge           Charge          ....    0
 Multiplicity           Mult            ....    1
 Number of Electrons    NEL             ....   52
 Basis Dimension        Dim             ....  133

MULLIKEN ATOMIC CHARGES
-----------------------
   0 C :    0.134161
   1 C :    0.078842
   2 C :   -0.089250
   3 C :    0.008180
   4 C :   -0.082376
   5 N :    0.061754
   6 O :   -0.263804
   7 H :    0.033599
   8 H :    0.024361
   9 H :    0.044845
  10 H :    0.016651
  11 H :    0.009049
  12 H :    0.002545
  13 H :    0.021443
Sum of atomic charges:   -0.0000000

LOEWDIN ATOMIC CHARGES
----------------------
   0 C :    0.053938
   1 C :   -0.061849
   2 C :   -0.014206
   3 C :   -0.077119
   4 C :   -0.067748
   5 N :    0.000190
   6 O :   -0.079863
   7 H :    0.021988
   8 H :    0.030113
   9 H :    0.048351
  10 H :    0.041257
  11 H :    0.031682
  12 H :    0.037674
  13 H :    0.035592

  Mayer bond orders larger than 0.1
B(  0-C ,  1-C ) :   1.0867 B(  0-C ,  6-O ) :   0.9655 B(  0-C ,  7-H ) :   0.9393
B(  0-C ,  8-H ) :   0.9347 B(  1-C ,  2-C ) :   1.0695 B(  1-C ,  9-H ) :   0.8926
B(  1-C , 10-H ) :   0.8998 B(  2-C ,  3-C ) :   1.8211 B(  2-C , 11-H ) :   0.9460
B(  3-C ,  4-C ) :   1.0772 B(  3-C , 12-H ) :   0.9385 B(  4-C ,  5-N ) :   1.8884
B(  4-C , 13-H ) :   0.9393 B(  5-N ,  6-O ) :   0.9710

FINAL SINGLE POINT ENERGY      -323.995278143649

DIPOLE MOMENT
-------------
                                X             Y             Z
Electronic contribution:      2.45454       3.21402      -1.45945
Nuclear contribution   :     -2.99834      -4.22591       1.97121
                        -----------------------------------------
Total Dipole Moment    :     -0.54380      -1.01190       0.51177
                        -----------------------------------------
Magnitude (a.u.)       :      1.25760
Magnitude (Debye)      :      3.19657

                             ****ORCA TERMINATED NORMALLY****
TOTAL RUN TIME: 0 days 0 hours 0 minutes 7 seconds 241 msec
