                         Program Version 3.0.3 - RELEASE   -
|  1> ! RI PBE def2-SVP def2-SVP/J NBO PAL2
|  2> % maxcore 2000
|  3> % output
|  4>     # printlevel mini
|  5>     print[ P_Basis ] 0
|  6>     print[ P_SCFInfo ] 1
|  7>     print[ P_SCFIterInfo ] 1
|  8>     print[ P_OrbEn ] 0
|  9>     print[ P_Cartesian ] 0
| 10> end
| 11> *xyz 0 1
| 12>  C        1.7263680000    -0.1068090000    -0.0293590000
| 13>  C        0.8592490000    -1.2172020000     0.5480630000
| 14>  C       -0.3956460000    -1.4700450000    -0.2764730000
| 15>  C       -1.4484260000    -0.4030740000    -0.1592590000
| 16>  N       -1.3915150000     0.8310850000     0.1392470000
| 17>  O       -0.1557730000     1.4303360000     0.3146650000
| 18>  C        0.8768850000     1.0231960000    -0.5747940000
| 19>  H        2.3516560000    -0.4886040000    -0.8446860000
| 20>  H        2.4060000000     0.2714130000     0.7388150000
| 21>  H        0.5572280000    -0.9508760000     1.5644310000
| 22>  H        1.4357710000    -2.1427910000     0.6269920000
| 23>  H       -0.8693210000    -2.4008250000     0.0501720000
| 24>  H       -0.1448460000    -1.6307730000    -1.3331560000
| 25>  H       -2.4791250000    -0.7288760000    -0.2920860000
| 26>  H        1.4787260000     1.9199700000    -0.7430330000
| 27>  H        0.4193960000     0.7488870000    -1.5318290000
| 28> *
| 29>
| 30>                          ****END OF INPUT****
 Total Charge           Charge          ....    0
 Multiplicity           Mult            ....    1
 Number of Electrons    NEL             ....   54
 Basis Dimension        Dim             ....  143

MULLIKEN ATOMIC CHARGES
-----------------------
   0 C :   -0.001060
   1 C :   -0.024029
   2 C :    0.016013
   3 C :   -0.114240
   4 N :    0.041387
   5 O :   -0.277240
   6 C :    0.135147
   7 H :    0.013474
   8 H :    0.022869
   9 H :    0.037582
  10 H :    0.016882
  11 H :    0.020904
  12 H :    0.038308
  13 H :    0.027892
  14 H :    0.027704
  15 H :    0.018406
Sum of atomic charges:   -0.0000000

LOEWDIN ATOMIC CHARGES
----------------------
   0 C :   -0.059784
   1 C :   -0.041372
   2 C :   -0.063887
   3 C :   -0.057094
   4 N :    0.000549
   5 O :   -0.101883
   6 C :    0.047720
   7 H :    0.029380
   8 H :    0.030293
   9 H :    0.033144
  10 H :    0.030637
  11 H :    0.040595
  12 H :    0.038841
  13 H :    0.030959
  14 H :    0.027501
  15 H :    0.014401

  Mayer bond orders larger than 0.1
B(  0-C ,  1-C ) :   1.0925 B(  0-C ,  6-C ) :   1.1013 B(  0-C ,  7-H ) :   0.9218
B(  0-C ,  8-H ) :   0.9294 B(  1-C ,  2-C ) :   1.0896 B(  1-C ,  9-H ) :   0.9333
B(  1-C , 10-H ) :   0.9290 B(  2-C ,  3-C ) :   0.9988 B(  2-C , 11-H ) :   0.9134
B(  2-C , 12-H ) :   0.9225 B(  3-C ,  4-N ) :   1.9737 B(  3-C ,  5-O ) :   0.1014
B(  3-C , 13-H ) :   0.9483 B(  4-N ,  5-O ) :   0.9496 B(  5-O ,  6-C ) :   0.9810
B(  6-C , 14-H ) :   0.9425 B(  6-C , 15-H ) :   0.9261

FINAL SINGLE POINT ENERGY      -325.203460745395

DIPOLE MOMENT
-------------
                                X             Y             Z
Electronic contribution:     -3.92145       4.29389       1.12400
Nuclear contribution   :      4.60032      -5.29616      -1.59003
                        -----------------------------------------
Total Dipole Moment    :      0.67886      -1.00227      -0.46603
                        -----------------------------------------
Magnitude (a.u.)       :      1.29715
Magnitude (Debye)      :      3.29708

                             ****ORCA TERMINATED NORMALLY****
TOTAL RUN TIME: 0 days 0 hours 0 minutes 7 seconds 632 msec
