                         Program Version 3.0.3 - RELEASE   -
|  1> ! RI PBE def2-SVP def2-SVP/J NBO PAL2
|  2> % maxcore 2000
|  3> % output
|  4>     # printlevel mini
|  5>     print[ P_Basis ] 0
|  6>     print[ P_SCFInfo ] 1
|  7>     print[ P_SCFIterInfo ] 1
|  8>     print[ P_OrbEn ] 0
|  9>     print[ P_Cartesian ] 0
| 10> end
| 11> *xyz 0 1
| 12>  C        0.2714090000    -1.0275320000    -1.0164660000
| 13>  O        0.5947200000     0.2916410000    -0.6090420000
| 14>  C        0.3148810000    -0.6672080000     0.3981670000
| 15>  C        1.4604130000    -1.0760450000     1.2745010000
| 16>  C        1.6104460000    -0.2253230000     2.5522060000
| 17>  C        0.9110030000    -1.3801500000     3.2871850000
| 18>  N        1.1803980000    -2.2454460000     2.1261150000
| 19>  H        1.0958390000    -1.5950160000    -1.4428330000
| 20>  H       -0.6865930000    -1.1369080000    -1.5188280000
| 21>  H       -0.6353620000    -0.5070630000     0.9112370000
| 22>  H        2.3568770000    -1.1780220000     0.6532450000
| 23>  H        1.1163180000     0.7457460000     2.5518580000
| 24>  H        2.6508740000    -0.1011550000     2.8498440000
| 25>  H       -0.1519860000    -1.1815830000     3.4710670000
| 26>  H        1.3645690000    -1.7265630000     4.2192970000
| 27>  H        0.4201840000    -2.8408640000     1.8207480000
| 28> *
| 29>
| 30>                          ****END OF INPUT****
 Total Charge           Charge          ....    0
 Multiplicity           Mult            ....    1
 Number of Electrons    NEL             ....   54
 Basis Dimension        Dim             ....  143

MULLIKEN ATOMIC CHARGES
-----------------------
   0 C :    0.156337
   1 O :   -0.285842
   2 C :    0.022116
   3 C :    0.013328
   4 C :    0.006754
   5 C :    0.115161
   6 N :   -0.234111
   7 H :    0.028497
   8 H :    0.028921
   9 H :    0.000434
  10 H :   -0.005840
  11 H :    0.021362
  12 H :    0.024291
  13 H :    0.009426
  14 H :    0.008891
  15 H :    0.090274
Sum of atomic charges:   -0.0000000

LOEWDIN ATOMIC CHARGES
----------------------
   0 C :    0.054913
   1 O :   -0.151402
   2 C :    0.022202
   3 C :    0.007071
   4 C :   -0.031247
   5 C :    0.027667
   6 N :   -0.100498
   7 H :    0.015126
   8 H :    0.015709
   9 H :    0.012243
  10 H :    0.014884
  11 H :    0.023322
  12 H :    0.031223
  13 H :    0.004804
  14 H :    0.011341
  15 H :    0.042644

  Mayer bond orders larger than 0.1
B(  0-C ,  1-O ) :   1.0036 B(  0-C ,  2-C ) :   1.0724 B(  0-C ,  7-H ) :   0.9305
B(  0-C ,  8-H ) :   0.9356 B(  1-O ,  2-C ) :   0.9692 B(  2-C ,  3-C ) :   0.9990
B(  2-C ,  9-H ) :   0.9273 B(  3-C ,  4-C ) :   1.0709 B(  3-C ,  6-N ) :   1.0670
B(  3-C , 10-H ) :   0.9026 B(  4-C ,  5-C ) :   1.1083 B(  4-C , 11-H ) :   0.9434
B(  4-C , 12-H ) :   0.9154 B(  5-C ,  6-N ) :   1.0502 B(  5-C , 13-H ) :   0.9335
B(  5-C , 14-H ) :   0.9332 B(  6-N , 15-H ) :   0.9505

FINAL SINGLE POINT ENERGY      -325.193505820464

DIPOLE MOMENT
-------------
                                X             Y             Z
Electronic contribution:     -0.00106       0.97193      -2.98068
Nuclear contribution   :     -0.47627      -1.34663       3.14772
                        -----------------------------------------
Total Dipole Moment    :     -0.47734      -0.37470       0.16705
                        -----------------------------------------
Magnitude (a.u.)       :      0.62941
Magnitude (Debye)      :      1.59984

                             ****ORCA TERMINATED NORMALLY****
TOTAL RUN TIME: 0 days 0 hours 0 minutes 6 seconds 974 msec
