                         Program Version 3.0.3 - RELEASE   -
|  1> ! RI PBE def2-SVP def2-SVP/J NBO PAL2
|  2> % maxcore 2000
|  3> % output
|  4>     # printlevel mini
|  5>     print[ P_Basis ] 0
|  6>     print[ P_SCFInfo ] 1
|  7>     print[ P_SCFIterInfo ] 1
|  8>     print[ P_OrbEn ] 0
|  9>     print[ P_Cartesian ] 0
| 10> end
| 11> *xyz 0 1
| 12>  C       -1.4769930000     0.6137560000     0.3044610000
| 13>  C       -1.3366380000    -0.7602290000    -0.3335700000
| 14>  C       -0.2406400000    -1.4998360000     0.3572230000
| 15>  N        0.9741060000    -1.1310450000     0.3938020000
| 16>  N        1.3920780000    -0.0755800000    -0.3757310000
| 17>  C        0.7676910000     1.0236810000    -0.5034760000
| 18>  O       -0.4033330000     1.4863020000    -0.0455860000
| 19>  H       -1.5203000000     0.5261900000     1.3930010000
| 20>  H       -2.3830200000     1.1235870000    -0.0339410000
| 21>  H       -1.1235010000    -0.6412680000    -1.4019290000
| 22>  H       -2.2827240000    -1.2976410000    -0.2422880000
| 23>  H       -0.4833540000    -2.3767110000     0.9549170000
| 24>  H        1.2737280000     1.8031940000    -1.0674920000
| 25> *
| 26>
| 27>                          ****END OF INPUT****
 Total Charge           Charge          ....    0
 Multiplicity           Mult            ....    1
 Number of Electrons    NEL             ....   52
 Basis Dimension        Dim             ....  128

MULLIKEN ATOMIC CHARGES
-----------------------
   0 C :    0.199363
   1 C :   -0.059948
   2 C :   -0.057308
   3 N :   -0.049660
   4 N :   -0.095150
   5 C :    0.085453
   6 O :   -0.253888
   7 H :    0.040017
   8 H :    0.026494
   9 H :    0.072245
  10 H :    0.030027
  11 H :    0.025065
  12 H :    0.037291
Sum of atomic charges:    0.0000000

LOEWDIN ATOMIC CHARGES
----------------------
   0 C :    0.086260
   1 C :   -0.082116
   2 C :   -0.022550
   3 N :   -0.032493
   4 N :   -0.091397
   5 C :    0.020810
   6 O :   -0.070552
   7 H :    0.024606
   8 H :    0.024701
   9 H :    0.051089
  10 H :    0.044351
  11 H :    0.022882
  12 H :    0.024409

  Mayer bond orders larger than 0.1
B(  0-C ,  1-C ) :   1.0825 B(  0-C ,  6-O ) :   0.9430 B(  0-C ,  7-H ) :   0.9458
B(  0-C ,  8-H ) :   0.9427 B(  1-C ,  2-C ) :   1.0208 B(  1-C ,  9-H ) :   0.9092
B(  1-C , 10-H ) :   0.9111 B(  2-C ,  3-N ) :   1.9145 B(  2-C , 11-H ) :   0.9622
B(  3-N ,  4-N ) :   1.0339 B(  4-N ,  5-C ) :   1.8359 B(  5-C ,  6-O ) :   1.1827
B(  5-C , 12-H ) :   0.9543

FINAL SINGLE POINT ENERGY      -340.036017414867

DIPOLE MOMENT
-------------
                                X             Y             Z
Electronic contribution:      4.19318       0.83905       0.12095
Nuclear contribution   :     -5.68568      -0.70926      -0.20175
                        -----------------------------------------
Total Dipole Moment    :     -1.49250       0.12979      -0.08080
                        -----------------------------------------
Magnitude (a.u.)       :      1.50031
Magnitude (Debye)      :      3.81350

                             ****ORCA TERMINATED NORMALLY****
TOTAL RUN TIME: 0 days 0 hours 0 minutes 5 seconds 891 msec
