                         Program Version 3.0.3 - RELEASE   -
|  1> ! RI PBE def2-SVP def2-SVP/J NBO PAL2
|  2> % maxcore 2000
|  3> % output
|  4>     # printlevel mini
|  5>     print[ P_Basis ] 0
|  6>     print[ P_SCFInfo ] 1
|  7>     print[ P_SCFIterInfo ] 1
|  8>     print[ P_OrbEn ] 0
|  9>     print[ P_Cartesian ] 0
| 10> end
| 11> *xyz 0 1
| 12>  C        0.9191710000    -1.0885570000     0.2835520000
| 13>  C       -0.5183040000    -1.5757020000     0.0775360000
| 14>  C       -1.4570570000    -0.5507620000    -0.4802410000
| 15>  N       -1.4093790000     0.7134570000    -0.4259510000
| 16>  O       -0.3359950000     1.1716410000     0.3816260000
| 17>  C        0.8671870000     1.1626550000    -0.3187070000
| 18>  O        1.2673590000    -0.1289290000    -0.6888590000
| 19>  H        1.6115650000    -1.9229420000     0.1570670000
| 20>  H        1.0512250000    -0.6873330000     1.2932150000
| 21>  H       -0.9332230000    -1.9707060000     1.0132820000
| 22>  H       -0.5253070000    -2.4124580000    -0.6276100000
| 23>  H       -2.3122550000    -0.9154640000    -1.0485780000
| 24>  H        1.5795360000     1.6160200000     0.3814510000
| 25>  H        0.8092770000     1.7401780000    -1.2466850000
| 26> *
| 27>
| 28>                          ****END OF INPUT****
 Total Charge           Charge          ....    0
 Multiplicity           Mult            ....    1
 Number of Electrons    NEL             ....   54
 Basis Dimension        Dim             ....  133

MULLIKEN ATOMIC CHARGES
-----------------------
   0 C :    0.163623
   1 C :    0.036690
   2 C :   -0.089653
   3 N :    0.018728
   4 O :   -0.294361
   5 C :    0.313282
   6 O :   -0.344213
   7 H :    0.024158
   8 H :    0.013327
   9 H :    0.043624
  10 H :    0.035199
  11 H :    0.041392
  12 H :    0.017199
  13 H :    0.021005
Sum of atomic charges:   -0.0000000

LOEWDIN ATOMIC CHARGES
----------------------
   0 C :    0.059602
   1 C :   -0.078308
   2 C :   -0.009664
   3 N :   -0.000737
   4 O :   -0.114662
   5 C :    0.113091
   6 O :   -0.151714
   7 H :    0.025103
   8 H :    0.012088
   9 H :    0.050670
  10 H :    0.043617
  11 H :    0.034534
  12 H :    0.009205
  13 H :    0.007175

  Mayer bond orders larger than 0.1
B(  0-C ,  1-C ) :   1.0725 B(  0-C ,  6-O ) :   1.0332 B(  0-C ,  7-H ) :   0.9435
B(  0-C ,  8-H ) :   0.9258 B(  1-C ,  2-C ) :   1.0176 B(  1-C ,  9-H ) :   0.9011
B(  1-C , 10-H ) :   0.9161 B(  2-C ,  3-N ) :   1.9887 B(  2-C , 11-H ) :   0.9472
B(  3-N ,  4-O ) :   0.8871 B(  4-O ,  5-C ) :   1.0267 B(  5-C ,  6-O ) :   1.0236
B(  5-C , 12-H ) :   0.9352 B(  5-C , 13-H ) :   0.9422

FINAL SINGLE POINT ENERGY      -361.056808276920

DIPOLE MOMENT
-------------
                                X             Y             Z
Electronic contribution:     -1.37578       3.16783      -0.76416
Nuclear contribution   :      1.58766      -4.08443       0.97921
                        -----------------------------------------
Total Dipole Moment    :      0.21188      -0.91660       0.21505
                        -----------------------------------------
Magnitude (a.u.)       :      0.96504
Magnitude (Debye)      :      2.45293

                             ****ORCA TERMINATED NORMALLY****
TOTAL RUN TIME: 0 days 0 hours 0 minutes 6 seconds 785 msec
