                         Program Version 3.0.3 - RELEASE   -
|  1> ! RI PBE def2-SVP def2-SVP/J NBO PAL2
|  2> % maxcore 2000
|  3> % output
|  4>     # printlevel mini
|  5>     print[ P_Basis ] 0
|  6>     print[ P_SCFInfo ] 1
|  7>     print[ P_SCFIterInfo ] 1
|  8>     print[ P_OrbEn ] 0
|  9>     print[ P_Cartesian ] 0
| 10> end
| 11> *xyz 0 1
| 12>  C       -0.1433200000    -1.2740840000    -0.4574630000
| 13>  N        1.1401560000    -1.0098930000    -1.1067030000
| 14>  C        0.7945500000    -0.2866740000     0.1064890000
| 15>  C        1.6145120000    -0.5681970000     1.3299620000
| 16>  C        0.9584580000    -0.2635290000     2.6841950000
| 17>  C        1.2524070000    -1.7331080000     2.9868520000
| 18>  O        1.7265990000    -1.9622540000     1.6532240000
| 19>  H       -0.2126490000    -2.2513830000     0.0055610000
| 20>  H       -1.0521040000    -0.9071940000    -0.9241580000
| 21>  H        1.0149780000    -0.4219660000    -1.9227800000
| 22>  H        0.5228620000     0.7643740000     0.0120770000
| 23>  H        2.6112990000    -0.1235590000     1.2084400000
| 24>  H       -0.1024620000    -0.0222770000     2.6107940000
| 25>  H        1.4591160000     0.4728860000     3.3107550000
| 26>  H        0.3931620000    -2.3651060000     3.2304490000
| 27>  H        2.0413270000    -1.9025350000     3.7276940000
| 28> *
| 29>
| 30>                          ****END OF INPUT****
 Total Charge           Charge          ....    0
 Multiplicity           Mult            ....    1
 Number of Electrons    NEL             ....   54
 Basis Dimension        Dim             ....  143

MULLIKEN ATOMIC CHARGES
-----------------------
   0 C :    0.061289
   1 N :   -0.193589
   2 C :   -0.104755
   3 C :    0.173099
   4 C :   -0.033215
   5 C :    0.182937
   6 O :   -0.340321
   7 H :    0.035584
   8 H :    0.020482
   9 H :    0.107468
  10 H :    0.017817
  11 H :    0.002978
  12 H :    0.012270
  13 H :    0.025034
  14 H :    0.016823
  15 H :    0.016100
Sum of atomic charges:   -0.0000000

LOEWDIN ATOMIC CHARGES
----------------------
   0 C :    0.004383
   1 N :   -0.097790
   2 C :   -0.029929
   3 C :    0.069630
   4 C :   -0.051310
   5 C :    0.083839
   6 O :   -0.169473
   7 H :    0.021012
   8 H :    0.012802
   9 H :    0.055579
  10 H :    0.016864
  11 H :    0.013938
  12 H :    0.025551
  13 H :    0.025440
  14 H :    0.009732
  15 H :    0.009731

  Mayer bond orders larger than 0.1
B(  0-C ,  1-N ) :   1.0100 B(  0-C ,  2-C ) :   1.0645 B(  0-C ,  7-H ) :   0.9262
B(  0-C ,  8-H ) :   0.9429 B(  1-N ,  2-C ) :   0.9804 B(  1-N ,  9-H ) :   0.9429
B(  2-C ,  3-C ) :   0.9954 B(  2-C , 10-H ) :   0.9298 B(  3-C ,  4-C ) :   1.0921
B(  3-C ,  6-O ) :   1.0728 B(  3-C , 11-H ) :   0.8935 B(  4-C ,  5-C ) :   1.1174
B(  4-C , 12-H ) :   0.9250 B(  4-C , 13-H ) :   0.9358 B(  5-C ,  6-O ) :   1.0217
B(  5-C , 14-H ) :   0.9417 B(  5-C , 15-H ) :   0.9357

FINAL SINGLE POINT ENERGY      -325.192616934361

DIPOLE MOMENT
-------------
                                X             Y             Z
Electronic contribution:      1.96849      -1.40888      -1.57404
Nuclear contribution   :     -2.59260       2.32677       1.85788
                        -----------------------------------------
Total Dipole Moment    :     -0.62411       0.91789       0.28383
                        -----------------------------------------
Magnitude (a.u.)       :      1.14568
Magnitude (Debye)      :      2.91209

                             ****ORCA TERMINATED NORMALLY****
TOTAL RUN TIME: 0 days 0 hours 0 minutes 7 seconds 208 msec
