                         Program Version 3.0.3 - RELEASE   -
|  1> ! RI PBE def2-SVP def2-SVP/J NBO PAL2
|  2> % maxcore 2000
|  3> % output
|  4>     # printlevel mini
|  5>     print[ P_Basis ] 0
|  6>     print[ P_SCFInfo ] 1
|  7>     print[ P_SCFIterInfo ] 1
|  8>     print[ P_OrbEn ] 0
|  9>     print[ P_Cartesian ] 0
| 10> end
| 11> *xyz 0 1
| 12>  C        0.2858590000    -1.7574860000    -1.0847030000
| 13>  C        0.5995530000    -0.3137640000    -1.0380600000
| 14>  N        0.1766310000    -1.0172060000     0.1579620000
| 15>  C        1.2046170000    -1.2719750000     1.1300830000
| 16>  C        1.2904860000    -0.2770640000     2.2912170000
| 17>  O        1.1493470000    -1.3286540000     3.2561360000
| 18>  C        0.8547500000    -2.2824580000     2.2264270000
| 19>  H        1.1227190000    -2.4433540000    -1.1934840000
| 20>  H       -0.6495420000    -2.1018890000    -1.5110260000
| 21>  H       -0.1031050000     0.4129880000    -1.4297760000
| 22>  H        1.6468230000    -0.0312660000    -1.1155550000
| 23>  H        2.1814100000    -1.4691130000     0.6626600000
| 24>  H        0.4467430000     0.4210550000     2.3167610000
| 25>  H        2.2305130000     0.2681230000     2.4143600000
| 26>  H       -0.2027450000    -2.5680980000     2.2201880000
| 27>  H        1.4824420000    -3.1747390000     2.3031290000
| 28> *
| 29>
| 30>                          ****END OF INPUT****
 Total Charge           Charge          ....    0
 Multiplicity           Mult            ....    1
 Number of Electrons    NEL             ....   54
 Basis Dimension        Dim             ....  143

MULLIKEN ATOMIC CHARGES
-----------------------
   0 C :    0.028570
   1 C :    0.040394
   2 N :   -0.240524
   3 C :   -0.200323
   4 C :    0.291678
   5 O :   -0.368731
   6 C :    0.296329
   7 H :    0.030393
   8 H :    0.041482
   9 H :    0.042906
  10 H :    0.024315
  11 H :   -0.008445
  12 H :    0.003933
  13 H :    0.010270
  14 H :   -0.002459
  15 H :    0.010213
Sum of atomic charges:   -0.0000000

LOEWDIN ATOMIC CHARGES
----------------------
   0 C :    0.004725
   1 C :    0.007175
   2 N :   -0.103886
   3 C :   -0.015950
   4 C :    0.084393
   5 O :   -0.185116
   6 C :    0.085077
   7 H :    0.015119
   8 H :    0.023672
   9 H :    0.023905
  10 H :    0.014012
  11 H :    0.003508
  12 H :    0.012250
  13 H :    0.009883
  14 H :    0.011364
  15 H :    0.009867

  Mayer bond orders larger than 0.1
B(  0-C ,  1-C ) :   1.0994 B(  0-C ,  2-N ) :   0.9523 B(  0-C ,  7-H ) :   0.9316
B(  0-C ,  8-H ) :   0.9499 B(  1-C ,  2-N ) :   0.9533 B(  1-C ,  9-H ) :   0.9497
B(  1-C , 10-H ) :   0.9317 B(  2-N ,  3-C ) :   1.0378 B(  3-C ,  4-C ) :   1.0851
B(  3-C ,  6-C ) :   1.0870 B(  3-C , 11-H ) :   0.8811 B(  4-C ,  5-O ) :   1.0401
B(  4-C , 12-H ) :   0.9102 B(  4-C , 13-H ) :   0.9352 B(  5-O ,  6-C ) :   1.0433
B(  6-C , 14-H ) :   0.9074 B(  6-C , 15-H ) :   0.9348

FINAL SINGLE POINT ENERGY      -325.182976394011

DIPOLE MOMENT
-------------
                                X             Y             Z
Electronic contribution:     -0.52888       0.01136       3.26871
Nuclear contribution   :      0.84275      -0.04660      -4.22547
                        -----------------------------------------
Total Dipole Moment    :      0.31387      -0.03524      -0.95676
                        -----------------------------------------
Magnitude (a.u.)       :      1.00754
Magnitude (Debye)      :      2.56097

                             ****ORCA TERMINATED NORMALLY****
TOTAL RUN TIME: 0 days 0 hours 0 minutes 7 seconds 172 msec
