                         Program Version 3.0.3 - RELEASE   -
|  1> ! RI PBE def2-SVP def2-SVP/J NBO PAL2
|  2> % maxcore 2000
|  3> % output
|  4>     # printlevel mini
|  5>     print[ P_Basis ] 0
|  6>     print[ P_SCFInfo ] 1
|  7>     print[ P_SCFIterInfo ] 1
|  8>     print[ P_OrbEn ] 0
|  9>     print[ P_Cartesian ] 0
| 10> end
| 11> *xyz 0 1
| 12>  C        1.1299910000     0.2395370000     0.7519830000
| 13>  C        0.8034340000     1.7047030000     0.7746940000
| 14>  C        0.7990800000     2.5142280000    -0.4387960000
| 15>  O       -0.4139230000     2.0782290000     0.1525500000
| 16>  N        2.5037700000     0.0237350000     1.1513160000
| 17>  C        3.0814500000    -1.2464170000     0.7719780000
| 18>  C        3.4828790000     0.0004960000     0.0842650000
| 19>  H        0.9066450000    -0.1636420000    -0.2503940000
| 20>  H        0.4817000000    -0.2803850000     1.4654820000
| 21>  H        1.0010210000     2.2043420000     1.7217390000
| 22>  H        1.0432680000     2.0473000000    -1.3907920000
| 23>  H        0.9892760000     3.5828380000    -0.3773090000
| 24>  H        2.4561270000    -1.9393140000     0.2132880000
| 25>  H        3.7366660000    -1.7066650000     1.5035310000
| 26>  H        3.1243540000     0.1406750000    -0.9330190000
| 27>  H        4.4368610000     0.4670490000     0.3037940000
| 28> *
| 29>
| 30>                          ****END OF INPUT****
 Total Charge           Charge          ....    0
 Multiplicity           Mult            ....    1
 Number of Electrons    NEL             ....   54
 Basis Dimension        Dim             ....  143

MULLIKEN ATOMIC CHARGES
-----------------------
   0 C :    0.211851
   1 C :   -0.023237
   2 C :    0.141257
   3 O :   -0.287654
   4 N :   -0.303323
   5 C :    0.032471
   6 C :    0.031047
   7 H :   -0.028042
   8 H :    0.021539
   9 H :    0.023614
  10 H :    0.020872
  11 H :    0.034032
  12 H :    0.024156
  13 H :    0.040729
  14 H :    0.023337
  15 H :    0.037351
Sum of atomic charges:   -0.0000000

LOEWDIN ATOMIC CHARGES
----------------------
   0 C :    0.008529
   1 C :    0.036994
   2 C :    0.053875
   3 O :   -0.152959
   4 N :   -0.108478
   5 C :    0.005840
   6 C :    0.003530
   7 H :    0.004814
   8 H :    0.031010
   9 H :    0.018135
  10 H :    0.011326
  11 H :    0.017544
  12 H :    0.014197
  13 H :    0.022240
  14 H :    0.011214
  15 H :    0.022188

  Mayer bond orders larger than 0.1
B(  0-C ,  1-C ) :   1.0459 B(  0-C ,  4-N ) :   1.0036 B(  0-C ,  7-H ) :   0.8868
B(  0-C ,  8-H ) :   0.9175 B(  1-C ,  2-C ) :   1.0930 B(  1-C ,  3-O ) :   0.9819
B(  1-C ,  9-H ) :   0.9319 B(  2-C ,  3-O ) :   1.0050 B(  2-C , 10-H ) :   0.9275
B(  2-C , 11-H ) :   0.9384 B(  4-N ,  5-C ) :   0.9684 B(  4-N ,  6-C ) :   0.9613
B(  5-C ,  6-C ) :   1.0957 B(  5-C , 12-H ) :   0.9312 B(  5-C , 13-H ) :   0.9505
B(  6-C , 14-H ) :   0.9319 B(  6-C , 15-H ) :   0.9497

FINAL SINGLE POINT ENERGY      -325.182374609702

DIPOLE MOMENT
-------------
                                X             Y             Z
Electronic contribution:     -2.92053       2.18569       1.31064
Nuclear contribution   :      3.53297      -2.42220      -1.64768
                        -----------------------------------------
Total Dipole Moment    :      0.61244      -0.23650      -0.33704
                        -----------------------------------------
Magnitude (a.u.)       :      0.73798
Magnitude (Debye)      :      1.87579

                             ****ORCA TERMINATED NORMALLY****
TOTAL RUN TIME: 0 days 0 hours 0 minutes 7 seconds 119 msec
