                         Program Version 3.0.3 - RELEASE   -
|  1> ! RI PBE def2-SVP def2-SVP/J NBO PAL2
|  2> % maxcore 2000
|  3> % output
|  4>     # printlevel mini
|  5>     print[ P_Basis ] 0
|  6>     print[ P_SCFInfo ] 1
|  7>     print[ P_SCFIterInfo ] 1
|  8>     print[ P_OrbEn ] 0
|  9>     print[ P_Cartesian ] 0
| 10> end
| 11> *xyz 0 1
| 12>  C       -1.6880560000     0.7419020000     0.3815690000
| 13>  C       -1.0354640000    -0.4207950000    -0.2571710000
| 14>  C       -0.2241350000    -1.3809710000     0.5699150000
| 15>  O        1.1320490000    -1.3827570000     0.1658420000
| 16>  C        1.7038010000    -0.0947800000    -0.0078370000
| 17>  C        0.7763000000     1.0311750000     0.4053880000
| 18>  N       -0.4578870000     0.9211670000    -0.3601840000
| 19>  H       -1.6440440000     0.8050860000     1.4671690000
| 20>  H       -2.5706060000     1.1848090000    -0.0667520000
| 21>  H       -1.4318670000    -0.8053910000    -1.1926440000
| 22>  H       -0.5760210000    -2.4056080000     0.4396350000
| 23>  H       -0.3086600000    -1.1387810000     1.6376670000
| 24>  H        1.9594420000     0.0275050000    -1.0672200000
| 25>  H        2.6307930000    -0.0497610000     0.5737140000
| 26>  H        1.2534900000     1.9890100000     0.1823090000
| 27>  H        0.6012560000     1.0011800000     1.4898890000
| 28> *
| 29>
| 30>                          ****END OF INPUT****
 Total Charge           Charge          ....    0
 Multiplicity           Mult            ....    1
 Number of Electrons    NEL             ....   54
 Basis Dimension        Dim             ....  143

MULLIKEN ATOMIC CHARGES
-----------------------
   0 C :    0.097323
   1 C :   -0.157778
   2 C :    0.309218
   3 O :   -0.367022
   4 C :    0.206500
   5 C :    0.055004
   6 N :   -0.270087
   7 H :    0.026708
   8 H :    0.029541
   9 H :    0.022398
  10 H :    0.017614
  11 H :   -0.019370
  12 H :    0.012065
  13 H :    0.011049
  14 H :    0.022606
  15 H :    0.004231
Sum of atomic charges:    0.0000000

LOEWDIN ATOMIC CHARGES
----------------------
   0 C :    0.013430
   1 C :   -0.020679
   2 C :    0.055951
   3 O :   -0.159587
   4 C :    0.060927
   5 C :   -0.004738
   6 N :   -0.107694
   7 H :    0.013095
   8 H :    0.022551
   9 H :    0.019991
  10 H :    0.029006
  11 H :    0.005469
  12 H :    0.015357
  13 H :    0.018264
  14 H :    0.029628
  15 H :    0.009032

  Mayer bond orders larger than 0.1
B(  0-C ,  1-C ) :   1.0353 B(  0-C ,  6-N ) :   0.9831 B(  0-C ,  7-H ) :   0.9253
B(  0-C ,  8-H ) :   0.9394 B(  1-C ,  2-C ) :   1.0732 B(  1-C ,  6-N ) :   0.9303
B(  1-C ,  9-H ) :   0.9317 B(  2-C ,  3-O ) :   1.0157 B(  2-C , 10-H ) :   0.9370
B(  2-C , 11-H ) :   0.9039 B(  3-O ,  4-C ) :   1.0090 B(  4-C ,  5-C ) :   1.0969
B(  4-C , 12-H ) :   0.9296 B(  4-C , 13-H ) :   0.9356 B(  5-C ,  6-N ) :   1.0162
B(  5-C , 14-H ) :   0.9300 B(  5-C , 15-H ) :   0.9117

FINAL SINGLE POINT ENERGY      -325.209445800521

DIPOLE MOMENT
-------------
                                X             Y             Z
Electronic contribution:      0.33671      -1.22577      -1.57942
Nuclear contribution   :     -0.57854       1.41656       2.03651
                        -----------------------------------------
Total Dipole Moment    :     -0.24183       0.19079       0.45709
                        -----------------------------------------
Magnitude (a.u.)       :      0.55119
Magnitude (Debye)      :      1.40101

                             ****ORCA TERMINATED NORMALLY****
TOTAL RUN TIME: 0 days 0 hours 0 minutes 7 seconds 134 msec
