                         Program Version 3.0.3 - RELEASE   -
|  1> ! RI PBE def2-SVP def2-SVP/J NBO PAL2
|  2> % maxcore 2000
|  3> % output
|  4>     # printlevel mini
|  5>     print[ P_Basis ] 0
|  6>     print[ P_SCFInfo ] 1
|  7>     print[ P_SCFIterInfo ] 1
|  8>     print[ P_OrbEn ] 0
|  9>     print[ P_Cartesian ] 0
| 10> end
| 11> *xyz 0 1
| 12>  C       -0.8203370000    -0.0425520000    -1.1597240000
| 13>  C       -0.5724760000     1.0569530000    -0.1181460000
| 14>  C       -1.1397460000     0.0329850000     0.8656210000
| 15>  N       -0.6731630000    -1.0506630000    -0.0593740000
| 16>  C        0.7602550000    -1.2257450000     0.1931050000
| 17>  C        1.5648180000     0.0561400000    -0.0826450000
| 18>  O        0.8074370000     1.2376430000     0.1319890000
| 19>  H       -0.1365340000    -0.1446960000    -2.0041750000
| 20>  H       -1.8490900000    -0.0445340000    -1.5246850000
| 21>  H       -1.0145340000     2.0497920000    -0.2231200000
| 22>  H       -2.2311380000     0.0298890000     0.9214500000
| 23>  H       -0.7085670000     0.0122590000     1.8686800000
| 24>  H        1.1429730000    -2.0311320000    -0.4418430000
| 25>  H        0.8705460000    -1.5520650000     1.2306640000
| 26>  H        1.9264230000     0.0499910000    -1.1182720000
| 27>  H        2.4427210000     0.1197250000     0.5637760000
| 28> *
| 29>
| 30>                          ****END OF INPUT****
 Total Charge           Charge          ....    0
 Multiplicity           Mult            ....    1
 Number of Electrons    NEL             ....   54
 Basis Dimension        Dim             ....  143

MULLIKEN ATOMIC CHARGES
-----------------------
   0 C :    0.140607
   1 C :   -0.050894
   2 C :    0.191240
   3 N :   -0.337669
   4 C :    0.052791
   5 C :    0.187569
   6 O :   -0.321475
   7 H :    0.023241
   8 H :    0.024343
   9 H :    0.005181
  10 H :    0.019072
  11 H :    0.010770
  12 H :    0.020260
  13 H :    0.012742
  14 H :    0.003794
  15 H :    0.018427
Sum of atomic charges:   -0.0000000

LOEWDIN ATOMIC CHARGES
----------------------
   0 C :    0.014045
   1 C :    0.043732
   2 C :    0.014684
   3 N :   -0.126354
   4 C :   -0.008295
   5 C :    0.046735
   6 O :   -0.147279
   7 H :    0.016292
   8 H :    0.025750
   9 H :    0.008759
  10 H :    0.021471
  11 H :    0.012370
  12 H :    0.024033
  13 H :    0.021826
  14 H :    0.007783
  15 H :    0.024447

  Mayer bond orders larger than 0.1
B(  0-C ,  1-C ) :   1.0055 B(  0-C ,  3-N ) :   0.9814 B(  0-C ,  7-H ) :   0.9354
B(  0-C ,  8-H ) :   0.9359 B(  1-C ,  2-C ) :   1.0017 B(  1-C ,  6-O ) :   1.0283
B(  1-C ,  9-H ) :   0.9304 B(  2-C ,  3-N ) :   0.9705 B(  2-C , 10-H ) :   0.9354
B(  2-C , 11-H ) :   0.9232 B(  3-N ,  4-C ) :   1.0355 B(  4-C ,  5-C ) :   1.0528
B(  4-C , 12-H ) :   0.9395 B(  4-C , 13-H ) :   0.9292 B(  5-C ,  6-O ) :   1.0066
B(  5-C , 14-H ) :   0.9366 B(  5-C , 15-H ) :   0.9376

FINAL SINGLE POINT ENERGY      -325.201763414754

DIPOLE MOMENT
-------------
                                X             Y             Z
Electronic contribution:     -0.23690       1.55938       0.29252
Nuclear contribution   :      0.30042      -1.58360      -0.41812
                        -----------------------------------------
Total Dipole Moment    :      0.06353      -0.02422      -0.12559
                        -----------------------------------------
Magnitude (a.u.)       :      0.14281
Magnitude (Debye)      :      0.36301

                             ****ORCA TERMINATED NORMALLY****
TOTAL RUN TIME: 0 days 0 hours 0 minutes 7 seconds 234 msec
