                         Program Version 3.0.3 - RELEASE   -
|  1> ! RI PBE def2-SVP def2-SVP/J NBO PAL2
|  2> % maxcore 2000
|  3> % output
|  4>     # printlevel mini
|  5>     print[ P_Basis ] 0
|  6>     print[ P_SCFInfo ] 1
|  7>     print[ P_SCFIterInfo ] 1
|  8>     print[ P_OrbEn ] 0
|  9>     print[ P_Cartesian ] 0
| 10> end
| 11> *xyz 0 1
| 12>  C       -1.4523720000     0.7191710000     0.1237970000
| 13>  C       -1.4860890000    -0.7818370000    -0.1052700000
| 14>  N       -0.2928970000    -1.4542730000     0.3769950000
| 15>  C        0.8722550000    -1.1885450000    -0.4430870000
| 16>  C        1.6695580000     0.0265800000     0.0106130000
| 17>  O        0.9256100000     1.1804600000     0.3196860000
| 18>  C       -0.2311480000     1.4293140000    -0.4413290000
| 19>  H       -1.4864490000     0.9291730000     1.1969590000
| 20>  H       -2.3510160000     1.1573820000    -0.3258660000
| 21>  H       -1.6413480000    -0.9683230000    -1.1851590000
| 22>  H       -2.3496630000    -1.2024630000     0.4175940000
| 23>  H       -0.4642510000    -2.4489940000     0.4149040000
| 24>  H        0.5940260000    -1.0788230000    -1.5054660000
| 25>  H        1.5550580000    -2.0424210000    -0.3929860000
| 26>  H        2.4148490000     0.2522360000    -0.7689730000
| 27>  H        2.2099080000    -0.2175790000     0.9289670000
| 28>  H       -0.0792680000     1.1793940000    -1.5018380000
| 29>  H       -0.3900740000     2.5100370000    -0.3896290000
| 30> *
| 31>
| 32>                          ****END OF INPUT****
 Total Charge           Charge          ....    0
 Multiplicity           Mult            ....    1
 Number of Electrons    NEL             ....   56
 Basis Dimension        Dim             ....  153

MULLIKEN ATOMIC CHARGES
-----------------------
   0 C :    0.009032
   1 C :    0.065720
   2 N :   -0.217852
   3 C :   -0.000167
   4 C :    0.225749
   5 O :   -0.342408
   6 C :    0.146537
   7 H :    0.016367
   8 H :   -0.002538
   9 H :   -0.015698
  10 H :    0.003455
  11 H :    0.100552
  12 H :   -0.011061
  13 H :    0.015781
  14 H :   -0.004676
  15 H :    0.005929
  16 H :   -0.011465
  17 H :    0.016743
Sum of atomic charges:    0.0000000

LOEWDIN ATOMIC CHARGES
----------------------
   0 C :   -0.064526
   1 C :    0.008375
   2 N :   -0.094296
   3 C :   -0.018439
   4 C :    0.051324
   5 O :   -0.148975
   6 C :    0.053395
   7 H :    0.029505
   8 H :    0.027303
   9 H :   -0.003147
  10 H :    0.021782
  11 H :    0.057342
  12 H :   -0.001623
  13 H :    0.030640
  14 H :    0.005433
  15 H :    0.019683
  16 H :    0.003016
  17 H :    0.023209

  Mayer bond orders larger than 0.1
B(  0-C ,  1-C ) :   1.1061 B(  0-C ,  6-C ) :   1.0997 B(  0-C ,  7-H ) :   0.9087
B(  0-C ,  8-H ) :   0.9129 B(  1-C ,  2-N ) :   1.0714 B(  1-C ,  9-H ) :   0.9146
B(  1-C , 10-H ) :   0.9336 B(  2-N ,  3-C ) :   1.0866 B(  2-N , 11-H ) :   0.9438
B(  3-C ,  4-C ) :   1.0585 B(  3-C , 12-H ) :   0.9043 B(  3-C , 13-H ) :   0.9289
B(  4-C ,  5-O ) :   1.0385 B(  4-C , 14-H ) :   0.9320 B(  4-C , 15-H ) :   0.9321
B(  5-O ,  6-C ) :   1.0354 B(  6-C , 16-H ) :   0.9228 B(  6-C , 17-H ) :   0.9381

FINAL SINGLE POINT ENERGY      -326.442899525496

DIPOLE MOMENT
-------------
                                X             Y             Z
Electronic contribution:      1.70320       1.09463       2.10080
Nuclear contribution   :     -1.97198      -1.70230      -2.60422
                        -----------------------------------------
Total Dipole Moment    :     -0.26879      -0.60768      -0.50342
                        -----------------------------------------
Magnitude (a.u.)       :      0.83364
Magnitude (Debye)      :      2.11894

                             ****ORCA TERMINATED NORMALLY****
TOTAL RUN TIME: 0 days 0 hours 0 minutes 7 seconds 872 msec
