                         Program Version 3.0.3 - RELEASE   -
|  1> ! RI PBE def2-SVP def2-SVP/J NBO PAL2
|  2> % maxcore 2000
|  3> % output
|  4>     # printlevel mini
|  5>     print[ P_Basis ] 0
|  6>     print[ P_SCFInfo ] 1
|  7>     print[ P_SCFIterInfo ] 1
|  8>     print[ P_OrbEn ] 0
|  9>     print[ P_Cartesian ] 0
| 10> end
| 11> *xyz 0 1
| 12>  C        1.7155330000    -0.1283950000    -0.0980760000
| 13>  C        0.8305270000    -1.1883830000     0.5336110000
| 14>  N       -0.3944620000    -1.3866410000    -0.2265780000
| 15>  C       -1.4003440000    -0.4635780000    -0.2434990000
| 16>  N       -1.4055940000     0.7905350000     0.0005640000
| 17>  O       -0.1647940000     1.3516790000     0.3777130000
| 18>  C        0.8822940000     1.0742690000    -0.5321360000
| 19>  H        2.2429190000    -0.5336790000    -0.9673560000
| 20>  H        2.4722110000     0.1731630000     0.6315460000
| 21>  H        0.5938160000    -0.9086820000     1.5649970000
| 22>  H        1.3522940000    -2.1465410000     0.5688300000
| 23>  H       -0.7129340000    -2.3366680000    -0.3031530000
| 24>  H       -2.3690340000    -0.8493460000    -0.5524400000
| 25>  H        1.4986810000     1.9764880000    -0.5757710000
| 26>  H        0.4570960000     0.9148890000    -1.5281330000
| 27> *
| 28>
| 29>                          ****END OF INPUT****
 Total Charge           Charge          ....    0
 Multiplicity           Mult            ....    1
 Number of Electrons    NEL             ....   54
 Basis Dimension        Dim             ....  138

MULLIKEN ATOMIC CHARGES
-----------------------
   0 C :    0.002425
   1 C :    0.067719
   2 N :   -0.155084
   3 C :    0.008619
   4 N :   -0.032565
   5 O :   -0.301425
   6 C :    0.134424
   7 H :    0.009984
   8 H :    0.021808
   9 H :    0.040402
  10 H :    0.017036
  11 H :    0.117949
  12 H :    0.019563
  13 H :    0.024646
  14 H :    0.024499
Sum of atomic charges:   -0.0000000

LOEWDIN ATOMIC CHARGES
----------------------
   0 C :   -0.066896
   1 C :    0.021060
   2 N :   -0.023281
   3 C :   -0.032054
   4 N :   -0.069426
   5 O :   -0.127212
   6 C :    0.045442
   7 H :    0.027054
   8 H :    0.030296
   9 H :    0.023848
  10 H :    0.028344
  11 H :    0.075865
  12 H :    0.027873
  13 H :    0.024683
  14 H :    0.014403

  Mayer bond orders larger than 0.1
B(  0-C ,  1-C ) :   1.0965 B(  0-C ,  6-C ) :   1.0893 B(  0-C ,  7-H ) :   0.9198
B(  0-C ,  8-H ) :   0.9292 B(  1-C ,  2-N ) :   1.0172 B(  1-C ,  9-H ) :   0.9339
B(  1-C , 10-H ) :   0.9409 B(  2-N ,  3-C ) :   1.1709 B(  2-N ,  4-N ) :   0.1269
B(  2-N , 11-H ) :   0.9324 B(  3-C ,  4-N ) :   1.8683 B(  3-C , 12-H ) :   0.9468
B(  4-N ,  5-O ) :   0.9029 B(  5-O ,  6-C ) :   1.0127 B(  6-C , 13-H ) :   0.9475
B(  6-C , 14-H ) :   0.9321

FINAL SINGLE POINT ENERGY      -341.228042530333

DIPOLE MOMENT
-------------
                                X             Y             Z
Electronic contribution:     -4.31506       2.04846       0.62159
Nuclear contribution   :      5.02345      -3.54364      -0.90642
                        -----------------------------------------
Total Dipole Moment    :      0.70839      -1.49518      -0.28484
                        -----------------------------------------
Magnitude (a.u.)       :      1.67884
Magnitude (Debye)      :      4.26727

                             ****ORCA TERMINATED NORMALLY****
TOTAL RUN TIME: 0 days 0 hours 0 minutes 7 seconds 208 msec
