                         Program Version 3.0.3 - RELEASE   -
|  1> ! RI PBE def2-SVP def2-SVP/J NBO PAL2
|  2> % maxcore 2000
|  3> % output
|  4>     # printlevel mini
|  5>     print[ P_Basis ] 0
|  6>     print[ P_SCFInfo ] 1
|  7>     print[ P_SCFIterInfo ] 1
|  8>     print[ P_OrbEn ] 0
|  9>     print[ P_Cartesian ] 0
| 10> end
| 11> *xyz 0 1
| 12>  C        1.7105080000    -0.0821630000    -0.0195890000
| 13>  C        0.7713630000    -1.1831450000     0.4598150000
| 14>  N       -0.3666650000    -1.3428490000    -0.4329680000
| 15>  N       -1.4484040000    -0.5142600000    -0.2031900000
| 16>  C       -1.2935750000     0.7090040000     0.0818530000
| 17>  O       -0.1713090000     1.4620080000     0.1830550000
| 18>  C        0.9311390000     1.0617050000    -0.6306700000
| 19>  H        2.3964240000    -0.4673020000    -0.7800530000
| 20>  H        2.3169600000     0.2718770000     0.8187090000
| 21>  H        0.4243850000    -0.9614880000     1.4788910000
| 22>  H        1.3003900000    -2.1383780000     0.4997520000
| 23>  H       -0.7242010000    -2.2851220000    -0.4072360000
| 24>  H       -2.1848430000     1.2919100000     0.2894670000
| 25>  H        1.5517610000     1.9528100000    -0.7368310000
| 26>  H        0.5562650000     0.7854730000    -1.6196040000
| 27> *
| 28>
| 29>                          ****END OF INPUT****
 Total Charge           Charge          ....    0
 Multiplicity           Mult            ....    1
 Number of Electrons    NEL             ....   54
 Basis Dimension        Dim             ....  138

MULLIKEN ATOMIC CHARGES
-----------------------
   0 C :    0.000502
   1 C :    0.041296
   2 N :   -0.130589
   3 N :   -0.117303
   4 C :    0.064468
   5 O :   -0.283175
   6 C :    0.153031
   7 H :    0.019633
   8 H :    0.019763
   9 H :    0.022661
  10 H :    0.016964
  11 H :    0.115053
  12 H :    0.014996
  13 H :    0.027505
  14 H :    0.035195
Sum of atomic charges:    0.0000000

LOEWDIN ATOMIC CHARGES
----------------------
   0 C :   -0.064696
   1 C :    0.000524
   2 N :   -0.027797
   3 N :   -0.093041
   4 C :   -0.015403
   5 O :   -0.099535
   6 C :    0.068568
   7 H :    0.032900
   8 H :    0.029386
   9 H :    0.014211
  10 H :    0.027789
  11 H :    0.060434
  12 H :    0.017862
  13 H :    0.026865
  14 H :    0.021932

  Mayer bond orders larger than 0.1
B(  0-C ,  1-C ) :   1.0922 B(  0-C ,  6-C ) :   1.1163 B(  0-C ,  7-H ) :   0.9212
B(  0-C ,  8-H ) :   0.9265 B(  1-C ,  2-N ) :   1.0602 B(  1-C ,  9-H ) :   0.9182
B(  1-C , 10-H ) :   0.9386 B(  2-N ,  3-N ) :   1.0417 B(  2-N , 11-H ) :   0.9484
B(  3-N ,  4-C ) :   1.8914 B(  4-C ,  5-O ) :   1.1170 B(  4-C , 12-H ) :   0.9630
B(  5-O ,  6-C ) :   0.9640 B(  6-C , 13-H ) :   0.9475 B(  6-C , 14-H ) :   0.9232

FINAL SINGLE POINT ENERGY      -341.249881321925

DIPOLE MOMENT
-------------
                                X             Y             Z
Electronic contribution:     -4.25612       1.25715      -0.10500
Nuclear contribution   :      5.05237      -1.58484       0.15327
                        -----------------------------------------
Total Dipole Moment    :      0.79625      -0.32769       0.04827
                        -----------------------------------------
Magnitude (a.u.)       :      0.86240
Magnitude (Debye)      :      2.19205

                             ****ORCA TERMINATED NORMALLY****
TOTAL RUN TIME: 0 days 0 hours 0 minutes 6 seconds 982 msec
