                         Program Version 3.0.3 - RELEASE   -
|  1> ! RI PBE def2-SVP def2-SVP/J NBO PAL2
|  2> % maxcore 2000
|  3> % output
|  4>     # printlevel mini
|  5>     print[ P_Basis ] 0
|  6>     print[ P_SCFInfo ] 1
|  7>     print[ P_SCFIterInfo ] 1
|  8>     print[ P_OrbEn ] 0
|  9>     print[ P_Cartesian ] 0
| 10> end
| 11> *xyz 0 1
| 12>  C        2.0894630000    -0.1309640000    -0.0464910000
| 13>  C        0.7762560000    -0.8510120000     0.1688950000
| 14>  C       -0.4069140000    -1.4395780000    -0.5381590000
| 15>  C       -1.4759740000    -0.4209390000    -0.1230830000
| 16>  N       -1.3524000000     0.7482290000     0.3889210000
| 17>  O       -0.0801740000     1.3438610000     0.5027400000
| 18>  C        0.7918050000     0.5726070000    -0.2533560000
| 19>  H        2.6874760000    -0.2411250000    -0.9445810000
| 20>  H        2.6639520000    -0.0134760000     0.8638900000
| 21>  H        0.6083410000    -0.8945120000     1.2430620000
| 22>  H       -0.7095960000    -2.4316310000    -0.1872820000
| 23>  H       -0.3095390000    -1.4939470000    -1.6262720000
| 24>  H       -2.5202940000    -0.7258110000    -0.1506690000
| 25>  H        0.5771790000     0.7023970000    -1.3143040000
| 26> *
| 27>
| 28>                          ****END OF INPUT****
 Total Charge           Charge          ....    0
 Multiplicity           Mult            ....    1
 Number of Electrons    NEL             ....   52
 Basis Dimension        Dim             ....  133

MULLIKEN ATOMIC CHARGES
-----------------------
   0 C :    0.075725
   1 C :   -0.171706
   2 C :    0.152479
   3 C :   -0.129230
   4 N :    0.026762
   5 O :   -0.209290
   6 C :    0.013577
   7 H :    0.033063
   8 H :    0.037372
   9 H :    0.050322
  10 H :    0.018249
  11 H :    0.037212
  12 H :    0.030243
  13 H :    0.035222
Sum of atomic charges:    0.0000000

LOEWDIN ATOMIC CHARGES
----------------------
   0 C :   -0.015328
   1 C :   -0.076998
   2 C :   -0.042800
   3 C :   -0.050650
   4 N :    0.004078
   5 O :   -0.063949
   6 C :    0.003964
   7 H :    0.037152
   8 H :    0.042463
   9 H :    0.037385
  10 H :    0.034013
  11 H :    0.040290
  12 H :    0.032006
  13 H :    0.018374

  Mayer bond orders larger than 0.1
B(  0-C ,  1-C ) :   1.0255 B(  0-C ,  6-C ) :   1.0461 B(  0-C ,  7-H ) :   0.9169
B(  0-C ,  8-H ) :   0.9111 B(  1-C ,  2-C ) :   1.0720 B(  1-C ,  6-C ) :   0.8778
B(  1-C ,  9-H ) :   0.9492 B(  2-C ,  3-C ) :   0.9597 B(  2-C , 10-H ) :   0.9069
B(  2-C , 11-H ) :   0.9142 B(  3-C ,  4-N ) :   1.9431 B(  3-C ,  5-O ) :   0.1166
B(  3-C , 12-H ) :   0.9443 B(  4-N ,  5-O ) :   0.9628 B(  5-O ,  6-C ) :   1.0390
B(  6-C , 13-H ) :   0.9533

FINAL SINGLE POINT ENERGY      -323.935281155775

DIPOLE MOMENT
-------------
                                X             Y             Z
Electronic contribution:     -2.02670       3.76294       1.58205
Nuclear contribution   :      2.52472      -4.73033      -2.10075
                        -----------------------------------------
Total Dipole Moment    :      0.49803      -0.96738      -0.51870
                        -----------------------------------------
Magnitude (a.u.)       :      1.20537
Magnitude (Debye)      :      3.06381

                             ****ORCA TERMINATED NORMALLY****
TOTAL RUN TIME: 0 days 0 hours 0 minutes 6 seconds 767 msec
