                         Program Version 3.0.3 - RELEASE   -
|  1> ! RI PBE def2-SVP def2-SVP/J NBO PAL2
|  2> % maxcore 2000
|  3> % output
|  4>     # printlevel mini
|  5>     print[ P_Basis ] 0
|  6>     print[ P_SCFInfo ] 1
|  7>     print[ P_SCFIterInfo ] 1
|  8>     print[ P_OrbEn ] 0
|  9>     print[ P_Cartesian ] 0
| 10> end
| 11> *xyz 0 1
| 12>  C       -1.6312720000     0.8062580000     0.5175940000
| 13>  C       -1.1256970000    -0.3440170000    -0.3048220000
| 14>  N       -0.2841540000    -1.3245460000     0.3100700000
| 15>  C        1.0001860000    -1.3181490000    -0.3652200000
| 16>  C        1.6972360000     0.0104920000    -0.0572910000
| 17>  O        0.7931580000     1.0639860000     0.2396860000
| 18>  C       -0.4458360000     0.9874390000    -0.3758310000
| 19>  H       -1.4220840000     0.7649610000     1.5785990000
| 20>  H       -2.5645010000     1.2741450000     0.2291590000
| 21>  H       -1.7120670000    -0.6497330000    -1.1719070000
| 22>  H       -0.7091710000    -2.2397730000     0.3145670000
| 23>  H        0.8952510000    -1.4484520000    -1.4547270000
| 24>  H        1.6199800000    -2.1390960000     0.0029130000
| 25>  H        2.3501670000     0.2946990000    -0.8929720000
| 26>  H        2.3162870000    -0.0878070000     0.8374260000
| 27>  H       -0.5524930000     1.5901830000    -1.2752340000
| 28> *
| 29>
| 30>                          ****END OF INPUT****
 Total Charge           Charge          ....    0
 Multiplicity           Mult            ....    1
 Number of Electrons    NEL             ....   54
 Basis Dimension        Dim             ....  143

MULLIKEN ATOMIC CHARGES
-----------------------
   0 C :    0.048868
   1 C :   -0.077117
   2 N :   -0.176322
   3 C :    0.034005
   4 C :    0.219280
   5 O :   -0.308407
   6 C :    0.064100
   7 H :    0.033077
   8 H :    0.019012
   9 H :    0.008960
  10 H :    0.101743
  11 H :   -0.007083
  12 H :    0.013574
  13 H :   -0.001357
  14 H :    0.015686
  15 H :    0.011980
Sum of atomic charges:    0.0000000

LOEWDIN ATOMIC CHARGES
----------------------
   0 C :   -0.055445
   1 C :   -0.018891
   2 N :   -0.079728
   3 C :   -0.004130
   4 C :    0.063571
   5 O :   -0.127224
   6 C :    0.034155
   7 H :    0.036239
   8 H :    0.026670
   9 H :    0.007059
  10 H :    0.059696
  11 H :   -0.001465
  12 H :    0.025201
  13 H :    0.006545
  14 H :    0.020098
  15 H :    0.007647

  Mayer bond orders larger than 0.1
B(  0-C ,  1-C ) :   0.9858 B(  0-C ,  6-C ) :   0.9971 B(  0-C ,  7-H ) :   0.9160
B(  0-C ,  8-H ) :   0.9315 B(  1-C ,  2-N ) :   1.1257 B(  1-C ,  6-C ) :   0.9506
B(  1-C ,  9-H ) :   0.9271 B(  2-N ,  3-C ) :   1.0548 B(  2-N , 10-H ) :   0.9453
B(  3-C ,  4-C ) :   1.0773 B(  3-C , 11-H ) :   0.9159 B(  3-C , 12-H ) :   0.9370
B(  4-C ,  5-O ) :   1.0126 B(  4-C , 13-H ) :   0.9386 B(  4-C , 14-H ) :   0.9399
B(  5-O ,  6-C ) :   1.1053 B(  6-C , 15-H ) :   0.9421

FINAL SINGLE POINT ENERGY      -325.214941958423

DIPOLE MOMENT
-------------
                                X             Y             Z
Electronic contribution:     -0.09564       1.56774       1.13947
Nuclear contribution   :     -0.02656      -2.25688      -1.65370
                        -----------------------------------------
Total Dipole Moment    :     -0.12219      -0.68913      -0.51423
                        -----------------------------------------
Magnitude (a.u.)       :      0.86849
Magnitude (Debye)      :      2.20752

                             ****ORCA TERMINATED NORMALLY****
TOTAL RUN TIME: 0 days 0 hours 0 minutes 7 seconds 120 msec
