                         Program Version 3.0.3 - RELEASE   -
|  1> ! RI PBE def2-SVP def2-SVP/J NBO PAL2
|  2> % maxcore 2000
|  3> % output
|  4>     # printlevel mini
|  5>     print[ P_Basis ] 0
|  6>     print[ P_SCFInfo ] 1
|  7>     print[ P_SCFIterInfo ] 1
|  8>     print[ P_OrbEn ] 0
|  9>     print[ P_Cartesian ] 0
| 10> end
| 11> *xyz 0 1
| 12>  C        1.6670730000    -0.1275070000    -0.0576850000
| 13>  C        0.7161410000    -1.1696650000     0.4918920000
| 14>  O       -0.4141280000    -1.4251530000    -0.3234690000
| 15>  C       -1.4313680000    -0.5434810000    -0.1789530000
| 16>  C       -1.3513600000     0.7282810000     0.2031750000
| 17>  C       -0.0926430000     1.5305700000     0.3941060000
| 18>  N        0.9774730000     1.0753430000    -0.4715490000
| 19>  H        2.1994060000    -0.5333500000    -0.9239310000
| 20>  H        2.4174950000     0.0403360000     0.7369480000
| 21>  H        0.3598580000    -0.8771220000     1.4864240000
| 22>  H        1.2444660000    -2.1206270000     0.5890490000
| 23>  H       -2.3855500000    -1.0043070000    -0.4129360000
| 24>  H       -2.2936200000     1.2528390000     0.3151670000
| 25>  H        0.1909690000     1.5686140000     1.4627600000
| 26>  H       -0.3161340000     2.5633760000     0.1135730000
| 27>  H        1.6376220000     1.8182610000    -0.6489500000
| 28> *
| 29>
| 30>                          ****END OF INPUT****
 Total Charge           Charge          ....    0
 Multiplicity           Mult            ....    1
 Number of Electrons    NEL             ....   54
 Basis Dimension        Dim             ....  143

MULLIKEN ATOMIC CHARGES
-----------------------
   0 C :    0.110137
   1 C :    0.118752
   2 O :   -0.268538
   3 C :    0.121173
   4 C :   -0.134732
   5 C :    0.146892
   6 N :   -0.247219
   7 H :    0.011753
   8 H :   -0.006214
   9 H :    0.018581
  10 H :    0.024467
  11 H :   -0.001005
  12 H :   -0.003383
  13 H :    0.000221
  14 H :    0.006057
  15 H :    0.103058
Sum of atomic charges:    0.0000000

LOEWDIN ATOMIC CHARGES
----------------------
   0 C :   -0.004139
   1 C :    0.059570
   2 O :   -0.079766
   3 C :    0.027349
   4 C :   -0.125420
   5 C :    0.007638
   6 N :   -0.100801
   7 H :    0.021853
   8 H :    0.006624
   9 H :    0.016760
  10 H :    0.028308
  11 H :    0.020033
  12 H :    0.030182
  13 H :    0.003310
  14 H :    0.030761
  15 H :    0.057737

  Mayer bond orders larger than 0.1
B(  0-C ,  1-C ) :   1.0902 B(  0-C ,  6-N ) :   1.0844 B(  0-C ,  7-H ) :   0.9241
B(  0-C ,  8-H ) :   0.9133 B(  1-C ,  2-O ) :   0.9849 B(  1-C ,  9-H ) :   0.9259
B(  1-C , 10-H ) :   0.9418 B(  2-O ,  3-C ) :   1.1406 B(  3-C ,  4-C ) :   1.8341
B(  3-C , 11-H ) :   0.9637 B(  4-C ,  5-C ) :   1.0208 B(  4-C , 12-H ) :   0.9391
B(  5-C ,  6-N ) :   1.1012 B(  5-C , 13-H ) :   0.9063 B(  5-C , 14-H ) :   0.9253
B(  6-N , 15-H ) :   0.9455

FINAL SINGLE POINT ENERGY      -325.226875306686

DIPOLE MOMENT
-------------
                                X             Y             Z
Electronic contribution:     -2.01849      -2.14520      -1.98080
Nuclear contribution   :      2.50348       2.52425       2.44027
                        -----------------------------------------
Total Dipole Moment    :      0.48498       0.37905       0.45947
                        -----------------------------------------
Magnitude (a.u.)       :      0.76812
Magnitude (Debye)      :      1.95240

                             ****ORCA TERMINATED NORMALLY****
TOTAL RUN TIME: 0 days 0 hours 0 minutes 7 seconds 608 msec
