                         Program Version 3.0.3 - RELEASE   -
|  1> ! RI PBE def2-SVP def2-SVP/J NBO PAL2
|  2> % maxcore 2000
|  3> % output
|  4>     # printlevel mini
|  5>     print[ P_Basis ] 0
|  6>     print[ P_SCFInfo ] 1
|  7>     print[ P_SCFIterInfo ] 1
|  8>     print[ P_OrbEn ] 0
|  9>     print[ P_Cartesian ] 0
| 10> end
| 11> *xyz 0 1
| 12>  C        0.7611100000    -1.1809670000     0.4327350000
| 13>  C        1.6922840000    -0.0735720000    -0.0243570000
| 14>  O        1.0097850000     1.0766440000    -0.4579450000
| 15>  C       -0.0680700000     1.4615350000     0.3507070000
| 16>  C       -1.3229790000     0.6460120000     0.1350090000
| 17>  N       -1.4581160000    -0.5557260000    -0.2584640000
| 18>  N       -0.3690160000    -1.3471600000    -0.4603730000
| 19>  H        0.4005970000    -0.9859710000     1.4538710000
| 20>  H        1.3220330000    -2.1189970000     0.4640460000
| 21>  H        2.2776870000    -0.4042460000    -0.8849700000
| 22>  H        2.3892420000     0.1714290000     0.7923580000
| 23>  H       -0.2999310000     2.4931640000     0.0713560000
| 24>  H        0.2107950000     1.4857440000     1.4166560000
| 25>  H       -2.2600150000     1.1840530000     0.2670870000
| 26>  H       -0.6885170000    -2.3009320000    -0.5166960000
| 27> *
| 28>
| 29>                          ****END OF INPUT****
 Total Charge           Charge          ....    0
 Multiplicity           Mult            ....    1
 Number of Electrons    NEL             ....   54
 Basis Dimension        Dim             ....  138

MULLIKEN ATOMIC CHARGES
-----------------------
   0 C :   -0.018757
   1 C :    0.225993
   2 O :   -0.334800
   3 C :    0.207151
   4 C :   -0.127217
   5 N :   -0.087762
   6 N :   -0.088211
   7 H :    0.020505
   8 H :    0.021679
   9 H :    0.014771
  10 H :    0.002617
  11 H :    0.024055
  12 H :    0.012719
  13 H :    0.010716
  14 H :    0.116540
Sum of atomic charges:    0.0000000

LOEWDIN ATOMIC CHARGES
----------------------
   0 C :   -0.022343
   1 C :    0.051584
   2 O :   -0.138755
   3 C :    0.032815
   4 C :   -0.088296
   5 N :   -0.042424
   6 N :   -0.002425
   7 H :    0.014597
   8 H :    0.033556
   9 H :    0.024145
  10 H :    0.008184
  11 H :    0.033336
  12 H :    0.013043
  13 H :    0.020534
  14 H :    0.062450

  Mayer bond orders larger than 0.1
B(  0-C ,  1-C ) :   1.0622 B(  0-C ,  6-N ) :   1.0320 B(  0-C ,  7-H ) :   0.9236
B(  0-C ,  8-H ) :   0.9254 B(  1-C ,  2-O ) :   1.0491 B(  1-C ,  9-H ) :   0.9313
B(  1-C , 10-H ) :   0.9359 B(  2-O ,  3-C ) :   1.0323 B(  3-C ,  4-C ) :   0.9704
B(  3-C , 11-H ) :   0.9289 B(  3-C , 12-H ) :   0.9183 B(  4-C ,  5-N ) :   1.9370
B(  4-C ,  6-N ) :   0.1138 B(  4-C , 13-H ) :   0.9516 B(  5-N ,  6-N ) :   1.0928
B(  6-N , 14-H ) :   0.9463

FINAL SINGLE POINT ENERGY      -341.235848131421

DIPOLE MOMENT
-------------
                                X             Y             Z
Electronic contribution:     -2.15860       0.05707      -2.42924
Nuclear contribution   :      2.64545      -0.46628       3.13197
                        -----------------------------------------
Total Dipole Moment    :      0.48684      -0.40921       0.70273
                        -----------------------------------------
Magnitude (a.u.)       :      0.94779
Magnitude (Debye)      :      2.40909

                             ****ORCA TERMINATED NORMALLY****
TOTAL RUN TIME: 0 days 0 hours 0 minutes 7 seconds 189 msec
