                         Program Version 3.0.3 - RELEASE   -
|  1> ! RI PBE def2-SVP def2-SVP/J NBO PAL2
|  2> % maxcore 2000
|  3> % output
|  4>     # printlevel mini
|  5>     print[ P_Basis ] 0
|  6>     print[ P_SCFInfo ] 1
|  7>     print[ P_SCFIterInfo ] 1
|  8>     print[ P_OrbEn ] 0
|  9>     print[ P_Cartesian ] 0
| 10> end
| 11> *xyz 0 1
| 12>  C        1.6836460000    -0.1577890000    -0.0949270000
| 13>  C        0.7725890000    -1.1428760000     0.5973580000
| 14>  O       -0.4157520000    -1.3963230000    -0.1615720000
| 15>  C       -1.3803190000    -0.4677550000    -0.1239310000
| 16>  N       -1.3686050000     0.7803290000     0.1164300000
| 17>  O       -0.1393430000     1.4008810000     0.3597840000
| 18>  C        0.8808270000     1.0496280000    -0.5611050000
| 19>  H        2.1812820000    -0.6222000000    -0.9511690000
| 20>  H        2.4615660000     0.1430350000     0.6127040000
| 21>  H        0.4823510000    -0.7756430000     1.5843110000
| 22>  H        1.2452040000    -2.1181830000     0.7156200000
| 23>  H       -2.3557970000    -0.8825910000    -0.3600850000
| 24>  H        1.5150340000     1.9345720000    -0.6498390000
| 25>  H        0.4258980000     0.8642250000    -1.5393790000
| 26> *
| 27>
| 28>                          ****END OF INPUT****
 Total Charge           Charge          ....    0
 Multiplicity           Mult            ....    1
 Number of Electrons    NEL             ....   54
 Basis Dimension        Dim             ....  133

MULLIKEN ATOMIC CHARGES
-----------------------
   0 C :   -0.019538
   1 C :    0.147450
   2 O :   -0.267192
   3 C :    0.077313
   4 N :   -0.002355
   5 O :   -0.290383
   6 C :    0.124868
   7 H :    0.023911
   8 H :    0.030503
   9 H :    0.043413
  10 H :    0.032820
  11 H :    0.032585
  12 H :    0.032773
  13 H :    0.033831
Sum of atomic charges:   -0.0000000

LOEWDIN ATOMIC CHARGES
----------------------
   0 C :   -0.074787
   1 C :    0.074892
   2 O :   -0.077387
   3 C :   -0.008984
   4 N :   -0.050095
   5 O :   -0.111236
   6 C :    0.048246
   7 H :    0.032678
   8 H :    0.036786
   9 H :    0.024719
  10 H :    0.029692
  11 H :    0.028991
  12 H :    0.029228
  13 H :    0.017257

  Mayer bond orders larger than 0.1
B(  0-C ,  1-C ) :   1.1081 B(  0-C ,  6-C ) :   1.0816 B(  0-C ,  7-H ) :   0.9210
B(  0-C ,  8-H ) :   0.9231 B(  1-C ,  2-O ) :   0.9374 B(  1-C ,  9-H ) :   0.9312
B(  1-C , 10-H ) :   0.9476 B(  2-O ,  3-C ) :   1.1588 B(  3-C ,  4-N ) :   1.8835
B(  3-C , 11-H ) :   0.9540 B(  4-N ,  5-O ) :   0.9231 B(  5-O ,  6-C ) :   1.0004
B(  6-C , 12-H ) :   0.9470 B(  6-C , 13-H ) :   0.9316

FINAL SINGLE POINT ENERGY      -361.060464258333

DIPOLE MOMENT
-------------
                                X             Y             Z
Electronic contribution:     -4.53203       0.73551       0.50079
Nuclear contribution   :      5.47661      -1.42120      -0.67958
                        -----------------------------------------
Total Dipole Moment    :      0.94458      -0.68569      -0.17879
                        -----------------------------------------
Magnitude (a.u.)       :      1.18084
Magnitude (Debye)      :      3.00145

                             ****ORCA TERMINATED NORMALLY****
TOTAL RUN TIME: 0 days 0 hours 0 minutes 6 seconds 810 msec
