                         Program Version 3.0.3 - RELEASE   -
|  1> ! RI PBE def2-SVP def2-SVP/J NBO PAL2
|  2> % maxcore 2000
|  3> % output
|  4>     # printlevel mini
|  5>     print[ P_Basis ] 0
|  6>     print[ P_SCFInfo ] 1
|  7>     print[ P_SCFIterInfo ] 1
|  8>     print[ P_OrbEn ] 0
|  9>     print[ P_Cartesian ] 0
| 10> end
| 11> *xyz 0 1
| 12>  C        1.7006550000    -0.1207340000    -0.0434660000
| 13>  C        0.7180000000    -1.1380490000     0.4949150000
| 14>  O       -0.3958140000    -1.3733650000    -0.3495970000
| 15>  N       -1.4909100000    -0.5583400000    -0.1510960000
| 16>  C       -1.3178670000     0.6500780000     0.1974970000
| 17>  C       -0.0782560000     1.4949340000     0.3541440000
| 18>  N        1.0041180000     1.0631610000    -0.4931590000
| 19>  H        2.2482690000    -0.5441990000    -0.8905570000
| 20>  H        2.4330620000     0.0721190000     0.7608350000
| 21>  H        0.3470900000    -0.8451190000     1.4839090000
| 22>  H        1.2132510000    -2.1060240000     0.6020630000
| 23>  H       -2.2641290000     1.1639210000     0.3580160000
| 24>  H        0.1767710000     1.5716890000     1.4285940000
| 25>  H       -0.3625020000     2.5052400000     0.0476230000
| 26>  H        1.6434720000     1.8210900000    -0.6812220000
| 27> *
| 28>
| 29>                          ****END OF INPUT****
 Total Charge           Charge          ....    0
 Multiplicity           Mult            ....    1
 Number of Electrons    NEL             ....   54
 Basis Dimension        Dim             ....  138

MULLIKEN ATOMIC CHARGES
-----------------------
   0 C :    0.121351
   1 C :    0.095220
   2 O :   -0.261951
   3 N :    0.043722
   4 C :   -0.106649
   5 C :    0.113451
   6 N :   -0.243545
   7 H :    0.016074
   8 H :   -0.001562
   9 H :    0.023385
  10 H :    0.032658
  11 H :    0.026434
  12 H :    0.014642
  13 H :    0.018525
  14 H :    0.108243
Sum of atomic charges:    0.0000000

LOEWDIN ATOMIC CHARGES
----------------------
   0 C :   -0.005460
   1 C :    0.038960
   2 O :   -0.088669
   3 N :    0.005704
   4 C :   -0.063560
   5 C :   -0.012652
   6 N :   -0.095602
   7 H :    0.024214
   8 H :    0.007898
   9 H :    0.015506
  10 H :    0.032393
  11 H :    0.031280
  12 H :    0.010946
  13 H :    0.037733
  14 H :    0.061310

  Mayer bond orders larger than 0.1
B(  0-C ,  1-C ) :   1.0827 B(  0-C ,  6-N ) :   1.0736 B(  0-C ,  7-H ) :   0.9237
B(  0-C ,  8-H ) :   0.9180 B(  1-C ,  2-O ) :   0.9790 B(  1-C ,  9-H ) :   0.9291
B(  1-C , 10-H ) :   0.9397 B(  2-O ,  3-N ) :   0.9598 B(  2-O ,  4-C ) :   0.1073
B(  3-N ,  4-C ) :   1.9834 B(  4-C ,  5-C ) :   0.9756 B(  4-C , 11-H ) :   0.9476
B(  5-C ,  6-N ) :   1.0886 B(  5-C , 12-H ) :   0.9022 B(  5-C , 13-H ) :   0.9205
B(  6-N , 14-H ) :   0.9434

FINAL SINGLE POINT ENERGY      -341.208214937678

DIPOLE MOMENT
-------------
                                X             Y             Z
Electronic contribution:     -3.71473      -2.47064      -2.17968
Nuclear contribution   :      4.74401       3.44054       2.86582
                        -----------------------------------------
Total Dipole Moment    :      1.02927       0.96990       0.68614
                        -----------------------------------------
Magnitude (a.u.)       :      1.57191
Magnitude (Debye)      :      3.99549

                             ****ORCA TERMINATED NORMALLY****
TOTAL RUN TIME: 0 days 0 hours 0 minutes 7 seconds 192 msec
