                         Program Version 3.0.3 - RELEASE   -
|  1> ! RI PBE def2-SVP def2-SVP/J NBO PAL2
|  2> % maxcore 2000
|  3> % output
|  4>     # printlevel mini
|  5>     print[ P_Basis ] 0
|  6>     print[ P_SCFInfo ] 1
|  7>     print[ P_SCFIterInfo ] 1
|  8>     print[ P_OrbEn ] 0
|  9>     print[ P_Cartesian ] 0
| 10> end
| 11> *xyz 0 1
| 12>  C        1.6589900000    -0.1083260000    -0.0593970000
| 13>  C        0.7112960000    -1.1398700000     0.5066980000
| 14>  O       -0.4050290000    -1.3940800000    -0.3276920000
| 15>  N       -1.4950460000    -0.5691270000    -0.1374560000
| 16>  C       -1.3050170000     0.6402010000     0.1987570000
| 17>  C       -0.0504120000     1.4685250000     0.3359630000
| 18>  O        1.0042660000     1.0627180000    -0.4842750000
| 19>  H        2.1651180000    -0.5012400000    -0.9434710000
| 20>  H        2.4234480000     0.1217300000     0.6996050000
| 21>  H        0.3485710000    -0.8556590000     1.5013070000
| 22>  H        1.2338670000    -2.0951730000     0.6071290000
| 23>  H       -2.2405270000     1.1762540000     0.3511960000
| 24>  H        0.2478200000     1.5408950000     1.3944660000
| 25>  H       -0.3059540000     2.4830410000     0.0190710000
| 26> *
| 27>
| 28>                          ****END OF INPUT****
 Total Charge           Charge          ....    0
 Multiplicity           Mult            ....    1
 Number of Electrons    NEL             ....   54
 Basis Dimension        Dim             ....  133

MULLIKEN ATOMIC CHARGES
-----------------------
   0 C :    0.206636
   1 C :    0.074447
   2 O :   -0.261677
   3 N :    0.046400
   4 C :   -0.131862
   5 C :    0.214401
   6 O :   -0.331091
   7 H :    0.024849
   8 H :    0.007905
   9 H :    0.027032
  10 H :    0.036177
  11 H :    0.031089
  12 H :    0.022649
  13 H :    0.033044
Sum of atomic charges:    0.0000000

LOEWDIN ATOMIC CHARGES
----------------------
   0 C :    0.043251
   1 C :    0.025042
   2 O :   -0.087688
   3 N :    0.009354
   4 C :   -0.076738
   5 C :    0.035236
   6 O :   -0.135063
   7 H :    0.028273
   8 H :    0.013811
   9 H :    0.016944
  10 H :    0.035805
  11 H :    0.034309
  12 H :    0.018423
  13 H :    0.039040

  Mayer bond orders larger than 0.1
B(  0-C ,  1-C ) :   1.0658 B(  0-C ,  6-O ) :   1.0330 B(  0-C ,  7-H ) :   0.9306
B(  0-C ,  8-H ) :   0.9284 B(  1-C ,  2-O ) :   0.9691 B(  1-C ,  9-H ) :   0.9317
B(  1-C , 10-H ) :   0.9294 B(  2-O ,  3-N ) :   0.9588 B(  2-O ,  4-C ) :   0.1074
B(  3-N ,  4-C ) :   1.9713 B(  4-C ,  5-C ) :   0.9601 B(  4-C , 11-H ) :   0.9406
B(  5-C ,  6-O ) :   1.0449 B(  5-C , 12-H ) :   0.9166 B(  5-C , 13-H ) :   0.9254

FINAL SINGLE POINT ENERGY      -361.045929016071

DIPOLE MOMENT
-------------
                                X             Y             Z
Electronic contribution:     -2.65331      -1.31204      -2.50134
Nuclear contribution   :      3.32412       1.81495       3.35707
                        -----------------------------------------
Total Dipole Moment    :      0.67080       0.50291       0.85573
                        -----------------------------------------
Magnitude (a.u.)       :      1.19798
Magnitude (Debye)      :      3.04503

                             ****ORCA TERMINATED NORMALLY****
TOTAL RUN TIME: 0 days 0 hours 0 minutes 6 seconds 764 msec
