                         Program Version 3.0.3 - RELEASE   -
|  1> ! RI PBE def2-SVP def2-SVP/J NBO PAL2
|  2> % maxcore 2000
|  3> % output
|  4>     # printlevel mini
|  5>     print[ P_Basis ] 0
|  6>     print[ P_SCFInfo ] 1
|  7>     print[ P_SCFIterInfo ] 1
|  8>     print[ P_OrbEn ] 0
|  9>     print[ P_Cartesian ] 0
| 10> end
| 11> *xyz 0 1
| 12>  C       -0.3742160000    -0.9951990000    -0.4937320000
| 13>  N        0.9167220000    -1.2218570000    -1.1381200000
| 14>  C        0.8368420000    -0.3095960000    -0.0045360000
| 15>  C        1.5526580000    -0.7087200000     1.2531480000
| 16>  C        0.7844770000    -0.4470270000     2.5574590000
| 17>  O        0.5707940000    -1.8481730000     2.7648460000
| 18>  C        1.4407200000    -2.1766770000     1.6701220000
| 19>  H       -0.7730100000    -1.8464760000     0.0480740000
| 20>  H       -1.1190510000    -0.3981000000    -1.0098580000
| 21>  H        0.9794660000    -0.7154000000    -2.0133650000
| 22>  H        0.8909050000     0.7555960000    -0.2234390000
| 23>  H        2.5727300000    -0.3200130000     1.2340070000
| 24>  H       -0.1577370000     0.1021020000     2.4584360000
| 25>  H        1.3799350000    -0.0037020000     3.3637480000
| 26>  H        0.9759820000    -2.8543660000     0.9500310000
| 27>  H        2.3800710000    -2.6175840000     2.0204900000
| 28> *
| 29>
| 30>                          ****END OF INPUT****
 Total Charge           Charge          ....    0
 Multiplicity           Mult            ....    1
 Number of Electrons    NEL             ....   54
 Basis Dimension        Dim             ....  143

MULLIKEN ATOMIC CHARGES
-----------------------
   0 C :    0.039520
   1 N :   -0.196339
   2 C :   -0.079120
   3 C :   -0.151823
   4 C :    0.253325
   5 O :   -0.368286
   6 C :    0.245237
   7 H :    0.043534
   8 H :    0.031941
   9 H :    0.109220
  10 H :    0.022682
  11 H :    0.010755
  12 H :    0.005837
  13 H :    0.005085
  14 H :    0.024485
  15 H :    0.003947
Sum of atomic charges:   -0.0000000

LOEWDIN ATOMIC CHARGES
----------------------
   0 C :   -0.000448
   1 N :   -0.103112
   2 C :   -0.007559
   3 C :   -0.057499
   4 C :    0.089060
   5 O :   -0.187847
   6 C :    0.091256
   7 H :    0.021700
   8 H :    0.017326
   9 H :    0.057340
  10 H :    0.016987
  11 H :    0.025687
  12 H :    0.007934
  13 H :    0.007355
  14 H :    0.012004
  15 H :    0.009815

  Mayer bond orders larger than 0.1
B(  0-C ,  1-N ) :   0.9904 B(  0-C ,  2-C ) :   1.0592 B(  0-C ,  7-H ) :   0.9292
B(  0-C ,  8-H ) :   0.9462 B(  1-N ,  2-C ) :   0.9983 B(  1-N ,  9-H ) :   0.9425
B(  2-C ,  3-C ) :   0.9950 B(  2-C , 10-H ) :   0.9408 B(  3-C ,  4-C ) :   1.0743
B(  3-C ,  6-C ) :   1.0939 B(  3-C , 11-H ) :   0.9156 B(  4-C ,  5-O ) :   1.0386
B(  4-C , 12-H ) :   0.9328 B(  4-C , 13-H ) :   0.9270 B(  5-O ,  6-C ) :   1.0240
B(  6-C , 14-H ) :   0.9242 B(  6-C , 15-H ) :   0.9258

FINAL SINGLE POINT ENERGY      -325.189561215633

DIPOLE MOMENT
-------------
                                X             Y             Z
Electronic contribution:      0.22396      -1.09580       1.05659
Nuclear contribution   :     -0.13611       1.97719      -1.67213
                        -----------------------------------------
Total Dipole Moment    :      0.08786       0.88140      -0.61554
                        -----------------------------------------
Magnitude (a.u.)       :      1.07864
Magnitude (Debye)      :      2.74170

                             ****ORCA TERMINATED NORMALLY****
TOTAL RUN TIME: 0 days 0 hours 0 minutes 7 seconds 20 msec
