                         Program Version 3.0.3 - RELEASE   -
|  1> ! RI PBE def2-SVP def2-SVP/J NBO PAL2
|  2> % maxcore 2000
|  3> % output
|  4>     # printlevel mini
|  5>     print[ P_Basis ] 0
|  6>     print[ P_SCFInfo ] 1
|  7>     print[ P_SCFIterInfo ] 1
|  8>     print[ P_OrbEn ] 0
|  9>     print[ P_Cartesian ] 0
| 10> end
| 11> *xyz 0 1
| 12>  C        1.1918710000     0.2777520000     0.1909070000
| 13>  C        0.6070850000     1.5812440000     0.6585430000
| 14>  C       -0.8518030000     1.7439530000     0.7835240000
| 15>  N       -0.0095760000     1.6862580000     1.9770730000
| 16>  C        2.5479440000     0.0099600000     0.7797200000
| 17>  C        2.7407150000    -0.8544150000     1.9389440000
| 18>  O        3.0562110000    -1.3052990000     0.6315480000
| 19>  H        1.2804010000     0.2900170000    -0.9018530000
| 20>  H        0.5212620000    -0.5508010000     0.4444060000
| 21>  H        1.1887690000     2.4622160000     0.3954340000
| 22>  H       -1.4726730000     0.8859120000     0.5428940000
| 23>  H       -1.3136930000     2.7067190000     0.5941390000
| 24>  H       -0.0731560000     0.7670170000     2.4032180000
| 25>  H        3.2913990000     0.7894950000     0.6103800000
| 26>  H        1.8765770000    -1.3324880000     2.3962360000
| 27>  H        3.5912660000    -0.6994500000     2.5978960000
| 28> *
| 29>
| 30>                          ****END OF INPUT****
 Total Charge           Charge          ....    0
 Multiplicity           Mult            ....    1
 Number of Electrons    NEL             ....   54
 Basis Dimension        Dim             ....  143

MULLIKEN ATOMIC CHARGES
-----------------------
   0 C :    0.153232
   1 C :   -0.128465
   2 C :    0.039799
   3 N :   -0.190328
   4 C :   -0.017463
   5 C :    0.140887
   6 O :   -0.285662
   7 H :    0.034321
   8 H :   -0.014957
   9 H :    0.027457
  10 H :    0.029707
  11 H :    0.035226
  12 H :    0.101210
  13 H :    0.020321
  14 H :    0.018112
  15 H :    0.036604
Sum of atomic charges:   -0.0000000

LOEWDIN ATOMIC CHARGES
----------------------
   0 C :   -0.053793
   1 C :   -0.007668
   2 C :    0.002503
   3 N :   -0.104740
   4 C :    0.038769
   5 C :    0.053276
   6 O :   -0.153768
   7 H :    0.042065
   8 H :    0.029772
   9 H :    0.022556
  10 H :    0.015119
  11 H :    0.021714
  12 H :    0.048316
  13 H :    0.017210
  14 H :    0.010306
  15 H :    0.018363

  Mayer bond orders larger than 0.1
B(  0-C ,  1-C ) :   1.0510 B(  0-C ,  4-C ) :   1.0440 B(  0-C ,  7-H ) :   0.9028
B(  0-C ,  8-H ) :   0.8956 B(  1-C ,  2-C ) :   1.0525 B(  1-C ,  3-N ) :   0.9961
B(  1-C ,  9-H ) :   0.9291 B(  2-C ,  3-N ) :   1.0139 B(  2-C , 10-H ) :   0.9419
B(  2-C , 11-H ) :   0.9387 B(  3-N , 12-H ) :   0.9465 B(  4-C ,  5-C ) :   1.1017
B(  4-C ,  6-O ) :   0.9777 B(  4-C , 13-H ) :   0.9292 B(  5-C ,  6-O ) :   1.0061
B(  5-C , 14-H ) :   0.9250 B(  5-C , 15-H ) :   0.9383

FINAL SINGLE POINT ENERGY      -325.190195272018

DIPOLE MOMENT
-------------
                                X             Y             Z
Electronic contribution:      2.62653      -1.45508      -0.10368
Nuclear contribution   :     -2.93745       1.45967       0.07014
                        -----------------------------------------
Total Dipole Moment    :     -0.31092       0.00459      -0.03354
                        -----------------------------------------
Magnitude (a.u.)       :      0.31276
Magnitude (Debye)      :      0.79497

                             ****ORCA TERMINATED NORMALLY****
TOTAL RUN TIME: 0 days 0 hours 0 minutes 7 seconds 109 msec
