                         Program Version 3.0.3 - RELEASE   -
|  1> ! RI PBE def2-SVP def2-SVP/J NBO PAL2
|  2> % maxcore 2000
|  3> % output
|  4>     # printlevel mini
|  5>     print[ P_Basis ] 0
|  6>     print[ P_SCFInfo ] 1
|  7>     print[ P_SCFIterInfo ] 1
|  8>     print[ P_OrbEn ] 0
|  9>     print[ P_Cartesian ] 0
| 10> end
| 11> *xyz 0 1
| 12>  C        1.5576790000    -0.1020200000     0.2372170000
| 13>  N        0.9067210000    -1.4277760000     0.1930530000
| 14>  C       -0.2223950000    -0.8850460000    -0.5912620000
| 15>  C       -1.3922320000    -0.2990280000     0.1451180000
| 16>  C       -1.2796480000     1.0268190000     0.1424910000
| 17>  O       -0.1906510000     1.5273210000    -0.4945420000
| 18>  C        0.6027250000     0.3964740000    -0.8544290000
| 19>  H        2.6233930000    -0.1247180000    -0.0043070000
| 20>  H        1.4116810000     0.4619080000     1.1646130000
| 21>  H        0.6495300000    -1.8054480000     1.0971540000
| 22>  H       -0.5132900000    -1.5327660000    -1.4239580000
| 23>  H       -2.2179890000    -0.8547830000     0.5638460000
| 24>  H       -1.9413980000     1.7746630000     0.5591920000
| 25>  H        1.0271640000     0.5694800000    -1.8410050000
| 26> *
| 27>
| 28>                          ****END OF INPUT****
 Total Charge           Charge          ....    0
 Multiplicity           Mult            ....    1
 Number of Electrons    NEL             ....   52
 Basis Dimension        Dim             ....  133

MULLIKEN ATOMIC CHARGES
-----------------------
   0 C :    0.189705
   1 N :   -0.220574
   2 C :    0.036831
   3 C :   -0.065178
   4 C :    0.140667
   5 O :   -0.252017
   6 C :    0.001711
   7 H :    0.019376
   8 H :    0.011149
   9 H :    0.090141
  10 H :    0.019767
  11 H :    0.000179
  12 H :    0.008511
  13 H :    0.019731
Sum of atomic charges:   -0.0000000

LOEWDIN ATOMIC CHARGES
----------------------
   0 C :    0.021483
   1 N :   -0.105821
   2 C :    0.010494
   3 C :   -0.129656
   4 C :    0.049284
   5 O :   -0.078963
   6 C :    0.071006
   7 H :    0.016094
   8 H :    0.016086
   9 H :    0.045088
  10 H :    0.015330
  11 H :    0.026438
  12 H :    0.022461
  13 H :    0.020677

  Mayer bond orders larger than 0.1
B(  0-C ,  1-N ) :   1.0722 B(  0-C ,  6-C ) :   1.0584 B(  0-C ,  7-H ) :   0.9332
B(  0-C ,  8-H ) :   0.9001 B(  1-N ,  2-C ) :   1.0959 B(  1-N ,  9-H ) :   0.9327
B(  2-C ,  3-C ) :   0.9861 B(  2-C ,  6-C ) :   1.0343 B(  2-C , 10-H ) :   0.9097
B(  3-C ,  4-C ) :   1.7175 B(  3-C ,  5-O ) :   0.1165 B(  3-C , 11-H ) :   0.9839
B(  4-C ,  5-O ) :   1.1112 B(  4-C , 12-H ) :   0.9891 B(  5-O ,  6-C ) :   0.9810
B(  6-C , 13-H ) :   0.9172

FINAL SINGLE POINT ENERGY      -324.015109936804

DIPOLE MOMENT
-------------
                                X             Y             Z
Electronic contribution:     -1.04931       1.69438      -0.91282
Nuclear contribution   :      0.84929      -1.71285       1.19775
                        -----------------------------------------
Total Dipole Moment    :     -0.20002      -0.01847       0.28494
                        -----------------------------------------
Magnitude (a.u.)       :      0.34862
Magnitude (Debye)      :      0.88613

                             ****ORCA TERMINATED NORMALLY****
TOTAL RUN TIME: 0 days 0 hours 0 minutes 6 seconds 924 msec
