                         Program Version 3.0.3 - RELEASE   -
|  1> ! RI PBE def2-SVP def2-SVP/J NBO PAL2
|  2> % maxcore 2000
|  3> % output
|  4>     # printlevel mini
|  5>     print[ P_Basis ] 0
|  6>     print[ P_SCFInfo ] 1
|  7>     print[ P_SCFIterInfo ] 1
|  8>     print[ P_OrbEn ] 0
|  9>     print[ P_Cartesian ] 0
| 10> end
| 11> *xyz 0 1
| 12>  C        1.6062020000    -0.1391480000     0.2204590000
| 13>  N        0.8921430000    -1.4349780000     0.1727500000
| 14>  C       -0.2277170000    -0.8265080000    -0.5625650000
| 15>  C       -1.3135040000    -0.1778990000     0.2435160000
| 16>  N       -1.2328320000     1.0875060000     0.3314900000
| 17>  O       -0.1406220000     1.5472140000    -0.3803260000
| 18>  C        0.6223630000     0.4276000000    -0.8147990000
| 19>  H        2.6555290000    -0.2086050000    -0.0750380000
| 20>  H        1.5317910000     0.4049800000     1.1671520000
| 21>  H        0.6565400000    -1.8380990000     1.0716000000
| 22>  H       -0.6115510000    -1.4385020000    -1.3836740000
| 23>  H       -2.1464200000    -0.6782610000     0.7226040000
| 24>  H        1.0060690000     0.6349090000    -1.8113610000
| 25> *
| 26>
| 27>                          ****END OF INPUT****
 Total Charge           Charge          ....    0
 Multiplicity           Mult            ....    1
 Number of Electrons    NEL             ....   52
 Basis Dimension        Dim             ....  128

MULLIKEN ATOMIC CHARGES
-----------------------
   0 C :    0.191590
   1 N :   -0.217212
   2 C :   -0.011583
   3 C :   -0.004341
   4 N :    0.027971
   5 O :   -0.241597
   6 C :    0.017697
   7 H :    0.025488
   8 H :    0.022157
   9 H :    0.098522
  10 H :    0.033440
  11 H :    0.029676
  12 H :    0.028193
Sum of atomic charges:   -0.0000000

LOEWDIN ATOMIC CHARGES
----------------------
   0 C :    0.023700
   1 N :   -0.095465
   2 C :   -0.010627
   3 C :   -0.068255
   4 N :    0.018590
   5 O :   -0.081165
   6 C :    0.048689
   7 H :    0.019413
   8 H :    0.019794
   9 H :    0.049018
  10 H :    0.022025
  11 H :    0.029450
  12 H :    0.024832

  Mayer bond orders larger than 0.1
B(  0-C ,  1-N ) :   1.0672 B(  0-C ,  6-C ) :   1.0598 B(  0-C ,  7-H ) :   0.9333
B(  0-C ,  8-H ) :   0.8993 B(  1-N ,  2-C ) :   1.1016 B(  1-N ,  9-H ) :   0.9330
B(  2-C ,  3-C ) :   0.9309 B(  2-C ,  6-C ) :   1.0452 B(  2-C , 10-H ) :   0.9057
B(  3-C ,  4-N ) :   1.8782 B(  3-C ,  5-O ) :   0.1110 B(  3-C , 11-H ) :   0.9668
B(  4-N ,  5-O ) :   0.9835 B(  5-O ,  6-C ) :   0.9716 B(  6-C , 12-H ) :   0.9140

FINAL SINGLE POINT ENERGY      -340.003975405859

DIPOLE MOMENT
-------------
                                X             Y             Z
Electronic contribution:     -2.42181       2.55207      -0.28374
Nuclear contribution   :      2.64608      -3.37863       0.30144
                        -----------------------------------------
Total Dipole Moment    :      0.22427      -0.82656       0.01770
                        -----------------------------------------
Magnitude (a.u.)       :      0.85663
Magnitude (Debye)      :      2.17739

                             ****ORCA TERMINATED NORMALLY****
TOTAL RUN TIME: 0 days 0 hours 0 minutes 6 seconds 517 msec
