                         Program Version 3.0.3 - RELEASE   -
|  1> ! RI PBE def2-SVP def2-SVP/J NBO PAL2
|  2> % maxcore 2000
|  3> % output
|  4>     # printlevel mini
|  5>     print[ P_Basis ] 0
|  6>     print[ P_SCFInfo ] 1
|  7>     print[ P_SCFIterInfo ] 1
|  8>     print[ P_OrbEn ] 0
|  9>     print[ P_Cartesian ] 0
| 10> end
| 11> *xyz 0 1
| 12>  C       -1.2038670000    -0.7161950000    -0.5166160000
| 13>  N       -1.2036010000     0.7669680000    -0.4947690000
| 14>  C       -0.0324840000     1.1056740000     0.3277310000
| 15>  C        1.1936850000     0.7181430000    -0.4902990000
| 16>  O        1.1850660000    -0.7164860000    -0.4467730000
| 17>  C        0.0317220000    -1.0673840000     0.3159920000
| 18>  C        0.0025120000     0.0059940000     1.3950630000
| 19>  H       -1.0959660000    -1.0970140000    -1.5349190000
| 20>  H       -2.1185440000    -1.1356990000    -0.0852820000
| 21>  H       -2.0415800000     1.1053480000    -0.0397420000
| 22>  H       -0.0482460000     2.1436550000     0.6575240000
| 23>  H        2.1274760000     1.0898980000    -0.0549280000
| 24>  H        1.1078780000     1.0620150000    -1.5242170000
| 25>  H        0.1161520000    -2.1094220000     0.6202660000
| 26>  H        0.9002020000    -0.0033120000     2.0152910000
| 27>  H       -0.8936140000    -0.0102730000     2.0182880000
| 28> *
| 29>
| 30>                          ****END OF INPUT****
 Total Charge           Charge          ....    0
 Multiplicity           Mult            ....    1
 Number of Electrons    NEL             ....   54
 Basis Dimension        Dim             ....  143

MULLIKEN ATOMIC CHARGES
-----------------------
   0 C :    0.193186
   1 N :   -0.197271
   2 C :   -0.181180
   3 C :    0.312114
   4 O :   -0.336483
   5 C :   -0.018493
   6 C :    0.067815
   7 H :    0.012838
   8 H :    0.002909
   9 H :    0.096799
  10 H :    0.001185
  11 H :    0.003925
  12 H :    0.006440
  13 H :    0.002544
  14 H :    0.024108
  15 H :    0.009564
Sum of atomic charges:    0.0000000

LOEWDIN ATOMIC CHARGES
----------------------
   0 C :    0.007897
   1 N :   -0.100719
   2 C :   -0.006163
   3 C :    0.072836
   4 O :   -0.163008
   5 C :    0.045235
   6 C :   -0.055749
   7 H :    0.020331
   8 H :    0.014612
   9 H :    0.051794
  10 H :    0.020156
  11 H :    0.011008
  12 H :    0.015150
  13 H :    0.018446
  14 H :    0.026982
  15 H :    0.021192

  Mayer bond orders larger than 0.1
B(  0-C ,  1-N ) :   1.0279 B(  0-C ,  5-C ) :   1.0116 B(  0-C ,  7-H ) :   0.9109
B(  0-C ,  8-H ) :   0.9324 B(  1-N ,  2-C ) :   1.0813 B(  1-N ,  9-H ) :   0.9426
B(  2-C ,  3-C ) :   1.0212 B(  2-C ,  6-C ) :   0.9749 B(  2-C , 10-H ) :   0.9365
B(  3-C ,  4-O ) :   0.9847 B(  3-C , 11-H ) :   0.9371 B(  3-C , 12-H ) :   0.9201
B(  4-O ,  5-C ) :   1.0167 B(  5-C ,  6-C ) :   1.0019 B(  5-C , 13-H ) :   0.9392
B(  6-C , 14-H ) :   0.9285 B(  6-C , 15-H ) :   0.9344

FINAL SINGLE POINT ENERGY      -325.244579256189

DIPOLE MOMENT
-------------
                                X             Y             Z
Electronic contribution:      1.31527      -0.66509      -1.21260
Nuclear contribution   :     -1.81826       0.89833       1.90030
                        -----------------------------------------
Total Dipole Moment    :     -0.50298       0.23324       0.68769
                        -----------------------------------------
Magnitude (a.u.)       :      0.88336
Magnitude (Debye)      :      2.24531

                             ****ORCA TERMINATED NORMALLY****
TOTAL RUN TIME: 0 days 0 hours 0 minutes 7 seconds 281 msec
