                         Program Version 3.0.3 - RELEASE   -
|  1> ! RI PBE def2-SVP def2-SVP/J NBO PAL2
|  2> % maxcore 2000
|  3> % output
|  4>     # printlevel mini
|  5>     print[ P_Basis ] 0
|  6>     print[ P_SCFInfo ] 1
|  7>     print[ P_SCFIterInfo ] 1
|  8>     print[ P_OrbEn ] 0
|  9>     print[ P_Cartesian ] 0
| 10> end
| 11> *xyz 0 1
| 12>  C        1.4195610000    -0.7053200000    -0.4775470000
| 13>  N        2.0267350000     0.6104980000    -0.0592850000
| 14>  C        3.0115110000     0.4239850000    -1.0707000000
| 15>  C        4.0701240000     0.7685920000    -1.8338660000
| 16>  O        4.1603020000    -0.1735710000    -2.8320690000
| 17>  C        3.1583990000    -1.0852330000    -2.6856950000
| 18>  C        2.4395670000    -0.7499000000    -1.5971320000
| 19>  H        0.3729530000    -0.6041960000    -0.7685680000
| 20>  H        1.5240380000    -1.4983700000     0.2666270000
| 21>  H        2.3575420000     0.6577890000     0.8963250000
| 22>  H        4.8230870000     1.5368020000    -1.8460590000
| 23>  H        3.1373810000    -1.8686560000    -3.4248410000
| 24> *
| 25>
| 26>                          ****END OF INPUT****
 Total Charge           Charge          ....    0
 Multiplicity           Mult            ....    1
 Number of Electrons    NEL             ....   50
 Basis Dimension        Dim             ....  123

MULLIKEN ATOMIC CHARGES
-----------------------
   0 C :    0.204503
   1 N :   -0.196778
   2 C :    0.160238
   3 C :   -0.074464
   4 O :   -0.192189
   5 C :   -0.017874
   6 C :   -0.089197
   7 H :    0.039147
   8 H :    0.039718
   9 H :    0.116123
  10 H :    0.002358
  11 H :    0.008415
Sum of atomic charges:   -0.0000000

LOEWDIN ATOMIC CHARGES
----------------------
   0 C :    0.064327
   1 N :   -0.063750
   2 C :   -0.041643
   3 C :   -0.032840
   4 O :    0.013448
   5 C :    0.008193
   6 C :   -0.106463
   7 H :    0.030448
   8 H :    0.028503
   9 H :    0.062022
  10 H :    0.018189
  11 H :    0.019566

  Mayer bond orders larger than 0.1
B(  0-C ,  1-N ) :   1.0382 B(  0-C ,  6-C ) :   1.0248 B(  0-C ,  7-H ) :   0.9167
B(  0-C ,  8-H ) :   0.9223 B(  1-N ,  2-C ) :   1.0637 B(  1-N ,  9-H ) :   0.9286
B(  2-C ,  3-C ) :   1.4679 B(  2-C ,  6-C ) :   1.2529 B(  3-C ,  4-O ) :   1.0941
B(  3-C ,  5-C ) :   0.1093 B(  3-C , 10-H ) :   1.0274 B(  4-O ,  5-C ) :   1.1516
B(  5-C ,  6-C ) :   1.5202 B(  5-C , 11-H ) :   1.0079

FINAL SINGLE POINT ENERGY      -322.790447897641

DIPOLE MOMENT
-------------
                                X             Y             Z
Electronic contribution:      2.00806       0.71029      -1.87004
Nuclear contribution   :     -2.17023      -1.06133       2.47272
                        -----------------------------------------
Total Dipole Moment    :     -0.16217      -0.35105       0.60268
                        -----------------------------------------
Magnitude (a.u.)       :      0.71607
Magnitude (Debye)      :      1.82011

                             ****ORCA TERMINATED NORMALLY****
TOTAL RUN TIME: 0 days 0 hours 0 minutes 5 seconds 895 msec
