                         Program Version 3.0.3 - RELEASE   -
|  1> ! RI PBE def2-SVP def2-SVP/J NBO PAL2
|  2> % maxcore 2000
|  3> % output
|  4>     # printlevel mini
|  5>     print[ P_Basis ] 0
|  6>     print[ P_SCFInfo ] 1
|  7>     print[ P_SCFIterInfo ] 1
|  8>     print[ P_OrbEn ] 0
|  9>     print[ P_Cartesian ] 0
| 10> end
| 11> *xyz 0 1
| 12>  C       -1.7835200000     0.6296830000     0.2804550000
| 13>  N       -1.7481300000    -0.7521260000    -0.3216490000
| 14>  C       -0.2912710000    -0.7308500000     0.0325910000
| 15>  C        1.0408840000    -1.0501200000    -0.5898640000
| 16>  O        1.8581320000    -0.0203470000     0.0119100000
| 17>  C        1.0669130000     1.0521420000     0.5919030000
| 18>  C       -0.2761870000     0.7697760000    -0.0215620000
| 19>  H       -2.0179660000     0.5488450000     1.3441780000
| 20>  H       -2.4689950000     1.3314180000    -0.1959160000
| 21>  H       -1.8420020000    -0.6457030000    -1.3299510000
| 22>  H       -0.2503660000    -1.0573460000     1.0796580000
| 23>  H        1.0386330000    -0.9473640000    -1.6823380000
| 24>  H        1.4775370000    -2.0127280000    -0.3169750000
| 25>  H        1.5354950000     1.9942050000     0.3014260000
| 26>  H        1.0737900000     0.9650210000     1.6841870000
| 27>  H       -0.2153480000     1.0488840000    -1.0817440000
| 28> *
| 29>
| 30>                          ****END OF INPUT****
 Total Charge           Charge          ....    0
 Multiplicity           Mult            ....    1
 Number of Electrons    NEL             ....   54
 Basis Dimension        Dim             ....  143

MULLIKEN ATOMIC CHARGES
-----------------------
   0 C :    0.172676
   1 N :   -0.220540
   2 C :   -0.128433
   3 C :    0.332423
   4 O :   -0.400218
   5 C :    0.322556
   6 C :   -0.267043
   7 H :    0.020336
   8 H :    0.017753
   9 H :    0.098876
  10 H :    0.030067
  11 H :   -0.005251
  12 H :    0.004895
  13 H :    0.001013
  14 H :    0.004116
  15 H :    0.016775
Sum of atomic charges:    0.0000000

LOEWDIN ATOMIC CHARGES
----------------------
   0 C :    0.042009
   1 N :   -0.110935
   2 C :   -0.010715
   3 C :    0.071912
   4 O :   -0.186804
   5 C :    0.078841
   6 C :   -0.078476
   7 H :    0.023471
   8 H :    0.015680
   9 H :    0.049514
  10 H :    0.026932
  11 H :    0.007206
  12 H :    0.017982
  13 H :    0.015855
  14 H :    0.011197
  15 H :    0.026331

  Mayer bond orders larger than 0.1
B(  0-C ,  1-N ) :   1.0320 B(  0-C ,  6-C ) :   1.0295 B(  0-C ,  7-H ) :   0.9268
B(  0-C ,  8-H ) :   0.9383 B(  1-N ,  2-C ) :   1.0191 B(  1-N ,  9-H ) :   0.9388
B(  2-C ,  3-C ) :   1.0700 B(  2-C ,  6-C ) :   1.0020 B(  2-C , 10-H ) :   0.9175
B(  3-C ,  4-O ) :   0.9780 B(  3-C , 11-H ) :   0.9227 B(  3-C , 12-H ) :   0.9224
B(  4-O ,  5-C ) :   0.9669 B(  5-C ,  6-C ) :   1.0637 B(  5-C , 13-H ) :   0.9239
B(  5-C , 14-H ) :   0.9304 B(  6-C , 15-H ) :   0.9057

FINAL SINGLE POINT ENERGY      -325.176872627092

DIPOLE MOMENT
-------------
                                X             Y             Z
Electronic contribution:      1.28207      -0.86650      -0.13829
Nuclear contribution   :     -1.60271       1.27914      -0.10248
                        -----------------------------------------
Total Dipole Moment    :     -0.32063       0.41264      -0.24077
                        -----------------------------------------
Magnitude (a.u.)       :      0.57537
Magnitude (Debye)      :      1.46247

                             ****ORCA TERMINATED NORMALLY****
TOTAL RUN TIME: 0 days 0 hours 0 minutes 7 seconds 415 msec
