                         Program Version 3.0.3 - RELEASE   -
|  1> ! RI PBE def2-SVP def2-SVP/J NBO PAL2
|  2> % maxcore 2000
|  3> % output
|  4>     # printlevel mini
|  5>     print[ P_Basis ] 0
|  6>     print[ P_SCFInfo ] 1
|  7>     print[ P_SCFIterInfo ] 1
|  8>     print[ P_OrbEn ] 0
|  9>     print[ P_Cartesian ] 0
| 10> end
| 11> *xyz 0 1
| 12>  C        1.3029670000    -0.6313690000    -0.0081140000
| 13>  N        2.4822290000     0.2967740000     0.1871520000
| 14>  C        3.3140750000    -0.6988460000    -0.4078400000
| 15>  C        4.4273940000    -1.3415630000    -0.8115170000
| 16>  O        4.0553750000    -2.6138230000    -1.1393400000
| 17>  N        2.6923540000    -2.8103620000    -0.9374450000
| 18>  C        2.3019130000    -1.6497620000    -0.5210320000
| 19>  H        0.5803920000    -0.2889170000    -0.7512980000
| 20>  H        0.8006720000    -0.8692280000     0.9295330000
| 21>  H        2.4216280000     1.1825450000    -0.2998610000
| 22>  H        5.4716920000    -1.1191390000    -0.9541380000
| 23> *
| 24>
| 25>                          ****END OF INPUT****
 Total Charge           Charge          ....    0
 Multiplicity           Mult            ....    1
 Number of Electrons    NEL             ....   50
 Basis Dimension        Dim             ....  118

MULLIKEN ATOMIC CHARGES
-----------------------
   0 C :    0.216286
   1 N :   -0.201587
   2 C :    0.100564
   3 C :    0.013130
   4 O :   -0.180518
   5 N :   -0.005294
   6 C :   -0.191205
   7 H :    0.051393
   8 H :    0.051794
   9 H :    0.125724
  10 H :    0.019714
Sum of atomic charges:    0.0000000

LOEWDIN ATOMIC CHARGES
----------------------
   0 C :    0.063848
   1 N :   -0.058277
   2 C :   -0.065420
   3 C :   -0.007492
   4 O :    0.019233
   5 N :   -0.031522
   6 C :   -0.086750
   7 H :    0.035235
   8 H :    0.037708
   9 H :    0.066360
  10 H :    0.027076

  Mayer bond orders larger than 0.1
B(  0-C ,  1-N ) :   1.0341 B(  0-C ,  6-C ) :   1.0669 B(  0-C ,  7-H ) :   0.9163
B(  0-C ,  8-H ) :   0.9110 B(  1-N ,  2-C ) :   1.0624 B(  1-N ,  9-H ) :   0.9212
B(  2-C ,  3-C ) :   1.4914 B(  2-C ,  6-C ) :   1.2230 B(  3-C ,  4-O ) :   1.0979
B(  3-C ,  5-N ) :   0.1371 B(  3-C , 10-H ) :   1.0032 B(  4-O ,  5-N ) :   1.0146
B(  5-N ,  6-C ) :   1.6574

FINAL SINGLE POINT ENERGY      -338.780928872182

DIPOLE MOMENT
-------------
                                X             Y             Z
Electronic contribution:      2.04938      -2.71187      -0.98319
Nuclear contribution   :     -2.33861       4.03385       0.96829
                        -----------------------------------------
Total Dipole Moment    :     -0.28923       1.32198      -0.01491
                        -----------------------------------------
Magnitude (a.u.)       :      1.35333
Magnitude (Debye)      :      3.43989

                             ****ORCA TERMINATED NORMALLY****
TOTAL RUN TIME: 0 days 0 hours 0 minutes 6 seconds 181 msec
