                         Program Version 3.0.3 - RELEASE   -
|  1> ! RI PBE def2-SVP def2-SVP/J NBO PAL2
|  2> % maxcore 2000
|  3> % output
|  4>     # printlevel mini
|  5>     print[ P_Basis ] 0
|  6>     print[ P_SCFInfo ] 1
|  7>     print[ P_SCFIterInfo ] 1
|  8>     print[ P_OrbEn ] 0
|  9>     print[ P_Cartesian ] 0
| 10> end
| 11> *xyz 0 1
| 12>  C        1.8068160000     0.1662950000     0.9118260000
| 13>  N        1.9931610000     0.3431890000    -0.5747950000
| 14>  C        2.9211250000     1.3586040000    -0.2893930000
| 15>  N        3.7489630000     2.2394090000    -0.7547890000
| 16>  O        4.1299000000     2.9054060000     0.4270810000
| 17>  C        3.5113450000     2.3711410000     1.5067310000
| 18>  C        2.7268370000     1.3609840000     1.0968370000
| 19>  H        2.2049030000    -0.7734890000     1.2992510000
| 20>  H        0.7680090000     0.2936230000     1.2167060000
| 21>  H        2.2789420000    -0.4522420000    -1.1295930000
| 22>  H        3.7671180000     2.8340800000     2.4471400000
| 23> *
| 24>
| 25>                          ****END OF INPUT****
 Total Charge           Charge          ....    0
 Multiplicity           Mult            ....    1
 Number of Electrons    NEL             ....   50
 Basis Dimension        Dim             ....  118

MULLIKEN ATOMIC CHARGES
-----------------------
   0 C :    0.233512
   1 N :   -0.220591
   2 C :    0.069001
   3 N :   -0.031467
   4 O :   -0.183155
   5 C :    0.084953
   6 C :   -0.180274
   7 H :    0.042847
   8 H :    0.045055
   9 H :    0.125801
  10 H :    0.014318
Sum of atomic charges:   -0.0000000

LOEWDIN ATOMIC CHARGES
----------------------
   0 C :    0.077036
   1 N :   -0.049460
   2 C :   -0.037543
   3 N :   -0.071973
   4 O :    0.016789
   5 C :    0.033229
   6 C :   -0.130750
   7 H :    0.031682
   8 H :    0.033720
   9 H :    0.069411
  10 H :    0.027858

  Mayer bond orders larger than 0.1
B(  0-C ,  1-N ) :   1.0241 B(  0-C ,  6-C ) :   1.0295 B(  0-C ,  7-H ) :   0.9227
B(  0-C ,  8-H ) :   0.9156 B(  1-N ,  2-C ) :   1.0896 B(  1-N ,  9-H ) :   0.9314
B(  2-C ,  3-N ) :   1.6193 B(  2-C ,  6-C ) :   1.1848 B(  3-N ,  4-O ) :   0.9666
B(  3-N ,  5-C ) :   0.1201 B(  4-O ,  5-C ) :   1.1526 B(  4-O ,  6-C ) :   0.1038
B(  5-C ,  6-C ) :   1.5742 B(  5-C , 10-H ) :   0.9877

FINAL SINGLE POINT ENERGY      -338.787368672094

DIPOLE MOMENT
-------------
                                X             Y             Z
Electronic contribution:      2.23168       2.83671      -1.51046
Nuclear contribution   :     -2.74379      -3.96711       2.38352
                        -----------------------------------------
Total Dipole Moment    :     -0.51211      -1.13041       0.87306
                        -----------------------------------------
Magnitude (a.u.)       :      1.51733
Magnitude (Debye)      :      3.85676

                             ****ORCA TERMINATED NORMALLY****
TOTAL RUN TIME: 0 days 0 hours 0 minutes 5 seconds 345 msec
