                         Program Version 3.0.3 - RELEASE   -
|  1> ! RI PBE def2-SVP def2-SVP/J NBO PAL2
|  2> % maxcore 2000
|  3> % output
|  4>     # printlevel mini
|  5>     print[ P_Basis ] 0
|  6>     print[ P_SCFInfo ] 1
|  7>     print[ P_SCFIterInfo ] 1
|  8>     print[ P_OrbEn ] 0
|  9>     print[ P_Cartesian ] 0
| 10> end
| 11> *xyz 0 1
| 12>  C       -0.1875350000    -0.9919770000    -0.6881120000
| 13>  O        1.1424230000    -1.1507570000    -1.1558340000
| 14>  C        0.9270600000    -0.3344790000    -0.0130840000
| 15>  C        1.5246150000    -0.7835240000     1.2797140000
| 16>  C        0.8558780000    -0.3407540000     2.5955760000
| 17>  N        1.1694230000    -1.6639230000     3.1546400000
| 18>  C        1.3390990000    -2.2181210000     1.8005700000
| 19>  H       -0.6376740000    -1.8834590000    -0.2606800000
| 20>  H       -0.8395050000    -0.4056990000    -1.3317620000
| 21>  H        1.0537270000     0.7308220000    -0.2141280000
| 22>  H        2.5853910000    -0.5192240000     1.2895350000
| 23>  H       -0.2175780000    -0.1526240000     2.4533670000
| 24>  H        1.2959580000     0.5023830000     3.1342670000
| 25>  H        0.4408970000    -2.0874800000     3.7139400000
| 26>  H        0.4386210000    -2.6972080000     1.3969060000
| 27>  H        2.1811000000    -2.9039860000     1.6869840000
| 28> *
| 29>
| 30>                          ****END OF INPUT****
 Total Charge           Charge          ....    0
 Multiplicity           Mult            ....    1
 Number of Electrons    NEL             ....   54
 Basis Dimension        Dim             ....  143

MULLIKEN ATOMIC CHARGES
-----------------------
   0 C :    0.136489
   1 O :   -0.292660
   2 C :    0.044346
   3 C :   -0.160759
   4 C :    0.166221
   5 N :   -0.280433
   6 C :    0.173533
   7 H :    0.021836
   8 H :    0.029759
   9 H :    0.019181
  10 H :    0.028084
  11 H :   -0.006648
  12 H :    0.011442
  13 H :    0.094600
  14 H :   -0.007322
  15 H :    0.022332
Sum of atomic charges:   -0.0000000

LOEWDIN ATOMIC CHARGES
----------------------
   0 C :    0.051290
   1 O :   -0.155423
   2 C :    0.036932
   3 C :   -0.049762
   4 C :    0.034867
   5 N :   -0.112772
   6 C :    0.035627
   7 H :    0.008628
   8 H :    0.015622
   9 H :    0.017507
  10 H :    0.037572
  11 H :    0.003154
  12 H :    0.010580
  13 H :    0.046315
  14 H :    0.004377
  15 H :    0.015488

  Mayer bond orders larger than 0.1
B(  0-C ,  1-O ) :   1.0030 B(  0-C ,  2-C ) :   1.1017 B(  0-C ,  7-H ) :   0.9261
B(  0-C ,  8-H ) :   0.9333 B(  1-O ,  2-C ) :   0.9790 B(  2-C ,  3-C ) :   1.0133
B(  2-C ,  9-H ) :   0.9332 B(  3-C ,  4-C ) :   1.0594 B(  3-C ,  6-C ) :   1.0698
B(  3-C , 10-H ) :   0.8875 B(  4-C ,  5-N ) :   1.0576 B(  4-C , 11-H ) :   0.9260
B(  4-C , 12-H ) :   0.9346 B(  5-N ,  6-C ) :   1.0453 B(  5-N , 13-H ) :   0.9426
B(  6-C , 14-H ) :   0.9241 B(  6-C , 15-H ) :   0.9312

FINAL SINGLE POINT ENERGY      -325.190100395219

DIPOLE MOMENT
-------------
                                X             Y             Z
Electronic contribution:      1.40593      -0.08102      -2.49745
Nuclear contribution   :     -2.13936       0.29956       2.81827
                        -----------------------------------------
Total Dipole Moment    :     -0.73344       0.21854       0.32082
                        -----------------------------------------
Magnitude (a.u.)       :      0.82983
Magnitude (Debye)      :      2.10926

                             ****ORCA TERMINATED NORMALLY****
TOTAL RUN TIME: 0 days 0 hours 0 minutes 6 seconds 988 msec
