                         Program Version 3.0.3 - RELEASE   -
|  1> ! RI PBE def2-SVP def2-SVP/J NBO PAL2
|  2> % maxcore 2000
|  3> % output
|  4>     # printlevel mini
|  5>     print[ P_Basis ] 0
|  6>     print[ P_SCFInfo ] 1
|  7>     print[ P_SCFIterInfo ] 1
|  8>     print[ P_OrbEn ] 0
|  9>     print[ P_Cartesian ] 0
| 10> end
| 11> *xyz 0 1
| 12>  C       -1.1889290000     0.0009920000     1.0218390000
| 13>  C       -0.6413470000    -0.9941070000     0.0005280000
| 14>  C        0.8531920000    -1.2238340000     0.2302390000
| 15>  N        1.6147800000    -0.0017430000    -0.0154550000
| 16>  C        0.8562340000     1.2218820000     0.2320090000
| 17>  C       -0.6388720000     0.9962040000     0.0019700000
| 18>  O       -0.7835320000     0.0019830000    -1.0427640000
| 19>  H       -0.7611140000    -0.0002670000     2.0260880000
| 20>  H       -2.2777950000     0.0023130000     1.0654810000
| 21>  H       -1.1987360000    -1.9096470000    -0.2089410000
| 22>  H        1.2326050000    -1.9997640000    -0.4387410000
| 23>  H        1.0083950000    -1.5799760000     1.2567710000
| 24>  H        1.8666040000    -0.0013460000    -0.9927680000
| 25>  H        1.2375770000     1.9978330000    -0.4358480000
| 26>  H        1.0123210000     1.5761500000     1.2590560000
| 27>  H       -1.1939830000     1.9134290000    -0.2061740000
| 28> *
| 29>
| 30>                          ****END OF INPUT****
 Total Charge           Charge          ....    0
 Multiplicity           Mult            ....    1
 Number of Electrons    NEL             ....   54
 Basis Dimension        Dim             ....  143

MULLIKEN ATOMIC CHARGES
-----------------------
   0 C :    0.055270
   1 C :   -0.013960
   2 C :    0.184175
   3 N :   -0.245457
   4 C :    0.184394
   5 C :   -0.014014
   6 O :   -0.334007
   7 H :    0.011741
   8 H :    0.025007
   9 H :    0.007410
  10 H :    0.013158
  11 H :    0.000818
  12 H :    0.104190
  13 H :    0.013119
  14 H :    0.000784
  15 H :    0.007372
Sum of atomic charges:    0.0000000

LOEWDIN ATOMIC CHARGES
----------------------
   0 C :   -0.048671
   1 C :    0.056500
   2 C :    0.002698
   3 N :   -0.091571
   4 C :    0.002721
   5 C :    0.056499
   6 O :   -0.182381
   7 H :    0.014496
   8 H :    0.029911
   9 H :    0.011482
  10 H :    0.024118
  11 H :    0.016327
  12 H :    0.055954
  13 H :    0.024117
  14 H :    0.016324
  15 H :    0.011474

  Mayer bond orders larger than 0.1
B(  0-C ,  1-C ) :   1.0521 B(  0-C ,  5-C ) :   1.0521 B(  0-C ,  7-H ) :   0.9408
B(  0-C ,  8-H ) :   0.9138 B(  1-C ,  2-C ) :   0.9898 B(  1-C ,  6-O ) :   0.9880
B(  1-C ,  9-H ) :   0.9349 B(  2-C ,  3-N ) :   1.0872 B(  2-C , 10-H ) :   0.9377
B(  2-C , 11-H ) :   0.9169 B(  3-N ,  4-C ) :   1.0871 B(  3-N , 12-H ) :   0.9483
B(  4-C ,  5-C ) :   0.9898 B(  4-C , 13-H ) :   0.9377 B(  4-C , 14-H ) :   0.9169
B(  5-C ,  6-O ) :   0.9880 B(  5-C , 15-H ) :   0.9349

FINAL SINGLE POINT ENERGY      -325.222535152940

DIPOLE MOMENT
-------------
                                X             Y             Z
Electronic contribution:     -0.86863       0.00287      -2.47542
Nuclear contribution   :      0.70451      -0.00286       2.73611
                        -----------------------------------------
Total Dipole Moment    :     -0.16412       0.00001       0.26069
                        -----------------------------------------
Magnitude (a.u.)       :      0.30805
Magnitude (Debye)      :      0.78300

                             ****ORCA TERMINATED NORMALLY****
TOTAL RUN TIME: 0 days 0 hours 0 minutes 6 seconds 705 msec
