                         Program Version 3.0.3 - RELEASE   -
|  1> ! RI PBE def2-SVP def2-SVP/J NBO PAL2
|  2> % maxcore 2000
|  3> % output
|  4>     # printlevel mini
|  5>     print[ P_Basis ] 0
|  6>     print[ P_SCFInfo ] 1
|  7>     print[ P_SCFIterInfo ] 1
|  8>     print[ P_OrbEn ] 0
|  9>     print[ P_Cartesian ] 0
| 10> end
| 11> *xyz 0 1
| 12>  C       -1.7895060000     0.6326440000     0.2877230000
| 13>  O       -1.7179730000    -0.6913360000    -0.3185550000
| 14>  C       -0.3200510000    -0.6865050000     0.0416970000
| 15>  C        0.9560940000    -1.0565000000    -0.6693790000
| 16>  N        1.8448310000    -0.0560020000    -0.0026160000
| 17>  C        1.0645640000     1.0809210000     0.5884780000
| 18>  C       -0.2908420000     0.8059980000    -0.0133640000
| 19>  H       -2.0371120000     0.5553570000     1.3528860000
| 20>  H       -2.5002820000     1.2783990000    -0.2290180000
| 21>  H       -0.2443200000    -1.0396720000     1.0824470000
| 22>  H        0.8665340000    -0.9103860000    -1.7521540000
| 23>  H        1.3227030000    -2.0663600000    -0.4723250000
| 24>  H        2.5473440000     0.2816050000    -0.6422610000
| 25>  H        1.5111120000     2.0365760000     0.3067040000
| 26>  H        1.0691660000     1.0101050000     1.6807770000
| 27>  H       -0.2445620000     1.0724570000    -1.0751380000
| 28> *
| 29>
| 30>                          ****END OF INPUT****
 Total Charge           Charge          ....    0
 Multiplicity           Mult            ....    1
 Number of Electrons    NEL             ....   54
 Basis Dimension        Dim             ....  143

MULLIKEN ATOMIC CHARGES
-----------------------
   0 C :    0.262328
   1 O :   -0.339503
   2 C :   -0.000579
   3 C :    0.237501
   4 N :   -0.336572
   5 C :    0.244525
   6 C :   -0.245223
   7 H :    0.005479
   8 H :    0.016296
   9 H :    0.013171
  10 H :    0.006837
  11 H :    0.008133
  12 H :    0.101483
  13 H :   -0.002002
  14 H :    0.009261
  15 H :    0.018866
Sum of atomic charges:    0.0000000

LOEWDIN ATOMIC CHARGES
----------------------
   0 C :    0.097088
   1 O :   -0.179739
   2 C :    0.049957
   3 C :    0.016986
   4 N :   -0.119143
   5 C :    0.028309
   6 C :   -0.077230
   7 H :    0.011419
   8 H :    0.015028
   9 H :    0.013247
  10 H :    0.011794
  11 H :    0.017973
  12 H :    0.054036
  13 H :    0.015493
  14 H :    0.014836
  15 H :    0.029946

  Mayer bond orders larger than 0.1
B(  0-C ,  1-O ) :   0.9990 B(  0-C ,  6-C ) :   1.0666 B(  0-C ,  7-H ) :   0.9215
B(  0-C ,  8-H ) :   0.9347 B(  1-O ,  2-C ) :   1.0189 B(  2-C ,  3-C ) :   1.0405
B(  2-C ,  6-C ) :   1.0356 B(  2-C ,  9-H ) :   0.9157 B(  3-C ,  4-N ) :   1.0009
B(  3-C , 10-H ) :   0.9204 B(  3-C , 11-H ) :   0.9223 B(  4-N ,  5-C ) :   1.0157
B(  4-N , 12-H ) :   0.9392 B(  5-C ,  6-C ) :   1.0450 B(  5-C , 13-H ) :   0.9289
B(  5-C , 14-H ) :   0.9288 B(  6-C , 15-H ) :   0.8951

FINAL SINGLE POINT ENERGY      -325.177276398641

DIPOLE MOMENT
-------------
                                X             Y             Z
Electronic contribution:     -2.10690      -1.46672      -0.52844
Nuclear contribution   :      2.46648       2.09450       0.40706
                        -----------------------------------------
Total Dipole Moment    :      0.35958       0.62778      -0.12138
                        -----------------------------------------
Magnitude (a.u.)       :      0.73358
Magnitude (Debye)      :      1.86461

                             ****ORCA TERMINATED NORMALLY****
TOTAL RUN TIME: 0 days 0 hours 0 minutes 7 seconds 140 msec
