                         Program Version 3.0.3 - RELEASE   -
|  1> ! RI PBE def2-SVP def2-SVP/J NBO PAL2
|  2> % maxcore 2000
|  3> % output
|  4>     # printlevel mini
|  5>     print[ P_Basis ] 0
|  6>     print[ P_SCFInfo ] 1
|  7>     print[ P_SCFIterInfo ] 1
|  8>     print[ P_OrbEn ] 0
|  9>     print[ P_Cartesian ] 0
| 10> end
| 11> *xyz 0 1
| 12>  C        0.7469170000    -1.2239490000     0.4147850000
| 13>  N       -0.5032310000    -1.4321370000    -0.2971580000
| 14>  N       -1.5173060000    -0.5553450000    -0.2190530000
| 15>  C       -1.2548420000     0.6799500000    -0.0171800000
| 16>  C        0.1129690000     1.1992530000     0.1537270000
| 17>  O        1.0542860000     0.8677310000    -0.8867550000
| 18>  C        1.1686870000     0.2129840000     0.3537170000
| 19>  H        1.5031220000    -1.8776030000    -0.0302480000
| 20>  H        0.6632110000    -1.4865020000     1.4826260000
| 21>  H       -0.8532650000    -2.3751040000    -0.2539040000
| 22>  H       -2.1006070000     1.3587200000    -0.0163940000
| 23>  H        0.2275370000     2.2045180000     0.5482420000
| 24>  H        2.0452320000     0.4719830000     0.9457860000
| 25> *
| 26>
| 27>                          ****END OF INPUT****
 Total Charge           Charge          ....    0
 Multiplicity           Mult            ....    1
 Number of Electrons    NEL             ....   52
 Basis Dimension        Dim             ....  128

MULLIKEN ATOMIC CHARGES
-----------------------
   0 C :    0.203757
   1 N :   -0.113356
   2 N :   -0.078517
   3 C :   -0.028576
   4 C :    0.091315
   5 O :   -0.269316
   6 C :   -0.002409
   7 H :    0.023381
   8 H :    0.014738
   9 H :    0.121623
  10 H :   -0.002249
  11 H :    0.015496
  12 H :    0.024113
Sum of atomic charges:   -0.0000000

LOEWDIN ATOMIC CHARGES
----------------------
   0 C :    0.003455
   1 N :    0.012200
   2 N :   -0.028566
   3 C :   -0.088655
   4 C :    0.027780
   5 O :   -0.142538
   6 C :    0.034841
   7 H :    0.031882
   8 H :    0.021008
   9 H :    0.067118
  10 H :    0.020369
  11 H :    0.020653
  12 H :    0.020453

  Mayer bond orders larger than 0.1
B(  0-C ,  1-N ) :   1.0020 B(  0-C ,  6-C ) :   1.0264 B(  0-C ,  7-H ) :   0.9170
B(  0-C ,  8-H ) :   0.9091 B(  1-N ,  2-N ) :   1.1518 B(  1-N ,  3-C ) :   0.1256
B(  1-N ,  9-H ) :   0.9395 B(  2-N ,  3-C ) :   1.8470 B(  3-C ,  4-C ) :   1.0040
B(  3-C , 10-H ) :   0.9748 B(  4-C ,  5-O ) :   0.9087 B(  4-C ,  6-C ) :   1.0307
B(  4-C , 11-H ) :   0.9440 B(  5-O ,  6-C ) :   1.0227 B(  6-C , 12-H ) :   0.9329

FINAL SINGLE POINT ENERGY      -340.029024672458

DIPOLE MOMENT
-------------
                                X             Y             Z
Electronic contribution:     -1.00755       0.88150      -2.04267
Nuclear contribution   :      1.43498      -1.29442       2.94717
                        -----------------------------------------
Total Dipole Moment    :      0.42743      -0.41292       0.90450
                        -----------------------------------------
Magnitude (a.u.)       :      1.08227
Magnitude (Debye)      :      2.75092

                             ****ORCA TERMINATED NORMALLY****
TOTAL RUN TIME: 0 days 0 hours 0 minutes 5 seconds 841 msec
