                         Program Version 3.0.3 - RELEASE   -
|  1> ! RI PBE def2-SVP def2-SVP/J NBO PAL2
|  2> % maxcore 2000
|  3> % output
|  4>     # printlevel mini
|  5>     print[ P_Basis ] 0
|  6>     print[ P_SCFInfo ] 1
|  7>     print[ P_SCFIterInfo ] 1
|  8>     print[ P_OrbEn ] 0
|  9>     print[ P_Cartesian ] 0
| 10> end
| 11> *xyz 0 1
| 12>  C        1.0592810000     1.1644210000    -0.1405410000
| 13>  N       -0.1880310000     1.4279460000     0.5614340000
| 14>  N       -1.3209560000     0.7552420000     0.2199940000
| 15>  C       -1.3990950000    -0.4882500000     0.0254380000
| 16>  O       -0.4855700000    -1.4986490000     0.0471620000
| 17>  C        0.8606990000    -1.3402140000     0.0519690000
| 18>  C        1.5725120000    -0.2245050000    -0.0213610000
| 19>  H        1.7970070000     1.8580620000     0.2720690000
| 20>  H        0.9575550000     1.4116120000    -1.2098600000
| 21>  H       -0.4095330000     2.4118290000     0.5071390000
| 22>  H       -2.3805450000    -0.9054810000    -0.1636410000
| 23>  H        1.3365320000    -2.3113200000     0.1079680000
| 24>  H        2.6483320000    -0.3531120000    -0.0284590000
| 25> *
| 26>
| 27>                          ****END OF INPUT****
 Total Charge           Charge          ....    0
 Multiplicity           Mult            ....    1
 Number of Electrons    NEL             ....   52
 Basis Dimension        Dim             ....  128

MULLIKEN ATOMIC CHARGES
-----------------------
   0 C :    0.155833
   1 N :   -0.108715
   2 N :   -0.115627
   3 C :    0.070731
   4 O :   -0.201575
   5 C :    0.117571
   6 C :   -0.147204
   7 H :    0.016396
   8 H :    0.036053
   9 H :    0.118545
  10 H :    0.025734
  11 H :    0.013706
  12 H :    0.018552
Sum of atomic charges:    0.0000000

LOEWDIN ATOMIC CHARGES
----------------------
   0 C :    0.004909
   1 N :   -0.012538
   2 N :   -0.081193
   3 C :   -0.010565
   4 O :   -0.028155
   5 C :    0.028905
   6 C :   -0.120847
   7 H :    0.036032
   8 H :    0.030028
   9 H :    0.064170
  10 H :    0.021373
  11 H :    0.027634
  12 H :    0.040247

  Mayer bond orders larger than 0.1
B(  0-C ,  1-N ) :   1.0231 B(  0-C ,  6-C ) :   1.0493 B(  0-C ,  7-H ) :   0.9157
B(  0-C ,  8-H ) :   0.9110 B(  1-N ,  2-N ) :   1.0757 B(  1-N ,  3-C ) :   0.1057
B(  1-N ,  9-H ) :   0.9398 B(  2-N ,  3-C ) :   1.8973 B(  3-C ,  4-O ) :   1.0773
B(  3-C , 10-H ) :   0.9598 B(  4-O ,  5-C ) :   1.1094 B(  5-C ,  6-C ) :   1.8302
B(  5-C , 11-H ) :   0.9655 B(  6-C , 12-H ) :   0.9377

FINAL SINGLE POINT ENERGY      -340.036669382440

DIPOLE MOMENT
-------------
                                X             Y             Z
Electronic contribution:     -3.00233      -1.75976       0.76987
Nuclear contribution   :      3.67703       2.08277      -1.06395
                        -----------------------------------------
Total Dipole Moment    :      0.67470       0.32301      -0.29408
                        -----------------------------------------
Magnitude (a.u.)       :      0.80376
Magnitude (Debye)      :      2.04301

                             ****ORCA TERMINATED NORMALLY****
TOTAL RUN TIME: 0 days 0 hours 0 minutes 6 seconds 206 msec
