                         Program Version 3.0.3 - RELEASE   -
|  1> ! RI PBE def2-SVP def2-SVP/J NBO PAL2
|  2> % maxcore 2000
|  3> % output
|  4>     # printlevel mini
|  5>     print[ P_Basis ] 0
|  6>     print[ P_SCFInfo ] 1
|  7>     print[ P_SCFIterInfo ] 1
|  8>     print[ P_OrbEn ] 0
|  9>     print[ P_Cartesian ] 0
| 10> end
| 11> *xyz 0 1
| 12>  C        1.7255440000    -0.0175540000    -0.7572890000
| 13>  O        1.4252250000     0.5016670000     0.5948330000
| 14>  C        2.2094480000     1.5946750000     0.2705700000
| 15>  C        2.7647920000     2.7953570000     0.5995780000
| 16>  N        3.4750270000     3.1341080000    -0.5467680000
| 17>  C        3.3636490000     2.1872130000    -1.5370610000
| 18>  C        2.5606780000     1.2121010000    -1.0164940000
| 19>  H        0.8040370000    -0.1222750000    -1.3322450000
| 20>  H        2.2531430000    -0.9699760000    -0.6848630000
| 21>  H        2.7521330000     3.4348420000     1.4651840000
| 22>  H        4.0093730000     3.9777880000    -0.6382910000
| 23>  H        3.8644410000     2.3213540000    -2.4823540000
| 24> *
| 25>
| 26>                          ****END OF INPUT****
 Total Charge           Charge          ....    0
 Multiplicity           Mult            ....    1
 Number of Electrons    NEL             ....   50
 Basis Dimension        Dim             ....  123

MULLIKEN ATOMIC CHARGES
-----------------------
   0 C :    0.261770
   1 O :   -0.301012
   2 C :    0.195235
   3 C :   -0.082018
   4 N :   -0.089070
   5 C :   -0.049291
   6 C :   -0.125228
   7 H :    0.041932
   8 H :    0.040977
   9 H :   -0.004581
  10 H :    0.116454
  11 H :   -0.005169
Sum of atomic charges:    0.0000000

LOEWDIN ATOMIC CHARGES
----------------------
   0 C :    0.129443
   1 O :   -0.129322
   2 C :   -0.002109
   3 C :   -0.087447
   4 N :    0.090531
   5 C :   -0.037821
   6 C :   -0.135745
   7 H :    0.027973
   8 H :    0.027645
   9 H :    0.018982
  10 H :    0.080915
  11 H :    0.016956

  Mayer bond orders larger than 0.1
B(  0-C ,  1-O ) :   0.9893 B(  0-C ,  6-C ) :   1.0630 B(  0-C ,  7-H ) :   0.9270
B(  0-C ,  8-H ) :   0.9282 B(  1-O ,  2-C ) :   1.0692 B(  2-C ,  3-C ) :   1.4296
B(  2-C ,  6-C ) :   1.3532 B(  3-C ,  4-N ) :   1.1431 B(  3-C ,  5-C ) :   0.1232
B(  3-C ,  9-H ) :   1.0049 B(  4-N ,  5-C ) :   1.2346 B(  4-N , 10-H ) :   0.9421
B(  5-C ,  6-C ) :   1.4393 B(  5-C , 11-H ) :   0.9850

FINAL SINGLE POINT ENERGY      -322.798746480634

DIPOLE MOMENT
-------------
                                X             Y             Z
Electronic contribution:     -0.56664       0.05475       1.32908
Nuclear contribution   :      1.14180       0.50401      -1.89616
                        -----------------------------------------
Total Dipole Moment    :      0.57516       0.55876      -0.56708
                        -----------------------------------------
Magnitude (a.u.)       :      0.98214
Magnitude (Debye)      :      2.49639

                             ****ORCA TERMINATED NORMALLY****
TOTAL RUN TIME: 0 days 0 hours 0 minutes 5 seconds 501 msec
