                         Program Version 3.0.3 - RELEASE   -
|  1> ! RI PBE def2-SVP def2-SVP/J NBO PAL2
|  2> % maxcore 2000
|  3> % output
|  4>     # printlevel mini
|  5>     print[ P_Basis ] 0
|  6>     print[ P_SCFInfo ] 1
|  7>     print[ P_SCFIterInfo ] 1
|  8>     print[ P_OrbEn ] 0
|  9>     print[ P_Cartesian ] 0
| 10> end
| 11> *xyz 0 1
| 12>  C        1.3531100000    -0.5541260000    -0.0127210000
| 13>  O        2.4178150000     0.4837370000    -0.0259780000
| 14>  C        3.3321470000    -0.5455680000    -0.1853620000
| 15>  C        4.5793510000    -1.0819360000    -0.3359210000
| 16>  N        4.3035900000    -2.4322510000    -0.4158810000
| 17>  N        3.0021690000    -2.7699340000    -0.3278600000
| 18>  C        2.4409850000    -1.5883040000    -0.1876680000
| 19>  H        0.6699080000    -0.4023780000    -0.8488080000
| 20>  H        0.8267250000    -0.5403720000     0.9420370000
| 21>  H        5.5883200000    -0.7101830000    -0.3956420000
| 22>  H        4.9784800000    -3.1662840000    -0.5315860000
| 23> *
| 24>
| 25>                          ****END OF INPUT****
 Total Charge           Charge          ....    0
 Multiplicity           Mult            ....    1
 Number of Electrons    NEL             ....   50
 Basis Dimension        Dim             ....  118

MULLIKEN ATOMIC CHARGES
-----------------------
   0 C :    0.254178
   1 O :   -0.298279
   2 C :    0.136282
   3 C :   -0.002003
   4 N :   -0.057213
   5 N :   -0.089676
   6 C :   -0.177394
   7 H :    0.055261
   8 H :    0.052294
   9 H :   -0.003524
  10 H :    0.130074
Sum of atomic charges:    0.0000000

LOEWDIN ATOMIC CHARGES
----------------------
   0 C :    0.126374
   1 O :   -0.124092
   2 C :   -0.020511
   3 C :   -0.066607
   4 N :    0.121890
   5 N :   -0.089573
   6 C :   -0.118807
   7 H :    0.033824
   8 H :    0.033379
   9 H :    0.024970
  10 H :    0.079156

  Mayer bond orders larger than 0.1
B(  0-C ,  1-O ) :   0.9910 B(  0-C ,  6-C ) :   1.1213 B(  0-C ,  7-H ) :   0.9225
B(  0-C ,  8-H ) :   0.9224 B(  1-O ,  2-C ) :   1.0719 B(  2-C ,  3-C ) :   1.3895
B(  2-C ,  6-C ) :   1.3406 B(  3-C ,  4-N ) :   1.1361 B(  3-C ,  5-N ) :   0.1512
B(  3-C ,  9-H ) :   1.0029 B(  4-N ,  5-N ) :   1.1826 B(  4-N , 10-H ) :   0.9443
B(  5-N ,  6-C ) :   1.5375

FINAL SINGLE POINT ENERGY      -338.804132887478

DIPOLE MOMENT
-------------
                                X             Y             Z
Electronic contribution:      0.62113      -0.15321      -0.06912
Nuclear contribution   :     -0.15831      -0.01016       0.01299
                        -----------------------------------------
Total Dipole Moment    :      0.46282      -0.16337      -0.05614
                        -----------------------------------------
Magnitude (a.u.)       :      0.49400
Magnitude (Debye)      :      1.25566

                             ****ORCA TERMINATED NORMALLY****
TOTAL RUN TIME: 0 days 0 hours 0 minutes 5 seconds 235 msec
