                         Program Version 3.0.3 - RELEASE   -
|  1> ! RI PBE def2-SVP def2-SVP/J NBO PAL2
|  2> % maxcore 2000
|  3> % output
|  4>     # printlevel mini
|  5>     print[ P_Basis ] 0
|  6>     print[ P_SCFInfo ] 1
|  7>     print[ P_SCFIterInfo ] 1
|  8>     print[ P_OrbEn ] 0
|  9>     print[ P_Cartesian ] 0
| 10> end
| 11> *xyz 0 1
| 12>  C        1.6968150000    -0.3928180000     0.1588470000
| 13>  O        0.8107950000    -1.5248080000     0.0931460000
| 14>  C       -0.1765290000    -0.7614810000    -0.6239610000
| 15>  C       -1.3987800000    -0.3858490000     0.1529780000
| 16>  N       -1.3366750000     0.7816780000     0.6654790000
| 17>  N       -0.1067880000     1.3415110000     0.4295670000
| 18>  C        0.6634470000     0.5243010000    -0.4958780000
| 19>  H        2.6024010000    -0.5632370000    -0.4333930000
| 20>  H        1.9613640000    -0.1282970000     1.1857280000
| 21>  H       -0.3805840000    -1.2030910000    -1.6036670000
| 22>  H       -2.2863970000    -0.9907290000     0.2823920000
| 23>  H       -0.1867080000     2.3270050000     0.2338660000
| 24>  H        0.9726570000     1.0690850000    -1.3883150000
| 25> *
| 26>
| 27>                          ****END OF INPUT****
 Total Charge           Charge          ....    0
 Multiplicity           Mult            ....    1
 Number of Electrons    NEL             ....   52
 Basis Dimension        Dim             ....  128

MULLIKEN ATOMIC CHARGES
-----------------------
   0 C :    0.320626
   1 O :   -0.341186
   2 C :    0.115548
   3 C :    0.011400
   4 N :   -0.092208
   5 N :   -0.088198
   6 C :   -0.123838
   7 H :    0.011158
   8 H :    0.006479
   9 H :    0.017471
  10 H :    0.018742
  11 H :    0.121556
  12 H :    0.022451
Sum of atomic charges:   -0.0000000

LOEWDIN ATOMIC CHARGES
----------------------
   0 C :    0.088500
   1 O :   -0.178824
   2 C :    0.046869
   3 C :   -0.067470
   4 N :   -0.024039
   5 N :   -0.003328
   6 C :   -0.010081
   7 H :    0.011268
   8 H :    0.015563
   9 H :    0.015147
  10 H :    0.022460
  11 H :    0.063823
  12 H :    0.020113

  Mayer bond orders larger than 0.1
B(  0-C ,  1-O ) :   1.0349 B(  0-C ,  6-C ) :   1.0681 B(  0-C ,  7-H ) :   0.9305
B(  0-C ,  8-H ) :   0.9034 B(  1-O ,  2-C ) :   1.0424 B(  2-C ,  3-C ) :   0.9630
B(  2-C ,  6-C ) :   1.0579 B(  2-C ,  9-H ) :   0.9220 B(  3-C ,  4-N ) :   1.8402
B(  3-C ,  5-N ) :   0.1132 B(  3-C , 10-H ) :   0.9820 B(  4-N ,  5-N ) :   1.1054
B(  5-N ,  6-C ) :   0.9815 B(  5-N , 11-H ) :   0.9404 B(  6-C , 12-H ) :   0.9273

FINAL SINGLE POINT ENERGY      -340.022399236368

DIPOLE MOMENT
-------------
                                X             Y             Z
Electronic contribution:     -1.83641      -0.22866       1.08343
Nuclear contribution   :      2.23931       0.83388      -1.91991
                        -----------------------------------------
Total Dipole Moment    :      0.40290       0.60522      -0.83647
                        -----------------------------------------
Magnitude (a.u.)       :      1.10829
Magnitude (Debye)      :      2.81705

                             ****ORCA TERMINATED NORMALLY****
TOTAL RUN TIME: 0 days 0 hours 0 minutes 6 seconds 492 msec
