                         Program Version 3.0.3 - RELEASE   -
|  1> ! RI PBE def2-SVP def2-SVP/J NBO PAL2
|  2> % maxcore 2000
|  3> % output
|  4>     # printlevel mini
|  5>     print[ P_Basis ] 0
|  6>     print[ P_SCFInfo ] 1
|  7>     print[ P_SCFIterInfo ] 1
|  8>     print[ P_OrbEn ] 0
|  9>     print[ P_Cartesian ] 0
| 10> end
| 11> *xyz 0 1
| 12>  C        1.6313930000    -0.2943930000     0.1215270000
| 13>  O        0.8429170000    -1.5023200000     0.0543440000
| 14>  C       -0.1882930000    -0.8254200000    -0.6750230000
| 15>  C       -1.3260730000    -0.3463040000     0.1724010000
| 16>  N       -1.2546980000     0.8811540000     0.4920280000
| 17>  O       -0.1347000000     1.4651660000    -0.0708920000
| 18>  C        0.6235610000     0.4661890000    -0.7406430000
| 19>  H        2.6233570000    -0.4427150000    -0.3129050000
| 20>  H        1.7194460000     0.0929230000     1.1402720000
| 21>  H       -0.4850830000    -1.3740480000    -1.5718880000
| 22>  H       -2.1645610000    -0.9337980000     0.5225340000
| 23>  H        0.9650340000     0.8657440000    -1.6932340000
| 24> *
| 25>
| 26>                          ****END OF INPUT****
 Total Charge           Charge          ....    0
 Multiplicity           Mult            ....    1
 Number of Electrons    NEL             ....   52
 Basis Dimension        Dim             ....  123

MULLIKEN ATOMIC CHARGES
-----------------------
   0 C :    0.271344
   1 O :   -0.335126
   2 C :    0.095513
   3 C :    0.009607
   4 N :    0.026575
   5 O :   -0.240098
   6 C :    0.012596
   7 H :    0.028312
   8 H :    0.027029
   9 H :    0.033426
  10 H :    0.035943
  11 H :    0.034879
Sum of atomic charges:   -0.0000000

LOEWDIN ATOMIC CHARGES
----------------------
   0 C :    0.086046
   1 O :   -0.170489
   2 C :    0.040974
   3 C :   -0.059958
   4 N :    0.026751
   5 O :   -0.079574
   6 C :    0.031803
   7 H :    0.019982
   8 H :    0.022681
   9 H :    0.021796
  10 H :    0.033468
  11 H :    0.026519

  Mayer bond orders larger than 0.1
B(  0-C ,  1-O ) :   1.0215 B(  0-C ,  6-C ) :   1.0667 B(  0-C ,  7-H ) :   0.9345
B(  0-C ,  8-H ) :   0.9050 B(  1-O ,  2-C ) :   1.0572 B(  2-C ,  3-C ) :   0.9321
B(  2-C ,  6-C ) :   1.0712 B(  2-C ,  9-H ) :   0.9177 B(  3-C ,  4-N ) :   1.8749
B(  3-C ,  5-O ) :   0.1101 B(  3-C , 10-H ) :   0.9689 B(  4-N ,  5-O ) :   0.9847
B(  5-O ,  6-C ) :   0.9726 B(  6-C , 11-H ) :   0.9272

FINAL SINGLE POINT ENERGY      -359.842111030381

DIPOLE MOMENT
-------------
                                X             Y             Z
Electronic contribution:     -1.89148       1.18088       0.69968
Nuclear contribution   :      2.24317      -1.57816      -1.37576
                        -----------------------------------------
Total Dipole Moment    :      0.35169      -0.39728      -0.67608
                        -----------------------------------------
Magnitude (a.u.)       :      0.85941
Magnitude (Debye)      :      2.18446

                             ****ORCA TERMINATED NORMALLY****
TOTAL RUN TIME: 0 days 0 hours 0 minutes 6 seconds 136 msec
