                         Program Version 3.0.3 - RELEASE   -
|  1> ! RI PBE def2-SVP def2-SVP/J NBO PAL2
|  2> % maxcore 2000
|  3> % output
|  4>     # printlevel mini
|  5>     print[ P_Basis ] 0
|  6>     print[ P_SCFInfo ] 1
|  7>     print[ P_SCFIterInfo ] 1
|  8>     print[ P_OrbEn ] 0
|  9>     print[ P_Cartesian ] 0
| 10> end
| 11> *xyz 0 1
| 12>  C        1.4483050000    -0.1462780000    -0.5795010000
| 13>  O        1.7997780000     0.6995450000     0.5883650000
| 14>  C        2.5775990000     1.4615070000    -0.2609140000
| 15>  C        3.4104900000     2.4572740000    -0.6138800000
| 16>  O        3.6233660000     2.3065680000    -1.9577580000
| 17>  N        2.9282890000     1.2146920000    -2.4703300000
| 18>  C        2.3269210000     0.7520820000    -1.4223260000
| 19>  H        0.3771150000    -0.1038560000    -0.7739020000
| 20>  H        1.7953210000    -1.1681580000    -0.4298990000
| 21>  H        3.9195260000     3.2851140000    -0.1512360000
| 22> *
| 23>
| 24>                          ****END OF INPUT****
 Total Charge           Charge          ....    0
 Multiplicity           Mult            ....    1
 Number of Electrons    NEL             ....   50
 Basis Dimension        Dim             ....  113

MULLIKEN ATOMIC CHARGES
-----------------------
   0 C :    0.261965
   1 O :   -0.283390
   2 C :    0.161641
   3 C :    0.054202
   4 O :   -0.180747
   5 N :    0.011390
   6 C :   -0.190703
   7 H :    0.069616
   8 H :    0.066848
   9 H :    0.029179
Sum of atomic charges:   -0.0000000

LOEWDIN ATOMIC CHARGES
----------------------
   0 C :    0.132089
   1 O :   -0.109530
   2 C :   -0.025453
   3 C :   -0.006971
   4 O :    0.021568
   5 N :   -0.023573
   6 C :   -0.101439
   7 H :    0.041057
   8 H :    0.040734
   9 H :    0.031518

  Mayer bond orders larger than 0.1
B(  0-C ,  1-O ) :   0.9927 B(  0-C ,  6-C ) :   1.0990 B(  0-C ,  7-H ) :   0.9225
B(  0-C ,  8-H ) :   0.9220 B(  1-O ,  2-C ) :   1.0774 B(  2-C ,  3-C ) :   1.4775
B(  2-C ,  4-O ) :   0.1051 B(  2-C ,  6-C ) :   1.2473 B(  3-C ,  4-O ) :   1.0809
B(  3-C ,  5-N ) :   0.1424 B(  3-C ,  9-H ) :   1.0037 B(  4-O ,  5-N ) :   1.0201
B(  5-N ,  6-C ) :   1.6352

FINAL SINGLE POINT ENERGY      -358.610512893347

DIPOLE MOMENT
-------------
                                X             Y             Z
Electronic contribution:      1.17446       1.30698      -0.80164
Nuclear contribution   :     -1.56209      -1.62639       1.40813
                        -----------------------------------------
Total Dipole Moment    :     -0.38763      -0.31941       0.60649
                        -----------------------------------------
Magnitude (a.u.)       :      0.78747
Magnitude (Debye)      :      2.00159

                             ****ORCA TERMINATED NORMALLY****
TOTAL RUN TIME: 0 days 0 hours 0 minutes 5 seconds 224 msec
