                         Program Version 3.0.3 - RELEASE   -
|  1> ! RI PBE def2-SVP def2-SVP/J NBO PAL2
|  2> % maxcore 2000
|  3> % output
|  4>     # printlevel mini
|  5>     print[ P_Basis ] 0
|  6>     print[ P_SCFInfo ] 1
|  7>     print[ P_SCFIterInfo ] 1
|  8>     print[ P_OrbEn ] 0
|  9>     print[ P_Cartesian ] 0
| 10> end
| 11> *xyz 0 1
| 12>  C        1.3905630000    -0.6437780000    -0.2099070000
| 13>  O        2.3990690000     0.4491540000    -0.1923310000
| 14>  C        3.1708000000    -0.3710260000    -0.9743460000
| 15>  N        4.3190750000    -0.4472390000    -1.5885590000
| 16>  N        4.1995740000    -1.6955610000    -2.1280660000
| 17>  C        3.0274180000    -2.3401390000    -1.8475780000
| 18>  C        2.3267420000    -1.4584220000    -1.0718200000
| 19>  H        0.4704180000    -0.2905920000    -0.6757340000
| 20>  H        1.2149940000    -1.0014550000     0.8048060000
| 21>  H        4.9601120000    -2.0472230000    -2.6797100000
| 22>  H        2.8421340000    -3.3317300000    -2.2304670000
| 23> *
| 24>
| 25>                          ****END OF INPUT****
 Total Charge           Charge          ....    0
 Multiplicity           Mult            ....    1
 Number of Electrons    NEL             ....   50
 Basis Dimension        Dim             ....  118

MULLIKEN ATOMIC CHARGES
-----------------------
   0 C :    0.272383
   1 O :   -0.299654
   2 C :    0.166015
   3 N :   -0.121177
   4 N :   -0.061587
   5 C :    0.027549
   6 C :   -0.206278
   7 H :    0.049103
   8 H :    0.050121
   9 H :    0.129068
  10 H :   -0.005542
Sum of atomic charges:    0.0000000

LOEWDIN ATOMIC CHARGES
----------------------
   0 C :    0.137324
   1 O :   -0.116608
   2 C :   -0.010656
   3 N :   -0.123875
   4 N :    0.120484
   5 C :   -0.018335
   6 C :   -0.156249
   7 H :    0.032204
   8 H :    0.032352
   9 H :    0.079480
  10 H :    0.023877

  Mayer bond orders larger than 0.1
B(  0-C ,  1-O ) :   0.9803 B(  0-C ,  6-C ) :   1.0634 B(  0-C ,  7-H ) :   0.9256
B(  0-C ,  8-H ) :   0.9257 B(  1-O ,  2-C ) :   1.0845 B(  2-C ,  3-N ) :   1.5642
B(  2-C ,  6-C ) :   1.2963 B(  3-N ,  4-N ) :   1.1136 B(  3-N ,  5-C ) :   0.1397
B(  4-N ,  5-C ) :   1.2209 B(  4-N ,  9-H ) :   0.9458 B(  5-C ,  6-C ) :   1.4429
B(  5-C , 10-H ) :   0.9849

FINAL SINGLE POINT ENERGY      -338.812307002904

DIPOLE MOMENT
-------------
                                X             Y             Z
Electronic contribution:      1.85439       1.61635      -0.15497
Nuclear contribution   :     -2.27714      -2.82824      -0.21302
                        -----------------------------------------
Total Dipole Moment    :     -0.42275      -1.21189      -0.36800
                        -----------------------------------------
Magnitude (a.u.)       :      1.33522
Magnitude (Debye)      :      3.39386

                             ****ORCA TERMINATED NORMALLY****
TOTAL RUN TIME: 0 days 0 hours 0 minutes 5 seconds 117 msec
