                         Program Version 3.0.3 - RELEASE   -
|  1> ! RI PBE def2-SVP def2-SVP/J NBO PAL2
|  2> % maxcore 2000
|  3> % output
|  4>     # printlevel mini
|  5>     print[ P_Basis ] 0
|  6>     print[ P_SCFInfo ] 1
|  7>     print[ P_SCFIterInfo ] 1
|  8>     print[ P_OrbEn ] 0
|  9>     print[ P_Cartesian ] 0
| 10> end
| 11> *xyz 0 1
| 12>  C        1.5360280000    -0.2011430000    -0.6799170000
| 13>  O        2.1974940000     0.8369340000     0.1563620000
| 14>  C        3.1129160000     0.9576620000    -0.8458720000
| 15>  N        4.1796000000     1.5925270000    -1.2026740000
| 16>  O        4.4103410000     1.0088500000    -2.4631340000
| 17>  C        3.4675960000     0.0779090000    -2.7547720000
| 18>  C        2.6022670000     0.0110790000    -1.7297650000
| 19>  H        0.5256240000     0.1145740000    -0.9369510000
| 20>  H        1.5431340000    -1.1589100000    -0.1609820000
| 21>  H        3.5927120000    -0.4049610000    -3.7112950000
| 22> *
| 23>
| 24>                          ****END OF INPUT****
 Total Charge           Charge          ....    0
 Multiplicity           Mult            ....    1
 Number of Electrons    NEL             ....   50
 Basis Dimension        Dim             ....  113

MULLIKEN ATOMIC CHARGES
-----------------------
   0 C :    0.273604
   1 O :   -0.281192
   2 C :    0.152547
   3 N :   -0.028200
   4 O :   -0.181353
   5 C :    0.081189
   6 C :   -0.171333
   7 H :    0.063640
   8 H :    0.064266
   9 H :    0.026832
Sum of atomic charges:   -0.0000000

LOEWDIN ATOMIC CHARGES
----------------------
   0 C :    0.142969
   1 O :   -0.096147
   2 C :   -0.007987
   3 N :   -0.065052
   4 O :    0.023058
   5 C :    0.042372
   6 C :   -0.147011
   7 H :    0.038449
   8 H :    0.038568
   9 H :    0.030781

  Mayer bond orders larger than 0.1
B(  0-C ,  1-O ) :   0.9769 B(  0-C ,  6-C ) :   1.0463 B(  0-C ,  7-H ) :   0.9276
B(  0-C ,  8-H ) :   0.9263 B(  1-O ,  2-C ) :   1.0994 B(  2-C ,  3-N ) :   1.6209
B(  2-C ,  6-C ) :   1.2005 B(  3-N ,  4-O ) :   0.9655 B(  3-N ,  5-C ) :   0.1268
B(  4-O ,  5-C ) :   1.1503 B(  4-O ,  6-C ) :   0.1050 B(  5-C ,  6-C ) :   1.5619
B(  5-C ,  9-H ) :   0.9860

FINAL SINGLE POINT ENERGY      -358.619455924031

DIPOLE MOMENT
-------------
                                X             Y             Z
Electronic contribution:      2.28026       1.97593       0.24574
Nuclear contribution   :     -3.33663      -3.10056      -0.71326
                        -----------------------------------------
Total Dipole Moment    :     -1.05637      -1.12463      -0.46752
                        -----------------------------------------
Magnitude (a.u.)       :      1.61223
Magnitude (Debye)      :      4.09797

                             ****ORCA TERMINATED NORMALLY****
TOTAL RUN TIME: 0 days 0 hours 0 minutes 5 seconds 317 msec
