                         Program Version 3.0.3 - RELEASE   -
|  1> ! RI PBE def2-SVP def2-SVP/J NBO PAL2
|  2> % maxcore 2000
|  3> % output
|  4>     # printlevel mini
|  5>     print[ P_Basis ] 0
|  6>     print[ P_SCFInfo ] 1
|  7>     print[ P_SCFIterInfo ] 1
|  8>     print[ P_OrbEn ] 0
|  9>     print[ P_Cartesian ] 0
| 10> end
| 11> *xyz 0 1
| 12>  C       -1.2013980000    -0.0006940000     1.0045910000
| 13>  C       -0.6217500000    -1.0177220000     0.0073770000
| 14>  C        0.8594480000    -1.1947400000     0.2850570000
| 15>  O        1.4416600000     0.0006410000     0.7700190000
| 16>  C        0.8582800000     1.1956230000     0.2854780000
| 17>  C       -0.6227450000     1.0172560000     0.0077380000
| 18>  N       -0.8279840000    -0.0001460000    -1.0485510000
| 19>  H       -0.8106750000    -0.0006830000     2.0214150000
| 20>  H       -2.2896850000    -0.0012250000     0.9963010000
| 21>  H       -1.1267940000    -1.9744780000    -0.1498140000
| 22>  H        1.3646870000    -1.5274090000    -0.6361490000
| 23>  H        1.0334660000    -1.9517500000     1.0560190000
| 24>  H        1.3631930000     1.5291110000    -0.6356110000
| 25>  H        1.0315580000     1.9525310000     1.0567070000
| 26>  H       -1.1287250000     1.9735730000    -0.1491130000
| 27>  H       -0.1087160000     0.0003330000    -1.7693540000
| 28> *
| 29>
| 30>                          ****END OF INPUT****
 Total Charge           Charge          ....    0
 Multiplicity           Mult            ....    1
 Number of Electrons    NEL             ....   54
 Basis Dimension        Dim             ....  143

MULLIKEN ATOMIC CHARGES
-----------------------
   0 C :    0.088279
   1 C :   -0.159288
   2 C :    0.290141
   3 O :   -0.356635
   4 C :    0.290138
   5 C :   -0.159327
   6 N :   -0.164571
   7 H :    0.027415
   8 H :    0.031148
   9 H :    0.005865
  10 H :   -0.003244
  11 H :    0.014473
  12 H :   -0.003255
  13 H :    0.014494
  14 H :    0.005880
  15 H :    0.078486
Sum of atomic charges:   -0.0000000

LOEWDIN ATOMIC CHARGES
----------------------
   0 C :   -0.029731
   1 C :    0.000191
   2 C :    0.056482
   3 O :   -0.155447
   4 C :    0.056481
   5 C :    0.000186
   6 N :   -0.095223
   7 H :    0.020919
   8 H :    0.032054
   9 H :    0.013377
  10 H :    0.005419
  11 H :    0.021650
  12 H :    0.005419
  13 H :    0.021653
  14 H :    0.013381
  15 H :    0.033189

  Mayer bond orders larger than 0.1
B(  0-C ,  1-C ) :   1.0133 B(  0-C ,  5-C ) :   1.0133 B(  0-C ,  7-H ) :   0.9471
B(  0-C ,  8-H ) :   0.9224 B(  1-C ,  2-C ) :   1.0195 B(  1-C ,  6-N ) :   1.0083
B(  1-C ,  9-H ) :   0.9271 B(  2-C ,  3-O ) :   1.0055 B(  2-C , 10-H ) :   0.9171
B(  2-C , 11-H ) :   0.9304 B(  3-O ,  4-C ) :   1.0054 B(  4-C ,  5-C ) :   1.0195
B(  4-C , 12-H ) :   0.9171 B(  4-C , 13-H ) :   0.9304 B(  5-C ,  6-N ) :   1.0083
B(  5-C , 14-H ) :   0.9271 B(  6-N , 15-H ) :   0.9433

FINAL SINGLE POINT ENERGY      -325.222614666103

DIPOLE MOMENT
-------------
                                X             Y             Z
Electronic contribution:      0.78355       0.00041      -0.15028
Nuclear contribution   :     -0.78796      -0.00041       0.10260
                        -----------------------------------------
Total Dipole Moment    :     -0.00441       0.00000      -0.04768
                        -----------------------------------------
Magnitude (a.u.)       :      0.04788
Magnitude (Debye)      :      0.12171

                             ****ORCA TERMINATED NORMALLY****
TOTAL RUN TIME: 0 days 0 hours 0 minutes 7 seconds 270 msec
