                         Program Version 3.0.3 - RELEASE   -
|  1> ! RI PBE def2-SVP def2-SVP/J NBO PAL2
|  2> % maxcore 2000
|  3> % output
|  4>     # printlevel mini
|  5>     print[ P_Basis ] 0
|  6>     print[ P_SCFInfo ] 1
|  7>     print[ P_SCFIterInfo ] 1
|  8>     print[ P_OrbEn ] 0
|  9>     print[ P_Cartesian ] 0
| 10> end
| 11> *xyz 0 1
| 12>  C        0.6830190000    -1.2108460000     0.5003770000
| 13>  O       -0.5799580000    -1.5051850000    -0.0827520000
| 14>  C       -1.5230940000    -0.5429410000    -0.0844190000
| 15>  C       -1.2996240000     0.7614380000     0.0596430000
| 16>  C        0.0801860000     1.2491090000     0.2053990000
| 17>  N        1.0148560000     0.8803200000    -0.8854570000
| 18>  C        1.1186470000     0.2238720000     0.4057270000
| 19>  H        1.3950430000    -1.8744230000     0.0041320000
| 20>  H        0.6429840000    -1.4815030000     1.5636680000
| 21>  H       -2.5087940000    -0.9604540000    -0.2551690000
| 22>  H       -2.1306750000     1.4518310000     0.0087140000
| 23>  H        0.2235970000     2.2174580000     0.6731340000
| 24>  H        1.7386660000     1.5861490000    -0.9781560000
| 25>  H        1.9627570000     0.4625750000     1.0489490000
| 26> *
| 27>
| 28>                          ****END OF INPUT****
 Total Charge           Charge          ....    0
 Multiplicity           Mult            ....    1
 Number of Electrons    NEL             ....   52
 Basis Dimension        Dim             ....  133

MULLIKEN ATOMIC CHARGES
-----------------------
   0 C :    0.312898
   1 O :   -0.271846
   2 C :    0.104360
   3 C :   -0.004052
   4 C :    0.001740
   5 N :   -0.163923
   6 C :   -0.153420
   7 H :    0.020925
   8 H :    0.013405
   9 H :    0.005248
  10 H :   -0.010930
  11 H :    0.013990
  12 H :    0.106849
  13 H :    0.024755
Sum of atomic charges:    0.0000000

LOEWDIN ATOMIC CHARGES
----------------------
   0 C :    0.078043
   1 O :   -0.071213
   2 C :    0.044837
   3 C :   -0.124689
   4 C :    0.002451
   5 N :   -0.100876
   6 C :   -0.025542
   7 H :    0.028198
   8 H :    0.020537
   9 H :    0.022007
  10 H :    0.030302
  11 H :    0.018536
  12 H :    0.056732
  13 H :    0.020676

  Mayer bond orders larger than 0.1
B(  0-C ,  1-O ) :   0.9845 B(  0-C ,  6-C ) :   1.0345 B(  0-C ,  7-H ) :   0.9267
B(  0-C ,  8-H ) :   0.9334 B(  1-O ,  2-C ) :   1.1462 B(  1-O ,  3-C ) :   0.1044
B(  2-C ,  3-C ) :   1.7449 B(  2-C ,  9-H ) :   0.9662 B(  3-C ,  4-C ) :   1.0471
B(  3-C , 10-H ) :   0.9658 B(  4-C ,  5-N ) :   0.9467 B(  4-C ,  6-C ) :   1.0038
B(  4-C , 11-H ) :   0.9528 B(  5-N ,  6-C ) :   0.9606 B(  5-N , 12-H ) :   0.9378
B(  6-C , 13-H ) :   0.9258

FINAL SINGLE POINT ENERGY      -324.014203773956

DIPOLE MOMENT
-------------
                                X             Y             Z
Electronic contribution:     -1.08012      -1.15433      -1.21084
Nuclear contribution   :      1.57997       1.60722       1.83599
                        -----------------------------------------
Total Dipole Moment    :      0.49985       0.45289       0.62515
                        -----------------------------------------
Magnitude (a.u.)       :      0.91966
Magnitude (Debye)      :      2.33759

                             ****ORCA TERMINATED NORMALLY****
TOTAL RUN TIME: 0 days 0 hours 0 minutes 6 seconds 810 msec
