                         Program Version 3.0.3 - RELEASE   -
|  1> ! RI PBE def2-SVP def2-SVP/J NBO PAL2
|  2> % maxcore 2000
|  3> % output
|  4>     # printlevel mini
|  5>     print[ P_Basis ] 0
|  6>     print[ P_SCFInfo ] 1
|  7>     print[ P_SCFIterInfo ] 1
|  8>     print[ P_OrbEn ] 0
|  9>     print[ P_Cartesian ] 0
| 10> end
| 11> *xyz 0 1
| 12>  C       -1.3021220000     0.6412690000     0.2647880000
| 13>  O       -1.4745800000    -0.7642040000     0.1760440000
| 14>  C       -0.3772690000    -1.4876450000     0.3765170000
| 15>  C        0.8946910000    -1.0580870000     0.4188510000
| 16>  C        1.4167630000     0.2645620000     0.1547820000
| 17>  N        0.8811660000     1.3083330000    -0.3520410000
| 18>  O       -0.4664280000     1.1792110000    -0.7033310000
| 19>  H       -0.9271800000     0.8825570000     1.2643180000
| 20>  H       -2.2943920000     1.0549060000     0.0958230000
| 21>  H       -0.6127720000    -2.5341320000     0.5369760000
| 22>  H        1.6338480000    -1.8101000000     0.6661480000
| 23>  H        2.4672740000     0.4236290000     0.3878370000
| 24> *
| 25>
| 26>                          ****END OF INPUT****
 Total Charge           Charge          ....    0
 Multiplicity           Mult            ....    1
 Number of Electrons    NEL             ....   52
 Basis Dimension        Dim             ....  123

MULLIKEN ATOMIC CHARGES
-----------------------
   0 C :    0.284262
   1 O :   -0.223179
   2 C :    0.129419
   3 C :   -0.077612
   4 C :   -0.031814
   5 N :    0.029431
   6 O :   -0.260431
   7 H :    0.036283
   8 H :    0.044539
   9 H :    0.025326
  10 H :    0.015666
  11 H :    0.028109
Sum of atomic charges:   -0.0000000

LOEWDIN ATOMIC CHARGES
----------------------
   0 C :    0.126517
   1 O :   -0.046901
   2 C :    0.056003
   3 C :   -0.144928
   4 C :   -0.048082
   5 N :   -0.015270
   6 O :   -0.085414
   7 H :    0.014145
   8 H :    0.027958
   9 H :    0.031789
  10 H :    0.045232
  11 H :    0.038950

  Mayer bond orders larger than 0.1
B(  0-C ,  1-O ) :   0.9638 B(  0-C ,  6-O ) :   1.0621 B(  0-C ,  7-H ) :   0.9401
B(  0-C ,  8-H ) :   0.9539 B(  1-O ,  2-C ) :   1.2095 B(  2-C ,  3-C ) :   1.6684
B(  2-C ,  9-H ) :   0.9584 B(  3-C ,  4-C ) :   1.1149 B(  3-C , 10-H ) :   0.9301
B(  4-C ,  5-N ) :   1.8769 B(  4-C , 11-H ) :   0.9405 B(  5-N ,  6-O ) :   0.9145

FINAL SINGLE POINT ENERGY      -359.861274135010

DIPOLE MOMENT
-------------
                                X             Y             Z
Electronic contribution:     -0.86619       1.23880      -1.76872
Nuclear contribution   :      0.74396      -2.00314       2.55859
                        -----------------------------------------
Total Dipole Moment    :     -0.12222      -0.76434       0.78987
                        -----------------------------------------
Magnitude (a.u.)       :      1.10591
Magnitude (Debye)      :      2.81101

                             ****ORCA TERMINATED NORMALLY****
TOTAL RUN TIME: 0 days 0 hours 0 minutes 6 seconds 56 msec
