                         Program Version 3.0.3 - RELEASE   -
|  1> ! RI PBE def2-SVP def2-SVP/J NBO PAL2
|  2> % maxcore 2000
|  3> % output
|  4>     # printlevel mini
|  5>     print[ P_Basis ] 0
|  6>     print[ P_SCFInfo ] 1
|  7>     print[ P_SCFIterInfo ] 1
|  8>     print[ P_OrbEn ] 0
|  9>     print[ P_Cartesian ] 0
| 10> end
| 11> *xyz 0 1
| 12>  C       -0.4262590000     1.3709260000    -0.1368440000
| 13>  O       -1.5223590000     0.5365460000    -0.4788160000
| 14>  C       -1.1918820000    -0.8419500000    -0.5528550000
| 15>  C       -0.2352290000    -1.2409220000     0.5335090000
| 16>  N        0.9832000000    -0.8702490000     0.5641070000
| 17>  N        1.4567130000    -0.1478090000    -0.4932870000
| 18>  C        0.8407610000     0.9225390000    -0.8064010000
| 19>  H       -0.2745890000     1.3731290000     0.9516470000
| 20>  H       -0.7016300000     2.3788910000    -0.4474800000
| 21>  H       -0.7426390000    -1.0734780000    -1.5287420000
| 22>  H       -2.1327090000    -1.3862180000    -0.4697920000
| 23>  H       -0.5732500000    -1.8492380000     1.3688050000
| 24>  H        1.2643710000     1.4983420000    -1.6255290000
| 25> *
| 26>
| 27>                          ****END OF INPUT****
 Total Charge           Charge          ....    0
 Multiplicity           Mult            ....    1
 Number of Electrons    NEL             ....   52
 Basis Dimension        Dim             ....  128

MULLIKEN ATOMIC CHARGES
-----------------------
   0 C :    0.243315
   1 O :   -0.344245
   2 C :    0.244416
   3 C :   -0.120063
   4 N :   -0.048164
   5 N :   -0.048641
   6 C :   -0.121927
   7 H :    0.038527
   8 H :    0.022885
   9 H :    0.034267
  10 H :    0.025150
  11 H :    0.036956
  12 H :    0.037524
Sum of atomic charges:   -0.0000000

LOEWDIN ATOMIC CHARGES
----------------------
   0 C :    0.039637
   1 O :   -0.142712
   2 C :    0.040430
   3 C :   -0.029352
   4 N :   -0.017506
   5 N :   -0.017749
   6 C :   -0.029134
   7 H :    0.020912
   8 H :    0.031702
   9 H :    0.020236
  10 H :    0.032135
  11 H :    0.025672
  12 H :    0.025729

  Mayer bond orders larger than 0.1
B(  0-C ,  1-O ) :   1.0096 B(  0-C ,  6-C ) :   1.0194 B(  0-C ,  7-H ) :   0.9041
B(  0-C ,  8-H ) :   0.9321 B(  1-O ,  2-C ) :   1.0093 B(  2-C ,  3-C ) :   1.0195
B(  2-C ,  9-H ) :   0.9049 B(  2-C , 10-H ) :   0.9321 B(  3-C ,  4-N ) :   1.8580
B(  3-C , 11-H ) :   0.9629 B(  4-N ,  5-N ) :   1.0605 B(  5-N ,  6-C ) :   1.8544
B(  6-C , 12-H ) :   0.9641

FINAL SINGLE POINT ENERGY      -340.019099828389

DIPOLE MOMENT
-------------
                                X             Y             Z
Electronic contribution:      2.04987      -0.78216       0.38249
Nuclear contribution   :     -2.65546       1.01221      -0.49697
                        -----------------------------------------
Total Dipole Moment    :     -0.60559       0.23005      -0.11448
                        -----------------------------------------
Magnitude (a.u.)       :      0.65785
Magnitude (Debye)      :      1.67213

                             ****ORCA TERMINATED NORMALLY****
TOTAL RUN TIME: 0 days 0 hours 0 minutes 6 seconds 489 msec
