                         Program Version 3.0.3 - RELEASE   -
|  1> ! RI PBE def2-SVP def2-SVP/J NBO PAL2
|  2> % maxcore 2000
|  3> % output
|  4>     # printlevel mini
|  5>     print[ P_Basis ] 0
|  6>     print[ P_SCFInfo ] 1
|  7>     print[ P_SCFIterInfo ] 1
|  8>     print[ P_OrbEn ] 0
|  9>     print[ P_Cartesian ] 0
| 10> end
| 11> *xyz 0 1
| 12>  C        1.0626950000    -1.0869550000     0.8721090000
| 13>  C        1.1147970000    -0.3323590000    -0.4079410000
| 14>  C        0.8726800000     1.1488160000    -0.4257050000
| 15>  O       -0.4749300000     1.4437800000    -0.8104040000
| 16>  C       -1.3780070000     0.6981630000    -0.1502790000
| 17>  N       -1.2144740000    -0.4670720000     0.3269650000
| 18>  N       -0.0513690000    -1.1376810000    -0.0472720000
| 19>  H        0.9256920000    -0.5070700000     1.7801290000
| 20>  H        1.6191580000    -2.0109430000     0.9812820000
| 21>  H        1.6816780000    -0.7405740000    -1.2376420000
| 22>  H        1.5082560000     1.6483300000    -1.1545950000
| 23>  H        1.0431210000     1.5982810000     0.5571130000
| 24>  H       -2.3363980000     1.1918840000    -0.0275500000
| 25> *
| 26>
| 27>                          ****END OF INPUT****
 Total Charge           Charge          ....    0
 Multiplicity           Mult            ....    1
 Number of Electrons    NEL             ....   52
 Basis Dimension        Dim             ....  128

MULLIKEN ATOMIC CHARGES
-----------------------
   0 C :    0.122000
   1 C :   -0.172745
   2 C :    0.281137
   3 O :   -0.267201
   4 C :    0.106424
   5 N :   -0.095824
   6 N :   -0.169150
   7 H :    0.036858
   8 H :    0.045054
   9 H :    0.038458
  10 H :    0.031907
  11 H :    0.015894
  12 H :    0.027186
Sum of atomic charges:   -0.0000000

LOEWDIN ATOMIC CHARGES
----------------------
   0 C :    0.020938
   1 C :   -0.037119
   2 C :    0.073399
   3 O :   -0.078581
   4 C :    0.005863
   5 N :   -0.094762
   6 N :   -0.039763
   7 H :    0.019396
   8 H :    0.027559
   9 H :    0.026439
  10 H :    0.034422
  11 H :    0.022497
  12 H :    0.019713

  Mayer bond orders larger than 0.1
B(  0-C ,  1-C ) :   1.0170 B(  0-C ,  6-N ) :   0.9525 B(  0-C ,  7-H ) :   0.9346
B(  0-C ,  8-H ) :   0.9411 B(  1-C ,  2-C ) :   1.0663 B(  1-C ,  6-N ) :   0.9320
B(  1-C ,  9-H ) :   0.9361 B(  2-C ,  3-O ) :   0.9531 B(  2-C , 10-H ) :   0.9440
B(  2-C , 11-H ) :   0.9202 B(  3-O ,  4-C ) :   1.1479 B(  4-C ,  5-N ) :   1.8281
B(  4-C , 12-H ) :   0.9628 B(  5-N ,  6-N ) :   1.0042

FINAL SINGLE POINT ENERGY      -340.017113684974

DIPOLE MOMENT
-------------
                                X             Y             Z
Electronic contribution:     -3.20323      -0.14055      -1.26946
Nuclear contribution   :      4.19717       0.71903       1.37946
                        -----------------------------------------
Total Dipole Moment    :      0.99394       0.57848       0.11000
                        -----------------------------------------
Magnitude (a.u.)       :      1.15527
Magnitude (Debye)      :      2.93647

                             ****ORCA TERMINATED NORMALLY****
TOTAL RUN TIME: 0 days 0 hours 0 minutes 6 seconds 97 msec
