                         Program Version 3.0.3 - RELEASE   -
|  1> ! RI PBE def2-SVP def2-SVP/J NBO PAL2
|  2> % maxcore 2000
|  3> % output
|  4>     # printlevel mini
|  5>     print[ P_Basis ] 0
|  6>     print[ P_SCFInfo ] 1
|  7>     print[ P_SCFIterInfo ] 1
|  8>     print[ P_OrbEn ] 0
|  9>     print[ P_Cartesian ] 0
| 10> end
| 11> *xyz 0 1
| 12>  C        0.8417470000    -1.0967960000     0.9166430000
| 13>  C        1.1376530000    -0.3854510000    -0.3510140000
| 14>  C        0.8361770000     1.0811170000    -0.4492210000
| 15>  O       -0.2845410000     1.4585750000     0.3388130000
| 16>  N       -1.4718940000     0.7915960000     0.0479080000
| 17>  C       -1.3546450000    -0.4459110000    -0.2281820000
| 18>  C       -0.1082250000    -1.2194900000    -0.2604120000
| 19>  H        0.5028890000    -0.5139460000     1.7634850000
| 20>  H        1.4226870000    -1.9773060000     1.1589960000
| 21>  H        1.9449960000    -0.7498260000    -0.9773920000
| 22>  H        0.6502900000     1.3518920000    -1.4977500000
| 23>  H        1.6532340000     1.6969690000    -0.0682480000
| 24>  H       -2.2990300000    -0.9399560000    -0.4404060000
| 25>  H       -0.1493380000    -2.1753760000    -0.7669210000
| 26> *
| 27>
| 28>                          ****END OF INPUT****
 Total Charge           Charge          ....    0
 Multiplicity           Mult            ....    1
 Number of Electrons    NEL             ....   52
 Basis Dimension        Dim             ....  133

MULLIKEN ATOMIC CHARGES
-----------------------
   0 C :    0.035027
   1 C :   -0.178160
   2 C :    0.276359
   3 O :   -0.286413
   4 N :    0.032315
   5 C :   -0.026607
   6 C :   -0.071903
   7 H :    0.057164
   8 H :    0.041258
   9 H :    0.032301
  10 H :    0.017720
  11 H :    0.030156
  12 H :    0.016086
  13 H :    0.024695
Sum of atomic charges:    0.0000000

LOEWDIN ATOMIC CHARGES
----------------------
   0 C :   -0.016517
   1 C :   -0.051560
   2 C :    0.063094
   3 O :   -0.102516
   4 N :   -0.007873
   5 C :   -0.041177
   6 C :   -0.058845
   7 H :    0.035207
   8 H :    0.034104
   9 H :    0.034008
  10 H :    0.015672
  11 H :    0.031139
  12 H :    0.032047
  13 H :    0.033216

  Mayer bond orders larger than 0.1
B(  0-C ,  1-C ) :   0.9958 B(  0-C ,  6-C ) :   0.9387 B(  0-C ,  7-H ) :   0.9448
B(  0-C ,  8-H ) :   0.9416 B(  1-C ,  2-C ) :   1.0571 B(  1-C ,  6-C ) :   0.9232
B(  1-C ,  9-H ) :   0.9280 B(  2-C ,  3-O ) :   0.9794 B(  2-C , 10-H ) :   0.9292
B(  2-C , 11-H ) :   0.9384 B(  3-O ,  4-N ) :   0.9389 B(  4-N ,  5-C ) :   1.9212
B(  5-C ,  6-C ) :   1.0482 B(  5-C , 12-H ) :   0.9657 B(  6-C , 13-H ) :   0.9441

FINAL SINGLE POINT ENERGY      -323.989580793227

DIPOLE MOMENT
-------------
                                X             Y             Z
Electronic contribution:     -2.97780       2.52475       0.43317
Nuclear contribution   :      3.83351      -3.50233      -0.82511
                        -----------------------------------------
Total Dipole Moment    :      0.85571      -0.97759      -0.39194
                        -----------------------------------------
Magnitude (a.u.)       :      1.35703
Magnitude (Debye)      :      3.44929

                             ****ORCA TERMINATED NORMALLY****
TOTAL RUN TIME: 0 days 0 hours 0 minutes 6 seconds 886 msec
