                         Program Version 3.0.3 - RELEASE   -
|  1> ! RI PBE def2-SVP def2-SVP/J NBO PAL2
|  2> % maxcore 2000
|  3> % output
|  4>     # printlevel mini
|  5>     print[ P_Basis ] 0
|  6>     print[ P_SCFInfo ] 1
|  7>     print[ P_SCFIterInfo ] 1
|  8>     print[ P_OrbEn ] 0
|  9>     print[ P_Cartesian ] 0
| 10> end
| 11> *xyz 0 1
| 12>  C        0.6678560000    -1.1848240000     0.5073560000
| 13>  O       -0.5327990000    -1.4308170000    -0.2127650000
| 14>  N       -1.5672420000    -0.5350030000    -0.0646060000
| 15>  C       -1.2636910000     0.6860510000     0.1240240000
| 16>  C        0.1023980000     1.2265080000     0.2055320000
| 17>  N        1.0007480000     0.8495410000    -0.9085120000
| 18>  C        1.1654230000     0.2234010000     0.3859390000
| 19>  H        1.3770280000    -1.9081310000     0.1001800000
| 20>  H        0.5074490000    -1.4075310000     1.5717210000
| 21>  H       -2.1195060000     1.3484900000     0.2149820000
| 22>  H        0.2156630000     2.2126180000     0.6410000000
| 23>  H        1.6928780000     1.5799030000    -1.0405750000
| 24>  H        2.0244950000     0.4784040000     1.0011150000
| 25> *
| 26>
| 27>                          ****END OF INPUT****
 Total Charge           Charge          ....    0
 Multiplicity           Mult            ....    1
 Number of Electrons    NEL             ....   52
 Basis Dimension        Dim             ....  128

MULLIKEN ATOMIC CHARGES
-----------------------
   0 C :    0.284516
   1 O :   -0.265549
   2 N :    0.045564
   3 C :   -0.012298
   4 C :   -0.015526
   5 N :   -0.151317
   6 C :   -0.124439
   7 H :    0.031355
   8 H :    0.020752
   9 H :    0.013596
  10 H :    0.024430
  11 H :    0.116060
  12 H :    0.032857
Sum of atomic charges:   -0.0000000

LOEWDIN ATOMIC CHARGES
----------------------
   0 C :    0.056236
   1 O :   -0.082352
   2 N :    0.011250
   3 C :   -0.054510
   4 C :   -0.021723
   5 N :   -0.083084
   6 C :   -0.019025
   7 H :    0.033436
   8 H :    0.018712
   9 H :    0.030799
  10 H :    0.023520
  11 H :    0.063279
  12 H :    0.023461

  Mayer bond orders larger than 0.1
B(  0-C ,  1-O ) :   0.9822 B(  0-C ,  6-C ) :   1.0237 B(  0-C ,  7-H ) :   0.9271
B(  0-C ,  8-H ) :   0.9308 B(  1-O ,  2-N ) :   0.9702 B(  1-O ,  3-C ) :   0.1139
B(  2-N ,  3-C ) :   1.9313 B(  3-C ,  4-C ) :   1.0033 B(  3-C ,  9-H ) :   0.9673
B(  4-C ,  5-N ) :   0.9173 B(  4-C ,  6-C ) :   0.9904 B(  4-C , 10-H ) :   0.9503
B(  5-N ,  6-C ) :   0.9906 B(  5-N , 11-H ) :   0.9372 B(  6-C , 12-H ) :   0.9327

FINAL SINGLE POINT ENERGY      -339.995191793187

DIPOLE MOMENT
-------------
                                X             Y             Z
Electronic contribution:     -2.55282      -1.35804      -1.52845
Nuclear contribution   :      3.72701       2.41509       2.31677
                        -----------------------------------------
Total Dipole Moment    :      1.17419       1.05705       0.78831
                        -----------------------------------------
Magnitude (a.u.)       :      1.76565
Magnitude (Debye)      :      4.48792

                             ****ORCA TERMINATED NORMALLY****
TOTAL RUN TIME: 0 days 0 hours 0 minutes 6 seconds 483 msec
