                         Program Version 3.0.3 - RELEASE   -
|  1> ! RI PBE def2-SVP def2-SVP/J NBO PAL2
|  2> % maxcore 2000
|  3> % output
|  4>     # printlevel mini
|  5>     print[ P_Basis ] 0
|  6>     print[ P_SCFInfo ] 1
|  7>     print[ P_SCFIterInfo ] 1
|  8>     print[ P_OrbEn ] 0
|  9>     print[ P_Cartesian ] 0
| 10> end
| 11> *xyz 0 1
| 12>  C        0.6575680000    -1.2039570000     0.5303580000
| 13>  O       -0.5816010000    -1.4679360000    -0.1173340000
| 14>  N       -1.5860930000    -0.5401250000    -0.0047940000
| 15>  C       -1.2531310000     0.6841900000     0.0965590000
| 16>  C        0.1298270000     1.1926120000     0.1052580000
| 17>  O        0.9698050000     0.7374680000    -0.9649010000
| 18>  C        1.1629260000     0.1877740000     0.3146790000
| 19>  H        1.3388850000    -1.9539950000     0.1244290000
| 20>  H        0.5549760000    -1.3709150000     1.6123650000
| 21>  H       -2.0895150000     1.3731420000     0.1609410000
| 22>  H        0.2873660000     2.2259700000     0.3966430000
| 23>  H        2.0918980000     0.4530630000     0.8174860000
| 24> *
| 25>
| 26>                          ****END OF INPUT****
 Total Charge           Charge          ....    0
 Multiplicity           Mult            ....    1
 Number of Electrons    NEL             ....   52
 Basis Dimension        Dim             ....  123

MULLIKEN ATOMIC CHARGES
-----------------------
   0 C :    0.251570
   1 O :   -0.262771
   2 N :    0.055048
   3 C :   -0.034193
   4 C :    0.097973
   5 O :   -0.258191
   6 C :    0.002437
   7 H :    0.041697
   8 H :    0.028482
   9 H :    0.020049
  10 H :    0.026174
  11 H :    0.031726
Sum of atomic charges:    0.0000000

LOEWDIN ATOMIC CHARGES
----------------------
   0 C :    0.048979
   1 O :   -0.077579
   2 N :    0.020737
   3 C :   -0.064821
   4 C :    0.027668
   5 O :   -0.129139
   6 C :    0.028879
   7 H :    0.037570
   8 H :    0.023928
   9 H :    0.033940
  10 H :    0.025348
  11 H :    0.024490

  Mayer bond orders larger than 0.1
B(  0-C ,  1-O ) :   0.9710 B(  0-C ,  6-C ) :   1.0208 B(  0-C ,  7-H ) :   0.9279
B(  0-C ,  8-H ) :   0.9225 B(  1-O ,  2-N ) :   0.9786 B(  1-O ,  3-C ) :   0.1173
B(  2-N ,  3-C ) :   1.9199 B(  3-C ,  4-C ) :   0.9885 B(  3-C ,  9-H ) :   0.9655
B(  4-C ,  5-O ) :   0.9330 B(  4-C ,  6-C ) :   1.0317 B(  4-C , 10-H ) :   0.9478
B(  5-O ,  6-C ) :   1.0104 B(  6-C , 11-H ) :   0.9275

FINAL SINGLE POINT ENERGY      -359.836454524285

DIPOLE MOMENT
-------------
                                X             Y             Z
Electronic contribution:     -1.56147      -0.45599      -2.06340
Nuclear contribution   :      2.30462       1.05877       2.98316
                        -----------------------------------------
Total Dipole Moment    :      0.74315       0.60279       0.91975
                        -----------------------------------------
Magnitude (a.u.)       :      1.32724
Magnitude (Debye)      :      3.37358

                             ****ORCA TERMINATED NORMALLY****
TOTAL RUN TIME: 0 days 0 hours 0 minutes 6 seconds 88 msec
