                         Program Version 3.0.3 - RELEASE   -
|  1> ! RI PBE def2-SVP def2-SVP/J NBO PAL2
|  2> % maxcore 2000
|  3> % output
|  4>     # printlevel mini
|  5>     print[ P_Basis ] 0
|  6>     print[ P_SCFInfo ] 1
|  7>     print[ P_SCFIterInfo ] 1
|  8>     print[ P_OrbEn ] 0
|  9>     print[ P_Cartesian ] 0
| 10> end
| 11> *xyz 0 1
| 12>  C        1.0039930000     1.1574000000    -0.0863060000
| 13>  O       -0.2339450000     1.1803100000     0.5867920000
| 14>  N       -1.2725020000     0.7919110000    -0.2919740000
| 15>  C       -1.3917390000    -0.4677960000    -0.3367400000
| 16>  C       -0.5214880000    -1.4620620000     0.3692600000
| 17>  C        0.9260450000    -1.3509410000    -0.0334350000
| 18>  C        1.5744820000    -0.2145450000    -0.2542640000
| 19>  H        1.6782190000     1.7617920000     0.5294090000
| 20>  H        0.9131430000     1.6653240000    -1.0581960000
| 21>  H       -2.2039240000    -0.8137530000    -0.9741020000
| 22>  H       -0.8853170000    -2.4687240000     0.1582070000
| 23>  H       -0.6242310000    -1.3060580000     1.4501800000
| 24>  H        1.4607420000    -2.2876750000    -0.1561050000
| 25>  H        2.6155220000    -0.2541730000    -0.5660390000
| 26> *
| 27>
| 28>                          ****END OF INPUT****
 Total Charge           Charge          ....    0
 Multiplicity           Mult            ....    1
 Number of Electrons    NEL             ....   52
 Basis Dimension        Dim             ....  133

MULLIKEN ATOMIC CHARGES
-----------------------
   0 C :    0.213922
   1 O :   -0.294850
   2 N :    0.026308
   3 C :   -0.095306
   4 C :    0.142079
   5 C :   -0.123419
   6 C :   -0.056140
   7 H :    0.035932
   8 H :    0.023341
   9 H :    0.036518
  10 H :    0.012145
  11 H :    0.069319
  12 H :    0.007547
  13 H :    0.002605
Sum of atomic charges:   -0.0000000

LOEWDIN ATOMIC CHARGES
----------------------
   0 C :    0.046802
   1 O :   -0.120913
   2 N :    0.001697
   3 C :   -0.008140
   4 C :   -0.065121
   5 C :   -0.041894
   6 C :   -0.056974
   7 H :    0.036434
   8 H :    0.019545
   9 H :    0.030301
  10 H :    0.037054
  11 H :    0.060176
  12 H :    0.029392
  13 H :    0.031640

  Mayer bond orders larger than 0.1
B(  0-C ,  1-O ) :   1.0130 B(  0-C ,  6-C ) :   1.0251 B(  0-C ,  7-H ) :   0.9251
B(  0-C ,  8-H ) :   0.9123 B(  1-O ,  2-N ) :   0.9125 B(  2-N ,  3-C ) :   1.9773
B(  3-C ,  4-C ) :   0.9981 B(  3-C ,  9-H ) :   0.9555 B(  4-C ,  5-C ) :   1.0387
B(  4-C , 10-H ) :   0.9142 B(  4-C , 11-H ) :   0.8865 B(  5-C ,  6-C ) :   1.9572
B(  5-C , 12-H ) :   0.9586 B(  6-C , 13-H ) :   0.9385

FINAL SINGLE POINT ENERGY      -323.983115913414

DIPOLE MOMENT
-------------
                                X             Y             Z
Electronic contribution:     -2.25006       2.47400       0.46378
Nuclear contribution   :      2.72551      -3.32784      -0.61047
                        -----------------------------------------
Total Dipole Moment    :      0.47545      -0.85383      -0.14669
                        -----------------------------------------
Magnitude (a.u.)       :      0.98823
Magnitude (Debye)      :      2.51189

                             ****ORCA TERMINATED NORMALLY****
TOTAL RUN TIME: 0 days 0 hours 0 minutes 7 seconds 199 msec
