                         Program Version 3.0.3 - RELEASE   -
|  1> ! RI PBE def2-SVP def2-SVP/J NBO PAL2
|  2> % maxcore 2000
|  3> % output
|  4>     # printlevel mini
|  5>     print[ P_Basis ] 0
|  6>     print[ P_SCFInfo ] 1
|  7>     print[ P_SCFIterInfo ] 1
|  8>     print[ P_OrbEn ] 0
|  9>     print[ P_Cartesian ] 0
| 10> end
| 11> *xyz 0 1
| 12>  C        0.8756960000    -1.0580360000     0.9026350000
| 13>  C        1.1895390000    -0.3110550000    -0.3200700000
| 14>  C        0.8597330000     1.1444260000    -0.4302830000
| 15>  O       -0.2982850000     1.4823260000     0.3113360000
| 16>  N       -1.4192940000     0.7119280000     0.0180150000
| 17>  C       -1.1979310000    -0.5138970000    -0.2345330000
| 18>  N        0.0288410000    -1.2008370000    -0.3048230000
| 19>  H        0.4524570000    -0.5082650000     1.7357990000
| 20>  H        1.4371270000    -1.9499090000     1.1541310000
| 21>  H        1.9957820000    -0.6612420000    -0.9604110000
| 22>  H        0.7043080000     1.4019700000    -1.4870250000
| 23>  H        1.6555700000     1.7764840000    -0.0315840000
| 24>  H       -2.0826520000    -1.1117910000    -0.4311780000
| 25> *
| 26>
| 27>                          ****END OF INPUT****
 Total Charge           Charge          ....    0
 Multiplicity           Mult            ....    1
 Number of Electrons    NEL             ....   52
 Basis Dimension        Dim             ....  128

MULLIKEN ATOMIC CHARGES
-----------------------
   0 C :    0.094376
   1 C :   -0.135182
   2 C :    0.271462
   3 O :   -0.281052
   4 N :    0.040723
   5 C :   -0.010026
   6 N :   -0.231207
   7 H :    0.060078
   8 H :    0.050203
   9 H :    0.037940
  10 H :    0.027673
  11 H :    0.038100
  12 H :    0.036911
Sum of atomic charges:   -0.0000000

LOEWDIN ATOMIC CHARGES
----------------------
   0 C :    0.036220
   1 C :   -0.012800
   2 C :    0.051136
   3 O :   -0.096961
   4 N :   -0.016100
   5 C :   -0.029941
   6 N :   -0.107126
   7 H :    0.028602
   8 H :    0.029670
   9 H :    0.030591
  10 H :    0.021335
  11 H :    0.035478
  12 H :    0.029895

  Mayer bond orders larger than 0.1
B(  0-C ,  1-C ) :   1.0352 B(  0-C ,  6-N ) :   0.9170 B(  0-C ,  7-H ) :   0.9359
B(  0-C ,  8-H ) :   0.9452 B(  1-C ,  2-C ) :   1.0390 B(  1-C ,  6-N ) :   0.9151
B(  1-C ,  9-H ) :   0.9245 B(  2-C ,  3-O ) :   0.9763 B(  2-C , 10-H ) :   0.9293
B(  2-C , 11-H ) :   0.9368 B(  3-O ,  4-N ) :   0.9344 B(  4-N ,  5-C ) :   1.9040
B(  5-C ,  6-N ) :   1.1165 B(  5-C , 12-H ) :   0.9555

FINAL SINGLE POINT ENERGY      -339.991663790396

DIPOLE MOMENT
-------------
                                X             Y             Z
Electronic contribution:     -2.84458       0.98511      -0.02590
Nuclear contribution   :      3.85335      -1.36821      -0.01342
                        -----------------------------------------
Total Dipole Moment    :      1.00877      -0.38310      -0.03932
                        -----------------------------------------
Magnitude (a.u.)       :      1.07978
Magnitude (Debye)      :      2.74458

                             ****ORCA TERMINATED NORMALLY****
TOTAL RUN TIME: 0 days 0 hours 0 minutes 6 seconds 505 msec
