                         Program Version 3.0.3 - RELEASE   -
|  1> ! RI PBE def2-SVP def2-SVP/J NBO PAL2
|  2> % maxcore 2000
|  3> % output
|  4>     # printlevel mini
|  5>     print[ P_Basis ] 0
|  6>     print[ P_SCFInfo ] 1
|  7>     print[ P_SCFIterInfo ] 1
|  8>     print[ P_OrbEn ] 0
|  9>     print[ P_Cartesian ] 0
| 10> end
| 11> *xyz 0 1
| 12>  C        1.0193140000     1.1280720000    -0.2814250000
| 13>  O       -0.1558490000     1.3705640000     0.4826990000
| 14>  N       -1.3379880000     0.8293100000    -0.0220140000
| 15>  C       -1.4048860000    -0.4429210000    -0.0741870000
| 16>  N       -0.4781340000    -1.4210190000     0.1721640000
| 17>  C        0.9059040000    -1.3220730000     0.1550810000
| 18>  C        1.6162920000    -0.2192150000    -0.0591680000
| 19>  H        1.7224060000     1.9042360000     0.0321570000
| 20>  H        0.7929450000     1.3019410000    -1.3400530000
| 21>  H       -2.3821750000    -0.8214450000    -0.3627880000
| 22>  H       -0.8437940000    -2.3566810000     0.1480120000
| 23>  H        1.3973850000    -2.2706370000     0.3356810000
| 24>  H        2.6959610000    -0.3023410000    -0.0270680000
| 25> *
| 26>
| 27>                          ****END OF INPUT****
 Total Charge           Charge          ....    0
 Multiplicity           Mult            ....    1
 Number of Electrons    NEL             ....   52
 Basis Dimension        Dim             ....  128

MULLIKEN ATOMIC CHARGES
-----------------------
   0 C :    0.231876
   1 O :   -0.293726
   2 N :   -0.016558
   3 C :    0.010187
   4 N :   -0.047878
   5 C :    0.033685
   6 C :   -0.135262
   7 H :    0.022022
   8 H :    0.031364
   9 H :    0.025359
  10 H :    0.124631
  11 H :    0.005102
  12 H :    0.009198
Sum of atomic charges:    0.0000000

LOEWDIN ATOMIC CHARGES
----------------------
   0 C :    0.051090
   1 O :   -0.117889
   2 N :   -0.054226
   3 C :   -0.025552
   4 N :    0.033376
   5 C :   -0.005514
   6 C :   -0.115996
   7 H :    0.031919
   8 H :    0.023691
   9 H :    0.029004
  10 H :    0.087176
  11 H :    0.028989
  12 H :    0.033932

  Mayer bond orders larger than 0.1
B(  0-C ,  1-O ) :   0.9904 B(  0-C ,  6-C ) :   1.0332 B(  0-C ,  7-H ) :   0.9305
B(  0-C ,  8-H ) :   0.9254 B(  1-O ,  2-N ) :   0.9240 B(  2-N ,  3-C ) :   1.8792
B(  3-C ,  4-N ) :   1.1436 B(  3-C ,  9-H ) :   0.9457 B(  4-N ,  5-C ) :   1.1244
B(  4-N , 10-H ) :   0.9214 B(  5-C ,  6-C ) :   1.8488 B(  5-C , 11-H ) :   0.9468
B(  6-C , 12-H ) :   0.9411

FINAL SINGLE POINT ENERGY      -340.018996546025

DIPOLE MOMENT
-------------
                                X             Y             Z
Electronic contribution:     -2.67804       0.92740       1.13006
Nuclear contribution   :      3.09553      -2.41619      -1.44707
                        -----------------------------------------
Total Dipole Moment    :      0.41748      -1.48878      -0.31702
                        -----------------------------------------
Magnitude (a.u.)       :      1.57838
Magnitude (Debye)      :      4.01191

                             ****ORCA TERMINATED NORMALLY****
TOTAL RUN TIME: 0 days 0 hours 0 minutes 6 seconds 284 msec
