                         Program Version 3.0.3 - RELEASE   -
|  1> ! RI PBE def2-SVP def2-SVP/J NBO PAL2
|  2> % maxcore 2000
|  3> % output
|  4>     # printlevel mini
|  5>     print[ P_Basis ] 0
|  6>     print[ P_SCFInfo ] 1
|  7>     print[ P_SCFIterInfo ] 1
|  8>     print[ P_OrbEn ] 0
|  9>     print[ P_Cartesian ] 0
| 10> end
| 11> *xyz 0 1
| 12>  C        1.0211200000     1.1566220000    -0.2744580000
| 13>  O       -0.1591850000     1.4069640000     0.4669780000
| 14>  N       -1.3096080000     0.8136260000    -0.0365580000
| 15>  C       -1.3700690000    -0.4505530000    -0.0623990000
| 16>  O       -0.4955420000    -1.4283410000     0.2426340000
| 17>  C        0.8639010000    -1.3005480000     0.1791340000
| 18>  C        1.5710470000    -0.2134760000    -0.0797990000
| 19>  H        1.7376290000     1.8985670000     0.0869290000
| 20>  H        0.8345120000     1.3709010000    -1.3340610000
| 21>  H       -2.3250160000    -0.8686460000    -0.3641010000
| 22>  H        1.3197210000    -2.2656480000     0.3558990000
| 23>  H        2.6475000000    -0.3379570000    -0.1145980000
| 24> *
| 25>
| 26>                          ****END OF INPUT****
 Total Charge           Charge          ....    0
 Multiplicity           Mult            ....    1
 Number of Electrons    NEL             ....   52
 Basis Dimension        Dim             ....  123

MULLIKEN ATOMIC CHARGES
-----------------------
   0 C :    0.230952
   1 O :   -0.282114
   2 N :    0.003573
   3 C :    0.095807
   4 O :   -0.193873
   5 C :    0.116208
   6 C :   -0.138006
   7 H :    0.033440
   8 H :    0.039781
   9 H :    0.045714
  10 H :    0.023455
  11 H :    0.025065
Sum of atomic charges:   -0.0000000

LOEWDIN ATOMIC CHARGES
----------------------
   0 C :    0.053050
   1 O :   -0.105250
   2 N :   -0.036361
   3 C :    0.013081
   4 O :   -0.018810
   5 C :    0.038674
   6 C :   -0.114580
   7 H :    0.037143
   8 H :    0.026766
   9 H :    0.032121
  10 H :    0.030914
  11 H :    0.043251

  Mayer bond orders larger than 0.1
B(  0-C ,  1-O ) :   0.9962 B(  0-C ,  6-C ) :   1.0260 B(  0-C ,  7-H ) :   0.9301
B(  0-C ,  8-H ) :   0.9256 B(  1-O ,  2-N ) :   0.9271 B(  2-N ,  3-C ) :   1.9128
B(  3-C ,  4-O ) :   1.1240 B(  3-C ,  9-H ) :   0.9512 B(  4-O ,  5-C ) :   1.0708
B(  5-C ,  6-C ) :   1.8559 B(  5-C , 10-H ) :   0.9675 B(  6-C , 11-H ) :   0.9315

FINAL SINGLE POINT ENERGY      -359.842676160443

DIPOLE MOMENT
-------------
                                X             Y             Z
Electronic contribution:     -3.14831      -0.38355       1.23834
Nuclear contribution   :      3.91381      -0.24073      -1.59007
                        -----------------------------------------
Total Dipole Moment    :      0.76549      -0.62427      -0.35173
                        -----------------------------------------
Magnitude (a.u.)       :      1.04853
Magnitude (Debye)      :      2.66514

                             ****ORCA TERMINATED NORMALLY****
TOTAL RUN TIME: 0 days 0 hours 0 minutes 5 seconds 844 msec
