                         Program Version 3.0.3 - RELEASE   -
|  1> ! RI PBE def2-SVP def2-SVP/J NBO PAL2
|  2> % maxcore 2000
|  3> % output
|  4>     # printlevel mini
|  5>     print[ P_Basis ] 0
|  6>     print[ P_SCFInfo ] 1
|  7>     print[ P_SCFIterInfo ] 1
|  8>     print[ P_OrbEn ] 0
|  9>     print[ P_Cartesian ] 0
| 10> end
| 11> *xyz 0 1
| 12>  C        1.4513390000    -0.0285610000     0.4422260000
| 13>  C        2.7968390000    -0.1441880000    -0.1903640000
| 14>  C        3.5298430000     0.9942090000    -0.8029220000
| 15>  C        4.1271340000     0.2707430000     0.3906860000
| 16>  C        4.9528510000    -0.8821730000     0.0167450000
| 17>  N        4.3391410000    -1.7709950000    -0.6626290000
| 18>  O        3.0144780000    -1.4030720000    -0.7971550000
| 19>  H        1.3372570000     0.9485970000     0.9142050000
| 20>  H        1.3108770000    -0.8038960000     1.1977380000
| 21>  H        0.6677480000    -0.1345530000    -0.3115770000
| 22>  H        3.1318850000     1.9820660000    -0.6077170000
| 23>  H        4.0017880000     0.8577000000    -1.7682180000
| 24>  H        4.2608070000     0.7831760000     1.3348180000
| 25>  H        5.9962240000    -1.0391540000     0.2580760000
| 26> *
| 27>
| 28>                          ****END OF INPUT****
 Total Charge           Charge          ....    0
 Multiplicity           Mult            ....    1
 Number of Electrons    NEL             ....   52
 Basis Dimension        Dim             ....  133

MULLIKEN ATOMIC CHARGES
-----------------------
   0 C :    0.119703
   1 C :   -0.088826
   2 C :    0.065190
   3 C :   -0.112145
   4 C :    0.020453
   5 N :    0.018596
   6 O :   -0.232272
   7 H :    0.010909
   8 H :    0.035213
   9 H :    0.041873
  10 H :    0.033495
  11 H :    0.041705
  12 H :    0.025063
  13 H :    0.021044
Sum of atomic charges:   -0.0000000

LOEWDIN ATOMIC CHARGES
----------------------
   0 C :   -0.053295
   1 C :    0.014317
   2 C :   -0.035704
   3 C :   -0.061168
   4 C :   -0.044870
   5 N :    0.001669
   6 O :   -0.063859
   7 H :    0.036360
   8 H :    0.036602
   9 H :    0.041260
  10 H :    0.033716
  11 H :    0.034431
  12 H :    0.030026
  13 H :    0.030514

  Mayer bond orders larger than 0.1
B(  0-C ,  1-C ) :   1.0930 B(  0-C ,  7-H ) :   0.9362 B(  0-C ,  8-H ) :   0.9503
B(  0-C ,  9-H ) :   0.9478 B(  1-C ,  2-C ) :   0.9929 B(  1-C ,  3-C ) :   0.8748
B(  1-C ,  6-O ) :   0.9826 B(  2-C ,  3-C ) :   0.9432 B(  2-C , 10-H ) :   0.9376
B(  2-C , 11-H ) :   0.9192 B(  3-C ,  4-C ) :   1.0121 B(  3-C , 12-H ) :   0.9517
B(  4-C ,  5-N ) :   1.8482 B(  4-C ,  6-O ) :   0.1023 B(  4-C , 13-H ) :   0.9767
B(  5-N ,  6-O ) :   0.9871

FINAL SINGLE POINT ENERGY      -323.997760020320

DIPOLE MOMENT
-------------
                                X             Y             Z
Electronic contribution:      2.97329      -4.16496      -1.83671
Nuclear contribution   :     -3.04941       5.25988       2.48111
                        -----------------------------------------
Total Dipole Moment    :     -0.07613       1.09492       0.64440
                        -----------------------------------------
Magnitude (a.u.)       :      1.27275
Magnitude (Debye)      :      3.23509

                             ****ORCA TERMINATED NORMALLY****
TOTAL RUN TIME: 0 days 0 hours 0 minutes 6 seconds 818 msec
