                         Program Version 3.0.3 - RELEASE   -
|  1> ! RI PBE def2-SVP def2-SVP/J NBO PAL2
|  2> % maxcore 2000
|  3> % output
|  4>     # printlevel mini
|  5>     print[ P_Basis ] 0
|  6>     print[ P_SCFInfo ] 1
|  7>     print[ P_SCFIterInfo ] 1
|  8>     print[ P_OrbEn ] 0
|  9>     print[ P_Cartesian ] 0
| 10> end
| 11> *xyz 0 1
| 12>  C        1.4375220000     0.4542290000    -0.1370040000
| 13>  C        2.8238400000    -0.0477170000     0.0967250000
| 14>  C        3.0742640000    -1.5113440000     0.3731190000
| 15>  N        4.5206200000    -1.6453500000     0.2865210000
| 16>  C        5.0379950000    -0.6381200000    -0.6306570000
| 17>  C        4.0423000000     0.4802200000    -0.5094510000
| 18>  O        3.7010110000     0.8039090000     0.8322560000
| 19>  H        0.9607150000    -0.0841430000    -0.9597360000
| 20>  H        1.4544240000     1.5181490000    -0.3757100000
| 21>  H        0.8233630000     0.3163800000     0.7571680000
| 22>  H        2.5184430000    -2.0924500000    -0.3815810000
| 23>  H        2.7158000000    -1.8154080000     1.3626560000
| 24>  H        4.8215170000    -2.5809820000     0.0610990000
| 25>  H        5.0634940000    -0.9516790000    -1.6880660000
| 26>  H        6.0514560000    -0.3390280000    -0.3437590000
| 27>  H        4.0490150000     1.3066350000    -1.2141820000
| 28> *
| 29>
| 30>                          ****END OF INPUT****
 Total Charge           Charge          ....    0
 Multiplicity           Mult            ....    1
 Number of Electrons    NEL             ....   54
 Basis Dimension        Dim             ....  143

MULLIKEN ATOMIC CHARGES
-----------------------
   0 C :    0.117936
   1 C :   -0.211119
   2 C :    0.258751
   3 N :   -0.286587
   4 C :    0.226694
   5 C :   -0.009279
   6 O :   -0.270585
   7 H :    0.020367
   8 H :    0.017354
   9 H :    0.031846
  10 H :   -0.010618
  11 H :    0.005787
  12 H :    0.094309
  13 H :   -0.006338
  14 H :    0.012563
  15 H :    0.008919
Sum of atomic charges:    0.0000000

LOEWDIN ATOMIC CHARGES
----------------------
   0 C :   -0.059508
   1 C :    0.003574
   2 C :    0.019162
   3 N :   -0.105272
   4 C :    0.012476
   5 C :    0.038341
   6 O :   -0.143777
   7 H :    0.033833
   8 H :    0.036388
   9 H :    0.036441
  10 H :    0.006267
  11 H :    0.021984
  12 H :    0.055352
  13 H :    0.007118
  14 H :    0.022969
  15 H :    0.014652

  Mayer bond orders larger than 0.1
B(  0-C ,  1-C ) :   1.1022 B(  0-C ,  7-H ) :   0.9432 B(  0-C ,  8-H ) :   0.9364
B(  0-C ,  9-H ) :   0.9460 B(  1-C ,  2-C ) :   1.0161 B(  1-C ,  5-C ) :   1.0428
B(  1-C ,  6-O ) :   0.9469 B(  2-C ,  3-N ) :   1.0389 B(  2-C , 10-H ) :   0.9109
B(  2-C , 11-H ) :   0.9091 B(  3-N ,  4-C ) :   1.0452 B(  3-N , 12-H ) :   0.9421
B(  4-C ,  5-C ) :   1.0137 B(  4-C , 13-H ) :   0.9110 B(  4-C , 14-H ) :   0.9102
B(  5-C ,  6-O ) :   0.9998 B(  5-C , 15-H ) :   0.9559

FINAL SINGLE POINT ENERGY      -325.232414753539

DIPOLE MOMENT
-------------
                                X             Y             Z
Electronic contribution:      2.65009       1.36983       2.13702
Nuclear contribution   :     -2.96678      -1.85683      -3.00844
                        -----------------------------------------
Total Dipole Moment    :     -0.31668      -0.48700      -0.87142
                        -----------------------------------------
Magnitude (a.u.)       :      1.04730
Magnitude (Debye)      :      2.66202

                             ****ORCA TERMINATED NORMALLY****
TOTAL RUN TIME: 0 days 0 hours 0 minutes 7 seconds 94 msec
