                         Program Version 3.0.3 - RELEASE   -
|  1> ! RI PBE def2-SVP def2-SVP/J NBO PAL2
|  2> % maxcore 2000
|  3> % output
|  4>     # printlevel mini
|  5>     print[ P_Basis ] 0
|  6>     print[ P_SCFInfo ] 1
|  7>     print[ P_SCFIterInfo ] 1
|  8>     print[ P_OrbEn ] 0
|  9>     print[ P_Cartesian ] 0
| 10> end
| 11> *xyz 0 1
| 12>  C        1.4861900000     0.0909670000    -0.3265770000
| 13>  C        2.8854320000    -0.2184360000     0.1000660000
| 14>  C        3.2152280000    -1.5725170000     0.6798220000
| 15>  O        4.6172720000    -1.7197500000     0.5827320000
| 16>  C        5.1110060000    -0.8951170000    -0.4574080000
| 17>  C        4.1035720000     0.2071670000    -0.6109860000
| 18>  N        3.7490390000     0.8185650000     0.6741840000
| 19>  H        1.1038130000    -0.6741460000    -1.0072170000
| 20>  H        1.4370670000     1.0539030000    -0.8407930000
| 21>  H        0.8141900000     0.1366340000     0.5355420000
| 22>  H        2.6910450000    -2.3518720000     0.1050540000
| 23>  H        2.9423820000    -1.6686920000     1.7345290000
| 24>  H        5.1995250000    -1.4521300000    -1.4023670000
| 25>  H        6.1028020000    -0.5459240000    -0.1586100000
| 26>  H        4.0635760000     0.7923650000    -1.5231730000
| 27>  H        3.3281530000     1.7276630000     0.5058030000
| 28> *
| 29>
| 30>                          ****END OF INPUT****
 Total Charge           Charge          ....    0
 Multiplicity           Mult            ....    1
 Number of Electrons    NEL             ....   54
 Basis Dimension        Dim             ....  143

MULLIKEN ATOMIC CHARGES
-----------------------
   0 C :    0.115595
   1 C :   -0.342990
   2 C :    0.355900
   3 O :   -0.359443
   4 C :    0.321021
   5 C :   -0.127448
   6 N :   -0.145461
   7 H :    0.027949
   8 H :    0.004731
   9 H :    0.035137
  10 H :   -0.015061
  11 H :    0.008467
  12 H :   -0.004068
  13 H :    0.012577
  14 H :    0.012872
  15 H :    0.100221
Sum of atomic charges:   -0.0000000

LOEWDIN ATOMIC CHARGES
----------------------
   0 C :   -0.058230
   1 C :   -0.049059
   2 C :    0.074447
   3 O :   -0.153192
   4 C :    0.069913
   5 C :   -0.017608
   6 N :   -0.091978
   7 H :    0.035191
   8 H :    0.029088
   9 H :    0.034989
  10 H :    0.004823
  11 H :    0.022274
  12 H :    0.006712
  13 H :    0.022447
  14 H :    0.016072
  15 H :    0.054112

  Mayer bond orders larger than 0.1
B(  0-C ,  1-C ) :   1.0926 B(  0-C ,  7-H ) :   0.9435 B(  0-C ,  8-H ) :   0.9349
B(  0-C ,  9-H ) :   0.9505 B(  1-C ,  2-C ) :   1.0225 B(  1-C ,  5-C ) :   1.0096
B(  1-C ,  6-N ) :   0.9258 B(  2-C ,  3-O ) :   1.0237 B(  2-C , 10-H ) :   0.9157
B(  2-C , 11-H ) :   0.9137 B(  3-O ,  4-C ) :   1.0226 B(  4-C ,  5-C ) :   1.0219
B(  4-C , 12-H ) :   0.9229 B(  4-C , 13-H ) :   0.9150 B(  5-C ,  6-N ) :   0.9860
B(  5-C , 14-H ) :   0.9507 B(  6-N , 15-H ) :   0.9389

FINAL SINGLE POINT ENERGY      -325.227871062066

DIPOLE MOMENT
-------------
                                X             Y             Z
Electronic contribution:      3.59944      -0.75079       1.91588
Nuclear contribution   :     -4.34263       1.25692      -2.70705
                        -----------------------------------------
Total Dipole Moment    :     -0.74318       0.50613      -0.79117
                        -----------------------------------------
Magnitude (a.u.)       :      1.19768
Magnitude (Debye)      :      3.04426

                             ****ORCA TERMINATED NORMALLY****
TOTAL RUN TIME: 0 days 0 hours 0 minutes 7 seconds 355 msec
