                         Program Version 3.0.3 - RELEASE   -
|  1> ! RI PBE def2-SVP def2-SVP/J NBO PAL2
|  2> % maxcore 2000
|  3> % output
|  4>     # printlevel mini
|  5>     print[ P_Basis ] 0
|  6>     print[ P_SCFInfo ] 1
|  7>     print[ P_SCFIterInfo ] 1
|  8>     print[ P_OrbEn ] 0
|  9>     print[ P_Cartesian ] 0
| 10> end
| 11> *xyz 0 1
| 12>  C        0.9597940000    -0.0870420000    -0.2305900000
| 13>  C        2.3454960000    -0.0189370000     0.3385310000
| 14>  C        3.4514030000     0.7290690000    -0.3164920000
| 15>  O        3.2968480000     1.0552950000    -1.6758770000
| 16>  N        3.2605410000    -0.1037860000    -2.4315600000
| 17>  C        3.4223350000    -1.1083060000    -1.6623880000
| 18>  C        3.5331430000    -0.7777180000    -0.2377320000
| 19>  H        0.3798540000     0.7832430000     0.0857930000
| 20>  H        0.4394580000    -0.9839710000     0.1143010000
| 21>  H        0.9697620000    -0.0962060000    -1.3209210000
| 22>  H        2.3933320000     0.0331560000     1.4219450000
| 23>  H        4.0886610000     1.4251020000     0.2144610000
| 24>  H        3.4654240000    -2.0960570000    -2.1024170000
| 25>  H        4.1940500000    -1.3349510000     0.4134460000
| 26> *
| 27>
| 28>                          ****END OF INPUT****
 Total Charge           Charge          ....    0
 Multiplicity           Mult            ....    1
 Number of Electrons    NEL             ....   52
 Basis Dimension        Dim             ....  133

MULLIKEN ATOMIC CHARGES
-----------------------
   0 C :    0.090187
   1 C :   -0.176888
   2 C :    0.162571
   3 O :   -0.226966
   4 N :    0.006989
   5 C :    0.021156
   6 C :   -0.095532
   7 H :    0.032317
   8 H :    0.026656
   9 H :    0.032745
  10 H :    0.037083
  11 H :    0.032520
  12 H :    0.023051
  13 H :    0.034110
Sum of atomic charges:    0.0000000

LOEWDIN ATOMIC CHARGES
----------------------
   0 C :   -0.059110
   1 C :   -0.050782
   2 C :    0.048367
   3 O :   -0.061451
   4 N :    0.002982
   5 C :   -0.043199
   6 C :   -0.064953
   7 H :    0.036545
   8 H :    0.032931
   9 H :    0.033145
  10 H :    0.038410
  11 H :    0.023602
  12 H :    0.031364
  13 H :    0.032150

  Mayer bond orders larger than 0.1
B(  0-C ,  1-C ) :   1.0863 B(  0-C ,  7-H ) :   0.9567 B(  0-C ,  8-H ) :   0.9589
B(  0-C ,  9-H ) :   0.9341 B(  1-C ,  2-C ) :   0.9470 B(  1-C ,  6-C ) :   0.9040
B(  1-C , 10-H ) :   0.9330 B(  2-C ,  3-O ) :   1.0170 B(  2-C ,  6-C ) :   0.9071
B(  2-C , 11-H ) :   0.9516 B(  3-O ,  4-N ) :   0.9844 B(  3-O ,  5-C ) :   0.1025
B(  4-N ,  5-C ) :   1.8252 B(  5-C ,  6-C ) :   1.0114 B(  5-C , 12-H ) :   0.9799
B(  6-C , 13-H ) :   0.9528

FINAL SINGLE POINT ENERGY      -323.993183766173

DIPOLE MOMENT
-------------
                                X             Y             Z
Electronic contribution:      3.98396       1.43580      -3.67555
Nuclear contribution   :     -3.92408      -1.97683       4.78812
                        -----------------------------------------
Total Dipole Moment    :      0.05988      -0.54103       1.11257
                        -----------------------------------------
Magnitude (a.u.)       :      1.23860
Magnitude (Debye)      :      3.14826

                             ****ORCA TERMINATED NORMALLY****
TOTAL RUN TIME: 0 days 0 hours 0 minutes 6 seconds 845 msec
