                         Program Version 3.0.3 - RELEASE   -
|  1> ! RI PBE def2-SVP def2-SVP/J NBO PAL2
|  2> % maxcore 2000
|  3> % output
|  4>     # printlevel mini
|  5>     print[ P_Basis ] 0
|  6>     print[ P_SCFInfo ] 1
|  7>     print[ P_SCFIterInfo ] 1
|  8>     print[ P_OrbEn ] 0
|  9>     print[ P_Cartesian ] 0
| 10> end
| 11> *xyz 0 1
| 12>  C        1.2272690000    -0.0687170000     0.1079600000
| 13>  C        2.6919010000     0.0631460000    -0.1898010000
| 14>  C        3.2843570000    -0.5663640000    -1.4052620000
| 15>  C        3.1584900000     0.9266030000    -1.3448990000
| 16>  C        4.3423170000     1.7827660000    -1.1865340000
| 17>  N        5.5037410000     1.2894940000    -1.0725490000
| 18>  O        6.4600590000     2.2725100000    -0.8686330000
| 19>  H        1.0177240000    -1.0019810000     0.6382400000
| 20>  H        0.6412910000    -0.0747700000    -0.8150390000
| 21>  H        0.8673280000     0.7565450000     0.7281420000
| 22>  H        3.3456490000     0.0987850000     0.6762010000
| 23>  H        2.6149500000    -1.0894790000    -2.0782950000
| 24>  H        4.2856680000    -0.9711130000    -1.3408020000
| 25>  H        2.3623280000     1.3769080000    -1.9290570000
| 26>  H        4.2033820000     2.8651860000    -1.1391430000
| 27>  H        7.2787570000     1.7712820000    -0.8280320000
| 28> *
| 29>
| 30>                          ****END OF INPUT****
 Total Charge           Charge          ....    0
 Multiplicity           Mult            ....    1
 Number of Electrons    NEL             ....   54
 Basis Dimension        Dim             ....  143

MULLIKEN ATOMIC CHARGES
-----------------------
   0 C :    0.065276
   1 C :   -0.161030
   2 C :    0.039586
   3 C :   -0.071469
   4 C :    0.018184
   5 N :   -0.052925
   6 O :   -0.178335
   7 H :    0.028219
   8 H :    0.007689
   9 H :    0.028695
  10 H :    0.030551
  11 H :    0.024952
  12 H :    0.039068
  13 H :    0.017233
  14 H :   -0.004273
  15 H :    0.168577
Sum of atomic charges:   -0.0000000

LOEWDIN ATOMIC CHARGES
----------------------
   0 C :   -0.057323
   1 C :   -0.027346
   2 C :   -0.031642
   3 C :   -0.055482
   4 C :   -0.031601
   5 N :   -0.023995
   6 O :   -0.057553
   7 H :    0.031989
   8 H :    0.027294
   9 H :    0.030349
  10 H :    0.028745
  11 H :    0.026954
  12 H :    0.029800
  13 H :    0.030762
  14 H :    0.007267
  15 H :    0.071782

  Mayer bond orders larger than 0.1
B(  0-C ,  1-C ) :   1.0963 B(  0-C ,  7-H ) :   0.9567 B(  0-C ,  8-H ) :   0.9473
B(  0-C ,  9-H ) :   0.9619 B(  1-C ,  2-C ) :   1.0214 B(  1-C ,  3-C ) :   0.9144
B(  1-C , 10-H ) :   0.9404 B(  2-C ,  3-C ) :   0.9894 B(  2-C , 11-H ) :   0.9369
B(  2-C , 12-H ) :   0.9240 B(  3-C ,  4-C ) :   1.0539 B(  3-C , 13-H ) :   0.9324
B(  4-C ,  5-N ) :   1.8967 B(  4-C ,  6-O ) :   0.1096 B(  4-C , 14-H ) :   0.9459
B(  5-N ,  6-O ) :   0.9851 B(  6-O , 15-H ) :   0.9769

FINAL SINGLE POINT ENERGY      -325.193591505216

DIPOLE MOMENT
-------------
                                X             Y             Z
Electronic contribution:      7.51829       3.49911      -1.30698
Nuclear contribution   :     -7.67874      -3.61797       1.38392
                        -----------------------------------------
Total Dipole Moment    :     -0.16045      -0.11886       0.07694
                        -----------------------------------------
Magnitude (a.u.)       :      0.21399
Magnitude (Debye)      :      0.54391

                             ****ORCA TERMINATED NORMALLY****
TOTAL RUN TIME: 0 days 0 hours 0 minutes 7 seconds 3 msec
