                         Program Version 3.0.3 - RELEASE   -
|  1> ! RI PBE def2-SVP def2-SVP/J NBO PAL2
|  2> % maxcore 2000
|  3> % output
|  4>     # printlevel mini
|  5>     print[ P_Basis ] 0
|  6>     print[ P_SCFInfo ] 1
|  7>     print[ P_SCFIterInfo ] 1
|  8>     print[ P_OrbEn ] 0
|  9>     print[ P_Cartesian ] 0
| 10> end
| 11> *xyz 0 1
| 12>  C        0.9170440000    -0.0100950000    -0.1284400000
| 13>  C        2.4087110000    -0.0627320000     0.0325930000
| 14>  C        3.2429310000    -0.9068200000    -0.8656070000
| 15>  C        3.2929990000     0.5945200000    -0.9988990000
| 16>  C        4.4818400000     1.4047330000    -0.6148250000
| 17>  N        5.2480980000     0.9370440000     0.4092970000
| 18>  O        4.7369640000     2.4530900000    -1.1725060000
| 19>  H        0.4341990000    -0.8249150000     0.4177230000
| 20>  H        0.6363520000    -0.1020730000    -1.1806530000
| 21>  H        0.5116160000     0.9335750000     0.2445140000
| 22>  H        2.7600170000     0.0325240000     1.0556880000
| 23>  H        2.7450280000    -1.4470640000    -1.6622030000
| 24>  H        4.1105370000    -1.4189970000    -0.4660860000
| 25>  H        2.7925010000     1.0252980000    -1.8570670000
| 26>  H        5.1418760000     0.0133860000     0.7847690000
| 27>  H        6.0860770000     1.4480290000     0.6247810000
| 28> *
| 29>
| 30>                          ****END OF INPUT****
 Total Charge           Charge          ....    0
 Multiplicity           Mult            ....    1
 Number of Electrons    NEL             ....   54
 Basis Dimension        Dim             ....  143

MULLIKEN ATOMIC CHARGES
-----------------------
   0 C :    0.078273
   1 C :   -0.157097
   2 C :    0.016200
   3 C :   -0.119321
   4 C :    0.065865
   5 N :   -0.077583
   6 O :   -0.199475
   7 H :    0.027782
   8 H :    0.009209
   9 H :    0.031415
  10 H :    0.022414
  11 H :    0.036547
  12 H :    0.024394
  13 H :    0.021000
  14 H :    0.102286
  15 H :    0.118091
Sum of atomic charges:    0.0000000

LOEWDIN ATOMIC CHARGES
----------------------
   0 C :   -0.050844
   1 C :   -0.034086
   2 C :   -0.035500
   3 C :   -0.061381
   4 C :    0.030094
   5 N :    0.002916
   6 O :   -0.194366
   7 H :    0.031369
   8 H :    0.028822
   9 H :    0.033371
  10 H :    0.022860
  11 H :    0.032057
  12 H :    0.019968
  13 H :    0.037425
  14 H :    0.063735
  15 H :    0.073560

  Mayer bond orders larger than 0.1
B(  0-C ,  1-C ) :   1.1066 B(  0-C ,  7-H ) :   0.9590 B(  0-C ,  8-H ) :   0.9504
B(  0-C ,  9-H ) :   0.9606 B(  1-C ,  2-C ) :   1.0065 B(  1-C ,  3-C ) :   0.8856
B(  1-C , 10-H ) :   0.9415 B(  2-C ,  3-C ) :   0.9399 B(  2-C , 11-H ) :   0.9369
B(  2-C , 12-H ) :   0.9428 B(  3-C ,  4-C ) :   0.9817 B(  3-C , 13-H ) :   0.9380
B(  4-C ,  5-N ) :   1.2351 B(  4-C ,  6-O ) :   2.1217 B(  5-N , 14-H ) :   0.9400
B(  5-N , 15-H ) :   0.9381

FINAL SINGLE POINT ENERGY      -325.275940343950

DIPOLE MOMENT
-------------
                                X             Y             Z
Electronic contribution:      5.75612       4.53316      -1.21616
Nuclear contribution   :     -5.86819      -5.76556       2.00080
                        -----------------------------------------
Total Dipole Moment    :     -0.11207      -1.23240       0.78464
                        -----------------------------------------
Magnitude (a.u.)       :      1.46527
Magnitude (Debye)      :      3.72443

                             ****ORCA TERMINATED NORMALLY****
TOTAL RUN TIME: 0 days 0 hours 0 minutes 7 seconds 604 msec
