                         Program Version 3.0.3 - RELEASE   -
|  1> ! RI PBE def2-SVP def2-SVP/J NBO PAL2
|  2> % maxcore 2000
|  3> % output
|  4>     # printlevel mini
|  5>     print[ P_Basis ] 0
|  6>     print[ P_SCFInfo ] 1
|  7>     print[ P_SCFIterInfo ] 1
|  8>     print[ P_OrbEn ] 0
|  9>     print[ P_Cartesian ] 0
| 10> end
| 11> *xyz 0 1
| 12>  C        0.9694690000     0.2127450000    -0.1300240000
| 13>  C        2.4681790000     0.1560820000    -0.0370970000
| 14>  C        3.2611430000    -0.7280920000    -0.9622940000
| 15>  C        3.3669030000     0.7675210000    -1.0684770000
| 16>  N        2.7954360000     1.5126890000    -2.1600220000
| 17>  C        4.6454160000     1.4191440000    -0.6024870000
| 18>  O        4.4446790000     2.7780820000    -0.3125540000
| 19>  H        0.5185830000    -0.5701400000     0.4851170000
| 20>  H        0.6140340000     0.0523980000    -1.1513890000
| 21>  H        0.5811070000     1.1733610000     0.2202760000
| 22>  H        2.8476670000     0.2324820000     0.9775670000
| 23>  H        2.7082010000    -1.2421150000    -1.7412020000
| 24>  H        4.1057370000    -1.2819970000    -0.5675160000
| 25>  H        1.7862350000     1.4927260000    -2.1610890000
| 26>  H        3.1240800000     1.1838220000    -3.0587190000
| 27>  H        5.4166030000     1.2948690000    -1.3810180000
| 28>  H        5.0138500000     0.9317660000     0.3043120000
| 29>  H        3.8606870000     3.0905590000    -1.0181050000
| 30> *
| 31>
| 32>                          ****END OF INPUT****
 Total Charge           Charge          ....    0
 Multiplicity           Mult            ....    1
 Number of Electrons    NEL             ....   56
 Basis Dimension        Dim             ....  153

MULLIKEN ATOMIC CHARGES
-----------------------
   0 C :    0.063788
   1 C :   -0.131441
   2 C :    0.036396
   3 C :   -0.273691
   4 N :   -0.128903
   5 C :    0.313101
   6 O :   -0.283500
   7 H :    0.027758
   8 H :   -0.001790
   9 H :    0.033381
  10 H :    0.027053
  11 H :    0.011096
  12 H :    0.022741
  13 H :    0.084238
  14 H :    0.102167
  15 H :   -0.021278
  16 H :   -0.018131
  17 H :    0.137015
Sum of atomic charges:   -0.0000000

LOEWDIN ATOMIC CHARGES
----------------------
   0 C :   -0.059069
   1 C :   -0.041420
   2 C :   -0.054447
   3 C :   -0.050336
   4 N :   -0.063881
   5 C :    0.059522
   6 O :   -0.128353
   7 H :    0.036134
   8 H :    0.019132
   9 H :    0.032032
  10 H :    0.030011
  11 H :    0.021395
  12 H :    0.025476
  13 H :    0.053153
  14 H :    0.059723
  15 H :   -0.001374
  16 H :    0.015660
  17 H :    0.046643

  Mayer bond orders larger than 0.1
B(  0-C ,  1-C ) :   1.1091 B(  0-C ,  7-H ) :   0.9491 B(  0-C ,  8-H ) :   0.9421
B(  0-C ,  9-H ) :   0.9618 B(  1-C ,  2-C ) :   0.9838 B(  1-C ,  3-C ) :   0.9171
B(  1-C , 10-H ) :   0.9318 B(  2-C ,  3-C ) :   0.9562 B(  2-C , 11-H ) :   0.9315
B(  2-C , 12-H ) :   0.9324 B(  3-C ,  4-N ) :   1.1146 B(  3-C ,  5-C ) :   1.0316
B(  4-N , 13-H ) :   0.9575 B(  4-N , 14-H ) :   0.9613 B(  5-C ,  6-O ) :   1.1039
B(  5-C , 15-H ) :   0.9118 B(  5-C , 16-H ) :   0.9109 B(  6-O , 17-H ) :   0.9566

FINAL SINGLE POINT ENERGY      -326.434854765592

DIPOLE MOMENT
-------------
                                X             Y             Z
Electronic contribution:      3.03545       2.89364      -0.04603
Nuclear contribution   :     -3.71866      -3.59453      -0.56672
                        -----------------------------------------
Total Dipole Moment    :     -0.68322      -0.70089      -0.61276
                        -----------------------------------------
Magnitude (a.u.)       :      1.15477
Magnitude (Debye)      :      2.93520

                             ****ORCA TERMINATED NORMALLY****
TOTAL RUN TIME: 0 days 0 hours 0 minutes 8 seconds 61 msec
