                         Program Version 3.0.3 - RELEASE   -
|  1> ! RI PBE def2-SVP def2-SVP/J NBO PAL2
|  2> % maxcore 2000
|  3> % output
|  4>     # printlevel mini
|  5>     print[ P_Basis ] 0
|  6>     print[ P_SCFInfo ] 1
|  7>     print[ P_SCFIterInfo ] 1
|  8>     print[ P_OrbEn ] 0
|  9>     print[ P_Cartesian ] 0
| 10> end
| 11> *xyz 0 1
| 12>  C        0.8725250000     0.2340840000    -0.2070690000
| 13>  C        2.3474180000    -0.0003810000    -0.0550960000
| 14>  C        3.0957690000    -0.8374210000    -1.0440460000
| 15>  C        3.3157050000     0.6456650000    -1.0023310000
| 16>  N        4.5608890000     1.1314390000    -0.5124660000
| 17>  C        4.6838770000     2.1181620000     0.4071740000
| 18>  O        5.7291740000     2.6220460000     0.7432940000
| 19>  H        0.2990150000    -0.5964080000     0.2122440000
| 20>  H        0.5962420000     0.3263610000    -1.2604970000
| 21>  H        0.5595150000     1.1494840000     0.3019460000
| 22>  H        2.7037640000    -0.0772450000     0.9669010000
| 23>  H        2.5535000000    -1.2378740000    -1.8920450000
| 24>  H        3.8981720000    -1.4638920000    -0.6747450000
| 25>  H        2.8749790000     1.2172760000    -1.8165500000
| 26>  H        5.4115950000     0.8635880000    -0.9855810000
| 27>  H        3.7080610000     2.4118150000     0.8383680000
| 28> *
| 29>
| 30>                          ****END OF INPUT****
 Total Charge           Charge          ....    0
 Multiplicity           Mult            ....    1
 Number of Electrons    NEL             ....   54
 Basis Dimension        Dim             ....  143

MULLIKEN ATOMIC CHARGES
-----------------------
   0 C :    0.078234
   1 C :   -0.163554
   2 C :    0.025374
   3 C :   -0.042757
   4 N :   -0.088399
   5 C :    0.119623
   6 O :   -0.224710
   7 H :    0.032255
   8 H :    0.009360
   9 H :    0.028055
  10 H :    0.034743
  11 H :    0.030475
  12 H :    0.033911
  13 H :    0.032948
  14 H :    0.116799
  15 H :   -0.022355
Sum of atomic charges:    0.0000000

LOEWDIN ATOMIC CHARGES
----------------------
   0 C :   -0.053290
   1 C :   -0.042015
   2 C :   -0.041766
   3 C :    0.001076
   4 N :    0.006798
   5 C :    0.049204
   6 O :   -0.182117
   7 H :    0.033816
   8 H :    0.027752
   9 H :    0.031875
  10 H :    0.031414
  11 H :    0.029352
  12 H :    0.031108
  13 H :    0.019142
  14 H :    0.074421
  15 H :   -0.016772

  Mayer bond orders larger than 0.1
B(  0-C ,  1-C ) :   1.1003 B(  0-C ,  7-H ) :   0.9570 B(  0-C ,  8-H ) :   0.9499
B(  0-C ,  9-H ) :   0.9601 B(  1-C ,  2-C ) :   0.9962 B(  1-C ,  3-C ) :   0.9403
B(  1-C , 10-H ) :   0.9427 B(  2-C ,  3-C ) :   0.9971 B(  2-C , 11-H ) :   0.9393
B(  2-C , 12-H ) :   0.9401 B(  3-C ,  4-N ) :   1.0273 B(  3-C , 13-H ) :   0.9412
B(  4-N ,  5-C ) :   1.1945 B(  4-N , 14-H ) :   0.9206 B(  5-C ,  6-O ) :   2.0668
B(  5-C , 15-H ) :   0.9181

FINAL SINGLE POINT ENERGY      -325.262870672621

DIPOLE MOMENT
-------------
                                X             Y             Z
Electronic contribution:      7.57154       3.99335       1.40963
Nuclear contribution   :     -8.58873      -4.89529      -2.11704
                        -----------------------------------------
Total Dipole Moment    :     -1.01719      -0.90194      -0.70742
                        -----------------------------------------
Magnitude (a.u.)       :      1.53252
Magnitude (Debye)      :      3.89535

                             ****ORCA TERMINATED NORMALLY****
TOTAL RUN TIME: 0 days 0 hours 0 minutes 6 seconds 353 msec
