                         Program Version 3.0.3 - RELEASE   -
|  1> ! RI PBE def2-SVP def2-SVP/J NBO PAL2
|  2> % maxcore 2000
|  3> % output
|  4>     # printlevel mini
|  5>     print[ P_Basis ] 0
|  6>     print[ P_SCFInfo ] 1
|  7>     print[ P_SCFIterInfo ] 1
|  8>     print[ P_OrbEn ] 0
|  9>     print[ P_Cartesian ] 0
| 10> end
| 11> *xyz 0 1
| 12>  C        0.9682720000     0.0704770000    -0.1305690000
| 13>  C        2.4631520000     0.0706720000    -0.0016300000
| 14>  C        3.2880760000    -0.9401310000    -0.7645720000
| 15>  C        3.3378230000     0.4891670000    -1.1595480000
| 16>  O        2.7334260000     0.8175500000    -2.3692680000
| 17>  C        4.5650520000     1.3174700000    -0.8979110000
| 18>  N        4.2026690000     2.7261450000    -1.0090760000
| 19>  H        0.5171720000    -0.7184860000     0.4775570000
| 20>  H        0.6752270000    -0.0867320000    -1.1698290000
| 21>  H        0.5419900000     1.0248900000     0.1915490000
| 22>  H        2.8430560000     0.3257460000     0.9848730000
| 23>  H        2.7486070000    -1.5961770000    -1.4379200000
| 24>  H        4.1547040000    -1.3854150000    -0.2891900000
| 25>  H        2.8047810000     1.7826950000    -2.4198650000
| 26>  H        5.3063370000     1.1005020000    -1.6736180000
| 27>  H        5.0042800000     1.0385130000     0.0697930000
| 28>  H        5.0165580000     3.3139690000    -1.1238480000
| 29>  H        3.7096080000     3.0389540000    -0.1819260000
| 30> *
| 31>
| 32>                          ****END OF INPUT****
 Total Charge           Charge          ....    0
 Multiplicity           Mult            ....    1
 Number of Electrons    NEL             ....   56
 Basis Dimension        Dim             ....  153

MULLIKEN ATOMIC CHARGES
-----------------------
   0 C :    0.087429
   1 C :   -0.183904
   2 C :    0.032193
   3 C :   -0.059652
   4 O :   -0.227222
   5 C :    0.145066
   6 N :   -0.216460
   7 H :    0.016643
   8 H :    0.014949
   9 H :    0.010210
  10 H :    0.003133
  11 H :    0.027164
  12 H :    0.014731
  13 H :    0.142880
  14 H :    0.015429
  15 H :   -0.017973
  16 H :    0.099280
  17 H :    0.096103
Sum of atomic charges:    0.0000000

LOEWDIN ATOMIC CHARGES
----------------------
   0 C :   -0.056961
   1 C :   -0.065542
   2 C :   -0.047329
   3 C :   -0.000140
   4 O :   -0.091087
   5 C :    0.005118
   6 N :   -0.095109
   7 H :    0.026994
   8 H :    0.027985
   9 H :    0.024795
  10 H :    0.017503
  11 H :    0.032859
  12 H :    0.023338
  13 H :    0.053759
  14 H :    0.024745
  15 H :    0.005321
  16 H :    0.057408
  17 H :    0.056342

  Mayer bond orders larger than 0.1
B(  0-C ,  1-C ) :   1.1049 B(  0-C ,  7-H ) :   0.9575 B(  0-C ,  8-H ) :   0.9436
B(  0-C ,  9-H ) :   0.9614 B(  1-C ,  2-C ) :   0.9911 B(  1-C ,  3-C ) :   0.8715
B(  1-C , 10-H ) :   0.9284 B(  2-C ,  3-C ) :   0.9836 B(  2-C , 11-H ) :   0.9255
B(  2-C , 12-H ) :   0.9297 B(  3-C ,  4-O ) :   1.1472 B(  3-C ,  5-C ) :   1.0520
B(  4-O , 13-H ) :   0.9459 B(  5-C ,  6-N ) :   1.0906 B(  5-C , 14-H ) :   0.9199
B(  5-C , 15-H ) :   0.9104 B(  6-N , 13-H ) :   0.1008 B(  6-N , 16-H ) :   0.9629
B(  6-N , 17-H ) :   0.9676

FINAL SINGLE POINT ENERGY      -326.439325184499

DIPOLE MOMENT
-------------
                                X             Y             Z
Electronic contribution:      1.12631       0.54948      -2.75016
Nuclear contribution   :     -0.55058       0.09527       3.41788
                        -----------------------------------------
Total Dipole Moment    :      0.57572       0.64475       0.66772
                        -----------------------------------------
Magnitude (a.u.)       :      1.09225
Magnitude (Debye)      :      2.77628

                             ****ORCA TERMINATED NORMALLY****
TOTAL RUN TIME: 0 days 0 hours 0 minutes 8 seconds 22 msec
