                         Program Version 3.0.3 - RELEASE   -
|  1> ! RI PBE def2-SVP def2-SVP/J NBO PAL2
|  2> % maxcore 2000
|  3> % output
|  4>     # printlevel mini
|  5>     print[ P_Basis ] 0
|  6>     print[ P_SCFInfo ] 1
|  7>     print[ P_SCFIterInfo ] 1
|  8>     print[ P_OrbEn ] 0
|  9>     print[ P_Cartesian ] 0
| 10> end
| 11> *xyz 0 1
| 12>  C        0.5699130000     0.0424540000     0.1011560000
| 13>  C        2.0331710000    -0.2922100000     0.0669870000
| 14>  C        2.6312270000    -1.0569550000    -1.0845940000
| 15>  C        2.9430820000     0.3891920000    -0.8889020000
| 16>  O        4.1937200000     0.7447700000    -0.3757240000
| 17>  N        5.1299530000     0.7783510000    -1.3865660000
| 18>  C        6.2707200000     1.1126740000    -0.9565770000
| 19>  H       -0.0151430000    -0.7929700000     0.4945950000
| 20>  H        0.1939760000     0.2635290000    -0.9011480000
| 21>  H        0.3763820000     0.9154330000     0.7301220000
| 22>  H        2.4873510000    -0.5016850000     1.0303960000
| 23>  H        1.9893140000    -1.3294680000    -1.9142340000
| 24>  H        3.4249280000    -1.7601640000    -0.8667410000
| 25>  H        2.5319380000     1.1145680000    -1.5849160000
| 26>  H        7.0669550000     1.1680030000    -1.6889050000
| 27>  H        6.4637210000     1.3379570000     0.0915620000
| 28> *
| 29>
| 30>                          ****END OF INPUT****
 Total Charge           Charge          ....    0
 Multiplicity           Mult            ....    1
 Number of Electrons    NEL             ....   54
 Basis Dimension        Dim             ....  143

MULLIKEN ATOMIC CHARGES
-----------------------
   0 C :    0.072328
   1 C :   -0.180254
   2 C :    0.012553
   3 C :    0.104810
   4 O :   -0.245419
   5 N :   -0.004698
   6 C :   -0.018168
   7 H :    0.029218
   8 H :    0.007633
   9 H :    0.028225
  10 H :    0.033133
  11 H :    0.027846
  12 H :    0.032329
  13 H :    0.017569
  14 H :    0.053882
  15 H :    0.029015
Sum of atomic charges:    0.0000000

LOEWDIN ATOMIC CHARGES
----------------------
   0 C :   -0.054409
   1 C :   -0.050417
   2 C :   -0.052734
   3 C :    0.028529
   4 O :   -0.065655
   5 N :    0.013682
   6 C :   -0.047300
   7 H :    0.031495
   8 H :    0.027212
   9 H :    0.031487
  10 H :    0.032099
  11 H :    0.027968
  12 H :    0.032939
  13 H :    0.012447
  14 H :    0.027417
  15 H :    0.005241

  Mayer bond orders larger than 0.1
B(  0-C ,  1-C ) :   1.0996 B(  0-C ,  7-H ) :   0.9582 B(  0-C ,  8-H ) :   0.9502
B(  0-C ,  9-H ) :   0.9601 B(  1-C ,  2-C ) :   0.9970 B(  1-C ,  3-C ) :   0.9406
B(  1-C , 10-H ) :   0.9374 B(  2-C ,  3-C ) :   1.0108 B(  2-C , 11-H ) :   0.9386
B(  2-C , 12-H ) :   0.9274 B(  3-C ,  4-O ) :   1.0159 B(  3-C , 13-H ) :   0.9493
B(  4-O ,  5-N ) :   0.9555 B(  4-O ,  6-C ) :   0.1135 B(  5-N ,  6-C ) :   1.9449
B(  6-C , 14-H ) :   0.9531 B(  6-C , 15-H ) :   0.9317

FINAL SINGLE POINT ENERGY      -325.175928069648

DIPOLE MOMENT
-------------
                                X             Y             Z
Electronic contribution:      5.60929       1.75892      -0.89863
Nuclear contribution   :     -5.69622      -1.77920       1.06294
                        -----------------------------------------
Total Dipole Moment    :     -0.08693      -0.02029       0.16431
                        -----------------------------------------
Magnitude (a.u.)       :      0.18699
Magnitude (Debye)      :      0.47530

                             ****ORCA TERMINATED NORMALLY****
TOTAL RUN TIME: 0 days 0 hours 0 minutes 7 seconds 135 msec
