                         Program Version 3.0.3 - RELEASE   -
|  1> ! RI PBE def2-SVP def2-SVP/J NBO PAL2
|  2> % maxcore 2000
|  3> % output
|  4>     # printlevel mini
|  5>     print[ P_Basis ] 0
|  6>     print[ P_SCFInfo ] 1
|  7>     print[ P_SCFIterInfo ] 1
|  8>     print[ P_OrbEn ] 0
|  9>     print[ P_Cartesian ] 0
| 10> end
| 11> *xyz 0 1
| 12>  C        1.0337020000    -0.0115060000    -0.0034820000
| 13>  C        2.5090540000     0.1289020000     0.0146930000
| 14>  C        3.3320480000     1.2295440000    -0.0614130000
| 15>  C        4.6747650000     0.7861800000     0.0158780000
| 16>  C        4.6529340000    -0.5794330000     0.1385470000
| 17>  N        3.3412370000    -0.9474420000     0.1231110000
| 18>  O        2.9069250000    -2.2311380000     0.3025690000
| 19>  H        0.5768330000     0.9772360000    -0.0374000000
| 20>  H        0.6658990000    -0.5292090000     0.8864490000
| 21>  H        0.6803770000    -0.5719150000    -0.8751550000
| 22>  H        2.9919590000     2.2490820000    -0.1599600000
| 23>  H        5.5620030000     1.3989230000    -0.0091840000
| 24>  H        5.4315550000    -1.3159620000     0.2459570000
| 25>  H        2.8296190000    -2.6100730000    -0.5822300000
| 26> *
| 27>
| 28>                          ****END OF INPUT****
 Total Charge           Charge          ....    0
 Multiplicity           Mult            ....    1
 Number of Electrons    NEL             ....   52
 Basis Dimension        Dim             ....  133

MULLIKEN ATOMIC CHARGES
-----------------------
   0 C :    0.099727
   1 C :   -0.045548
   2 C :   -0.076004
   3 C :   -0.014463
   4 C :    0.063383
   5 N :   -0.052113
   6 O :   -0.171172
   7 H :    0.019057
   8 H :    0.037882
   9 H :    0.019070
  10 H :   -0.035304
  11 H :   -0.023609
  12 H :   -0.010296
  13 H :    0.189389
Sum of atomic charges:    0.0000000

LOEWDIN ATOMIC CHARGES
----------------------
   0 C :   -0.063665
   1 C :   -0.053047
   2 C :   -0.094983
   3 C :   -0.085347
   4 C :   -0.052817
   5 N :    0.130919
   6 O :   -0.042572
   7 H :    0.042432
   8 H :    0.039060
   9 H :    0.031202
  10 H :    0.021083
  11 H :    0.023437
  12 H :    0.019168
  13 H :    0.085131

  Mayer bond orders larger than 0.1
B(  0-C ,  1-C ) :   1.1195 B(  0-C ,  7-H ) :   0.9389 B(  0-C ,  8-H ) :   0.9354
B(  0-C ,  9-H ) :   0.9349 B(  1-C ,  2-C ) :   1.4698 B(  1-C ,  5-N ) :   1.1965
B(  2-C ,  3-C ) :   1.2990 B(  2-C , 10-H ) :   1.0033 B(  3-C ,  4-C ) :   1.4499
B(  3-C , 11-H ) :   0.9983 B(  4-C ,  5-N ) :   1.1799 B(  4-C , 12-H ) :   0.9874
B(  5-N ,  6-O ) :   0.9580 B(  6-O , 13-H ) :   0.9676

FINAL SINGLE POINT ENERGY      -324.022273387760

DIPOLE MOMENT
-------------
                                X             Y             Z
Electronic contribution:      2.84964      -2.19569       0.46376
Nuclear contribution   :     -3.16968       1.66784      -0.98740
                        -----------------------------------------
Total Dipole Moment    :     -0.32005      -0.52784      -0.52365
                        -----------------------------------------
Magnitude (a.u.)       :      0.80948
Magnitude (Debye)      :      2.05753

                             ****ORCA TERMINATED NORMALLY****
TOTAL RUN TIME: 0 days 0 hours 0 minutes 6 seconds 302 msec
