                         Program Version 3.0.3 - RELEASE   -
|  1> ! RI PBE def2-SVP def2-SVP/J NBO PAL2
|  2> % maxcore 2000
|  3> % output
|  4>     # printlevel mini
|  5>     print[ P_Basis ] 0
|  6>     print[ P_SCFInfo ] 1
|  7>     print[ P_SCFIterInfo ] 1
|  8>     print[ P_OrbEn ] 0
|  9>     print[ P_Cartesian ] 0
| 10> end
| 11> *xyz 0 1
| 12>  C        1.0587130000    -0.1427970000     0.0767360000
| 13>  C        2.5190720000     0.0700490000     0.0818290000
| 14>  C        3.3199570000     1.1560020000     0.0823290000
| 15>  C        4.6774100000     0.6941320000     0.0886180000
| 16>  C        4.5915270000    -0.6626220000     0.0914970000
| 17>  N        5.5099090000    -1.6672630000     0.0973670000
| 18>  O        3.3052680000    -1.0627250000     0.0875190000
| 19>  H        0.5523680000     0.8228250000     0.0725310000
| 20>  H        0.7247880000    -0.6974070000     0.9596280000
| 21>  H        0.7315500000    -0.7015510000    -0.8060740000
| 22>  H        2.9872260000     2.1825340000     0.0786280000
| 23>  H        5.5780000000     1.2857440000     0.0906650000
| 24>  H        6.4872240000    -1.4602320000     0.1007840000
| 25>  H        5.2069770000    -2.6206990000     0.0986340000
| 26> *
| 27>
| 28>                          ****END OF INPUT****
 Total Charge           Charge          ....    0
 Multiplicity           Mult            ....    1
 Number of Electrons    NEL             ....   52
 Basis Dimension        Dim             ....  133

MULLIKEN ATOMIC CHARGES
-----------------------
   0 C :    0.094216
   1 C :   -0.014665
   2 C :   -0.048201
   3 C :   -0.136405
   4 C :    0.137513
   5 N :   -0.056190
   6 O :   -0.207322
   7 H :    0.015537
   8 H :    0.028867
   9 H :    0.028856
  10 H :   -0.031101
  11 H :   -0.046093
  12 H :    0.116714
  13 H :    0.118272
Sum of atomic charges:    0.0000000

LOEWDIN ATOMIC CHARGES
----------------------
   0 C :   -0.067014
   1 C :   -0.018725
   2 C :   -0.082512
   3 C :   -0.159303
   4 C :    0.040892
   5 N :   -0.012683
   6 O :   -0.007730
   7 H :    0.041606
   8 H :    0.034918
   9 H :    0.034917
  10 H :    0.024395
  11 H :    0.019575
  12 H :    0.077325
  13 H :    0.074340

  Mayer bond orders larger than 0.1
B(  0-C ,  1-C ) :   1.1333 B(  0-C ,  7-H ) :   0.9425 B(  0-C ,  8-H ) :   0.9337
B(  0-C ,  9-H ) :   0.9336 B(  1-C ,  2-C ) :   1.6017 B(  1-C ,  6-O ) :   1.0550
B(  2-C ,  3-C ) :   1.1326 B(  2-C , 10-H ) :   1.0048 B(  3-C ,  4-C ) :   1.4740
B(  3-C , 11-H ) :   1.0205 B(  4-C ,  5-N ) :   1.2200 B(  4-C ,  6-O ) :   1.1635
B(  5-N , 12-H ) :   0.9541 B(  5-N , 13-H ) :   0.9408

FINAL SINGLE POINT ENERGY      -324.071103543119

DIPOLE MOMENT
-------------
                                X             Y             Z
Electronic contribution:      3.02233      -1.28123       0.01461
Nuclear contribution   :     -2.54512       0.77025      -0.01130
                        -----------------------------------------
Total Dipole Moment    :      0.47721      -0.51098       0.00331
                        -----------------------------------------
Magnitude (a.u.)       :      0.69917
Magnitude (Debye)      :      1.77716

                             ****ORCA TERMINATED NORMALLY****
TOTAL RUN TIME: 0 days 0 hours 0 minutes 6 seconds 798 msec
