                         Program Version 3.0.3 - RELEASE   -
|  1> ! RI PBE def2-SVP def2-SVP/J NBO PAL2
|  2> % maxcore 2000
|  3> % output
|  4>     # printlevel mini
|  5>     print[ P_Basis ] 0
|  6>     print[ P_SCFInfo ] 1
|  7>     print[ P_SCFIterInfo ] 1
|  8>     print[ P_OrbEn ] 0
|  9>     print[ P_Cartesian ] 0
| 10> end
| 11> *xyz 0 1
| 12>  C        0.9514030000    -0.1059460000     0.0608720000
| 13>  C        2.4648420000    -0.1359090000    -0.0216140000
| 14>  C        3.1163540000     0.0057740000     1.3398450000
| 15>  C        2.9961180000    -1.3387640000    -0.8159060000
| 16>  C        3.6369130000    -0.6475420000    -1.9703870000
| 17>  N        3.5527470000     0.6181450000    -1.9379760000
| 18>  O        2.8755290000     1.0184190000    -0.8177060000
| 19>  H        0.5831720000    -0.9443520000     0.6579110000
| 20>  H        0.5140050000    -0.1699900000    -0.9375370000
| 21>  H        0.6133420000     0.8227420000     0.5246330000
| 22>  H        2.8357500000    -0.8286560000     1.9878890000
| 23>  H        2.8017930000     0.9352300000     1.8183520000
| 24>  H        4.2037700000     0.0209880000     1.2421340000
| 25>  H        2.1994020000    -2.0160360000    -1.1383460000
| 26>  H        3.7172030000    -1.9336820000    -0.2471060000
| 27>  H        4.1479660000    -1.1179310000    -2.8007790000
| 28> *
| 29>
| 30>                          ****END OF INPUT****
 Total Charge           Charge          ....    0
 Multiplicity           Mult            ....    1
 Number of Electrons    NEL             ....   54
 Basis Dimension        Dim             ....  143

MULLIKEN ATOMIC CHARGES
-----------------------
   0 C :    0.087849
   1 C :   -0.176116
   2 C :    0.078594
   3 C :    0.071796
   4 C :   -0.064571
   5 N :    0.029242
   6 O :   -0.263257
   7 H :    0.021557
   8 H :    0.022701
   9 H :    0.028441
  10 H :    0.023635
  11 H :    0.029960
  12 H :    0.026794
  13 H :    0.029091
  14 H :    0.031191
  15 H :    0.023092
Sum of atomic charges:   -0.0000000

LOEWDIN ATOMIC CHARGES
----------------------
   0 C :   -0.056087
   1 C :    0.019275
   2 C :   -0.058469
   3 C :   -0.054416
   4 C :   -0.061179
   5 N :    0.009825
   6 O :   -0.090799
   7 H :    0.030313
   8 H :    0.030452
   9 H :    0.032981
  10 H :    0.030732
  11 H :    0.033124
  12 H :    0.031323
  13 H :    0.037928
  14 H :    0.038396
  15 H :    0.026601

  Mayer bond orders larger than 0.1
B(  0-C ,  1-C ) :   1.0652 B(  0-C ,  7-H ) :   0.9522 B(  0-C ,  8-H ) :   0.9480
B(  0-C ,  9-H ) :   0.9529 B(  1-C ,  2-C ) :   1.0681 B(  1-C ,  3-C ) :   1.0552
B(  1-C ,  6-O ) :   0.9117 B(  2-C , 10-H ) :   0.9509 B(  2-C , 11-H ) :   0.9520
B(  2-C , 12-H ) :   0.9471 B(  3-C ,  4-C ) :   0.9985 B(  3-C , 13-H ) :   0.9169
B(  3-C , 14-H ) :   0.9174 B(  4-C ,  5-N ) :   1.8867 B(  4-C ,  6-O ) :   0.1209
B(  4-C , 15-H ) :   0.9678 B(  5-N ,  6-O ) :   0.9997

FINAL SINGLE POINT ENERGY      -325.224279538239

DIPOLE MOMENT
-------------
                                X             Y             Z
Electronic contribution:      2.93401       3.16978      -5.26401
Nuclear contribution   :     -3.19612      -4.29088       5.79832
                        -----------------------------------------
Total Dipole Moment    :     -0.26211      -1.12110       0.53430
                        -----------------------------------------
Magnitude (a.u.)       :      1.26927
Magnitude (Debye)      :      3.22622

                             ****ORCA TERMINATED NORMALLY****
TOTAL RUN TIME: 0 days 0 hours 0 minutes 7 seconds 816 msec
