                         Program Version 3.0.3 - RELEASE   -
|  1> ! RI PBE def2-SVP def2-SVP/J NBO PAL2
|  2> % maxcore 2000
|  3> % output
|  4>     # printlevel mini
|  5>     print[ P_Basis ] 0
|  6>     print[ P_SCFInfo ] 1
|  7>     print[ P_SCFIterInfo ] 1
|  8>     print[ P_OrbEn ] 0
|  9>     print[ P_Cartesian ] 0
| 10> end
| 11> *xyz 0 1
| 12>  C        1.0451990000     0.0077360000     0.2222520000
| 13>  C        2.5282990000     0.0989480000    -0.0612400000
| 14>  C        3.1022390000    -1.1302730000    -0.7575220000
| 15>  C        3.2827250000    -0.5957850000    -2.1463670000
| 16>  C        3.6699360000    -1.4040230000    -3.3277760000
| 17>  N        3.1001690000     0.6598650000    -2.2274760000
| 18>  O        2.7678860000     1.1783260000    -0.9941490000
| 19>  H        0.8444040000    -0.7677540000     0.9663730000
| 20>  H        0.4966660000    -0.2358590000    -0.6911580000
| 21>  H        0.6700460000     0.9585660000     0.6038930000
| 22>  H        3.0759590000     0.3534330000     0.8492960000
| 23>  H        2.4244990000    -1.9878920000    -0.7258360000
| 24>  H        4.0629070000    -1.4574370000    -0.3460190000
| 25>  H        2.9264530000    -2.1807400000    -3.5305860000
| 26>  H        4.6239920000    -1.9112950000    -3.1535640000
| 27>  H        3.7638210000    -0.7667180000    -4.2062300000
| 28> *
| 29>
| 30>                          ****END OF INPUT****
 Total Charge           Charge          ....    0
 Multiplicity           Mult            ....    1
 Number of Electrons    NEL             ....   54
 Basis Dimension        Dim             ....  143

MULLIKEN ATOMIC CHARGES
-----------------------
   0 C :    0.046372
   1 C :    0.054800
   2 C :    0.052171
   3 C :   -0.259183
   4 C :    0.097013
   5 N :    0.033994
   6 O :   -0.273011
   7 H :    0.021969
   8 H :    0.020663
   9 H :    0.036919
  10 H :    0.015486
  11 H :    0.023677
  12 H :    0.031872
  13 H :    0.033929
  14 H :    0.028482
  15 H :    0.034847
Sum of atomic charges:   -0.0000000

LOEWDIN ATOMIC CHARGES
----------------------
   0 C :   -0.068969
   1 C :    0.046184
   2 C :   -0.055886
   3 C :   -0.071816
   4 C :   -0.060075
   5 N :   -0.005052
   6 O :   -0.099331
   7 H :    0.030145
   8 H :    0.030915
   9 H :    0.034583
  10 H :    0.023024
  11 H :    0.036229
  12 H :    0.039201
  13 H :    0.038922
  14 H :    0.039036
  15 H :    0.042887

  Mayer bond orders larger than 0.1
B(  0-C ,  1-C ) :   1.0887 B(  0-C ,  7-H ) :   0.9516 B(  0-C ,  8-H ) :   0.9480
B(  0-C ,  9-H ) :   0.9556 B(  1-C ,  2-C ) :   1.0885 B(  1-C ,  6-O ) :   0.9438
B(  1-C , 10-H ) :   0.9201 B(  2-C ,  3-C ) :   1.0020 B(  2-C , 11-H ) :   0.9230
B(  2-C , 12-H ) :   0.8995 B(  3-C ,  4-C ) :   1.1087 B(  3-C ,  5-N ) :   1.8926
B(  3-C ,  6-O ) :   0.1165 B(  4-C , 13-H ) :   0.9417 B(  4-C , 14-H ) :   0.9365
B(  4-C , 15-H ) :   0.9413 B(  5-N ,  6-O ) :   0.9723

FINAL SINGLE POINT ENERGY      -325.229148031074

DIPOLE MOMENT
-------------
                                X             Y             Z
Electronic contribution:      1.88335       4.89115      -1.03012
Nuclear contribution   :     -1.90231      -6.09043       1.49986
                        -----------------------------------------
Total Dipole Moment    :     -0.01896      -1.19928       0.46974
                        -----------------------------------------
Magnitude (a.u.)       :      1.28813
Magnitude (Debye)      :      3.27418

                             ****ORCA TERMINATED NORMALLY****
TOTAL RUN TIME: 0 days 0 hours 0 minutes 6 seconds 463 msec
