                         Program Version 3.0.3 - RELEASE   -
|  1> ! RI PBE def2-SVP def2-SVP/J NBO PAL2
|  2> % maxcore 2000
|  3> % output
|  4>     # printlevel mini
|  5>     print[ P_Basis ] 0
|  6>     print[ P_SCFInfo ] 1
|  7>     print[ P_SCFIterInfo ] 1
|  8>     print[ P_OrbEn ] 0
|  9>     print[ P_Cartesian ] 0
| 10> end
| 11> *xyz 0 1
| 12>  C        0.9701930000    -0.2302980000     0.2898960000
| 13>  C        2.3867080000     0.0113900000    -0.1585270000
| 14>  C        3.1932420000     1.0905540000     0.5746650000
| 15>  C        4.1062130000    -0.0667380000     0.9893960000
| 16>  C        5.5308840000     0.0041610000     0.4954890000
| 17>  N        6.2741690000    -1.1896320000     0.8487030000
| 18>  O        3.2903860000    -1.0173730000     0.2868390000
| 19>  H        0.3216160000     0.5871310000    -0.0384420000
| 20>  H        0.9153260000    -0.3043850000     1.3787940000
| 21>  H        0.5896140000    -1.1612560000    -0.1365930000
| 22>  H        2.4231450000     0.1003260000    -1.2516310000
| 23>  H        2.6626640000     1.5875610000     1.3870390000
| 24>  H        3.6649530000     1.8407810000    -0.0614570000
| 25>  H        4.1046360000    -0.2850700000     2.0665830000
| 26>  H        5.9624680000     0.9429060000     0.8872060000
| 27>  H        5.5112040000     0.0912960000    -0.5955710000
| 28>  H        6.4035980000    -1.2481020000     1.8513740000
| 29>  H        7.1933800000    -1.1836640000     0.4271270000
| 30> *
| 31>
| 32>                          ****END OF INPUT****
 Total Charge           Charge          ....    0
 Multiplicity           Mult            ....    1
 Number of Electrons    NEL             ....   56
 Basis Dimension        Dim             ....  153

MULLIKEN ATOMIC CHARGES
-----------------------
   0 C :    0.052702
   1 C :    0.024432
   2 C :    0.040350
   3 C :    0.037350
   4 C :    0.145971
   5 N :   -0.202058
   6 O :   -0.329275
   7 H :    0.020589
   8 H :    0.011829
   9 H :    0.030312
  10 H :    0.008822
  11 H :    0.006156
  12 H :    0.008322
  13 H :   -0.007210
  14 H :   -0.015946
  15 H :   -0.007923
  16 H :    0.086118
  17 H :    0.089461
Sum of atomic charges:   -0.0000000

LOEWDIN ATOMIC CHARGES
----------------------
   0 C :   -0.074526
   1 C :    0.063835
   2 C :   -0.046294
   3 C :    0.061864
   4 C :   -0.008597
   5 N :   -0.105111
   6 O :   -0.169987
   7 H :    0.030984
   8 H :    0.026267
   9 H :    0.033819
  10 H :    0.009672
  11 H :    0.024073
  12 H :    0.023647
  13 H :    0.005923
  14 H :   -0.000707
  15 H :    0.022558
  16 H :    0.049435
  17 H :    0.053145

  Mayer bond orders larger than 0.1
B(  0-C ,  1-C ) :   1.0931 B(  0-C ,  7-H ) :   0.9484 B(  0-C ,  8-H ) :   0.9469
B(  0-C ,  9-H ) :   0.9512 B(  1-C ,  2-C ) :   1.0859 B(  1-C ,  6-O ) :   1.0331
B(  1-C , 10-H ) :   0.9174 B(  2-C ,  3-C ) :   1.0858 B(  2-C , 11-H ) :   0.9252
B(  2-C , 12-H ) :   0.9262 B(  3-C ,  4-C ) :   1.0385 B(  3-C ,  6-O ) :   1.0544
B(  3-C , 13-H ) :   0.9083 B(  4-C ,  5-N ) :   1.1083 B(  4-C , 14-H ) :   0.9090
B(  4-C , 15-H ) :   0.9053 B(  5-N , 16-H ) :   0.9698 B(  5-N , 17-H ) :   0.9650

FINAL SINGLE POINT ENERGY      -326.429118463702

DIPOLE MOMENT
-------------
                                X             Y             Z
Electronic contribution:      1.24981      -2.29765      -0.33521
Nuclear contribution   :     -0.95937       3.16039       0.57370
                        -----------------------------------------
Total Dipole Moment    :      0.29045       0.86273       0.23849
                        -----------------------------------------
Magnitude (a.u.)       :      0.94103
Magnitude (Debye)      :      2.39192

                             ****ORCA TERMINATED NORMALLY****
TOTAL RUN TIME: 0 days 0 hours 0 minutes 7 seconds 699 msec
