                         Program Version 3.0.3 - RELEASE   -
|  1> ! RI PBE def2-SVP def2-SVP/J NBO PAL2
|  2> % maxcore 2000
|  3> % output
|  4>     # printlevel mini
|  5>     print[ P_Basis ] 0
|  6>     print[ P_SCFInfo ] 1
|  7>     print[ P_SCFIterInfo ] 1
|  8>     print[ P_OrbEn ] 0
|  9>     print[ P_Cartesian ] 0
| 10> end
| 11> *xyz 0 1
| 12>  C        1.1253090000    -0.1684420000    -0.4042910000
| 13>  C        2.5316000000     0.0031320000     0.1392540000
| 14>  C        3.2224500000     1.2730480000    -0.3235070000
| 15>  C        3.4556770000     1.1852230000    -1.8203450000
| 16>  C        3.8926760000    -0.1952810000    -2.1785170000
| 17>  N        3.8583590000    -1.2334870000    -1.4445100000
| 18>  O        3.3280750000    -1.1449840000    -0.1821700000
| 19>  H        0.4960540000     0.6717860000    -0.0992640000
| 20>  H        0.6852030000    -1.0887470000    -0.0181740000
| 21>  H        1.1170700000    -0.2248600000    -1.4944080000
| 22>  H        2.5004070000    -0.0240330000     1.2316690000
| 23>  H        4.1795790000     1.3570740000     0.1977430000
| 24>  H        2.6260620000     2.1489000000    -0.0584910000
| 25>  H        4.2212020000     1.8948760000    -2.1478700000
| 26>  H        2.5514230000     1.4418310000    -2.3846730000
| 27>  H        4.3318340000    -0.3785160000    -3.1560260000
| 28> *
| 29>
| 30>                          ****END OF INPUT****
 Total Charge           Charge          ....    0
 Multiplicity           Mult            ....    1
 Number of Electrons    NEL             ....   54
 Basis Dimension        Dim             ....  143

MULLIKEN ATOMIC CHARGES
-----------------------
   0 C :    0.028916
   1 C :   -0.006676
   2 C :    0.039989
   3 C :    0.010887
   4 C :   -0.108871
   5 N :    0.039859
   6 O :   -0.255273
   7 H :    0.022390
   8 H :    0.036547
   9 H :    0.030935
  10 H :    0.023165
  11 H :    0.028748
  12 H :    0.014637
  13 H :    0.033966
  14 H :    0.038835
  15 H :    0.021946
Sum of atomic charges:    0.0000000

LOEWDIN ATOMIC CHARGES
----------------------
   0 C :   -0.072186
   1 C :    0.033545
   2 C :   -0.047077
   3 C :   -0.062319
   4 C :   -0.068183
   5 N :   -0.000330
   6 O :   -0.083554
   7 H :    0.032190
   8 H :    0.035965
   9 H :    0.030597
  10 H :    0.029375
  11 H :    0.033366
  12 H :    0.031010
  13 H :    0.042484
  14 H :    0.037683
  15 H :    0.027435

  Mayer bond orders larger than 0.1
B(  0-C ,  1-C ) :   1.0790 B(  0-C ,  7-H ) :   0.9535 B(  0-C ,  8-H ) :   0.9502
B(  0-C ,  9-H ) :   0.9523 B(  1-C ,  2-C ) :   1.0580 B(  1-C ,  6-O ) :   0.9556
B(  1-C , 10-H ) :   0.9176 B(  2-C ,  3-C ) :   1.0821 B(  2-C , 11-H ) :   0.9274
B(  2-C , 12-H ) :   0.9266 B(  3-C ,  4-C ) :   1.0090 B(  3-C , 13-H ) :   0.9170
B(  3-C , 14-H ) :   0.9151 B(  4-C ,  5-N ) :   1.9354 B(  4-C ,  6-O ) :   0.1219
B(  4-C , 15-H ) :   0.9553 B(  5-N ,  6-O ) :   0.9757

FINAL SINGLE POINT ENERGY      -325.217100833289

DIPOLE MOMENT
-------------
                                X             Y             Z
Electronic contribution:      3.87394      -4.58298       0.01682
Nuclear contribution   :     -4.32967       5.80511      -0.08682
                        -----------------------------------------
Total Dipole Moment    :     -0.45573       1.22213      -0.07000
                        -----------------------------------------
Magnitude (a.u.)       :      1.30621
Magnitude (Debye)      :      3.32012

                             ****ORCA TERMINATED NORMALLY****
TOTAL RUN TIME: 0 days 0 hours 0 minutes 7 seconds 710 msec
