                         Program Version 3.0.3 - RELEASE   -
|  1> ! RI PBE def2-SVP def2-SVP/J NBO PAL2
|  2> % maxcore 2000
|  3> % output
|  4>     # printlevel mini
|  5>     print[ P_Basis ] 0
|  6>     print[ P_SCFInfo ] 1
|  7>     print[ P_SCFIterInfo ] 1
|  8>     print[ P_OrbEn ] 0
|  9>     print[ P_Cartesian ] 0
| 10> end
| 11> *xyz 0 1
| 12>  C        0.8989930000    -0.0950730000    -0.0679690000
| 13>  C        2.3659030000     0.0899680000    -0.0610580000
| 14>  C        3.1744970000     1.1781570000    -0.0579980000
| 15>  C        4.4854820000     0.6347510000    -0.0512790000
| 16>  C        5.7870450000     1.3597430000    -0.0455640000
| 17>  N        4.4503580000    -0.6699880000    -0.0504640000
| 18>  O        3.1172110000    -1.0155030000    -0.0566090000
| 19>  H        0.3982240000     0.8721740000    -0.0711150000
| 20>  H        0.5742890000    -0.6541620000     0.8129300000
| 21>  H        0.5827700000    -0.6555090000    -0.9510940000
| 22>  H        2.8846840000     2.2159890000    -0.0601790000
| 23>  H        5.6269800000     2.4377110000    -0.0472190000
| 24>  H        6.3799510000     1.0975000000    -0.9235700000
| 25>  H        6.3714120000     1.0989410000     0.8385760000
| 26> *
| 27>
| 28>                          ****END OF INPUT****
 Total Charge           Charge          ....    0
 Multiplicity           Mult            ....    1
 Number of Electrons    NEL             ....   52
 Basis Dimension        Dim             ....  133

MULLIKEN ATOMIC CHARGES
-----------------------
   0 C :    0.096177
   1 C :    0.020407
   2 C :   -0.088370
   3 C :   -0.149172
   4 C :    0.101285
   5 N :   -0.041198
   6 O :   -0.162587
   7 H :    0.026478
   8 H :    0.050236
   9 H :    0.050180
  10 H :   -0.014804
  11 H :    0.015706
  12 H :    0.047904
  13 H :    0.047758
Sum of atomic charges:    0.0000000

LOEWDIN ATOMIC CHARGES
----------------------
   0 C :   -0.061812
   1 C :    0.014447
   2 C :   -0.115828
   3 C :   -0.056104
   4 C :   -0.060472
   5 N :   -0.057304
   6 O :    0.034169
   7 H :    0.044371
   8 H :    0.048721
   9 H :    0.048714
  10 H :    0.030411
  11 H :    0.036528
  12 H :    0.047092
  13 H :    0.047068

  Mayer bond orders larger than 0.1
B(  0-C ,  1-C ) :   1.1158 B(  0-C ,  7-H ) :   0.9448 B(  0-C ,  8-H ) :   0.9332
B(  0-C ,  9-H ) :   0.9332 B(  1-C ,  2-C ) :   1.5175 B(  1-C ,  5-N ) :   0.1122
B(  1-C ,  6-O ) :   1.1759 B(  2-C ,  3-C ) :   1.2211 B(  2-C , 10-H ) :   0.9869
B(  3-C ,  4-C ) :   1.1032 B(  3-C ,  5-N ) :   1.6477 B(  4-C , 11-H ) :   0.9408
B(  4-C , 12-H ) :   0.9405 B(  4-C , 13-H ) :   0.9405 B(  5-N ,  6-O ) :   0.9977

FINAL SINGLE POINT ENERGY      -324.048269460981

DIPOLE MOMENT
-------------
                                X             Y             Z
Electronic contribution:      0.69092      -3.79945       0.00615
Nuclear contribution   :     -1.30863       4.71699      -0.00984
                        -----------------------------------------
Total Dipole Moment    :     -0.61771       0.91754      -0.00369
                        -----------------------------------------
Magnitude (a.u.)       :      1.10610
Magnitude (Debye)      :      2.81148

                             ****ORCA TERMINATED NORMALLY****
TOTAL RUN TIME: 0 days 0 hours 0 minutes 6 seconds 785 msec
