                         Program Version 3.0.3 - RELEASE   -
|  1> ! RI PBE def2-SVP def2-SVP/J NBO PAL2
|  2> % maxcore 2000
|  3> % output
|  4>     # printlevel mini
|  5>     print[ P_Basis ] 0
|  6>     print[ P_SCFInfo ] 1
|  7>     print[ P_SCFIterInfo ] 1
|  8>     print[ P_OrbEn ] 0
|  9>     print[ P_Cartesian ] 0
| 10> end
| 11> *xyz 0 1
| 12>  C        1.1378500000    -0.0421970000     0.4149730000
| 13>  C        2.4052770000     0.0725610000     0.0302760000
| 14>  C        3.2148490000     1.3433780000    -0.1160840000
| 15>  C        4.5978440000     0.8881820000    -0.5855560000
| 16>  C        4.5150350000    -0.6226150000    -0.6842950000
| 17>  O        5.3826600000    -1.3899440000    -1.0176920000
| 18>  N        3.2430480000    -0.9751610000    -0.3171000000
| 19>  H        0.5642480000     0.8392950000     0.6664300000
| 20>  H        0.6448170000    -1.0034820000     0.4886770000
| 21>  H        3.2553140000     1.8715030000     0.8377590000
| 22>  H        2.7341700000     2.0113930000    -0.8323530000
| 23>  H        5.4013290000     1.1462670000     0.1062330000
| 24>  H        4.8798490000     1.2836730000    -1.5627270000
| 25>  H        2.9594100000    -1.9416420000    -0.3086330000
| 26> *
| 27>
| 28>                          ****END OF INPUT****
 Total Charge           Charge          ....    0
 Multiplicity           Mult            ....    1
 Number of Electrons    NEL             ....   52
 Basis Dimension        Dim             ....  133

MULLIKEN ATOMIC CHARGES
-----------------------
   0 C :   -0.068118
   1 C :   -0.060982
   2 C :    0.061375
   3 C :   -0.021990
   4 C :    0.023681
   5 O :   -0.173492
   6 N :   -0.067494
   7 H :    0.007144
   8 H :    0.004194
   9 H :    0.042494
  10 H :    0.044821
  11 H :    0.049036
  12 H :    0.046686
  13 H :    0.112646
Sum of atomic charges:   -0.0000000

LOEWDIN ATOMIC CHARGES
----------------------
   0 C :   -0.138023
   1 C :    0.007024
   2 C :   -0.034434
   3 C :   -0.061455
   4 C :    0.029550
   5 O :   -0.167646
   6 N :    0.046601
   7 H :    0.028230
   8 H :    0.022924
   9 H :    0.043769
  10 H :    0.044048
  11 H :    0.047671
  12 H :    0.047416
  13 H :    0.084325

  Mayer bond orders larger than 0.1
B(  0-C ,  1-C ) :   1.9310 B(  0-C ,  7-H ) :   0.9230 B(  0-C ,  8-H ) :   0.9277
B(  1-C ,  2-C ) :   1.0092 B(  1-C ,  6-N ) :   1.1169 B(  2-C ,  3-C ) :   1.1095
B(  2-C ,  9-H ) :   0.9119 B(  2-C , 10-H ) :   0.9128 B(  3-C ,  4-C ) :   0.9817
B(  3-C , 11-H ) :   0.9134 B(  3-C , 12-H ) :   0.9127 B(  4-C ,  5-O ) :   2.1655
B(  4-C ,  6-N ) :   1.1250 B(  6-N , 13-H ) :   0.9242

FINAL SINGLE POINT ENERGY      -324.097228846949

DIPOLE MOMENT
-------------
                                X             Y             Z
Electronic contribution:      3.26544      -4.13321      -1.35609
Nuclear contribution   :     -3.97741       4.73268       1.62941
                        -----------------------------------------
Total Dipole Moment    :     -0.71197       0.59947       0.27332
                        -----------------------------------------
Magnitude (a.u.)       :      0.97003
Magnitude (Debye)      :      2.46563

                             ****ORCA TERMINATED NORMALLY****
TOTAL RUN TIME: 0 days 0 hours 0 minutes 6 seconds 768 msec
