                         Program Version 3.0.3 - RELEASE   -
|  1> ! RI PBE def2-SVP def2-SVP/J NBO PAL2
|  2> % maxcore 2000
|  3> % output
|  4>     # printlevel mini
|  5>     print[ P_Basis ] 0
|  6>     print[ P_SCFInfo ] 1
|  7>     print[ P_SCFIterInfo ] 1
|  8>     print[ P_OrbEn ] 0
|  9>     print[ P_Cartesian ] 0
| 10> end
| 11> *xyz 0 1
| 12>  C        1.0691310000     0.0131090000    -0.0282030000
| 13>  C        2.5417660000    -0.1287980000    -0.1012300000
| 14>  C        3.3072000000    -1.2239720000    -0.1181260000
| 15>  C        4.7425840000    -0.8148040000    -0.2005610000
| 16>  C        4.6824030000     0.7078120000    -0.2288500000
| 17>  O        5.5913740000     1.4986000000    -0.2920260000
| 18>  N        3.3451310000     1.0170860000    -0.1662590000
| 19>  H        0.5961850000    -0.9671670000     0.0162640000
| 20>  H        0.6801480000     0.5443540000    -0.9025700000
| 21>  H        0.7709900000     0.5804380000     0.8590950000
| 22>  H        2.9422690000    -2.2389030000    -0.0783940000
| 23>  H        5.2577280000    -1.1694400000    -1.0988890000
| 24>  H        5.3480770000    -1.1332980000     0.6538820000
| 25>  H        3.0100330000     1.9650830000    -0.1685430000
| 26> *
| 27>
| 28>                          ****END OF INPUT****
 Total Charge           Charge          ....    0
 Multiplicity           Mult            ....    1
 Number of Electrons    NEL             ....   52
 Basis Dimension        Dim             ....  133

MULLIKEN ATOMIC CHARGES
-----------------------
   0 C :    0.088315
   1 C :   -0.021585
   2 C :   -0.167565
   3 C :    0.051278
   4 C :    0.026980
   5 O :   -0.178781
   6 N :   -0.102337
   7 H :    0.024907
   8 H :    0.037880
   9 H :    0.037569
  10 H :   -0.019765
  11 H :    0.058923
  12 H :    0.060142
  13 H :    0.104040
Sum of atomic charges:   -0.0000000

LOEWDIN ATOMIC CHARGES
----------------------
   0 C :   -0.061408
   1 C :    0.000680
   2 C :   -0.100401
   3 C :   -0.058934
   4 C :    0.034830
   5 O :   -0.174558
   6 N :    0.026968
   7 H :    0.043131
   8 H :    0.040268
   9 H :    0.040243
  10 H :    0.021988
  11 H :    0.055452
  12 H :    0.055687
  13 H :    0.076054

  Mayer bond orders larger than 0.1
B(  0-C ,  1-C ) :   1.1138 B(  0-C ,  7-H ) :   0.9410 B(  0-C ,  8-H ) :   0.9374
B(  0-C ,  9-H ) :   0.9370 B(  1-C ,  2-C ) :   1.7418 B(  1-C ,  6-N ) :   1.0733
B(  2-C ,  3-C ) :   1.0243 B(  2-C , 10-H ) :   0.9957 B(  3-C ,  4-C ) :   0.9702
B(  3-C , 11-H ) :   0.9003 B(  3-C , 12-H ) :   0.9001 B(  4-C ,  5-O ) :   2.1623
B(  4-C ,  6-N ) :   1.1305 B(  6-N , 13-H ) :   0.9306

FINAL SINGLE POINT ENERGY      -324.097438638048

DIPOLE MOMENT
-------------
                                X             Y             Z
Electronic contribution:      4.97877       3.07207      -0.31967
Nuclear contribution   :     -6.27695      -3.49028       0.39566
                        -----------------------------------------
Total Dipole Moment    :     -1.29818      -0.41821       0.07599
                        -----------------------------------------
Magnitude (a.u.)       :      1.36600
Magnitude (Debye)      :      3.47209

                             ****ORCA TERMINATED NORMALLY****
TOTAL RUN TIME: 0 days 0 hours 0 minutes 6 seconds 688 msec
