                         Program Version 3.0.3 - RELEASE   -
|  1> ! RI PBE def2-SVP def2-SVP/J NBO PAL2
|  2> % maxcore 2000
|  3> % output
|  4>     # printlevel mini
|  5>     print[ P_Basis ] 0
|  6>     print[ P_SCFInfo ] 1
|  7>     print[ P_SCFIterInfo ] 1
|  8>     print[ P_OrbEn ] 0
|  9>     print[ P_Cartesian ] 0
| 10> end
| 11> *xyz 0 1
| 12>  C        0.9634320000     0.0139970000     0.1485210000
| 13>  C        2.4522930000     0.1175090000    -0.1197240000
| 14>  C        2.7620900000     0.1163430000    -1.6041130000
| 15>  C        3.1898290000     1.2117300000     0.7010400000
| 16>  C        3.9262040000     0.0572490000     1.3892430000
| 17>  O        4.7634250000    -0.0450250000     2.2423220000
| 18>  N        3.2492880000    -0.8570590000     0.6412810000
| 19>  H        0.4309990000     0.8512190000    -0.3095520000
| 20>  H        0.7600610000     0.0191000000     1.2212750000
| 21>  H        0.5552850000    -0.9092460000    -0.2725750000
| 22>  H        2.2690240000     0.9558020000    -2.1005510000
| 23>  H        2.4055300000    -0.8039670000    -2.0754690000
| 24>  H        3.8373330000     0.1942100000    -1.7772520000
| 25>  H        2.5605970000     1.7986910000     1.3704210000
| 26>  H        3.8388000000     1.8715220000     0.1248140000
| 27>  H        3.2890110000    -1.8648870000     0.6231080000
| 28> *
| 29>
| 30>                          ****END OF INPUT****
 Total Charge           Charge          ....    0
 Multiplicity           Mult            ....    1
 Number of Electrons    NEL             ....   54
 Basis Dimension        Dim             ....  143

MULLIKEN ATOMIC CHARGES
-----------------------
   0 C :    0.095822
   1 C :   -0.282438
   2 C :    0.096489
   3 C :    0.077473
   4 C :    0.055517
   5 O :   -0.170101
   6 N :   -0.147948
   7 H :    0.025688
   8 H :    0.017742
   9 H :    0.016745
  10 H :    0.025025
  11 H :    0.018110
  12 H :    0.017869
  13 H :    0.028509
  14 H :    0.027954
  15 H :    0.097545
Sum of atomic charges:   -0.0000000

LOEWDIN ATOMIC CHARGES
----------------------
   0 C :   -0.057920
   1 C :    0.003158
   2 C :   -0.058090
   3 C :   -0.048546
   4 C :    0.019919
   5 O :   -0.167091
   6 N :   -0.001526
   7 H :    0.032446
   8 H :    0.028487
   9 H :    0.027305
  10 H :    0.032394
  11 H :    0.027438
  12 H :    0.028626
  13 H :    0.036585
  14 H :    0.036456
  15 H :    0.060360

  Mayer bond orders larger than 0.1
B(  0-C ,  1-C ) :   1.0601 B(  0-C ,  7-H ) :   0.9542 B(  0-C ,  8-H ) :   0.9470
B(  0-C ,  9-H ) :   0.9538 B(  1-C ,  2-C ) :   1.0605 B(  1-C ,  3-C ) :   1.0497
B(  1-C ,  6-N ) :   0.9960 B(  2-C , 10-H ) :   0.9540 B(  2-C , 11-H ) :   0.9546
B(  2-C , 12-H ) :   0.9461 B(  3-C ,  4-C ) :   0.9376 B(  3-C , 13-H ) :   0.9014
B(  3-C , 14-H ) :   0.9015 B(  4-C ,  5-O ) :   2.1759 B(  4-C ,  6-N ) :   1.1734
B(  5-O ,  6-N ) :   0.1144 B(  6-N , 15-H ) :   0.9456

FINAL SINGLE POINT ENERGY      -325.283695361784

DIPOLE MOMENT
-------------
                                X             Y             Z
Electronic contribution:      5.88248      -1.47742       5.94907
Nuclear contribution   :     -6.94011       1.32563      -7.04445
                        -----------------------------------------
Total Dipole Moment    :     -1.05762      -0.15179      -1.09538
                        -----------------------------------------
Magnitude (a.u.)       :      1.53018
Magnitude (Debye)      :      3.88941

                             ****ORCA TERMINATED NORMALLY****
TOTAL RUN TIME: 0 days 0 hours 0 minutes 7 seconds 775 msec
