                         Program Version 3.0.3 - RELEASE   -
|  1> ! RI PBE def2-SVP def2-SVP/J NBO PAL2
|  2> % maxcore 2000
|  3> % output
|  4>     # printlevel mini
|  5>     print[ P_Basis ] 0
|  6>     print[ P_SCFInfo ] 1
|  7>     print[ P_SCFIterInfo ] 1
|  8>     print[ P_OrbEn ] 0
|  9>     print[ P_Cartesian ] 0
| 10> end
| 11> *xyz 0 1
| 12>  C        1.1065410000    -0.1267240000     0.4175540000
| 13>  C        2.4880970000     0.0257130000    -0.1753410000
| 14>  C        3.2919890000     1.2416300000     0.3282150000
| 15>  C        4.1873150000     0.2408220000     1.0776420000
| 16>  C        5.6689900000     0.2662050000     0.7743260000
| 17>  O        6.2699290000    -0.9562900000     1.1269630000
| 18>  N        3.5153920000    -0.8831880000     0.3880340000
| 19>  H        0.4255580000     0.6268930000     0.0123760000
| 20>  H        1.1304060000    -0.0118990000     1.5055820000
| 21>  H        0.6885620000    -1.1108910000     0.1858980000
| 22>  H        2.4276330000    -0.0585370000    -1.2654820000
| 23>  H        2.7333000000     1.9460990000     0.9448480000
| 24>  H        3.8142680000     1.7928770000    -0.4555980000
| 25>  H        4.0372600000     0.2384740000     2.1632460000
| 26>  H        6.1710390000     1.0518010000     1.3460930000
| 27>  H        5.8123550000     0.4794950000    -0.2955530000
| 28>  H        5.7771260000    -1.6312130000     0.6446320000
| 29>  H        3.1322200000    -1.5845690000     1.0097660000
| 30> *
| 31>
| 32>                          ****END OF INPUT****
 Total Charge           Charge          ....    0
 Multiplicity           Mult            ....    1
 Number of Electrons    NEL             ....   56
 Basis Dimension        Dim             ....  153

MULLIKEN ATOMIC CHARGES
-----------------------
   0 C :    0.036902
   1 C :   -0.076503
   2 C :    0.087743
   3 C :   -0.134484
   4 C :    0.301360
   5 O :   -0.294955
   6 N :   -0.222455
   7 H :    0.027019
   8 H :    0.011471
   9 H :    0.028872
  10 H :    0.012415
  11 H :    0.009569
  12 H :   -0.000606
  13 H :    0.009404
  14 H :    0.002147
  15 H :   -0.029884
  16 H :    0.142517
  17 H :    0.089469
Sum of atomic charges:    0.0000000

LOEWDIN ATOMIC CHARGES
----------------------
   0 C :   -0.074629
   1 C :    0.018324
   2 C :   -0.034632
   3 C :   -0.003568
   4 C :    0.048833
   5 O :   -0.123764
   6 N :   -0.106776
   7 H :    0.033037
   8 H :    0.023597
   9 H :    0.028899
  10 H :    0.014395
  11 H :    0.022488
  12 H :    0.023963
  13 H :    0.010783
  14 H :    0.019030
  15 H :   -0.000757
  16 H :    0.056935
  17 H :    0.043843

  Mayer bond orders larger than 0.1
B(  0-C ,  1-C ) :   1.0876 B(  0-C ,  7-H ) :   0.9492 B(  0-C ,  8-H ) :   0.9487
B(  0-C ,  9-H ) :   0.9550 B(  1-C ,  2-C ) :   1.0937 B(  1-C ,  6-N ) :   1.0763
B(  1-C , 10-H ) :   0.9158 B(  2-C ,  3-C ) :   1.0601 B(  2-C , 11-H ) :   0.9273
B(  2-C , 12-H ) :   0.8942 B(  3-C ,  4-C ) :   1.0334 B(  3-C ,  6-N ) :   1.0599
B(  3-C , 13-H ) :   0.9107 B(  4-C ,  5-O ) :   1.0657 B(  4-C , 14-H ) :   0.9289
B(  4-C , 15-H ) :   0.9055 B(  5-O , 16-H ) :   0.9709 B(  6-N , 17-H ) :   0.9417

FINAL SINGLE POINT ENERGY      -326.432270967635

DIPOLE MOMENT
-------------
                                X             Y             Z
Electronic contribution:      4.61356      -2.04261       0.47317
Nuclear contribution   :     -5.54454       2.23851      -0.51412
                        -----------------------------------------
Total Dipole Moment    :     -0.93097       0.19590      -0.04095
                        -----------------------------------------
Magnitude (a.u.)       :      0.95224
Magnitude (Debye)      :      2.42041

                             ****ORCA TERMINATED NORMALLY****
TOTAL RUN TIME: 0 days 0 hours 0 minutes 8 seconds 73 msec
