                         Program Version 3.0.3 - RELEASE   -
|  1> ! RI PBE def2-SVP def2-SVP/J NBO PAL2
|  2> % maxcore 2000
|  3> % output
|  4>     # printlevel mini
|  5>     print[ P_Basis ] 0
|  6>     print[ P_SCFInfo ] 1
|  7>     print[ P_SCFIterInfo ] 1
|  8>     print[ P_OrbEn ] 0
|  9>     print[ P_Cartesian ] 0
| 10> end
| 11> *xyz 0 1
| 12>  C        1.0004970000    -0.1353800000     0.0693280000
| 13>  C        2.5134880000    -0.0955470000     0.0470180000
| 14>  C        3.1236700000     1.0820030000     0.8197200000
| 15>  C        4.4640540000     0.5547330000     1.3170070000
| 16>  C        4.2677500000    -0.9503240000     1.3936170000
| 17>  O        4.9918830000    -1.7583170000     1.9270500000
| 18>  N        3.1166750000    -1.2267890000     0.7217740000
| 19>  H        0.5914050000     0.7595870000    -0.4057840000
| 20>  H        0.6338190000    -0.1808500000     1.0976710000
| 21>  H        0.6141550000    -1.0026780000    -0.4723010000
| 22>  H        2.8501340000    -0.0595460000    -1.0002860000
| 23>  H        2.4753830000     1.3166410000     1.6690880000
| 24>  H        3.2011860000     1.9773010000     0.2019190000
| 25>  H        4.7810600000     0.9484960000     2.2820300000
| 26>  H        5.2742710000     0.7419430000     0.6050200000
| 27>  H        2.8717690000    -2.1823620000     0.5200390000
| 28> *
| 29>
| 30>                          ****END OF INPUT****
 Total Charge           Charge          ....    0
 Multiplicity           Mult            ....    1
 Number of Electrons    NEL             ....   54
 Basis Dimension        Dim             ....  143

MULLIKEN ATOMIC CHARGES
-----------------------
   0 C :    0.032770
   1 C :   -0.007209
   2 C :    0.001704
   3 C :   -0.003979
   4 C :    0.022600
   5 O :   -0.193357
   6 N :   -0.158544
   7 H :    0.026844
   8 H :    0.021883
   9 H :    0.023256
  10 H :    0.015970
  11 H :    0.019552
  12 H :    0.016914
  13 H :    0.032571
  14 H :    0.039741
  15 H :    0.109281
Sum of atomic charges:    0.0000000

LOEWDIN ATOMIC CHARGES
----------------------
   0 C :   -0.065636
   1 C :    0.017027
   2 C :   -0.035931
   3 C :   -0.064106
   4 C :    0.020530
   5 O :   -0.187739
   6 N :   -0.000995
   7 H :    0.033701
   8 H :    0.027506
   9 H :    0.027763
  10 H :    0.015841
  11 H :    0.030004
  12 H :    0.027910
  13 H :    0.039391
  14 H :    0.043952
  15 H :    0.070781

  Mayer bond orders larger than 0.1
B(  0-C ,  1-C ) :   1.1033 B(  0-C ,  7-H ) :   0.9548 B(  0-C ,  8-H ) :   0.9514
B(  0-C ,  9-H ) :   0.9593 B(  1-C ,  2-C ) :   1.0473 B(  1-C ,  6-N ) :   0.9715
B(  1-C , 10-H ) :   0.9145 B(  2-C ,  3-C ) :   1.1138 B(  2-C , 11-H ) :   0.9249
B(  2-C , 12-H ) :   0.9292 B(  3-C ,  4-C ) :   0.9516 B(  3-C , 13-H ) :   0.9280
B(  3-C , 14-H ) :   0.9113 B(  4-C ,  5-O ) :   2.1506 B(  4-C ,  6-N ) :   1.1885
B(  6-N , 15-H ) :   0.9287

FINAL SINGLE POINT ENERGY      -325.308322938362

DIPOLE MOMENT
-------------
                                X             Y             Z
Electronic contribution:      5.34090      -4.64299       2.53508
Nuclear contribution   :     -6.36781       5.34475      -3.37035
                        -----------------------------------------
Total Dipole Moment    :     -1.02691       0.70176      -0.83528
                        -----------------------------------------
Magnitude (a.u.)       :      1.49823
Magnitude (Debye)      :      3.80820

                             ****ORCA TERMINATED NORMALLY****
TOTAL RUN TIME: 0 days 0 hours 0 minutes 7 seconds 786 msec
