                         Program Version 3.0.3 - RELEASE   -
|  1> ! RI PBE def2-SVP def2-SVP/J NBO PAL2
|  2> % maxcore 2000
|  3> % output
|  4>     # printlevel mini
|  5>     print[ P_Basis ] 0
|  6>     print[ P_SCFInfo ] 1
|  7>     print[ P_SCFIterInfo ] 1
|  8>     print[ P_OrbEn ] 0
|  9>     print[ P_Cartesian ] 0
| 10> end
| 11> *xyz 0 1
| 12>  C        0.9728480000    -0.0940050000     0.0755710000
| 13>  C        2.4523450000     0.0108930000     0.0813980000
| 14>  C        3.2849990000     1.0945740000     0.0838930000
| 15>  C        4.6349260000     0.6300830000     0.0896260000
| 16>  C        4.5637070000    -0.7352410000     0.0903890000
| 17>  O        5.4940970000    -1.7169660000     0.0948470000
| 18>  N        3.2591270000    -1.1087330000     0.0854740000
| 19>  H        0.5360790000     0.9048480000     0.0730870000
| 20>  H        0.5906800000    -0.6191020000     0.9578910000
| 21>  H        0.5977300000    -0.6204140000    -0.8089890000
| 22>  H        2.9644400000     2.1252480000     0.0818270000
| 23>  H        5.5343340000     1.2259560000     0.0927510000
| 24>  H        6.3634700000    -1.3098280000     0.0980610000
| 25>  H        2.9486960000    -2.0637940000     0.0849730000
| 26> *
| 27>
| 28>                          ****END OF INPUT****
 Total Charge           Charge          ....    0
 Multiplicity           Mult            ....    1
 Number of Electrons    NEL             ....   52
 Basis Dimension        Dim             ....  133

MULLIKEN ATOMIC CHARGES
-----------------------
   0 C :    0.090725
   1 C :   -0.073024
   2 C :   -0.059542
   3 C :   -0.119252
   4 C :    0.130406
   5 O :   -0.165410
   6 N :   -0.066733
   7 H :    0.016651
   8 H :    0.023579
   9 H :    0.023521
  10 H :   -0.038894
  11 H :   -0.044485
  12 H :    0.178999
  13 H :    0.103459
Sum of atomic charges:   -0.0000000

LOEWDIN ATOMIC CHARGES
----------------------
   0 C :   -0.066172
   1 C :   -0.052361
   2 C :   -0.088803
   3 C :   -0.156284
   4 C :    0.014796
   5 O :   -0.042253
   6 N :    0.076457
   7 H :    0.041649
   8 H :    0.030557
   9 H :    0.030549
  10 H :    0.019252
  11 H :    0.017454
  12 H :    0.095300
  13 H :    0.079861

  Mayer bond orders larger than 0.1
B(  0-C ,  1-C ) :   1.1183 B(  0-C ,  7-H ) :   0.9409 B(  0-C ,  8-H ) :   0.9394
B(  0-C ,  9-H ) :   0.9394 B(  1-C ,  2-C ) :   1.5398 B(  1-C ,  6-N ) :   1.1633
B(  2-C ,  3-C ) :   1.2118 B(  2-C , 10-H ) :   1.0078 B(  3-C ,  4-C ) :   1.4307
B(  3-C , 11-H ) :   1.0111 B(  4-C ,  5-O ) :   1.2175 B(  4-C ,  6-N ) :   1.2016
B(  5-O , 12-H ) :   0.9672 B(  6-N , 13-H ) :   0.9355

FINAL SINGLE POINT ENERGY      -324.080576701983

DIPOLE MOMENT
-------------
                                X             Y             Z
Electronic contribution:      5.03316      -2.26751       0.02187
Nuclear contribution   :     -4.92887       1.83624      -0.02102
                        -----------------------------------------
Total Dipole Moment    :      0.10429      -0.43127       0.00085
                        -----------------------------------------
Magnitude (a.u.)       :      0.44370
Magnitude (Debye)      :      1.12780

                             ****ORCA TERMINATED NORMALLY****
TOTAL RUN TIME: 0 days 0 hours 0 minutes 6 seconds 661 msec
