                         Program Version 3.0.3 - RELEASE   -
|  1> ! RI PBE def2-SVP def2-SVP/J NBO PAL2
|  2> % maxcore 2000
|  3> % output
|  4>     # printlevel mini
|  5>     print[ P_Basis ] 0
|  6>     print[ P_SCFInfo ] 1
|  7>     print[ P_SCFIterInfo ] 1
|  8>     print[ P_OrbEn ] 0
|  9>     print[ P_Cartesian ] 0
| 10> end
| 11> *xyz 0 1
| 12>  C        1.1174720000    -0.0698460000     0.1852340000
| 13>  C        2.5963400000     0.0485390000    -0.1367030000
| 14>  C        3.3573590000     1.1550570000     0.6167060000
| 15>  C        4.0067880000     0.0264190000     1.4319170000
| 16>  N        3.4702030000    -0.9700330000     0.4837970000
| 17>  C        2.7823180000     0.0290620000    -1.6356150000
| 18>  O        2.9718110000     0.9954630000    -2.3193470000
| 19>  H        0.9667930000    -0.0923500000     1.2679220000
| 20>  H        0.6953680000    -0.9869510000    -0.2378990000
| 21>  H        0.5629550000     0.7791810000    -0.2222710000
| 22>  H        2.7387000000     1.8605800000     1.1696420000
| 23>  H        4.0423490000     1.7061570000    -0.0261490000
| 24>  H        3.6010450000    -0.0567090000     2.4455970000
| 25>  H        5.0974710000     0.0282740000     1.4934830000
| 26>  H        2.9852510000    -1.7522260000     0.9054140000
| 27>  H        2.7393470000    -0.9934090000    -2.0749490000
| 28> *
| 29>
| 30>                          ****END OF INPUT****
 Total Charge           Charge          ....    0
 Multiplicity           Mult            ....    1
 Number of Electrons    NEL             ....   54
 Basis Dimension        Dim             ....  143

MULLIKEN ATOMIC CHARGES
-----------------------
   0 C :    0.091200
   1 C :   -0.279812
   2 C :    0.063722
   3 C :    0.110807
   4 N :   -0.216271
   5 C :    0.182791
   6 O :   -0.161913
   7 H :    0.016855
   8 H :    0.023063
   9 H :    0.036807
  10 H :    0.015012
  11 H :    0.017910
  12 H :    0.010720
  13 H :    0.021089
  14 H :    0.087683
  15 H :   -0.019665
Sum of atomic charges:    0.0000000

LOEWDIN ATOMIC CHARGES
----------------------
   0 C :   -0.056149
   1 C :   -0.054583
   2 C :   -0.025001
   3 C :    0.030760
   4 N :   -0.090123
   5 C :    0.094206
   6 O :   -0.105515
   7 H :    0.028809
   8 H :    0.029127
   9 H :    0.038051
  10 H :    0.024164
  11 H :    0.030424
  12 H :    0.009638
  13 H :    0.015709
  14 H :    0.044986
  15 H :   -0.014502

  Mayer bond orders larger than 0.1
B(  0-C ,  1-C ) :   1.0319 B(  0-C ,  7-H ) :   0.9434 B(  0-C ,  8-H ) :   0.9484
B(  0-C ,  9-H ) :   0.9462 B(  1-C ,  2-C ) :   1.0735 B(  1-C ,  4-N ) :   1.0373
B(  1-C ,  5-C ) :   0.8743 B(  2-C ,  3-C ) :   1.1291 B(  2-C , 10-H ) :   0.9342
B(  2-C , 11-H ) :   0.8949 B(  3-C ,  4-N ) :   1.0557 B(  3-C , 12-H ) :   0.9326
B(  3-C , 13-H ) :   0.9344 B(  4-N , 14-H ) :   0.9424 B(  5-C ,  6-O ) :   2.2016
B(  5-C , 15-H ) :   0.9176

FINAL SINGLE POINT ENERGY      -325.230554723438

DIPOLE MOMENT
-------------
                                X             Y             Z
Electronic contribution:      1.87800       0.54669      -5.05634
Nuclear contribution   :     -2.39553      -0.99017       6.10732
                        -----------------------------------------
Total Dipole Moment    :     -0.51753      -0.44348       1.05098
                        -----------------------------------------
Magnitude (a.u.)       :      1.25262
Magnitude (Debye)      :      3.18390

                             ****ORCA TERMINATED NORMALLY****
TOTAL RUN TIME: 0 days 0 hours 0 minutes 7 seconds 142 msec
