                         Program Version 3.0.3 - RELEASE   -
|  1> ! RI PBE def2-SVP def2-SVP/J NBO PAL2
|  2> % maxcore 2000
|  3> % output
|  4>     # printlevel mini
|  5>     print[ P_Basis ] 0
|  6>     print[ P_SCFInfo ] 1
|  7>     print[ P_SCFIterInfo ] 1
|  8>     print[ P_OrbEn ] 0
|  9>     print[ P_Cartesian ] 0
| 10> end
| 11> *xyz 0 1
| 12>  C        0.8509040000    -0.0290210000     0.1472070000
| 13>  C        2.3012380000     0.1510370000    -0.1786600000
| 14>  C        3.0296300000    -0.5703420000    -1.2289170000
| 15>  C        2.4372740000    -1.6003390000    -2.1401430000
| 16>  N        2.6129440000     0.8300590000    -1.4543930000
| 17>  C        3.6710210000     1.7571210000    -1.3569390000
| 18>  O        3.7368760000     2.7584300000    -1.9995790000
| 19>  H        0.7281070000    -0.7983310000     0.9141350000
| 20>  H        0.2768210000    -0.3181780000    -0.7320320000
| 21>  H        0.4296440000     0.9025210000     0.5313910000
| 22>  H        2.9178770000     0.4597000000     0.6663630000
| 23>  H        4.0933030000    -0.7044660000    -1.0284430000
| 24>  H        1.3806550000    -1.4106460000    -2.3240260000
| 25>  H        2.5433960000    -2.5972130000    -1.7041630000
| 26>  H        2.9515240000    -1.5955630000    -3.1036550000
| 27>  H        4.4652980000     1.4824200000    -0.6215480000
| 28> *
| 29>
| 30>                          ****END OF INPUT****
 Total Charge           Charge          ....    0
 Multiplicity           Mult            ....    1
 Number of Electrons    NEL             ....   54
 Basis Dimension        Dim             ....  143

MULLIKEN ATOMIC CHARGES
-----------------------
   0 C :    0.091782
   1 C :   -0.075981
   2 C :   -0.082483
   3 C :    0.102572
   4 N :   -0.230154
   5 C :    0.136372
   6 O :   -0.126197
   7 H :    0.032826
   8 H :    0.021482
   9 H :    0.034649
  10 H :    0.021991
  11 H :    0.025139
  12 H :    0.018888
  13 H :    0.028662
  14 H :    0.033810
  15 H :   -0.033358
Sum of atomic charges:   -0.0000000

LOEWDIN ATOMIC CHARGES
----------------------
   0 C :   -0.058649
   1 C :    0.015287
   2 C :    0.014700
   3 C :   -0.056959
   4 N :   -0.122609
   5 C :    0.079771
   6 O :   -0.090103
   7 H :    0.036391
   8 H :    0.034429
   9 H :    0.038839
  10 H :    0.015866
  11 H :    0.016501
  12 H :    0.034061
  13 H :    0.035485
  14 H :    0.038655
  15 H :   -0.031666

  Mayer bond orders larger than 0.1
B(  0-C ,  1-C ) :   1.1199 B(  0-C ,  7-H ) :   0.9530 B(  0-C ,  8-H ) :   0.9407
B(  0-C ,  9-H ) :   0.9470 B(  1-C ,  2-C ) :   1.0021 B(  1-C ,  4-N ) :   0.8561
B(  1-C , 10-H ) :   0.9251 B(  2-C ,  3-C ) :   1.1178 B(  2-C ,  4-N ) :   0.8576
B(  2-C , 11-H ) :   0.9260 B(  3-C , 12-H ) :   0.9406 B(  3-C , 13-H ) :   0.9537
B(  3-C , 14-H ) :   0.9464 B(  4-N ,  5-C ) :   1.0119 B(  5-C ,  6-O ) :   2.2087
B(  5-C , 15-H ) :   0.8936

FINAL SINGLE POINT ENERGY      -325.236542457012

DIPOLE MOMENT
-------------
                                X             Y             Z
Electronic contribution:      3.81300       7.09019      -2.22517
Nuclear contribution   :     -3.90253      -8.31877       3.00450
                        -----------------------------------------
Total Dipole Moment    :     -0.08953      -1.22858       0.77933
                        -----------------------------------------
Magnitude (a.u.)       :      1.45766
Magnitude (Debye)      :      3.70508

                             ****ORCA TERMINATED NORMALLY****
TOTAL RUN TIME: 0 days 0 hours 0 minutes 6 seconds 887 msec
