                         Program Version 3.0.3 - RELEASE   -
|  1> ! RI PBE def2-SVP def2-SVP/J NBO PAL2
|  2> % maxcore 2000
|  3> % output
|  4>     # printlevel mini
|  5>     print[ P_Basis ] 0
|  6>     print[ P_SCFInfo ] 1
|  7>     print[ P_SCFIterInfo ] 1
|  8>     print[ P_OrbEn ] 0
|  9>     print[ P_Cartesian ] 0
| 10> end
| 11> *xyz 0 1
| 12>  C        0.9126460000    -0.0523330000     0.4938810000
| 13>  C        2.2861780000     0.0699290000    -0.1257050000
| 14>  C        3.2179960000     1.0926830000     0.5547170000
| 15>  C        3.9765790000    -0.1161770000     1.1236400000
| 16>  N        3.2321370000    -1.0146870000     0.2292300000
| 17>  C        5.4634930000    -0.1694280000     0.9030610000
| 18>  O        6.1901520000     0.7837170000     0.9526140000
| 19>  H        0.3028790000     0.8242740000     0.2586880000
| 20>  H        0.9763820000    -0.1369190000     1.5832650000
| 21>  H        0.3888670000    -0.9334040000     0.1119250000
| 22>  H        2.1916530000     0.1859090000    -1.2102530000
| 23>  H        2.7463250000     1.7524000000     1.2817090000
| 24>  H        3.8255490000     1.6873150000    -0.1265450000
| 25>  H        3.8005220000    -0.2742760000     2.1985080000
| 26>  H        2.8042270000    -1.8191350000     0.6702250000
| 27>  H        5.8529070000    -1.1861670000     0.6732320000
| 28> *
| 29>
| 30>                          ****END OF INPUT****
 Total Charge           Charge          ....    0
 Multiplicity           Mult            ....    1
 Number of Electrons    NEL             ....   54
 Basis Dimension        Dim             ....  143

MULLIKEN ATOMIC CHARGES
-----------------------
   0 C :    0.034401
   1 C :   -0.078761
   2 C :    0.080052
   3 C :   -0.021461
   4 N :   -0.219340
   5 C :    0.146761
   6 O :   -0.166496
   7 H :    0.031259
   8 H :    0.010869
   9 H :    0.030937
  10 H :    0.014683
  11 H :    0.018684
  12 H :    0.015383
  13 H :    0.030260
  14 H :    0.088875
  15 H :   -0.016106
Sum of atomic charges:    0.0000000

LOEWDIN ATOMIC CHARGES
----------------------
   0 C :   -0.075610
   1 C :    0.017046
   2 C :   -0.022490
   3 C :   -0.022431
   4 N :   -0.095689
   5 C :    0.087606
   6 O :   -0.106045
   7 H :    0.034260
   8 H :    0.023736
   9 H :    0.029561
  10 H :    0.015497
  11 H :    0.025944
  12 H :    0.031028
  13 H :    0.026928
  14 H :    0.045013
  15 H :   -0.014353

  Mayer bond orders larger than 0.1
B(  0-C ,  1-C ) :   1.0813 B(  0-C ,  7-H ) :   0.9497 B(  0-C ,  8-H ) :   0.9490
B(  0-C ,  9-H ) :   0.9537 B(  1-C ,  2-C ) :   1.0924 B(  1-C ,  4-N ) :   1.0703
B(  1-C , 10-H ) :   0.9168 B(  2-C ,  3-C ) :   1.0909 B(  2-C , 11-H ) :   0.9310
B(  2-C , 12-H ) :   0.8978 B(  3-C ,  4-N ) :   1.0200 B(  3-C ,  5-C ) :   0.9119
B(  3-C , 13-H ) :   0.8711 B(  4-N , 14-H ) :   0.9439 B(  5-C ,  6-O ) :   2.1895
B(  5-C , 15-H ) :   0.9198

FINAL SINGLE POINT ENERGY      -325.230306970034

DIPOLE MOMENT
-------------
                                X             Y             Z
Electronic contribution:      7.84293       0.17824       0.26836
Nuclear contribution   :     -8.96835      -0.61155       0.05133
                        -----------------------------------------
Total Dipole Moment    :     -1.12541      -0.43332       0.31969
                        -----------------------------------------
Magnitude (a.u.)       :      1.24761
Magnitude (Debye)      :      3.17116

                             ****ORCA TERMINATED NORMALLY****
TOTAL RUN TIME: 0 days 0 hours 0 minutes 7 seconds 47 msec
