                         Program Version 3.0.3 - RELEASE   -
|  1> ! RI PBE def2-SVP def2-SVP/J NBO PAL2
|  2> % maxcore 2000
|  3> % output
|  4>     # printlevel mini
|  5>     print[ P_Basis ] 0
|  6>     print[ P_SCFInfo ] 1
|  7>     print[ P_SCFIterInfo ] 1
|  8>     print[ P_OrbEn ] 0
|  9>     print[ P_Cartesian ] 0
| 10> end
| 11> *xyz 0 1
| 12>  C        0.9614940000     0.1558440000     0.2318840000
| 13>  C        2.4578340000     0.0189450000     0.0913330000
| 14>  C        3.3439300000     1.1358730000     0.6946560000
| 15>  C        4.0386600000     0.0612530000     1.5583580000
| 16>  N        3.0992760000    -0.9137320000     1.0189050000
| 17>  C        3.1004430000    -2.2558670000     1.0172340000
| 18>  O        2.3916970000    -2.9475420000     0.3175590000
| 19>  H        0.5972190000     0.9586340000    -0.4147570000
| 20>  H        0.6890390000     0.3924950000     1.2635530000
| 21>  H        0.4646820000    -0.7720840000    -0.0547070000
| 22>  H        2.7151210000    -0.2244460000    -0.9457520000
| 23>  H        2.7789090000     1.8669600000     1.2726360000
| 24>  H        3.9900590000     1.6560950000    -0.0099180000
| 25>  H        3.9721210000     0.2026200000     2.6400820000
| 26>  H        5.0803270000    -0.1359100000     1.2881240000
| 27>  H        3.8220890000    -2.6774460000     1.7457200000
| 28> *
| 29>
| 30>                          ****END OF INPUT****
 Total Charge           Charge          ....    0
 Multiplicity           Mult            ....    1
 Number of Electrons    NEL             ....   54
 Basis Dimension        Dim             ....  143

MULLIKEN ATOMIC CHARGES
-----------------------
   0 C :    0.072550
   1 C :   -0.019588
   2 C :   -0.024799
   3 C :    0.146588
   4 N :   -0.256359
   5 C :    0.142338
   6 O :   -0.239980
   7 H :    0.025629
   8 H :    0.004768
   9 H :    0.046681
  10 H :    0.021394
  11 H :    0.013709
  12 H :    0.029990
  13 H :    0.035940
  14 H :    0.029257
  15 H :   -0.028117
Sum of atomic charges:   -0.0000000

LOEWDIN ATOMIC CHARGES
----------------------
   0 C :   -0.063604
   1 C :    0.038547
   2 C :   -0.030737
   3 C :    0.047039
   4 N :   -0.039258
   5 C :    0.041015
   6 O :   -0.190998
   7 H :    0.032679
   8 H :    0.024347
   9 H :    0.038340
  10 H :    0.022581
  11 H :    0.027871
  12 H :    0.028611
  13 H :    0.021990
  14 H :    0.020463
  15 H :   -0.018885

  Mayer bond orders larger than 0.1
B(  0-C ,  1-C ) :   1.1017 B(  0-C ,  7-H ) :   0.9561 B(  0-C ,  8-H ) :   0.9430
B(  0-C ,  9-H ) :   0.9537 B(  1-C ,  2-C ) :   1.0839 B(  1-C ,  4-N ) :   0.9730
B(  1-C , 10-H ) :   0.9180 B(  2-C ,  3-C ) :   1.1269 B(  2-C , 11-H ) :   0.9130
B(  2-C , 12-H ) :   0.9287 B(  3-C ,  4-N ) :   0.9924 B(  3-C , 13-H ) :   0.9375
B(  3-C , 14-H ) :   0.9349 B(  4-N ,  5-C ) :   1.1914 B(  5-C ,  6-O ) :   2.0183
B(  5-C , 15-H ) :   0.9225

FINAL SINGLE POINT ENERGY      -325.264184500512

DIPOLE MOMENT
-------------
                                X             Y             Z
Electronic contribution:      1.19351      -5.69544      -0.09232
Nuclear contribution   :     -0.63361       7.05644       0.45454
                        -----------------------------------------
Total Dipole Moment    :      0.55991       1.36099       0.36222
                        -----------------------------------------
Magnitude (a.u.)       :      1.51559
Magnitude (Debye)      :      3.85231

                             ****ORCA TERMINATED NORMALLY****
TOTAL RUN TIME: 0 days 0 hours 0 minutes 7 seconds 500 msec
