                         Program Version 3.0.3 - RELEASE   -
|  1> ! RI PBE def2-SVP def2-SVP/J NBO PAL2
|  2> % maxcore 2000
|  3> % output
|  4>     # printlevel mini
|  5>     print[ P_Basis ] 0
|  6>     print[ P_SCFInfo ] 1
|  7>     print[ P_SCFIterInfo ] 1
|  8>     print[ P_OrbEn ] 0
|  9>     print[ P_Cartesian ] 0
| 10> end
| 11> *xyz 0 1
| 12>  C        1.1124150000    -0.0002260000    -0.1059910000
| 13>  C        2.4249320000    -0.1089130000     0.0994930000
| 14>  C        3.2858330000    -1.2668200000     0.2455040000
| 15>  C        4.5364130000    -0.8142580000     0.4356960000
| 16>  N        4.5762710000     0.5738600000     0.4275740000
| 17>  C        3.3161050000     1.0999350000     0.2256380000
| 18>  O        3.0329020000     2.2717430000     0.1695260000
| 19>  H        0.4709080000    -0.8687720000    -0.1968880000
| 20>  H        0.6635890000     0.9833510000    -0.1860870000
| 21>  H        2.9827480000    -2.3008920000     0.2090100000
| 22>  H        5.4457420000    -1.3782400000     0.5832600000
| 23>  H        5.3947410000     1.1425210000     0.5492850000
| 24> *
| 25>
| 26>                          ****END OF INPUT****
 Total Charge           Charge          ....    0
 Multiplicity           Mult            ....    1
 Number of Electrons    NEL             ....   50
 Basis Dimension        Dim             ....  123

MULLIKEN ATOMIC CHARGES
-----------------------
   0 C :   -0.018811
   1 C :   -0.096326
   2 C :   -0.018601
   3 C :    0.099743
   4 N :   -0.116373
   5 C :    0.131393
   6 O :   -0.155528
   7 H :    0.025302
   8 H :    0.040586
   9 H :   -0.015595
  10 H :    0.008965
  11 H :    0.115246
Sum of atomic charges:   -0.0000000

LOEWDIN ATOMIC CHARGES
----------------------
   0 C :    0.006656
   1 C :   -0.068363
   2 C :   -0.089897
   3 C :    0.032771
   4 N :    0.028440
   5 C :    0.041846
   6 O :   -0.153529
   7 H :    0.030005
   8 H :    0.035654
   9 H :    0.029159
  10 H :    0.026650
  11 H :    0.080608

  Mayer bond orders larger than 0.1
B(  0-C ,  1-C ) :   1.8922 B(  0-C ,  3-C ) :   0.1182 B(  0-C ,  7-H ) :   0.9358
B(  0-C ,  8-H ) :   0.9192 B(  1-C ,  2-C ) :   1.1064 B(  1-C ,  5-C ) :   0.8892
B(  2-C ,  3-C ) :   1.6081 B(  2-C ,  9-H ) :   1.0128 B(  3-C ,  4-N ) :   1.1107
B(  3-C , 10-H ) :   0.9779 B(  4-N ,  5-C ) :   1.1085 B(  4-N , 11-H ) :   0.9301
B(  5-C ,  6-O ) :   2.1663

FINAL SINGLE POINT ENERGY      -322.878032267881

DIPOLE MOMENT
-------------
                                X             Y             Z
Electronic contribution:      1.63075       2.70646       0.22641
Nuclear contribution   :     -0.95525      -3.66457      -0.11045
                        -----------------------------------------
Total Dipole Moment    :      0.67549      -0.95811       0.11597
                        -----------------------------------------
Magnitude (a.u.)       :      1.17802
Magnitude (Debye)      :      2.99428

                             ****ORCA TERMINATED NORMALLY****
TOTAL RUN TIME: 0 days 0 hours 0 minutes 6 seconds 78 msec
