                         Program Version 3.0.3 - RELEASE   -
|  1> ! RI PBE def2-SVP def2-SVP/J NBO PAL2
|  2> % maxcore 2000
|  3> % output
|  4>     # printlevel mini
|  5>     print[ P_Basis ] 0
|  6>     print[ P_SCFInfo ] 1
|  7>     print[ P_SCFIterInfo ] 1
|  8>     print[ P_OrbEn ] 0
|  9>     print[ P_Cartesian ] 0
| 10> end
| 11> *xyz 0 1
| 12>  C        1.0812410000    -0.1233780000     0.4222170000
| 13>  C        2.3470070000     0.0068220000     0.0554090000
| 14>  C        3.1768230000     1.2470660000    -0.1041250000
| 15>  C        4.5649460000     0.7451450000    -0.5539980000
| 16>  N        4.4162320000    -0.6884740000    -0.6086700000
| 17>  C        3.1921840000    -1.1795430000    -0.2787010000
| 18>  O        2.8707050000    -2.3469620000    -0.2644520000
| 19>  H        0.4547490000     0.7266690000     0.6677350000
| 20>  H        0.6495680000    -1.1165240000     0.4809510000
| 21>  H        3.2462270000     1.8026550000     0.8331460000
| 22>  H        2.7452360000     1.9223100000    -0.8455490000
| 23>  H        5.3465640000     1.0337480000     0.1554950000
| 24>  H        4.8417710000     1.1504830000    -1.5321180000
| 25>  H        5.1588480000    -1.3126180000    -0.8736390000
| 26> *
| 27>
| 28>                          ****END OF INPUT****
 Total Charge           Charge          ....    0
 Multiplicity           Mult            ....    1
 Number of Electrons    NEL             ....   52
 Basis Dimension        Dim             ....  133

MULLIKEN ATOMIC CHARGES
-----------------------
   0 C :   -0.025625
   1 C :   -0.225804
   2 C :    0.050383
   3 C :    0.153599
   4 N :   -0.187109
   5 C :    0.129094
   6 O :   -0.186248
   7 H :    0.014831
   8 H :    0.035080
   9 H :    0.040393
  10 H :    0.042054
  11 H :    0.024404
  12 H :    0.021808
  13 H :    0.113141
Sum of atomic charges:   -0.0000000

LOEWDIN ATOMIC CHARGES
----------------------
   0 C :   -0.023424
   1 C :   -0.072051
   2 C :   -0.037565
   3 C :    0.034774
   4 N :    0.005775
   5 C :    0.018427
   6 O :   -0.187844
   7 H :    0.025520
   8 H :    0.034678
   9 H :    0.042878
  10 H :    0.043074
  11 H :    0.020974
  12 H :    0.020496
  13 H :    0.074290

  Mayer bond orders larger than 0.1
B(  0-C ,  1-C ) :   2.0227 B(  0-C ,  7-H ) :   0.9375 B(  0-C ,  8-H ) :   0.9108
B(  1-C ,  2-C ) :   1.0754 B(  1-C ,  5-C ) :   0.8961 B(  2-C ,  3-C ) :   1.0903
B(  2-C ,  9-H ) :   0.9115 B(  2-C , 10-H ) :   0.9118 B(  3-C ,  4-N ) :   1.0225
B(  3-C , 11-H ) :   0.9352 B(  3-C , 12-H ) :   0.9350 B(  4-N ,  5-C ) :   1.1646
B(  4-N ,  6-O ) :   0.1021 B(  4-N , 13-H ) :   0.9250 B(  5-C ,  6-O ) :   2.1537

FINAL SINGLE POINT ENERGY      -324.086110994391

DIPOLE MOMENT
-------------
                                X             Y             Z
Electronic contribution:      0.17063      -4.87771      -0.38801
Nuclear contribution   :      0.57535       6.25449       0.26320
                        -----------------------------------------
Total Dipole Moment    :      0.74598       1.37678      -0.12481
                        -----------------------------------------
Magnitude (a.u.)       :      1.57086
Magnitude (Debye)      :      3.99280

                             ****ORCA TERMINATED NORMALLY****
TOTAL RUN TIME: 0 days 0 hours 0 minutes 6 seconds 556 msec
