                         Program Version 3.0.3 - RELEASE   -
|  1> ! RI PBE def2-SVP def2-SVP/J NBO PAL2
|  2> % maxcore 2000
|  3> % output
|  4>     # printlevel mini
|  5>     print[ P_Basis ] 0
|  6>     print[ P_SCFInfo ] 1
|  7>     print[ P_SCFIterInfo ] 1
|  8>     print[ P_OrbEn ] 0
|  9>     print[ P_Cartesian ] 0
| 10> end
| 11> *xyz 0 1
| 12>  C        0.9375500000     0.0934810000    -0.0646530000
| 13>  C        2.4119240000     0.1626670000    -0.0644940000
| 14>  C        3.2638290000     1.1862700000    -0.0628840000
| 15>  C        4.6305470000     0.5973620000    -0.0636100000
| 16>  N        4.6724740000    -0.6793310000    -0.0654950000
| 17>  C        3.2901960000    -1.0785850000    -0.0665000000
| 18>  O        2.9103330000    -2.2104050000    -0.0680410000
| 19>  H        0.4858150000     1.0854030000    -0.0630960000
| 20>  H        0.5819280000    -0.4604880000     0.8088190000
| 21>  H        0.5819900000    -0.4577140000    -0.9399020000
| 22>  H        3.0444310000     2.2452490000    -0.0612690000
| 23>  H        5.5419830000     1.1899920000    -0.0625650000
| 24> *
| 25>
| 26>                          ****END OF INPUT****
 Total Charge           Charge          ....    0
 Multiplicity           Mult            ....    1
 Number of Electrons    NEL             ....   50
 Basis Dimension        Dim             ....  123

MULLIKEN ATOMIC CHARGES
-----------------------
   0 C :    0.087247
   1 C :   -0.128196
   2 C :   -0.067202
   3 C :    0.069776
   4 N :   -0.133006
   5 C :    0.095593
   6 O :   -0.068508
   7 H :    0.025256
   8 H :    0.051933
   9 H :    0.051899
  10 H :   -0.003939
  11 H :    0.019147
Sum of atomic charges:   -0.0000000

LOEWDIN ATOMIC CHARGES
----------------------
   0 C :   -0.052750
   1 C :   -0.045732
   2 C :   -0.055438
   3 C :    0.064357
   4 N :   -0.115639
   5 C :    0.058699
   6 O :   -0.049295
   7 H :    0.038353
   8 H :    0.052817
   9 H :    0.052811
  10 H :    0.028651
  11 H :    0.023165

  Mayer bond orders larger than 0.1
B(  0-C ,  1-C ) :   1.1187 B(  0-C ,  7-H ) :   0.9494 B(  0-C ,  8-H ) :   0.9320
B(  0-C ,  9-H ) :   0.9320 B(  1-C ,  2-C ) :   1.7288 B(  1-C ,  5-C ) :   0.8744
B(  2-C ,  3-C ) :   0.9577 B(  2-C , 10-H ) :   1.0070 B(  3-C ,  4-N ) :   1.8472
B(  3-C , 11-H ) :   0.9740 B(  4-N ,  5-C ) :   1.0521 B(  5-C ,  6-O ) :   2.2414

FINAL SINGLE POINT ENERGY      -322.853216902903

DIPOLE MOMENT
-------------
                                X             Y             Z
Electronic contribution:      4.41669      -3.37516      -0.00514
Nuclear contribution   :     -5.03576       4.81477       0.00721
                        -----------------------------------------
Total Dipole Moment    :     -0.61908       1.43961       0.00207
                        -----------------------------------------
Magnitude (a.u.)       :      1.56708
Magnitude (Debye)      :      3.98319

                             ****ORCA TERMINATED NORMALLY****
TOTAL RUN TIME: 0 days 0 hours 0 minutes 5 seconds 994 msec
