                         Program Version 3.0.3 - RELEASE   -
|  1> ! RI PBE def2-SVP def2-SVP/J NBO PAL2
|  2> % maxcore 2000
|  3> % output
|  4>     # printlevel mini
|  5>     print[ P_Basis ] 0
|  6>     print[ P_SCFInfo ] 1
|  7>     print[ P_SCFIterInfo ] 1
|  8>     print[ P_OrbEn ] 0
|  9>     print[ P_Cartesian ] 0
| 10> end
| 11> *xyz 0 1
| 12>  C        0.9170740000    -0.0109380000     0.0257140000
| 13>  C        2.3932270000    -0.1075390000    -0.0409590000
| 14>  C        3.1925330000    -1.1732280000    -0.0841270000
| 15>  C        4.6283090000    -0.7614650000    -0.1450180000
| 16>  N        4.5336230000     0.6688410000    -0.1308160000
| 17>  C        3.2455640000     1.1189910000    -0.0707050000
| 18>  O        2.8815980000     2.2746990000    -0.0461730000
| 19>  H        0.4484010000    -0.9954640000     0.0389480000
| 20>  H        0.5339190000     0.5541030000    -0.8280660000
| 21>  H        0.6118760000     0.5403940000     0.9189820000
| 22>  H        2.8895220000    -2.2124650000    -0.0778570000
| 23>  H        5.1158670000    -1.1364430000    -1.0546310000
| 24>  H        5.1943600000    -1.1488220000     0.7124590000
| 25>  H        5.3158260000     1.2973360000    -0.1611620000
| 26> *
| 27>
| 28>                          ****END OF INPUT****
 Total Charge           Charge          ....    0
 Multiplicity           Mult            ....    1
 Number of Electrons    NEL             ....   52
 Basis Dimension        Dim             ....  133

MULLIKEN ATOMIC CHARGES
-----------------------
   0 C :    0.090660
   1 C :   -0.135445
   2 C :   -0.166733
   3 C :    0.209069
   4 N :   -0.182670
   5 C :    0.089989
   6 O :   -0.186729
   7 H :    0.012402
   8 H :    0.042940
   9 H :    0.042081
  10 H :   -0.007395
  11 H :    0.040095
  12 H :    0.041611
  13 H :    0.110125
Sum of atomic charges:   -0.0000000

LOEWDIN ATOMIC CHARGES
----------------------
   0 C :   -0.052348
   1 C :   -0.061735
   2 C :   -0.035780
   3 C :    0.032705
   4 N :   -0.001781
   5 C :    0.016941
   6 O :   -0.192083
   7 H :    0.032338
   8 H :    0.047128
   9 H :    0.047026
  10 H :    0.024594
  11 H :    0.034974
  12 H :    0.035359
  13 H :    0.072660

  Mayer bond orders larger than 0.1
B(  0-C ,  1-C ) :   1.1196 B(  0-C ,  7-H ) :   0.9503 B(  0-C ,  8-H ) :   0.9362
B(  0-C ,  9-H ) :   0.9360 B(  1-C ,  2-C ) :   1.7921 B(  1-C ,  5-C ) :   0.9246
B(  2-C ,  3-C ) :   1.0073 B(  2-C , 10-H ) :   0.9954 B(  3-C ,  4-N ) :   1.0343
B(  3-C , 11-H ) :   0.9098 B(  3-C , 12-H ) :   0.9095 B(  4-N ,  5-C ) :   1.1566
B(  4-N , 13-H ) :   0.9289 B(  5-C ,  6-O ) :   2.1588

FINAL SINGLE POINT ENERGY      -324.096673268732

DIPOLE MOMENT
-------------
                                X             Y             Z
Electronic contribution:      2.28228       3.72896      -0.07720
Nuclear contribution   :     -1.58844      -5.00319       0.03714
                        -----------------------------------------
Total Dipole Moment    :      0.69385      -1.27423      -0.04005
                        -----------------------------------------
Magnitude (a.u.)       :      1.45145
Magnitude (Debye)      :      3.68929

                             ****ORCA TERMINATED NORMALLY****
TOTAL RUN TIME: 0 days 0 hours 0 minutes 6 seconds 941 msec
