                         Program Version 3.0.3 - RELEASE   -
|  1> ! RI PBE def2-SVP def2-SVP/J NBO PAL2
|  2> % maxcore 2000
|  3> % output
|  4>     # printlevel mini
|  5>     print[ P_Basis ] 0
|  6>     print[ P_SCFInfo ] 1
|  7>     print[ P_SCFIterInfo ] 1
|  8>     print[ P_OrbEn ] 0
|  9>     print[ P_Cartesian ] 0
| 10> end
| 11> *xyz 0 1
| 12>  C        0.8932060000     0.0236570000    -0.1909370000
| 13>  C        2.3714270000    -0.0914660000     0.0628840000
| 14>  C        2.7610900000    -0.1019820000     1.5165900000
| 15>  C        3.2218890000    -0.9251230000    -0.8897470000
| 16>  N        2.7347110000    -1.6466050000    -2.0263790000
| 17>  C        3.2997160000     0.5662050000    -0.9142040000
| 18>  O        4.4181420000     1.2353120000    -0.4275180000
| 19>  H        0.3512370000    -0.8010710000     0.2830880000
| 20>  H        0.6539700000     0.0051570000    -1.2563030000
| 21>  H        0.5009510000     0.9575730000     0.2217010000
| 22>  H        2.3024050000    -0.9529030000     2.0294400000
| 23>  H        2.4269800000     0.8112970000     2.0181180000
| 24>  H        3.8424800000    -0.1650310000     1.6406450000
| 25>  H        4.0690590000    -1.4039640000    -0.4038930000
| 26>  H        2.2705350000    -1.0396270000    -2.6873050000
| 27>  H        2.0799970000    -2.3715220000    -1.7603590000
| 28>  H        2.8190480000     1.0545870000    -1.7647360000
| 29>  H        5.1590350000     1.0448170000    -1.0091740000
| 30> *
| 31>
| 32>                          ****END OF INPUT****
 Total Charge           Charge          ....    0
 Multiplicity           Mult            ....    1
 Number of Electrons    NEL             ....   56
 Basis Dimension        Dim             ....  153

MULLIKEN ATOMIC CHARGES
-----------------------
   0 C :    0.103266
   1 C :   -0.279620
   2 C :    0.109204
   3 C :   -0.069945
   4 N :   -0.104357
   5 C :    0.078795
   6 O :   -0.226184
   7 H :    0.015006
   8 H :   -0.020400
   9 H :    0.017290
  10 H :    0.008147
  11 H :    0.016155
  12 H :    0.012046
  13 H :    0.008016
  14 H :    0.078185
  15 H :    0.095211
  16 H :   -0.002630
  17 H :    0.161815
Sum of atomic charges:    0.0000000

LOEWDIN ATOMIC CHARGES
----------------------
   0 C :   -0.048465
   1 C :   -0.087635
   2 C :   -0.044156
   3 C :   -0.025396
   4 N :   -0.080068
   5 C :    0.028390
   6 O :   -0.093515
   7 H :    0.025861
   8 H :    0.014214
   9 H :    0.030245
  10 H :    0.024946
  11 H :    0.028044
  12 H :    0.026092
  13 H :    0.018677
  14 H :    0.047658
  15 H :    0.055377
  16 H :    0.003974
  17 H :    0.075756

  Mayer bond orders larger than 0.1
B(  0-C ,  1-C ) :   1.0941 B(  0-C ,  7-H ) :   0.9552 B(  0-C ,  8-H ) :   0.9360
B(  0-C ,  9-H ) :   0.9544 B(  1-C ,  2-C ) :   1.0915 B(  1-C ,  3-C ) :   0.8400
B(  1-C ,  5-C ) :   0.8889 B(  2-C , 10-H ) :   0.9551 B(  2-C , 11-H ) :   0.9563
B(  2-C , 12-H ) :   0.9388 B(  3-C ,  4-N ) :   1.1792 B(  3-C ,  5-C ) :   0.9382
B(  3-C , 13-H ) :   0.9366 B(  4-N , 14-H ) :   0.9641 B(  4-N , 15-H ) :   0.9670
B(  5-C ,  6-O ) :   1.1544 B(  5-C , 16-H ) :   0.9454 B(  6-O , 17-H ) :   0.9786

FINAL SINGLE POINT ENERGY      -326.431503892874

DIPOLE MOMENT
-------------
                                X             Y             Z
Electronic contribution:      4.07855       1.22735      -2.17422
Nuclear contribution   :     -4.35716      -1.39329       1.84791
                        -----------------------------------------
Total Dipole Moment    :     -0.27861      -0.16594      -0.32631
                        -----------------------------------------
Magnitude (a.u.)       :      0.46004
Magnitude (Debye)      :      1.16934

                             ****ORCA TERMINATED NORMALLY****
TOTAL RUN TIME: 0 days 0 hours 0 minutes 8 seconds 76 msec
