                         Program Version 3.0.3 - RELEASE   -
|  1> ! RI PBE def2-SVP def2-SVP/J NBO PAL2
|  2> % maxcore 2000
|  3> % output
|  4>     # printlevel mini
|  5>     print[ P_Basis ] 0
|  6>     print[ P_SCFInfo ] 1
|  7>     print[ P_SCFIterInfo ] 1
|  8>     print[ P_OrbEn ] 0
|  9>     print[ P_Cartesian ] 0
| 10> end
| 11> *xyz 0 1
| 12>  C        0.9267090000     0.0234870000     0.1220030000
| 13>  C        2.4163980000     0.0897400000    -0.1489340000
| 14>  C        2.7381960000     0.0698600000    -1.6298410000
| 15>  C        3.1940560000     1.1486940000     0.6829650000
| 16>  N        3.8670240000     0.0431870000     1.3493900000
| 17>  C        3.2282980000    -0.9447400000     0.6628040000
| 18>  O        3.2926750000    -2.1424100000     0.6978460000
| 19>  H        0.4081980000     0.8626100000    -0.3504050000
| 20>  H        0.7125260000     0.0472140000     1.1932750000
| 21>  H        0.5112860000    -0.9026160000    -0.2816210000
| 22>  H        2.2611020000     0.9099890000    -2.1423930000
| 23>  H        2.3732940000    -0.8550060000    -2.0821920000
| 24>  H        3.8149730000     0.1267540000    -1.8069810000
| 25>  H        2.5736090000     1.7587730000     1.3450950000
| 26>  H        3.8597900000     1.7918370000     0.1009600000
| 27>  H        4.5678660000     0.0094380000     2.0729380000
| 28> *
| 29>
| 30>                          ****END OF INPUT****
 Total Charge           Charge          ....    0
 Multiplicity           Mult            ....    1
 Number of Electrons    NEL             ....   54
 Basis Dimension        Dim             ....  143

MULLIKEN ATOMIC CHARGES
-----------------------
   0 C :    0.085764
   1 C :   -0.515707
   2 C :    0.085554
   3 C :    0.288801
   4 N :   -0.208935
   5 C :    0.166483
   6 O :   -0.166646
   7 H :    0.022356
   8 H :    0.018323
   9 H :    0.033464
  10 H :    0.022047
  11 H :    0.034344
  12 H :    0.018672
  13 H :    0.008161
  14 H :    0.007835
  15 H :    0.099484
Sum of atomic charges:   -0.0000000

LOEWDIN ATOMIC CHARGES
----------------------
   0 C :   -0.043715
   1 C :   -0.086153
   2 C :   -0.043966
   3 C :    0.050121
   4 N :   -0.004172
   5 C :    0.023592
   6 O :   -0.165929
   7 H :    0.027223
   8 H :    0.028172
   9 H :    0.034913
  10 H :    0.027189
  11 H :    0.035017
  12 H :    0.028308
  13 H :    0.014657
  14 H :    0.014595
  15 H :    0.060150

  Mayer bond orders larger than 0.1
B(  0-C ,  1-C ) :   1.0343 B(  0-C ,  7-H ) :   0.9594 B(  0-C ,  8-H ) :   0.9531
B(  0-C ,  9-H ) :   0.9587 B(  1-C ,  2-C ) :   1.0343 B(  1-C ,  3-C ) :   1.0018
B(  1-C ,  5-C ) :   0.8422 B(  2-C , 10-H ) :   0.9592 B(  2-C , 11-H ) :   0.9591
B(  2-C , 12-H ) :   0.9525 B(  3-C ,  4-N ) :   1.0322 B(  3-C , 13-H ) :   0.9236
B(  3-C , 14-H ) :   0.9237 B(  4-N ,  5-C ) :   1.1946 B(  4-N ,  6-O ) :   0.1135
B(  4-N , 15-H ) :   0.9378 B(  5-C ,  6-O ) :   2.2050

FINAL SINGLE POINT ENERGY      -325.280608738243

DIPOLE MOMENT
-------------
                                X             Y             Z
Electronic contribution:      3.95717      -4.31486       3.97772
Nuclear contribution   :     -3.90986       5.64106      -3.89306
                        -----------------------------------------
Total Dipole Moment    :      0.04732       1.32620       0.08467
                        -----------------------------------------
Magnitude (a.u.)       :      1.32974
Magnitude (Debye)      :      3.37992

                             ****ORCA TERMINATED NORMALLY****
TOTAL RUN TIME: 0 days 0 hours 0 minutes 7 seconds 621 msec
