                         Program Version 3.0.3 - RELEASE   -
|  1> ! RI PBE def2-SVP def2-SVP/J NBO PAL2
|  2> % maxcore 2000
|  3> % output
|  4>     # printlevel mini
|  5>     print[ P_Basis ] 0
|  6>     print[ P_SCFInfo ] 1
|  7>     print[ P_SCFIterInfo ] 1
|  8>     print[ P_OrbEn ] 0
|  9>     print[ P_Cartesian ] 0
| 10> end
| 11> *xyz 0 1
| 12>  C        1.0526200000     0.1006240000    -0.0788350000
| 13>  C        2.5682150000     0.0032120000     0.0417090000
| 14>  C        3.2004180000    -1.2151480000    -0.5623700000
| 15>  C        4.1085350000    -0.8273400000    -1.4566970000
| 16>  N        4.1731330000     0.5643060000    -1.5352980000
| 17>  C        3.2648420000     1.1533750000    -0.6897670000
| 18>  O        3.0681410000     2.3382440000    -0.5712670000
| 19>  H        0.5668960000    -0.6793040000     0.5106270000
| 20>  H        0.7389320000    -0.0128180000    -1.1186900000
| 21>  H        0.7128910000     1.0740300000     0.2789370000
| 22>  H        2.8444380000     0.0976010000     1.1002930000
| 23>  H        2.9603780000    -2.2358090000    -0.3068920000
| 24>  H        4.7565230000    -1.4294030000    -2.0773090000
| 25>  H        4.7494490000     1.0926420000    -2.1666510000
| 26> *
| 27>
| 28>                          ****END OF INPUT****
 Total Charge           Charge          ....    0
 Multiplicity           Mult            ....    1
 Number of Electrons    NEL             ....   52
 Basis Dimension        Dim             ....  133

MULLIKEN ATOMIC CHARGES
-----------------------
   0 C :    0.036031
   1 C :   -0.119805
   2 C :   -0.065913
   3 C :    0.088605
   4 N :   -0.109230
   5 C :    0.081997
   6 O :   -0.172378
   7 H :    0.023976
   8 H :    0.023718
   9 H :    0.038297
  10 H :    0.057266
  11 H :   -0.003016
  12 H :    0.005582
  13 H :    0.114870
Sum of atomic charges:    0.0000000

LOEWDIN ATOMIC CHARGES
----------------------
   0 C :   -0.040800
   1 C :   -0.065917
   2 C :   -0.080701
   3 C :    0.011769
   4 N :    0.030172
   5 C :    0.039428
   6 O :   -0.170428
   7 H :    0.028369
   8 H :    0.028998
   9 H :    0.033738
  10 H :    0.056413
  11 H :    0.025247
  12 H :    0.025060
  13 H :    0.078652

  Mayer bond orders larger than 0.1
B(  0-C ,  1-C ) :   1.0726 B(  0-C ,  7-H ) :   0.9641 B(  0-C ,  8-H ) :   0.9685
B(  0-C ,  9-H ) :   0.9553 B(  1-C ,  2-C ) :   1.0229 B(  1-C ,  5-C ) :   0.9040
B(  1-C , 10-H ) :   0.8700 B(  2-C ,  3-C ) :   1.7419 B(  2-C , 11-H ) :   0.9988
B(  3-C ,  4-N ) :   1.0795 B(  3-C , 12-H ) :   0.9832 B(  4-N ,  5-C ) :   1.1448
B(  4-N , 13-H ) :   0.9281 B(  5-C ,  6-O ) :   2.1696

FINAL SINGLE POINT ENERGY      -324.090090162626

DIPOLE MOMENT
-------------
                                X             Y             Z
Electronic contribution:      4.13016       3.20922      -1.39572
Nuclear contribution   :     -3.71754      -4.21676       1.01135
                        -----------------------------------------
Total Dipole Moment    :      0.41262      -1.00754      -0.38437
                        -----------------------------------------
Magnitude (a.u.)       :      1.15461
Magnitude (Debye)      :      2.93479

                             ****ORCA TERMINATED NORMALLY****
TOTAL RUN TIME: 0 days 0 hours 0 minutes 6 seconds 853 msec
