                         Program Version 3.0.3 - RELEASE   -
|  1> ! RI PBE def2-SVP def2-SVP/J NBO PAL2
|  2> % maxcore 2000
|  3> % output
|  4>     # printlevel mini
|  5>     print[ P_Basis ] 0
|  6>     print[ P_SCFInfo ] 1
|  7>     print[ P_SCFIterInfo ] 1
|  8>     print[ P_OrbEn ] 0
|  9>     print[ P_Cartesian ] 0
| 10> end
| 11> *xyz 0 1
| 12>  C        1.0423880000     0.0415820000     0.0190680000
| 13>  C        2.5500980000     0.1005140000     0.0697210000
| 14>  C        3.2453070000     1.1357830000     0.9826980000
| 15>  C        4.3222430000     0.0889890000     1.3256490000
| 16>  N        5.5289800000     0.2639400000     0.5485520000
| 17>  C        3.3277200000    -0.9902670000     0.8324220000
| 18>  O        3.9199200000    -2.0482060000     0.1265500000
| 19>  H        0.6212220000     0.9421590000    -0.4362350000
| 20>  H        0.6213850000    -0.0470840000     1.0254530000
| 21>  H        0.6929180000    -0.8141800000    -0.5667260000
| 22>  H        2.9603560000     0.1674720000    -0.9434890000
| 23>  H        2.6297000000     1.3943000000     1.8474880000
| 24>  H        3.6101630000     2.0556840000     0.5229980000
| 25>  H        4.6031450000     0.0094450000     2.3783400000
| 26>  H        5.3013750000     0.3841260000    -0.4322170000
| 27>  H        6.0892180000    -0.5799290000     0.5986960000
| 28>  H        2.7267550000    -1.3618740000     1.6751680000
| 29>  H        3.2485950000    -2.7046540000    -0.0733240000
| 30> *
| 31>
| 32>                          ****END OF INPUT****
 Total Charge           Charge          ....    0
 Multiplicity           Mult            ....    1
 Number of Electrons    NEL             ....   56
 Basis Dimension        Dim             ....  153

MULLIKEN ATOMIC CHARGES
-----------------------
   0 C :    0.070686
   1 C :   -0.183602
   2 C :    0.126450
   3 C :   -0.112975
   4 N :   -0.122333
   5 C :    0.122982
   6 O :   -0.236014
   7 H :    0.022739
   8 H :    0.005595
   9 H :    0.010804
  10 H :   -0.008475
  11 H :    0.001594
  12 H :    0.003058
  13 H :   -0.002198
  14 H :    0.075085
  15 H :    0.093815
  16 H :   -0.025393
  17 H :    0.158183
Sum of atomic charges:    0.0000000

LOEWDIN ATOMIC CHARGES
----------------------
   0 C :   -0.065726
   1 C :   -0.060818
   2 C :   -0.028251
   3 C :   -0.001834
   4 N :   -0.085000
   5 C :    0.025512
   6 O :   -0.112293
   7 H :    0.029080
   8 H :    0.021977
   9 H :    0.024066
  10 H :    0.020233
  11 H :    0.024334
  12 H :    0.019751
  13 H :    0.011184
  14 H :    0.048076
  15 H :    0.055141
  16 H :    0.002087
  17 H :    0.072480

  Mayer bond orders larger than 0.1
B(  0-C ,  1-C ) :   1.1055 B(  0-C ,  7-H ) :   0.9574 B(  0-C ,  8-H ) :   0.9493
B(  0-C ,  9-H ) :   0.9558 B(  1-C ,  2-C ) :   1.0866 B(  1-C ,  5-C ) :   1.0168
B(  1-C , 10-H ) :   0.8754 B(  2-C ,  3-C ) :   1.0835 B(  2-C , 11-H ) :   0.9165
B(  2-C , 12-H ) :   0.9059 B(  3-C ,  4-N ) :   1.1552 B(  3-C ,  5-C ) :   0.9844
B(  3-C , 13-H ) :   0.9095 B(  4-N , 14-H ) :   0.9650 B(  4-N , 15-H ) :   0.9624
B(  5-C ,  6-O ) :   1.1783 B(  5-C , 16-H ) :   0.9057 B(  6-O , 17-H ) :   0.9787

FINAL SINGLE POINT ENERGY      -326.437790251096

DIPOLE MOMENT
-------------
                                X             Y             Z
Electronic contribution:      3.69725      -2.50711       0.08824
Nuclear contribution   :     -4.38178       2.01763      -0.27948
                        -----------------------------------------
Total Dipole Moment    :     -0.68453      -0.48948      -0.19123
                        -----------------------------------------
Magnitude (a.u.)       :      0.86298
Magnitude (Debye)      :      2.19353

                             ****ORCA TERMINATED NORMALLY****
TOTAL RUN TIME: 0 days 0 hours 0 minutes 8 seconds 73 msec
