                         Program Version 3.0.3 - RELEASE   -
|  1> ! RI PBE def2-SVP def2-SVP/J NBO PAL2
|  2> % maxcore 2000
|  3> % output
|  4>     # printlevel mini
|  5>     print[ P_Basis ] 0
|  6>     print[ P_SCFInfo ] 1
|  7>     print[ P_SCFIterInfo ] 1
|  8>     print[ P_OrbEn ] 0
|  9>     print[ P_Cartesian ] 0
| 10> end
| 11> *xyz 0 1
| 12>  C        1.0596680000    -0.0569910000    -0.0106430000
| 13>  C        2.5718670000     0.0044550000     0.0089810000
| 14>  C        3.1950020000     1.1480500000     0.8066430000
| 15>  C        4.5466650000     0.5935460000     1.2639080000
| 16>  N        4.2807200000    -0.8233370000     1.3461550000
| 17>  C        3.2084090000    -1.2394740000     0.6220720000
| 18>  O        2.8455570000    -2.3850980000     0.4810620000
| 19>  H        0.6358120000     0.7961100000    -0.5451930000
| 20>  H        0.6585020000    -0.0545830000     1.0062970000
| 21>  H        0.7269850000    -0.9746120000    -0.4982290000
| 22>  H        2.9443060000     0.0331090000    -1.0243960000
| 23>  H        2.5727330000     1.3580030000     1.6817790000
| 24>  H        3.2962980000     2.0733140000     0.2385070000
| 25>  H        4.8588180000     0.9983990000     2.2292470000
| 26>  H        5.3373870000     0.8137270000     0.5347120000
| 27>  H        4.9291600000    -1.4937180000     1.7233070000
| 28> *
| 29>
| 30>                          ****END OF INPUT****
 Total Charge           Charge          ....    0
 Multiplicity           Mult            ....    1
 Number of Electrons    NEL             ....   54
 Basis Dimension        Dim             ....  143

MULLIKEN ATOMIC CHARGES
-----------------------
   0 C :    0.051660
   1 C :   -0.206250
   2 C :    0.002916
   3 C :    0.146642
   4 N :   -0.176257
   5 C :    0.074599
   6 O :   -0.189873
   7 H :    0.018220
   8 H :    0.014376
   9 H :    0.037329
  10 H :    0.036179
  11 H :    0.021758
  12 H :    0.018887
  13 H :    0.017995
  14 H :    0.019606
  15 H :    0.112213
Sum of atomic charges:   -0.0000000

LOEWDIN ATOMIC CHARGES
----------------------
   0 C :   -0.051775
   1 C :   -0.074017
   2 C :   -0.035244
   3 C :    0.029973
   4 N :   -0.001532
   5 C :    0.023696
   6 O :   -0.187466
   7 H :    0.026371
   8 H :    0.026695
   9 H :    0.034708
  10 H :    0.042156
  11 H :    0.029599
  12 H :    0.027667
  13 H :    0.021541
  14 H :    0.015533
  15 H :    0.072096

  Mayer bond orders larger than 0.1
B(  0-C ,  1-C ) :   1.1051 B(  0-C ,  7-H ) :   0.9623 B(  0-C ,  8-H ) :   0.9595
B(  0-C ,  9-H ) :   0.9512 B(  1-C ,  2-C ) :   1.0777 B(  1-C ,  5-C ) :   0.8881
B(  1-C , 10-H ) :   0.8841 B(  2-C ,  3-C ) :   1.0832 B(  2-C , 11-H ) :   0.9282
B(  2-C , 12-H ) :   0.9337 B(  3-C ,  4-N ) :   1.0022 B(  3-C , 13-H ) :   0.9423
B(  3-C , 14-H ) :   0.9328 B(  4-N ,  5-C ) :   1.2062 B(  4-N , 15-H ) :   0.9253
B(  5-C ,  6-O ) :   2.1586

FINAL SINGLE POINT ENERGY      -325.306985359530

DIPOLE MOMENT
-------------
                                X             Y             Z
Electronic contribution:      2.47619      -5.57317       0.71195
Nuclear contribution   :     -1.77303       6.76657      -0.45659
                        -----------------------------------------
Total Dipole Moment    :      0.70316       1.19340       0.25536
                        -----------------------------------------
Magnitude (a.u.)       :      1.40849
Magnitude (Debye)      :      3.58009

                             ****ORCA TERMINATED NORMALLY****
TOTAL RUN TIME: 0 days 0 hours 0 minutes 7 seconds 540 msec
