                         Program Version 3.0.3 - RELEASE   -
|  1> ! RI PBE def2-SVP def2-SVP/J NBO PAL2
|  2> % maxcore 2000
|  3> % output
|  4>     # printlevel mini
|  5>     print[ P_Basis ] 0
|  6>     print[ P_SCFInfo ] 1
|  7>     print[ P_SCFIterInfo ] 1
|  8>     print[ P_OrbEn ] 0
|  9>     print[ P_Cartesian ] 0
| 10> end
| 11> *xyz 0 1
| 12>  C        0.9286660000     0.0365230000    -0.0317180000
| 13>  C        2.4014640000     0.1646320000    -0.0253310000
| 14>  C        3.2314280000     1.2386820000    -0.0225510000
| 15>  C        4.5688100000     0.7262580000    -0.0162530000
| 16>  N        5.7106690000     1.4856300000    -0.0119840000
| 17>  C        4.4417290000    -0.6279660000    -0.0156780000
| 18>  O        3.1160710000    -0.9737090000    -0.0212390000
| 19>  H        0.4689230000     1.0246330000    -0.0345940000
| 20>  H        0.5743330000    -0.5059510000     0.8494200000
| 21>  H        0.5821190000    -0.5074630000    -0.9150180000
| 22>  H        2.9329630000     2.2760810000    -0.0247400000
| 23>  H        5.6559040000     2.4829960000    -0.0119350000
| 24>  H        6.6157200000     1.0613520000    -0.0066810000
| 25>  H        5.1481890000    -1.4397970000    -0.0119180000
| 26> *
| 27>
| 28>                          ****END OF INPUT****
 Total Charge           Charge          ....    0
 Multiplicity           Mult            ....    1
 Number of Electrons    NEL             ....   52
 Basis Dimension        Dim             ....  133

MULLIKEN ATOMIC CHARGES
-----------------------
   0 C :    0.097247
   1 C :   -0.010038
   2 C :   -0.096927
   3 C :    0.063388
   4 N :   -0.070607
   5 C :   -0.015653
   6 O :   -0.181079
   7 H :    0.015616
   8 H :    0.036417
   9 H :    0.036370
  10 H :   -0.047908
  11 H :    0.103651
  12 H :    0.102083
  13 H :   -0.032562
Sum of atomic charges:   -0.0000000

LOEWDIN ATOMIC CHARGES
----------------------
   0 C :   -0.064974
   1 C :    0.002813
   2 C :   -0.119907
   3 C :   -0.035956
   4 N :   -0.021365
   5 C :   -0.063866
   6 O :    0.016779
   7 H :    0.040054
   8 H :    0.040367
   9 H :    0.040363
  10 H :    0.021371
  11 H :    0.067613
  12 H :    0.067412
  13 H :    0.009295

  Mayer bond orders larger than 0.1
B(  0-C ,  1-C ) :   1.1190 B(  0-C ,  7-H ) :   0.9461 B(  0-C ,  8-H ) :   0.9349
B(  0-C ,  9-H ) :   0.9349 B(  1-C ,  2-C ) :   1.5051 B(  1-C ,  6-O ) :   1.1825
B(  2-C ,  3-C ) :   1.1836 B(  2-C , 10-H ) :   1.0124 B(  3-C ,  4-N ) :   1.2122
B(  3-C ,  5-C ) :   1.4597 B(  4-N , 11-H ) :   0.9542 B(  4-N , 12-H ) :   0.9575
B(  5-C ,  6-O ) :   1.0800 B(  5-C , 13-H ) :   1.0193

FINAL SINGLE POINT ENERGY      -324.065346822632

DIPOLE MOMENT
-------------
                                X             Y             Z
Electronic contribution:      2.68805      -1.60449       0.01280
Nuclear contribution   :     -2.30004       2.20587      -0.01030
                        -----------------------------------------
Total Dipole Moment    :      0.38801       0.60138       0.00249
                        -----------------------------------------
Magnitude (a.u.)       :      0.71569
Magnitude (Debye)      :      1.81914

                             ****ORCA TERMINATED NORMALLY****
TOTAL RUN TIME: 0 days 0 hours 0 minutes 6 seconds 173 msec
