                         Program Version 3.0.3 - RELEASE   -
|  1> ! RI PBE def2-SVP def2-SVP/J NBO PAL2
|  2> % maxcore 2000
|  3> % output
|  4>     # printlevel mini
|  5>     print[ P_Basis ] 0
|  6>     print[ P_SCFInfo ] 1
|  7>     print[ P_SCFIterInfo ] 1
|  8>     print[ P_OrbEn ] 0
|  9>     print[ P_Cartesian ] 0
| 10> end
| 11> *xyz 0 1
| 12>  C        1.1568850000     0.0887200000    -0.0050470000
| 13>  C        2.6277080000    -0.0550870000    -0.0705220000
| 14>  C        3.4032660000    -1.1390810000    -0.0857950000
| 15>  C        4.8428880000    -0.7190530000    -0.0343210000
| 16>  N        5.4350810000    -1.0788150000     1.2455490000
| 17>  C        4.6847560000     0.7824750000    -0.3529690000
| 18>  O        3.3146950000     1.1211470000    -0.1087260000
| 19>  H        0.6775360000    -0.8874320000     0.0539660000
| 20>  H        0.7835690000     0.6170380000    -0.8863540000
| 21>  H        0.8723990000     0.6779340000     0.8709800000
| 22>  H        3.0626830000    -2.1612510000    -0.0276100000
| 23>  H        5.4496010000    -1.1975190000    -0.8097210000
| 24>  H        4.8999020000    -0.6763530000     2.0058970000
| 25>  H        6.3881480000    -0.7425690000     1.3185800000
| 26>  H        4.8953790000     0.9860880000    -1.4082540000
| 27>  H        5.3144040000     1.4204680000     0.2704370000
| 28> *
| 29>
| 30>                          ****END OF INPUT****
 Total Charge           Charge          ....    0
 Multiplicity           Mult            ....    1
 Number of Electrons    NEL             ....   54
 Basis Dimension        Dim             ....  143

MULLIKEN ATOMIC CHARGES
-----------------------
   0 C :    0.098404
   1 C :    0.007490
   2 C :   -0.118835
   3 C :   -0.070989
   4 N :   -0.161126
   5 C :    0.286238
   6 O :   -0.296891
   7 H :    0.021191
   8 H :    0.038356
   9 H :    0.036924
  10 H :   -0.018442
  11 H :    0.009174
  12 H :    0.084115
  13 H :    0.083950
  14 H :    0.007522
  15 H :   -0.007082
Sum of atomic charges:   -0.0000000

LOEWDIN ATOMIC CHARGES
----------------------
   0 C :   -0.062370
   1 C :    0.025302
   2 C :   -0.127170
   3 C :   -0.011767
   4 N :   -0.096211
   5 C :    0.067881
   6 O :   -0.097220
   7 H :    0.039900
   8 H :    0.042874
   9 H :    0.043597
  10 H :    0.023693
  11 H :    0.025770
  12 H :    0.048916
  13 H :    0.046264
  14 H :    0.016897
  15 H :    0.013644

  Mayer bond orders larger than 0.1
B(  0-C ,  1-C ) :   1.1080 B(  0-C ,  7-H ) :   0.9495 B(  0-C ,  8-H ) :   0.9358
B(  0-C ,  9-H ) :   0.9314 B(  1-C ,  2-C ) :   1.7075 B(  1-C ,  6-O ) :   1.1122
B(  2-C ,  3-C ) :   1.0215 B(  2-C , 10-H ) :   0.9952 B(  3-C ,  4-N ) :   1.0943
B(  3-C ,  5-C ) :   1.0165 B(  3-C , 11-H ) :   0.8972 B(  4-N , 12-H ) :   0.9659
B(  4-N , 13-H ) :   0.9651 B(  5-C ,  6-O ) :   0.9636 B(  5-C , 14-H ) :   0.9263
B(  5-C , 15-H ) :   0.9327

FINAL SINGLE POINT ENERGY      -325.249266056350

DIPOLE MOMENT
-------------
                                X             Y             Z
Electronic contribution:      0.63743       1.09189      -0.39548
Nuclear contribution   :     -0.52978      -0.83529       0.40952
                        -----------------------------------------
Total Dipole Moment    :      0.10765       0.25660       0.01403
                        -----------------------------------------
Magnitude (a.u.)       :      0.27863
Magnitude (Debye)      :      0.70821

                             ****ORCA TERMINATED NORMALLY****
TOTAL RUN TIME: 0 days 0 hours 0 minutes 7 seconds 182 msec
