                         Program Version 3.0.3 - RELEASE   -
|  1> ! RI PBE def2-SVP def2-SVP/J NBO PAL2
|  2> % maxcore 2000
|  3> % output
|  4>     # printlevel mini
|  5>     print[ P_Basis ] 0
|  6>     print[ P_SCFInfo ] 1
|  7>     print[ P_SCFIterInfo ] 1
|  8>     print[ P_OrbEn ] 0
|  9>     print[ P_Cartesian ] 0
| 10> end
| 11> *xyz 0 1
| 12>  C        0.6825050000    -0.1890290000    -1.0167660000
| 13>  C        2.0604820000    -0.2776450000    -0.4246410000
| 14>  C        2.1776880000    -0.0740780000     1.0639070000
| 15>  C        1.5072120000    -1.1593120000     1.8898400000
| 16>  N        1.6780920000    -0.8843460000     3.3074900000
| 17>  C        3.0977140000    -1.0337880000    -1.1262760000
| 18>  O        3.0710690000     0.3827590000    -1.1860160000
| 19>  H        0.0341890000    -0.9796540000    -0.6314240000
| 20>  H        0.7294650000    -0.2796200000    -2.1026580000
| 21>  H        0.2240310000     0.7728420000    -0.7712100000
| 22>  H        1.7474850000     0.8955320000     1.3360800000
| 23>  H        3.2428740000    -0.0282340000     1.3146670000
| 24>  H        1.8981020000    -2.1409930000     1.5752820000
| 25>  H        0.4328010000    -1.1694940000     1.6823030000
| 26>  H        2.6596500000    -0.9127490000     3.5568580000
| 27>  H        1.2109060000    -1.5850790000     3.8686240000
| 28>  H        2.8571080000    -1.5437500000    -2.0568430000
| 29>  H        3.9268480000    -1.4596520000    -0.5643170000
| 30> *
| 31>
| 32>                          ****END OF INPUT****
 Total Charge           Charge          ....    0
 Multiplicity           Mult            ....    1
 Number of Electrons    NEL             ....   56
 Basis Dimension        Dim             ....  153

MULLIKEN ATOMIC CHARGES
-----------------------
   0 C :    0.093674
   1 C :   -0.211082
   2 C :    0.104448
   3 C :    0.058322
   4 N :   -0.206513
   5 C :    0.171919
   6 O :   -0.290157
   7 H :    0.027846
   8 H :    0.017335
   9 H :    0.025882
  10 H :    0.012360
  11 H :   -0.009482
  12 H :   -0.014305
  13 H :    0.011642
  14 H :    0.086786
  15 H :    0.088175
  16 H :    0.017127
  17 H :    0.016024
Sum of atomic charges:   -0.0000000

LOEWDIN ATOMIC CHARGES
----------------------
   0 C :   -0.060454
   1 C :    0.009214
   2 C :   -0.042518
   3 C :    0.006581
   4 N :   -0.111525
   5 C :    0.053122
   6 O :   -0.154971
   7 H :    0.032032
   8 H :    0.034451
   9 H :    0.034532
  10 H :    0.030490
  11 H :    0.026738
  12 H :   -0.002829
  13 H :    0.019545
  14 H :    0.049740
  15 H :    0.053196
  16 H :    0.011633
  17 H :    0.011024

  Mayer bond orders larger than 0.1
B(  0-C ,  1-C ) :   1.0722 B(  0-C ,  7-H ) :   0.9486 B(  0-C ,  8-H ) :   0.9355
B(  0-C ,  9-H ) :   0.9478 B(  1-C ,  2-C ) :   1.0331 B(  1-C ,  5-C ) :   1.0797
B(  1-C ,  6-O ) :   0.9600 B(  2-C ,  3-C ) :   1.0854 B(  2-C , 10-H ) :   0.9140
B(  2-C , 11-H ) :   0.9025 B(  3-C ,  4-N ) :   1.0921 B(  3-C , 12-H ) :   0.9288
B(  3-C , 13-H ) :   0.9269 B(  4-N , 14-H ) :   0.9693 B(  4-N , 15-H ) :   0.9628
B(  5-C ,  6-O ) :   1.0063 B(  5-C , 16-H ) :   0.9291 B(  5-C , 17-H ) :   0.9247

FINAL SINGLE POINT ENERGY      -326.426206645164

DIPOLE MOMENT
-------------
                                X             Y             Z
Electronic contribution:      3.04035       2.07970      -2.42005
Nuclear contribution   :     -3.23018      -3.04301       2.74950
                        -----------------------------------------
Total Dipole Moment    :     -0.18983      -0.96331       0.32945
                        -----------------------------------------
Magnitude (a.u.)       :      1.03564
Magnitude (Debye)      :      2.63238

                             ****ORCA TERMINATED NORMALLY****
TOTAL RUN TIME: 0 days 0 hours 0 minutes 7 seconds 897 msec
