                         Program Version 3.0.3 - RELEASE   -
|  1> ! RI PBE def2-SVP def2-SVP/J NBO PAL2
|  2> % maxcore 2000
|  3> % output
|  4>     # printlevel mini
|  5>     print[ P_Basis ] 0
|  6>     print[ P_SCFInfo ] 1
|  7>     print[ P_SCFIterInfo ] 1
|  8>     print[ P_OrbEn ] 0
|  9>     print[ P_Cartesian ] 0
| 10> end
| 11> *xyz 0 1
| 12>  C        1.1992820000    -0.7112990000    -0.4281230000
| 13>  C        2.3556940000    -0.0521600000     0.2763980000
| 14>  C        2.0551530000     1.2800730000     0.9542730000
| 15>  C        3.0938160000     1.3540140000     2.0956380000
| 16>  N        4.1831500000     2.3035100000     1.9604780000
| 17>  C        3.6476400000    -0.0831300000     2.1290380000
| 18>  O        2.7908930000    -0.8778560000     1.3441040000
| 19>  H        0.8531330000    -0.0903250000    -1.2574840000
| 20>  H        0.3690400000    -0.8582170000     0.2667370000
| 21>  H        1.4923130000    -1.6843910000    -0.8266780000
| 22>  H        3.1919260000     0.0785650000    -0.4332210000
| 23>  H        2.1335770000     2.1343540000     0.2782720000
| 24>  H        1.0372810000     1.2569150000     1.3547570000
| 25>  H        2.5906000000     1.5841900000     3.0375190000
| 26>  H        4.6608050000     2.1773280000     1.0750510000
| 27>  H        3.8385010000     3.2550140000     1.9831930000
| 28>  H        3.6937880000    -0.5117690000     3.1306480000
| 29>  H        4.6661090000    -0.0784180000     1.7105000000
| 30> *
| 31>
| 32>                          ****END OF INPUT****
 Total Charge           Charge          ....    0
 Multiplicity           Mult            ....    1
 Number of Electrons    NEL             ....   56
 Basis Dimension        Dim             ....  153

MULLIKEN ATOMIC CHARGES
-----------------------
   0 C :    0.063996
   1 C :   -0.012573
   2 C :    0.144889
   3 C :   -0.163906
   4 N :   -0.166450
   5 C :    0.288768
   6 O :   -0.342134
   7 H :    0.017001
   8 H :    0.018192
   9 H :    0.024114
  10 H :   -0.015156
  11 H :   -0.015982
  12 H :   -0.007717
  13 H :    0.002529
  14 H :    0.082339
  15 H :    0.089869
  16 H :    0.013561
  17 H :   -0.021342
Sum of atomic charges:   -0.0000000

LOEWDIN ATOMIC CHARGES
----------------------
   0 C :   -0.064634
   1 C :    0.042607
   2 C :   -0.064459
   3 C :   -0.014842
   4 N :   -0.091966
   5 C :    0.060966
   6 O :   -0.148431
   7 H :    0.031305
   8 H :    0.028022
   9 H :    0.031472
  10 H :    0.001131
  11 H :    0.019236
  12 H :    0.024729
  13 H :    0.022864
  14 H :    0.045284
  15 H :    0.051016
  16 H :    0.021557
  17 H :    0.004141

  Mayer bond orders larger than 0.1
B(  0-C ,  1-C ) :   1.1039 B(  0-C ,  7-H ) :   0.9525 B(  0-C ,  8-H ) :   0.9480
B(  0-C ,  9-H ) :   0.9511 B(  1-C ,  2-C ) :   1.0849 B(  1-C ,  6-O ) :   1.0058
B(  1-C , 10-H ) :   0.8940 B(  2-C ,  3-C ) :   1.0568 B(  2-C , 11-H ) :   0.9109
B(  2-C , 12-H ) :   0.8929 B(  3-C ,  4-N ) :   1.1091 B(  3-C ,  5-C ) :   1.0424
B(  3-C , 13-H ) :   0.9007 B(  4-N , 14-H ) :   0.9625 B(  4-N , 15-H ) :   0.9679
B(  5-C ,  6-O ) :   1.0437 B(  5-C , 16-H ) :   0.9382 B(  5-C , 17-H ) :   0.9131

FINAL SINGLE POINT ENERGY      -326.456350256814

DIPOLE MOMENT
-------------
                                X             Y             Z
Electronic contribution:      1.63688      -1.34927       2.12845
Nuclear contribution   :     -1.83233       2.00803      -2.52964
                        -----------------------------------------
Total Dipole Moment    :     -0.19545       0.65876      -0.40119
                        -----------------------------------------
Magnitude (a.u.)       :      0.79569
Magnitude (Debye)      :      2.02248

                             ****ORCA TERMINATED NORMALLY****
TOTAL RUN TIME: 0 days 0 hours 0 minutes 7 seconds 744 msec
