                         Program Version 3.0.3 - RELEASE   -
|  1> ! RI PBE def2-SVP def2-SVP/J NBO PAL2
|  2> % maxcore 2000
|  3> % output
|  4>     # printlevel mini
|  5>     print[ P_Basis ] 0
|  6>     print[ P_SCFInfo ] 1
|  7>     print[ P_SCFIterInfo ] 1
|  8>     print[ P_OrbEn ] 0
|  9>     print[ P_Cartesian ] 0
| 10> end
| 11> *xyz 0 1
| 12>  C        0.8495950000    -0.0840350000    -0.0225040000
| 13>  C        2.3398120000    -0.0934350000    -0.0267400000
| 14>  C        3.1729160000     0.9963210000    -0.0265720000
| 15>  O        2.9426270000     2.3299350000    -0.0228660000
| 16>  N        4.4642550000     0.5813570000    -0.0312120000
| 17>  C        4.4959240000    -0.7921560000    -0.0345040000
| 18>  C        3.2032810000    -1.2308770000    -0.0318200000
| 19>  H        0.4450940000     0.9333810000    -0.0196680000
| 20>  H        0.4406600000    -0.5862910000     0.8592100000
| 21>  H        0.4357320000    -0.5832790000    -0.9036230000
| 22>  H        1.9924850000     2.4717690000    -0.0191020000
| 23>  H        5.2548760000     1.1991560000    -0.0320240000
| 24>  H        5.4294870000    -1.3292550000    -0.0384400000
| 25>  H        2.8907680000    -2.2642810000    -0.0333260000
| 26> *
| 27>
| 28>                          ****END OF INPUT****
 Total Charge           Charge          ....    0
 Multiplicity           Mult            ....    1
 Number of Electrons    NEL             ....   52
 Basis Dimension        Dim             ....  133

MULLIKEN ATOMIC CHARGES
-----------------------
   0 C :    0.075125
   1 C :   -0.156389
   2 C :    0.048600
   3 O :   -0.157825
   4 N :   -0.060408
   5 C :    0.039817
   6 C :   -0.055928
   7 H :   -0.023243
   8 H :    0.030099
   9 H :    0.030109
  10 H :    0.172658
  11 H :    0.111247
  12 H :   -0.017331
  13 H :   -0.036532
Sum of atomic charges:    0.0000000

LOEWDIN ATOMIC CHARGES
----------------------
   0 C :   -0.057872
   1 C :   -0.146037
   2 C :    0.008453
   3 O :   -0.041961
   4 N :    0.081481
   5 C :   -0.051043
   6 C :   -0.085226
   7 H :    0.017087
   8 H :    0.034065
   9 H :    0.034080
  10 H :    0.089655
  11 H :    0.082409
  12 H :    0.014873
  13 H :    0.020036

  Mayer bond orders larger than 0.1
B(  0-C ,  1-C ) :   1.1127 B(  0-C ,  7-H ) :   0.9421 B(  0-C ,  8-H ) :   0.9458
B(  0-C ,  9-H ) :   0.9458 B(  1-C ,  2-C ) :   1.4233 B(  1-C ,  6-C ) :   1.2824
B(  2-C ,  3-O ) :   1.2381 B(  2-C ,  4-N ) :   1.2169 B(  3-O , 10-H ) :   0.9645
B(  4-N ,  5-C ) :   1.1687 B(  4-N , 11-H ) :   0.9343 B(  5-C ,  6-C ) :   1.4966
B(  5-C , 12-H ) :   0.9888 B(  6-C , 13-H ) :   1.0146

FINAL SINGLE POINT ENERGY      -324.078056171582

DIPOLE MOMENT
-------------
                                X             Y             Z
Electronic contribution:      4.13898       2.62615      -0.00583
Nuclear contribution   :     -4.13280      -2.20026       0.00713
                        -----------------------------------------
Total Dipole Moment    :      0.00617       0.42590       0.00131
                        -----------------------------------------
Magnitude (a.u.)       :      0.42595
Magnitude (Debye)      :      1.08267

                             ****ORCA TERMINATED NORMALLY****
TOTAL RUN TIME: 0 days 0 hours 0 minutes 6 seconds 506 msec
