                         Program Version 3.0.3 - RELEASE   -
|  1> ! RI PBE def2-SVP def2-SVP/J NBO PAL2
|  2> % maxcore 2000
|  3> % output
|  4>     # printlevel mini
|  5>     print[ P_Basis ] 0
|  6>     print[ P_SCFInfo ] 1
|  7>     print[ P_SCFIterInfo ] 1
|  8>     print[ P_OrbEn ] 0
|  9>     print[ P_Cartesian ] 0
| 10> end
| 11> *xyz 0 1
| 12>  C        1.0155850000     0.0394300000     0.0017500000
| 13>  C        2.4943710000     0.1349350000     0.0072260000
| 14>  C        3.3774240000     1.2074560000     0.0097420000
| 15>  C        4.6527190000     0.6383700000     0.0149240000
| 16>  N        4.5867810000    -0.6942920000     0.0156300000
| 17>  N        3.2960580000    -0.9395510000     0.0109920000
| 18>  O        2.8549050000    -2.2277390000     0.0102140000
| 19>  H        0.5833730000     1.0392460000    -0.0003590000
| 20>  H        0.6464180000    -0.4933400000     0.8817430000
| 21>  H        0.6529990000    -0.4942010000    -0.8804570000
| 22>  H        3.1120340000     2.2520960000     0.0079550000
| 23>  H        5.6164570000     1.1231450000     0.0182190000
| 24>  H        3.6820680000    -2.7307560000     0.0146220000
| 25> *
| 26>
| 27>                          ****END OF INPUT****
 Total Charge           Charge          ....    0
 Multiplicity           Mult            ....    1
 Number of Electrons    NEL             ....   52
 Basis Dimension        Dim             ....  128

MULLIKEN ATOMIC CHARGES
-----------------------
   0 C :    0.098920
   1 C :   -0.004988
   2 C :   -0.118839
   3 C :    0.040456
   4 N :   -0.121982
   5 N :   -0.013270
   6 O :   -0.130827
   7 H :    0.021090
   8 H :    0.042104
   9 H :    0.042057
  10 H :   -0.019573
  11 H :   -0.007837
  12 H :    0.172689
Sum of atomic charges:   -0.0000000

LOEWDIN ATOMIC CHARGES
----------------------
   0 C :   -0.059288
   1 C :   -0.045583
   2 C :   -0.108967
   3 C :   -0.054122
   4 N :   -0.124425
   5 N :    0.175261
   6 O :   -0.037829
   7 H :    0.043175
   8 H :    0.043175
   9 H :    0.043171
  10 H :    0.026357
  11 H :    0.019026
  12 H :    0.080050

  Mayer bond orders larger than 0.1
B(  0-C ,  1-C ) :   1.1312 B(  0-C ,  7-H ) :   0.9366 B(  0-C ,  8-H ) :   0.9355
B(  0-C ,  9-H ) :   0.9354 B(  1-C ,  2-C ) :   1.3867 B(  1-C ,  4-N ) :   0.1072
B(  1-C ,  5-N ) :   1.2225 B(  2-C ,  3-C ) :   1.3633 B(  2-C , 10-H ) :   0.9905
B(  3-C ,  4-N ) :   1.4753 B(  3-C , 11-H ) :   0.9848 B(  4-N ,  5-N ) :   1.2053
B(  5-N ,  6-O ) :   0.9926 B(  6-O , 12-H ) :   0.9496

FINAL SINGLE POINT ENERGY      -340.043820237201

DIPOLE MOMENT
-------------
                                X             Y             Z
Electronic contribution:      3.88158      -2.61824       0.01618
Nuclear contribution   :     -4.32186       2.54567      -0.01719
                        -----------------------------------------
Total Dipole Moment    :     -0.44028      -0.07258      -0.00101
                        -----------------------------------------
Magnitude (a.u.)       :      0.44622
Magnitude (Debye)      :      1.13421

                             ****ORCA TERMINATED NORMALLY****
TOTAL RUN TIME: 0 days 0 hours 0 minutes 6 seconds 380 msec
