                         Program Version 3.0.3 - RELEASE   -
|  1> ! RI PBE def2-SVP def2-SVP/J NBO PAL2
|  2> % maxcore 2000
|  3> % output
|  4>     # printlevel mini
|  5>     print[ P_Basis ] 0
|  6>     print[ P_SCFInfo ] 1
|  7>     print[ P_SCFIterInfo ] 1
|  8>     print[ P_OrbEn ] 0
|  9>     print[ P_Cartesian ] 0
| 10> end
| 11> *xyz 0 1
| 12>  C        1.0153280000    -0.0918170000     0.0818110000
| 13>  C        2.4845870000     0.0769440000     0.0880500000
| 14>  C        3.2906100000     1.1649780000     0.0907810000
| 15>  C        4.6015590000     0.6082780000     0.0968370000
| 16>  N        5.7788910000     1.2850550000     0.1013640000
| 17>  N        4.5687530000    -0.7013830000     0.0976130000
| 18>  O        3.2197140000    -1.0346010000     0.0919950000
| 19>  H        0.5232150000     0.8798750000     0.0789670000
| 20>  H        0.6869070000    -0.6485660000     0.9627660000
| 21>  H        0.6945490000    -0.6498590000    -0.8011400000
| 22>  H        3.0014280000     2.2029180000     0.0887890000
| 23>  H        5.7977090000     2.2836760000     0.1014850000
| 24>  H        6.6420490000     0.7767920000     0.1059720000
| 25> *
| 26>
| 27>                          ****END OF INPUT****
 Total Charge           Charge          ....    0
 Multiplicity           Mult            ....    1
 Number of Electrons    NEL             ....   52
 Basis Dimension        Dim             ....  128

MULLIKEN ATOMIC CHARGES
-----------------------
   0 C :    0.099016
   1 C :    0.023017
   2 C :   -0.107408
   3 C :   -0.038704
   4 N :   -0.032537
   5 N :   -0.084331
   6 O :   -0.173383
   7 H :    0.021978
   8 H :    0.047797
   9 H :    0.047748
  10 H :   -0.027439
  11 H :    0.109219
  12 H :    0.115028
Sum of atomic charges:   -0.0000000

LOEWDIN ATOMIC CHARGES
----------------------
   0 C :   -0.061952
   1 C :    0.014372
   2 C :   -0.141663
   3 C :   -0.029990
   4 N :   -0.002554
   5 N :   -0.114410
   6 O :    0.023605
   7 H :    0.042635
   8 H :    0.047475
   9 H :    0.047471
  10 H :    0.026478
  11 H :    0.073614
  12 H :    0.074917

  Mayer bond orders larger than 0.1
B(  0-C ,  1-C ) :   1.1194 B(  0-C ,  7-H ) :   0.9439 B(  0-C ,  8-H ) :   0.9332
B(  0-C ,  9-H ) :   0.9332 B(  1-C ,  2-C ) :   1.5254 B(  1-C ,  6-O ) :   1.1891
B(  2-C ,  3-C ) :   1.1621 B(  2-C , 10-H ) :   0.9835 B(  3-C ,  4-N ) :   1.2576
B(  3-C ,  5-N ) :   1.5871 B(  4-N , 11-H ) :   0.9417 B(  4-N , 12-H ) :   0.9447
B(  5-N ,  6-O ) :   0.9567

FINAL SINGLE POINT ENERGY      -340.071671300290

DIPOLE MOMENT
-------------
                                X             Y             Z
Electronic contribution:      3.66905      -2.24166       0.01718
Nuclear contribution   :     -3.84043       3.51722      -0.01806
                        -----------------------------------------
Total Dipole Moment    :     -0.17138       1.27556      -0.00088
                        -----------------------------------------
Magnitude (a.u.)       :      1.28702
Magnitude (Debye)      :      3.27134

                             ****ORCA TERMINATED NORMALLY****
TOTAL RUN TIME: 0 days 0 hours 0 minutes 6 seconds 659 msec
