                         Program Version 3.0.3 - RELEASE   -
|  1> ! RI PBE def2-SVP def2-SVP/J NBO PAL2
|  2> % maxcore 2000
|  3> % output
|  4>     # printlevel mini
|  5>     print[ P_Basis ] 0
|  6>     print[ P_SCFInfo ] 1
|  7>     print[ P_SCFIterInfo ] 1
|  8>     print[ P_OrbEn ] 0
|  9>     print[ P_Cartesian ] 0
| 10> end
| 11> *xyz 0 1
| 12>  C        0.9751160000     0.0036850000     0.0489010000
| 13>  C        2.4755590000     0.0745580000    -0.0280640000
| 14>  C        3.1346390000     1.2886330000     0.6168080000
| 15>  C        4.4349060000     0.7137940000     1.1301270000
| 16>  N        5.4421030000     1.2467920000     1.6799850000
| 17>  N        4.3753970000    -0.6474380000     0.8651750000
| 18>  O        3.0191130000    -1.0199630000     0.7058080000
| 19>  H        0.5317340000     0.8167350000    -0.5297200000
| 20>  H        0.6384760000     0.0877020000     1.0843990000
| 21>  H        0.6132730000    -0.9415040000    -0.3594870000
| 22>  H        2.8154290000    -0.0101780000    -1.0702600000
| 23>  H        2.5497730000     1.6517860000     1.4677470000
| 24>  H        3.2976140000     2.1176560000    -0.0723340000
| 25>  H        5.3397020000     2.2560500000     1.7218390000
| 26>  H        4.8011770000    -1.2556010000     1.5517760000
| 27> *
| 28>
| 29>                          ****END OF INPUT****
 Total Charge           Charge          ....    0
 Multiplicity           Mult            ....    1
 Number of Electrons    NEL             ....   54
 Basis Dimension        Dim             ....  138

MULLIKEN ATOMIC CHARGES
-----------------------
   0 C :    0.035038
   1 C :    0.046375
   2 C :    0.098194
   3 C :   -0.190673
   4 N :   -0.087083
   5 N :    0.031969
   6 O :   -0.310114
   7 H :    0.030484
   8 H :    0.022619
   9 H :    0.035985
  10 H :    0.011660
  11 H :    0.023626
  12 H :    0.038185
  13 H :    0.086604
  14 H :    0.127132
Sum of atomic charges:   -0.0000000

LOEWDIN ATOMIC CHARGES
----------------------
   0 C :   -0.063303
   1 C :    0.044633
   2 C :   -0.069476
   3 C :   -0.016452
   4 N :   -0.159940
   5 N :    0.068501
   6 O :   -0.126356
   7 H :    0.037032
   8 H :    0.029415
   9 H :    0.036385
  10 H :    0.012336
  11 H :    0.042079
  12 H :    0.042167
  13 H :    0.051006
  14 H :    0.071971

  Mayer bond orders larger than 0.1
B(  0-C ,  1-C ) :   1.0941 B(  0-C ,  7-H ) :   0.9550 B(  0-C ,  8-H ) :   0.9526
B(  0-C ,  9-H ) :   0.9528 B(  1-C ,  2-C ) :   1.0628 B(  1-C ,  6-O ) :   0.9787
B(  1-C , 10-H ) :   0.9176 B(  2-C ,  3-C ) :   0.9790 B(  2-C , 11-H ) :   0.8752
B(  2-C , 12-H ) :   0.9169 B(  3-C ,  4-N ) :   2.0109 B(  3-C ,  5-N ) :   1.1253
B(  4-N , 13-H ) :   0.9257 B(  5-N ,  6-O ) :   0.9258 B(  5-N , 14-H ) :   0.9338

FINAL SINGLE POINT ENERGY      -341.239049417170

DIPOLE MOMENT
-------------
                                X             Y             Z
Electronic contribution:      5.18851      -2.30360       1.61992
Nuclear contribution   :     -6.08175       2.77696      -1.83201
                        -----------------------------------------
Total Dipole Moment    :     -0.89323       0.47335      -0.21209
                        -----------------------------------------
Magnitude (a.u.)       :      1.03292
Magnitude (Debye)      :      2.62546

                             ****ORCA TERMINATED NORMALLY****
TOTAL RUN TIME: 0 days 0 hours 0 minutes 7 seconds 42 msec
