                         Program Version 3.0.3 - RELEASE   -
|  1> ! RI PBE def2-SVP def2-SVP/J NBO PAL2
|  2> % maxcore 2000
|  3> % output
|  4>     # printlevel mini
|  5>     print[ P_Basis ] 0
|  6>     print[ P_SCFInfo ] 1
|  7>     print[ P_SCFIterInfo ] 1
|  8>     print[ P_OrbEn ] 0
|  9>     print[ P_Cartesian ] 0
| 10> end
| 11> *xyz 0 1
| 12>  C        0.8834060000    -0.0211170000    -0.0788050000
| 13>  C        2.3742280000    -0.0054550000    -0.1062760000
| 14>  C        3.1760690000     1.1071510000    -0.2165860000
| 15>  N        4.4675890000     0.6762210000    -0.2015370000
| 16>  O        5.5528390000     1.4927450000    -0.3517750000
| 17>  C        4.5352990000    -0.6747300000    -0.0997970000
| 18>  C        3.2399290000    -1.1278490000    -0.0322250000
| 19>  H        0.4778150000     0.9893980000    -0.1546090000
| 20>  H        0.5033680000    -0.4619630000     0.8471500000
| 21>  H        0.4734480000    -0.6052110000    -0.9075850000
| 22>  H        2.9437100000     2.1551460000    -0.3149020000
| 23>  H        5.8043490000     1.7610210000     0.5411220000
| 24>  H        5.4852850000    -1.1829320000    -0.0934820000
| 25>  H        2.9428460000    -2.1620950000     0.0549070000
| 26> *
| 27>
| 28>                          ****END OF INPUT****
 Total Charge           Charge          ....    0
 Multiplicity           Mult            ....    1
 Number of Electrons    NEL             ....   52
 Basis Dimension        Dim             ....  133

MULLIKEN ATOMIC CHARGES
-----------------------
   0 C :    0.083976
   1 C :   -0.094828
   2 C :    0.024475
   3 N :   -0.034627
   4 O :   -0.175264
   5 C :    0.070908
   6 C :   -0.064327
   7 H :    0.005134
   8 H :    0.024644
   9 H :    0.028486
  10 H :   -0.018209
  11 H :    0.189547
  12 H :   -0.008081
  13 H :   -0.031834
Sum of atomic charges:   -0.0000000

LOEWDIN ATOMIC CHARGES
----------------------
   0 C :   -0.056484
   1 C :   -0.082374
   2 C :   -0.059175
   3 N :    0.135505
   4 O :   -0.044244
   5 C :   -0.047065
   6 C :   -0.090496
   7 H :    0.030402
   8 H :    0.033362
   9 H :    0.034658
  10 H :    0.018291
  11 H :    0.085288
  12 H :    0.020367
  13 H :    0.021965

  Mayer bond orders larger than 0.1
B(  0-C ,  1-C ) :   1.1053 B(  0-C ,  7-H ) :   0.9509 B(  0-C ,  8-H ) :   0.9472
B(  0-C ,  9-H ) :   0.9465 B(  1-C ,  2-C ) :   1.4412 B(  1-C ,  6-C ) :   1.3417
B(  2-C ,  3-N ) :   1.1802 B(  2-C , 10-H ) :   0.9903 B(  3-N ,  4-O ) :   0.9350
B(  3-N ,  5-C ) :   1.2140 B(  4-O , 11-H ) :   0.9693 B(  5-C ,  6-C ) :   1.4235
B(  5-C , 12-H ) :   0.9855 B(  6-C , 13-H ) :   1.0080

FINAL SINGLE POINT ENERGY      -324.019011293296

DIPOLE MOMENT
-------------
                                X             Y             Z
Electronic contribution:      5.82968       1.53603      -0.42933
Nuclear contribution   :     -5.53516      -1.21929       0.97790
                        -----------------------------------------
Total Dipole Moment    :      0.29452       0.31673       0.54857
                        -----------------------------------------
Magnitude (a.u.)       :      0.69856
Magnitude (Debye)      :      1.77560

                             ****ORCA TERMINATED NORMALLY****
TOTAL RUN TIME: 0 days 0 hours 0 minutes 5 seconds 895 msec
