                         Program Version 3.0.3 - RELEASE   -
|  1> ! RI PBE def2-SVP def2-SVP/J NBO PAL2
|  2> % maxcore 2000
|  3> % output
|  4>     # printlevel mini
|  5>     print[ P_Basis ] 0
|  6>     print[ P_SCFInfo ] 1
|  7>     print[ P_SCFIterInfo ] 1
|  8>     print[ P_OrbEn ] 0
|  9>     print[ P_Cartesian ] 0
| 10> end
| 11> *xyz 0 1
| 12>  C        1.0585490000    -0.0073830000     0.0188450000
| 13>  C        2.5417110000     0.0623230000     0.0134200000
| 14>  C        3.2561640000     1.1838580000     0.0224910000
| 15>  C        4.7027120000     1.0947980000     0.0154990000
| 16>  N        5.3736070000     0.0114590000     0.0012090000
| 17>  O        4.6958760000    -1.1767070000    -0.0085820000
| 18>  C        3.2611790000    -1.2454090000    -0.0036750000
| 19>  H        0.6100730000     0.9863480000     0.0313710000
| 20>  H        0.6993930000    -0.5632640000     0.8922620000
| 21>  H        0.6920890000    -0.5444300000    -0.8632800000
| 22>  H        2.7848040000     2.1597620000     0.0349470000
| 23>  H        5.3154500000     1.9898730000     0.0224740000
| 24>  H        2.9706520000    -1.8414120000     0.8734420000
| 25>  H        2.9636230000    -1.8222170000    -0.8912140000
| 26> *
| 27>
| 28>                          ****END OF INPUT****
 Total Charge           Charge          ....    0
 Multiplicity           Mult            ....    1
 Number of Electrons    NEL             ....   52
 Basis Dimension        Dim             ....  133

MULLIKEN ATOMIC CHARGES
-----------------------
   0 C :    0.063337
   1 C :   -0.229643
   2 C :    0.020188
   3 C :   -0.053891
   4 N :    0.055120
   5 O :   -0.280784
   6 C :    0.282938
   7 H :    0.024801
   8 H :    0.038371
   9 H :    0.038210
  10 H :   -0.018669
  11 H :    0.011850
  12 H :    0.024242
  13 H :    0.023930
Sum of atomic charges:   -0.0000000

LOEWDIN ATOMIC CHARGES
----------------------
   0 C :   -0.050425
   1 C :   -0.028358
   2 C :   -0.074137
   3 C :   -0.066746
   4 N :    0.013147
   5 O :   -0.085192
   6 C :    0.063415
   7 H :    0.036557
   8 H :    0.041900
   9 H :    0.041867
  10 H :    0.030818
  11 H :    0.030994
  12 H :    0.023118
  13 H :    0.023042

  Mayer bond orders larger than 0.1
B(  0-C ,  1-C ) :   1.1065 B(  0-C ,  7-H ) :   0.9509 B(  0-C ,  8-H ) :   0.9383
B(  0-C ,  9-H ) :   0.9383 B(  1-C ,  2-C ) :   1.7902 B(  1-C ,  6-C ) :   1.0411
B(  2-C ,  3-C ) :   1.0263 B(  2-C , 10-H ) :   0.9717 B(  3-C ,  4-N ) :   1.8829
B(  3-C ,  5-O ) :   0.1246 B(  3-C , 11-H ) :   0.9574 B(  4-N ,  5-O ) :   0.9899
B(  5-O ,  6-C ) :   0.9375 B(  6-C , 12-H ) :   0.9215 B(  6-C , 13-H ) :   0.9215

FINAL SINGLE POINT ENERGY      -323.999584549650

DIPOLE MOMENT
-------------
                                X             Y             Z
Electronic contribution:      6.83661      -0.32646      -0.03085
Nuclear contribution   :     -8.22867       0.67938       0.04078
                        -----------------------------------------
Total Dipole Moment    :     -1.39207       0.35292       0.00994
                        -----------------------------------------
Magnitude (a.u.)       :      1.43614
Magnitude (Debye)      :      3.65038

                             ****ORCA TERMINATED NORMALLY****
TOTAL RUN TIME: 0 days 0 hours 0 minutes 7 seconds 117 msec
