                         Program Version 3.0.3 - RELEASE   -
|  1> ! RI PBE def2-SVP def2-SVP/J NBO PAL2
|  2> % maxcore 2000
|  3> % output
|  4>     # printlevel mini
|  5>     print[ P_Basis ] 0
|  6>     print[ P_SCFInfo ] 1
|  7>     print[ P_SCFIterInfo ] 1
|  8>     print[ P_OrbEn ] 0
|  9>     print[ P_Cartesian ] 0
| 10> end
| 11> *xyz 0 1
| 12>  C        1.0292170000     0.1502700000     0.0232370000
| 13>  C        2.5142230000     0.0681460000    -0.0040120000
| 14>  N        3.2530290000     1.1797720000    -0.0648340000
| 15>  N        4.4958720000     0.7479970000    -0.0471380000
| 16>  O        5.5272510000     1.6268030000    -0.1551490000
| 17>  C        4.6309100000    -0.5811760000     0.0065960000
| 18>  C        3.3382860000    -1.0683780000     0.0314810000
| 19>  H        0.7129250000     1.1881200000    -0.0801050000
| 20>  H        0.6249820000    -0.2400370000     0.9608890000
| 21>  H        0.5857520000    -0.4274800000    -0.7912620000
| 22>  H        5.2455590000     2.3821120000     0.3787720000
| 23>  H        5.5995820000    -1.0518550000     0.0209550000
| 24>  H        3.0399220000    -2.1032930000     0.0753710000
| 25> *
| 26>
| 27>                          ****END OF INPUT****
 Total Charge           Charge          ....    0
 Multiplicity           Mult            ....    1
 Number of Electrons    NEL             ....   52
 Basis Dimension        Dim             ....  128

MULLIKEN ATOMIC CHARGES
-----------------------
   0 C :    0.094448
   1 C :   -0.120979
   2 N :   -0.113602
   3 N :    0.012287
   4 O :   -0.144026
   5 C :    0.122383
   6 C :   -0.089537
   7 H :    0.020658
   8 H :    0.029087
   9 H :    0.029781
  10 H :    0.180777
  11 H :   -0.000868
  12 H :   -0.020408
Sum of atomic charges:   -0.0000000

LOEWDIN ATOMIC CHARGES
----------------------
   0 C :   -0.063147
   1 C :   -0.059371
   2 N :   -0.124074
   3 N :    0.170289
   4 O :   -0.036519
   5 C :   -0.031882
   6 C :   -0.105124
   7 H :    0.037692
   8 H :    0.036947
   9 H :    0.037897
  10 H :    0.082416
  11 H :    0.028276
  12 H :    0.026599

  Mayer bond orders larger than 0.1
B(  0-C ,  1-C ) :   1.1081 B(  0-C ,  7-H ) :   0.9414 B(  0-C ,  8-H ) :   0.9454
B(  0-C ,  9-H ) :   0.9456 B(  1-C ,  2-N ) :   1.4900 B(  1-C ,  6-C ) :   1.3535
B(  2-N ,  3-N ) :   1.1807 B(  2-N ,  5-C ) :   0.1230 B(  3-N ,  4-O ) :   0.9675
B(  3-N ,  5-C ) :   1.2395 B(  4-O , 10-H ) :   0.9566 B(  5-C ,  6-C ) :   1.3793
B(  5-C , 11-H ) :   0.9800 B(  6-C , 12-H ) :   0.9913

FINAL SINGLE POINT ENERGY      -340.041854385487

DIPOLE MOMENT
-------------
                                X             Y             Z
Electronic contribution:      5.44218       2.13802      -0.31667
Nuclear contribution   :     -5.28671      -2.25334       0.68781
                        -----------------------------------------
Total Dipole Moment    :      0.15547      -0.11532       0.37113
                        -----------------------------------------
Magnitude (a.u.)       :      0.41858
Magnitude (Debye)      :      1.06394

                             ****ORCA TERMINATED NORMALLY****
TOTAL RUN TIME: 0 days 0 hours 0 minutes 5 seconds 733 msec
