                         Program Version 3.0.3 - RELEASE   -
|  1> ! RI PBE def2-SVP def2-SVP/J NBO PAL2
|  2> % maxcore 2000
|  3> % output
|  4>     # printlevel mini
|  5>     print[ P_Basis ] 0
|  6>     print[ P_SCFInfo ] 1
|  7>     print[ P_SCFIterInfo ] 1
|  8>     print[ P_OrbEn ] 0
|  9>     print[ P_Cartesian ] 0
| 10> end
| 11> *xyz 0 1
| 12>  C        0.8731960000     0.0228770000    -0.0120650000
| 13>  C        2.3524870000     0.1371620000    -0.0078790000
| 14>  C        3.1609680000     1.2269350000    -0.0062100000
| 15>  C        4.5246350000     0.7613080000    -0.0021770000
| 16>  N        5.6812920000     1.2747520000     0.0007800000
| 17>  O        4.4567730000    -0.6344050000    -0.0015940000
| 18>  N        3.1244070000    -0.9610230000    -0.0045880000
| 19>  H        0.4229390000     1.0137290000    -0.0157030000
| 20>  H        0.5196810000    -0.5135590000     0.8721720000
| 21>  H        0.5249410000    -0.5176640000    -0.8958870000
| 22>  H        2.8537620000     2.2585540000    -0.0076570000
| 23>  H        5.6128410000     2.2860920000     0.0001210000
| 24>  H        2.9202770000    -1.9406580000    -0.0065130000
| 25> *
| 26>
| 27>                          ****END OF INPUT****
 Total Charge           Charge          ....    0
 Multiplicity           Mult            ....    1
 Number of Electrons    NEL             ....   52
 Basis Dimension        Dim             ....  128

MULLIKEN ATOMIC CHARGES
-----------------------
   0 C :    0.089451
   1 C :    0.002074
   2 C :   -0.174267
   3 C :    0.044223
   4 N :   -0.102583
   5 O :   -0.202762
   6 N :    0.028502
   7 H :    0.033133
   8 H :    0.046363
   9 H :    0.046191
  10 H :   -0.021366
  11 H :    0.084094
  12 H :    0.126946
Sum of atomic charges:   -0.0000000

LOEWDIN ATOMIC CHARGES
----------------------
   0 C :   -0.056284
   1 C :   -0.002916
   2 C :   -0.157597
   3 C :    0.011740
   4 N :   -0.186726
   5 O :   -0.028631
   6 N :    0.123681
   7 H :    0.048700
   8 H :    0.044752
   9 H :    0.044687
  10 H :    0.028955
  11 H :    0.051119
  12 H :    0.078520

  Mayer bond orders larger than 0.1
B(  0-C ,  1-C ) :   1.1021 B(  0-C ,  7-H ) :   0.9368 B(  0-C ,  8-H ) :   0.9404
B(  0-C ,  9-H ) :   0.9404 B(  1-C ,  2-C ) :   1.4914 B(  1-C ,  6-N ) :   1.1996
B(  2-C ,  3-C ) :   1.0849 B(  2-C ,  6-N ) :   0.1256 B(  2-C , 10-H ) :   0.9993
B(  3-C ,  4-N ) :   1.9512 B(  3-C ,  5-O ) :   0.9632 B(  4-N , 11-H ) :   0.9266
B(  5-O ,  6-N ) :   0.9757 B(  6-N , 12-H ) :   0.9574

FINAL SINGLE POINT ENERGY      -340.038877103849

DIPOLE MOMENT
-------------
                                X             Y             Z
Electronic contribution:      5.28315      -1.58719       0.01641
Nuclear contribution   :     -7.34642       1.11309      -0.02294
                        -----------------------------------------
Total Dipole Moment    :     -2.06327      -0.47410      -0.00653
                        -----------------------------------------
Magnitude (a.u.)       :      2.11705
Magnitude (Debye)      :      5.38111

                             ****ORCA TERMINATED NORMALLY****
TOTAL RUN TIME: 0 days 0 hours 0 minutes 6 seconds 331 msec
