                         Program Version 3.0.3 - RELEASE   -
|  1> ! RI PBE def2-SVP def2-SVP/J NBO PAL2
|  2> % maxcore 2000
|  3> % output
|  4>     # printlevel mini
|  5>     print[ P_Basis ] 0
|  6>     print[ P_SCFInfo ] 1
|  7>     print[ P_SCFIterInfo ] 1
|  8>     print[ P_OrbEn ] 0
|  9>     print[ P_Cartesian ] 0
| 10> end
| 11> *xyz 0 1
| 12>  C        1.0444500000    -0.0555190000     0.2364890000
| 13>  C        2.5363080000     0.0946540000     0.0528470000
| 14>  C        3.2676400000     1.1718270000     0.8844920000
| 15>  C        4.1141670000     0.0025990000     1.3862040000
| 16>  O        3.2772950000    -0.9489820000     0.7027550000
| 17>  C        2.8741580000     0.1582650000    -1.3780950000
| 18>  N        3.1372180000     0.2284830000    -2.4951900000
| 19>  H        0.8158270000    -0.0882720000     1.3025520000
| 20>  H        0.6992670000    -0.9807050000    -0.2279980000
| 21>  H        0.5156990000     0.7829690000    -0.2216850000
| 22>  H        2.6216080000     1.6224080000     1.6369100000
| 23>  H        3.7815820000     1.9479120000     0.3220690000
| 24>  H        4.1236520000    -0.1732570000     2.4639130000
| 25>  H        5.1383210000    -0.0191810000     1.0028470000
| 26> *
| 27>
| 28>                          ****END OF INPUT****
 Total Charge           Charge          ....    0
 Multiplicity           Mult            ....    1
 Number of Electrons    NEL             ....   52
 Basis Dimension        Dim             ....  133

MULLIKEN ATOMIC CHARGES
-----------------------
   0 C :    0.093464
   1 C :   -0.212654
   2 C :    0.027920
   3 C :    0.195926
   4 O :   -0.311787
   5 C :   -0.101362
   6 N :    0.060838
   7 H :    0.024739
   8 H :    0.049005
   9 H :    0.041873
  10 H :    0.026560
  11 H :    0.043194
  12 H :    0.032178
  13 H :    0.030106
Sum of atomic charges:    0.0000000

LOEWDIN ATOMIC CHARGES
----------------------
   0 C :   -0.045392
   1 C :    0.008994
   2 C :   -0.025915
   3 C :    0.091415
   4 O :   -0.151482
   5 C :   -0.045834
   6 N :   -0.054696
   7 H :    0.033408
   8 H :    0.043614
   9 H :    0.042125
  10 H :    0.033385
  11 H :    0.035446
  12 H :    0.017344
  13 H :    0.017590

  Mayer bond orders larger than 0.1
B(  0-C ,  1-C ) :   1.0580 B(  0-C ,  7-H ) :   0.9410 B(  0-C ,  8-H ) :   0.9495
B(  0-C ,  9-H ) :   0.9470 B(  1-C ,  2-C ) :   1.1037 B(  1-C ,  4-O ) :   1.1275
B(  1-C ,  5-C ) :   0.9543 B(  2-C ,  3-C ) :   1.0961 B(  2-C , 10-H ) :   0.9249
B(  2-C , 11-H ) :   0.9399 B(  3-C ,  4-O ) :   1.0029 B(  3-C , 12-H ) :   0.9446
B(  3-C , 13-H ) :   0.9389 B(  5-C ,  6-N ) :   3.0926

FINAL SINGLE POINT ENERGY      -324.022442071556

DIPOLE MOMENT
-------------
                                X             Y             Z
Electronic contribution:      2.04188      -1.75546      -4.67561
Nuclear contribution   :     -2.35257       2.37167       6.10291
                        -----------------------------------------
Total Dipole Moment    :     -0.31069       0.61621       1.42730
                        -----------------------------------------
Magnitude (a.u.)       :      1.58538
Magnitude (Debye)      :      4.02972

                             ****ORCA TERMINATED NORMALLY****
TOTAL RUN TIME: 0 days 0 hours 0 minutes 6 seconds 600 msec
