                         Program Version 3.0.3 - RELEASE   -
|  1> ! RI PBE def2-SVP def2-SVP/J NBO PAL2
|  2> % maxcore 2000
|  3> % output
|  4>     # printlevel mini
|  5>     print[ P_Basis ] 0
|  6>     print[ P_SCFInfo ] 1
|  7>     print[ P_SCFIterInfo ] 1
|  8>     print[ P_OrbEn ] 0
|  9>     print[ P_Cartesian ] 0
| 10> end
| 11> *xyz 0 1
| 12>  C        1.0155760000    -0.0962400000     0.1808590000
| 13>  C        2.4865800000     0.0612810000    -0.0687290000
| 14>  C        3.2790670000     1.0617410000     0.7827020000
| 15>  C        4.1538940000    -0.1530200000     1.1325000000
| 16>  O        3.2632610000    -1.0425300000     0.4633250000
| 17>  C        5.4946660000    -0.1405520000     0.5444520000
| 18>  N        6.5493320000    -0.1094880000     0.0878380000
| 19>  H        0.4749030000     0.7746570000    -0.1995800000
| 20>  H        0.8106190000    -0.1982500000     1.2487990000
| 21>  H        0.6348130000    -0.9824560000    -0.3314000000
| 22>  H        2.6885920000     0.1667620000    -1.1409390000
| 23>  H        2.7266760000     1.4448160000     1.6401990000
| 24>  H        3.7720840000     1.8780550000     0.2598810000
| 25>  H        4.2492380000    -0.3917650000     2.1961930000
| 26> *
| 27>
| 28>                          ****END OF INPUT****
 Total Charge           Charge          ....    0
 Multiplicity           Mult            ....    1
 Number of Electrons    NEL             ....   52
 Basis Dimension        Dim             ....  133

MULLIKEN ATOMIC CHARGES
-----------------------
   0 C :    0.057212
   1 C :    0.030541
   2 C :    0.046032
   3 C :    0.029709
   4 O :   -0.314010
   5 C :   -0.144976
   6 N :    0.060789
   7 H :    0.031814
   8 H :    0.015752
   9 H :    0.042324
  10 H :    0.026100
  11 H :    0.023753
  12 H :    0.042484
  13 H :    0.052476
Sum of atomic charges:   -0.0000000

LOEWDIN ATOMIC CHARGES
----------------------
   0 C :   -0.069386
   1 C :    0.071915
   2 C :   -0.024853
   3 C :    0.045615
   4 O :   -0.153820
   5 C :   -0.055214
   6 N :   -0.049174
   7 H :    0.038174
   8 H :    0.028391
   9 H :    0.039676
  10 H :    0.019149
  11 H :    0.034089
  12 H :    0.035390
  13 H :    0.040048

  Mayer bond orders larger than 0.1
B(  0-C ,  1-C ) :   1.1052 B(  0-C ,  7-H ) :   0.9481 B(  0-C ,  8-H ) :   0.9465
B(  0-C ,  9-H ) :   0.9514 B(  1-C ,  2-C ) :   1.0631 B(  1-C ,  4-O ) :   0.9965
B(  1-C , 10-H ) :   0.9188 B(  2-C ,  3-C ) :   1.1270 B(  2-C , 11-H ) :   0.9189
B(  2-C , 12-H ) :   0.9398 B(  3-C ,  4-O ) :   1.1277 B(  3-C ,  5-C ) :   1.0169
B(  3-C , 13-H ) :   0.8835 B(  5-C ,  6-N ) :   3.0710

FINAL SINGLE POINT ENERGY      -324.023809999373

DIPOLE MOMENT
-------------
                                X             Y             Z
Electronic contribution:      8.25091      -2.26827      -0.05629
Nuclear contribution   :     -9.70774       2.96338       0.52071
                        -----------------------------------------
Total Dipole Moment    :     -1.45683       0.69510       0.46442
                        -----------------------------------------
Magnitude (a.u.)       :      1.67964
Magnitude (Debye)      :      4.26931

                             ****ORCA TERMINATED NORMALLY****
TOTAL RUN TIME: 0 days 0 hours 0 minutes 6 seconds 638 msec
