                         Program Version 3.0.3 - RELEASE   -
|  1> ! RI PBE def2-SVP def2-SVP/J NBO PAL2
|  2> % maxcore 2000
|  3> % output
|  4>     # printlevel mini
|  5>     print[ P_Basis ] 0
|  6>     print[ P_SCFInfo ] 1
|  7>     print[ P_SCFIterInfo ] 1
|  8>     print[ P_OrbEn ] 0
|  9>     print[ P_Cartesian ] 0
| 10> end
| 11> *xyz 0 1
| 12>  C        0.8287870000    -0.1578070000    -0.0301680000
| 13>  C        2.3165320000    -0.1086620000    -0.0306170000
| 14>  C        3.1163300000     0.9953110000    -0.0332210000
| 15>  N        2.8603580000     2.3338230000    -0.0360480000
| 16>  O        4.4205080000     0.6611090000    -0.0327460000
| 17>  C        4.4793100000    -0.7077010000    -0.0297300000
| 18>  C        3.2313400000    -1.2149140000    -0.0283960000
| 19>  H        0.3924150000     0.8441770000    -0.0317920000
| 20>  H        0.4373200000    -0.6743110000     0.8518400000
| 21>  H        0.4368480000    -0.6774050000    -0.9101500000
| 22>  H        1.9202250000     2.6711810000    -0.0376000000
| 23>  H        3.6176340000     2.9873440000    -0.0382880000
| 24>  H        5.4670330000    -1.1339910000    -0.0289530000
| 25>  H        2.9724600000    -2.2630550000    -0.0260410000
| 26> *
| 27>
| 28>                          ****END OF INPUT****
 Total Charge           Charge          ....    0
 Multiplicity           Mult            ....    1
 Number of Electrons    NEL             ....   52
 Basis Dimension        Dim             ....  133

MULLIKEN ATOMIC CHARGES
-----------------------
   0 C :    0.084175
   1 C :   -0.160319
   2 C :    0.042505
   3 N :   -0.049589
   4 O :   -0.194899
   5 C :    0.095240
   6 C :   -0.044052
   7 H :   -0.011010
   8 H :    0.025538
   9 H :    0.025596
  10 H :    0.108325
  11 H :    0.119016
  12 H :   -0.013823
  13 H :   -0.026702
Sum of atomic charges:   -0.0000000

LOEWDIN ATOMIC CHARGES
----------------------
   0 C :   -0.057671
   1 C :   -0.150648
   2 C :    0.032601
   3 N :   -0.013051
   4 O :    0.001155
   5 C :   -0.013274
   6 C :   -0.076532
   7 H :    0.023341
   8 H :    0.032829
   9 H :    0.032828
  10 H :    0.073358
  11 H :    0.074931
  12 H :    0.014107
  13 H :    0.026027

  Mayer bond orders larger than 0.1
B(  0-C ,  1-C ) :   1.1263 B(  0-C ,  7-H ) :   0.9463 B(  0-C ,  8-H ) :   0.9431
B(  0-C ,  9-H ) :   0.9432 B(  1-C ,  2-C ) :   1.4821 B(  1-C ,  6-C ) :   1.2094
B(  2-C ,  3-N ) :   1.2401 B(  2-C ,  4-O ) :   1.1747 B(  3-N , 10-H ) :   0.9521
B(  3-N , 11-H ) :   0.9377 B(  4-O ,  5-C ) :   1.0731 B(  5-C ,  6-C ) :   1.5466
B(  5-C , 12-H ) :   1.0081 B(  6-C , 13-H ) :   1.0085

FINAL SINGLE POINT ENERGY      -324.065926775861

DIPOLE MOMENT
-------------
                                X             Y             Z
Electronic contribution:      5.21572       1.10349      -0.00322
Nuclear contribution   :     -5.55802      -0.41404       0.00084
                        -----------------------------------------
Total Dipole Moment    :     -0.34229       0.68945      -0.00239
                        -----------------------------------------
Magnitude (a.u.)       :      0.76975
Magnitude (Debye)      :      1.95654

                             ****ORCA TERMINATED NORMALLY****
TOTAL RUN TIME: 0 days 0 hours 0 minutes 6 seconds 672 msec
