                         Program Version 3.0.3 - RELEASE   -
|  1> ! RI PBE def2-SVP def2-SVP/J NBO PAL2
|  2> % maxcore 2000
|  3> % output
|  4>     # printlevel mini
|  5>     print[ P_Basis ] 0
|  6>     print[ P_SCFInfo ] 1
|  7>     print[ P_SCFIterInfo ] 1
|  8>     print[ P_OrbEn ] 0
|  9>     print[ P_Cartesian ] 0
| 10> end
| 11> *xyz 0 1
| 12>  C        0.7918550000    -0.0424470000    -0.0111340000
| 13>  C        2.2996950000    -0.0334250000    -0.0495250000
| 14>  C        3.0794970000     1.0292310000     0.7525090000
| 15>  C        4.1469230000    -0.0370370000     1.0604770000
| 16>  O        5.1465920000    -0.1090130000     0.0636800000
| 17>  C        3.0854990000    -1.1053220000     0.7574310000
| 18>  N        3.5566090000    -2.3449190000     0.2130950000
| 19>  H        0.3692390000     0.8324800000    -0.5134180000
| 20>  H        0.4264080000    -0.0407540000     1.0208320000
| 21>  H        0.3864270000    -0.9303580000    -0.5061060000
| 22>  H        2.6614570000    -0.0413400000    -1.0820410000
| 23>  H        2.5419180000     1.3292820000     1.6563710000
| 24>  H        3.4191270000     1.9238540000     0.2264380000
| 25>  H        4.5960000000    -0.0456350000     2.0599160000
| 26>  H        5.7048380000     0.6681970000     0.1387700000
| 27>  H        2.5317050000    -1.3075790000     1.6821690000
| 28>  H        4.1711700000    -2.1673490000    -0.5717080000
| 29>  H        2.7916310000    -2.9268670000    -0.1025770000
| 30> *
| 31>
| 32>                          ****END OF INPUT****
 Total Charge           Charge          ....    0
 Multiplicity           Mult            ....    1
 Number of Electrons    NEL             ....   56
 Basis Dimension        Dim             ....  153

MULLIKEN ATOMIC CHARGES
-----------------------
   0 C :    0.073121
   1 C :   -0.129806
   2 C :    0.095135
   3 C :    0.060050
   4 O :   -0.260397
   5 C :   -0.044274
   6 N :   -0.125673
   7 H :    0.019059
   8 H :    0.002559
   9 H :    0.011021
  10 H :   -0.011769
  11 H :   -0.001152
  12 H :   -0.006240
  13 H :   -0.009922
  14 H :    0.157659
  15 H :   -0.007594
  16 H :    0.090209
  17 H :    0.088013
Sum of atomic charges:   -0.0000000

LOEWDIN ATOMIC CHARGES
----------------------
   0 C :   -0.065955
   1 C :   -0.056026
   2 C :   -0.046600
   3 C :    0.052434
   4 O :   -0.111530
   5 C :   -0.005563
   6 N :   -0.087991
   7 H :    0.027325
   8 H :    0.021057
   9 H :    0.024527
  10 H :    0.019943
  11 H :    0.023226
  12 H :    0.014800
  13 H :   -0.004410
  14 H :    0.071566
  15 H :    0.020970
  16 H :    0.049747
  17 H :    0.052479

  Mayer bond orders larger than 0.1
B(  0-C ,  1-C ) :   1.1087 B(  0-C ,  7-H ) :   0.9571 B(  0-C ,  8-H ) :   0.9495
B(  0-C ,  9-H ) :   0.9552 B(  1-C ,  2-C ) :   1.0750 B(  1-C ,  5-C ) :   0.9843
B(  1-C , 10-H ) :   0.8780 B(  2-C ,  3-C ) :   1.0741 B(  2-C , 11-H ) :   0.9105
B(  2-C , 12-H ) :   0.9059 B(  3-C ,  4-O ) :   1.0917 B(  3-C ,  5-C ) :   1.0225
B(  3-C , 13-H ) :   0.9184 B(  4-O , 14-H ) :   0.9805 B(  5-C ,  6-N ) :   1.1922
B(  5-C , 15-H ) :   0.9020 B(  6-N , 16-H ) :   0.9475 B(  6-N , 17-H ) :   0.9646

FINAL SINGLE POINT ENERGY      -326.438082493196

DIPOLE MOMENT
-------------
                                X             Y             Z
Electronic contribution:      4.99130      -0.96610       0.01036
Nuclear contribution   :     -5.15224       1.49361      -0.14105
                        -----------------------------------------
Total Dipole Moment    :     -0.16094       0.52752      -0.13069
                        -----------------------------------------
Magnitude (a.u.)       :      0.56679
Magnitude (Debye)      :      1.44068

                             ****ORCA TERMINATED NORMALLY****
TOTAL RUN TIME: 0 days 0 hours 0 minutes 8 seconds 57 msec
