                         Program Version 3.0.3 - RELEASE   -
|  1> ! RI PBE def2-SVP def2-SVP/J NBO PAL2
|  2> % maxcore 2000
|  3> % output
|  4>     # printlevel mini
|  5>     print[ P_Basis ] 0
|  6>     print[ P_SCFInfo ] 1
|  7>     print[ P_SCFIterInfo ] 1
|  8>     print[ P_OrbEn ] 0
|  9>     print[ P_Cartesian ] 0
| 10> end
| 11> *xyz 0 1
| 12>  C        1.0911140000     0.1268950000    -0.0197280000
| 13>  C        2.5542800000    -0.0324520000    -0.0189610000
| 14>  C        3.3158650000    -1.1323300000    -0.0195540000
| 15>  C        4.7111830000    -0.6669610000    -0.0181920000
| 16>  O        5.7461040000    -1.2776050000    -0.0181630000
| 17>  C        4.5570910000     0.8563790000    -0.0169000000
| 18>  N        3.3389690000     1.2016860000    -0.0172970000
| 19>  H        0.5743120000    -0.8316650000    -0.0208950000
| 20>  H        0.7844030000     0.7092920000    -0.8943910000
| 21>  H        0.7833130000     0.7077660000     0.8555630000
| 22>  H        3.0037690000    -2.1646010000    -0.0207480000
| 23>  H        5.3837980000     1.5600060000    -0.0157340000
| 24> *
| 25>
| 26>                          ****END OF INPUT****
 Total Charge           Charge          ....    0
 Multiplicity           Mult            ....    1
 Number of Electrons    NEL             ....   50
 Basis Dimension        Dim             ....  123

MULLIKEN ATOMIC CHARGES
-----------------------
   0 C :    0.115914
   1 C :   -0.088423
   2 C :   -0.045682
   3 C :    0.071667
   4 O :   -0.102358
   5 C :    0.028531
   6 N :   -0.112331
   7 H :    0.023518
   8 H :    0.051154
   9 H :    0.051141
  10 H :   -0.009262
  11 H :    0.016131
Sum of atomic charges:   -0.0000000

LOEWDIN ATOMIC CHARGES
----------------------
   0 C :   -0.057582
   1 C :    0.041514
   2 C :   -0.106410
   3 C :    0.030533
   4 O :   -0.068695
   5 C :    0.013629
   6 N :   -0.061445
   7 H :    0.038882
   8 H :    0.054663
   9 H :    0.054659
  10 H :    0.034504
  11 H :    0.025748

  Mayer bond orders larger than 0.1
B(  0-C ,  1-C ) :   1.1264 B(  0-C ,  7-H ) :   0.9451 B(  0-C ,  8-H ) :   0.9219
B(  0-C ,  9-H ) :   0.9219 B(  1-C ,  2-C ) :   1.6386 B(  1-C ,  6-N ) :   1.0491
B(  2-C ,  3-C ) :   0.9796 B(  2-C , 10-H ) :   1.0194 B(  3-C ,  4-O ) :   2.1461
B(  3-C ,  5-C ) :   0.8822 B(  5-C ,  6-N ) :   1.9348 B(  5-C , 11-H ) :   0.9690

FINAL SINGLE POINT ENERGY      -322.843000298089

DIPOLE MOMENT
-------------
                                X             Y             Z
Electronic contribution:      6.21809      -0.62344       0.00336
Nuclear contribution   :     -7.07159       0.65427      -0.00388
                        -----------------------------------------
Total Dipole Moment    :     -0.85350       0.03083      -0.00053
                        -----------------------------------------
Magnitude (a.u.)       :      0.85406
Magnitude (Debye)      :      2.17084

                             ****ORCA TERMINATED NORMALLY****
TOTAL RUN TIME: 0 days 0 hours 0 minutes 6 seconds 194 msec
