                         Program Version 3.0.3 - RELEASE   -
|  1> ! RI PBE def2-SVP def2-SVP/J NBO PAL2
|  2> % maxcore 2000
|  3> % output
|  4>     # printlevel mini
|  5>     print[ P_Basis ] 0
|  6>     print[ P_SCFInfo ] 1
|  7>     print[ P_SCFIterInfo ] 1
|  8>     print[ P_OrbEn ] 0
|  9>     print[ P_Cartesian ] 0
| 10> end
| 11> *xyz 0 1
| 12>  C        0.9015800000    -0.2056450000    -0.7495810000
| 13>  C        2.3795520000    -0.4280100000    -0.5760070000
| 14>  C        2.8492260000    -0.3848640000     0.8629390000
| 15>  C        4.3563260000    -0.3784630000     1.0710660000
| 16>  O        4.9725880000     0.7809180000     0.5751630000
| 17>  C        3.0758270000    -1.2519120000    -1.5854980000
| 18>  N        3.2772660000     0.1983470000    -1.5557540000
| 19>  H        0.3275060000    -0.9551830000    -0.1983520000
| 20>  H        0.6102470000    -0.2673290000    -1.8014940000
| 21>  H        0.6121830000     0.7786530000    -0.3698710000
| 22>  H        2.4157610000    -1.2415980000     1.3927880000
| 23>  H        2.4390330000     0.5176520000     1.3311600000
| 24>  H        4.8025320000    -1.2855530000     0.6336510000
| 25>  H        4.5631790000    -0.4191730000     2.1440010000
| 26>  H        4.6638170000     0.8578680000    -0.3434540000
| 27>  H        2.4812230000    -1.6682660000    -2.3924400000
| 28>  H        3.9466390000    -1.8389610000    -1.3169330000
| 29>  H        2.7501340000     0.6535100000    -2.2925750000
| 30> *
| 31>
| 32>                          ****END OF INPUT****
 Total Charge           Charge          ....    0
 Multiplicity           Mult            ....    1
 Number of Electrons    NEL             ....   56
 Basis Dimension        Dim             ....  153

MULLIKEN ATOMIC CHARGES
-----------------------
   0 C :    0.110002
   1 C :   -0.308410
   2 C :    0.079691
   3 C :    0.177891
   4 O :   -0.299042
   5 C :    0.071266
   6 N :   -0.204989
   7 H :    0.030158
   8 H :   -0.001311
   9 H :    0.025518
  10 H :    0.006464
  11 H :    0.008896
  12 H :   -0.021551
  13 H :   -0.000053
  14 H :    0.143957
  15 H :    0.029647
  16 H :    0.042008
  17 H :    0.109858
Sum of atomic charges:    0.0000000

LOEWDIN ATOMIC CHARGES
----------------------
   0 C :   -0.054293
   1 C :   -0.029003
   2 C :   -0.054769
   3 C :    0.053523
   4 O :   -0.137623
   5 C :    0.007643
   6 N :   -0.079503
   7 H :    0.036229
   8 H :    0.023994
   9 H :    0.031778
  10 H :    0.031184
  11 H :    0.028574
  12 H :   -0.002753
  13 H :    0.019369
  14 H :    0.030967
  15 H :    0.017775
  16 H :    0.021326
  17 H :    0.055581

  Mayer bond orders larger than 0.1
B(  0-C ,  1-C ) :   1.0936 B(  0-C ,  7-H ) :   0.9502 B(  0-C ,  8-H ) :   0.9359
B(  0-C ,  9-H ) :   0.9513 B(  1-C ,  2-C ) :   1.0331 B(  1-C ,  5-C ) :   1.0196
B(  1-C ,  6-N ) :   0.9519 B(  2-C ,  3-C ) :   1.0803 B(  2-C , 10-H ) :   0.9121
B(  2-C , 11-H ) :   0.9114 B(  3-C ,  4-O ) :   1.0933 B(  3-C , 12-H ) :   0.9172
B(  3-C , 13-H ) :   0.9311 B(  4-O , 14-H ) :   0.9456 B(  5-C ,  6-N ) :   0.9802
B(  5-C , 15-H ) :   0.9430 B(  5-C , 16-H ) :   0.9360 B(  6-N , 14-H ) :   0.1258
B(  6-N , 17-H ) :   0.9399

FINAL SINGLE POINT ENERGY      -326.433137606623

DIPOLE MOMENT
-------------
                                X             Y             Z
Electronic contribution:      3.49441       1.79025      -0.42714
Nuclear contribution   :     -4.65675      -2.36187      -0.19707
                        -----------------------------------------
Total Dipole Moment    :     -1.16233      -0.57161      -0.62420
                        -----------------------------------------
Magnitude (a.u.)       :      1.43784
Magnitude (Debye)      :      3.65470

                             ****ORCA TERMINATED NORMALLY****
TOTAL RUN TIME: 0 days 0 hours 0 minutes 8 seconds 62 msec
