                         Program Version 3.0.3 - RELEASE   -
|  1> ! RI PBE def2-SVP def2-SVP/J NBO PAL2
|  2> % maxcore 2000
|  3> % output
|  4>     # printlevel mini
|  5>     print[ P_Basis ] 0
|  6>     print[ P_SCFInfo ] 1
|  7>     print[ P_SCFIterInfo ] 1
|  8>     print[ P_OrbEn ] 0
|  9>     print[ P_Cartesian ] 0
| 10> end
| 11> *xyz 0 1
| 12>  C        0.9847850000     0.0654500000    -0.0313730000
| 13>  C        2.4881760000     0.0634870000     0.1043150000
| 14>  C        3.0797390000     1.2706030000     0.8353680000
| 15>  C        4.3644080000     0.7295880000     1.4342500000
| 16>  O        5.2644060000     1.3635670000     1.9117460000
| 17>  C        4.3011220000    -0.7886580000     1.3033880000
| 18>  N        2.9621990000    -1.1149790000     0.8431050000
| 19>  H        0.6457790000     0.9177330000    -0.6234900000
| 20>  H        0.5078620000     0.1322870000     0.9521780000
| 21>  H        0.6409200000    -0.8497010000    -0.5177420000
| 22>  H        2.9341090000     0.0112180000    -0.8978460000
| 23>  H        2.4261810000     1.5741230000     1.6635580000
| 24>  H        3.2716800000     2.1539150000     0.2246830000
| 25>  H        4.5623760000    -1.2807200000     2.2413460000
| 26>  H        5.0525540000    -1.0902670000     0.5614740000
| 27>  H        2.3556960000    -1.2600560000     1.6430620000
| 28> *
| 29>
| 30>                          ****END OF INPUT****
 Total Charge           Charge          ....    0
 Multiplicity           Mult            ....    1
 Number of Electrons    NEL             ....   54
 Basis Dimension        Dim             ....  143

MULLIKEN ATOMIC CHARGES
-----------------------
   0 C :    0.032002
   1 C :   -0.092582
   2 C :    0.089515
   3 C :   -0.126451
   4 O :   -0.141822
   5 C :    0.149878
   6 N :   -0.235889
   7 H :    0.030154
   8 H :    0.009928
   9 H :    0.033254
  10 H :    0.017763
  11 H :    0.030557
  12 H :    0.036039
  13 H :    0.034902
  14 H :    0.036500
  15 H :    0.096253
Sum of atomic charges:    0.0000000

LOEWDIN ATOMIC CHARGES
----------------------
   0 C :   -0.063186
   1 C :    0.001715
   2 C :   -0.080930
   3 C :    0.042773
   4 O :   -0.113587
   5 C :   -0.020555
   6 N :   -0.095953
   7 H :    0.034236
   8 H :    0.022614
   9 H :    0.032730
  10 H :    0.023002
  11 H :    0.046234
  12 H :    0.041230
  13 H :    0.038076
  14 H :    0.040227
  15 H :    0.051375

  Mayer bond orders larger than 0.1
B(  0-C ,  1-C ) :   1.1021 B(  0-C ,  7-H ) :   0.9595 B(  0-C ,  8-H ) :   0.9479
B(  0-C ,  9-H ) :   0.9549 B(  1-C ,  2-C ) :   1.0153 B(  1-C ,  6-N ) :   1.0478
B(  1-C , 10-H ) :   0.9058 B(  2-C ,  3-C ) :   0.9861 B(  2-C , 11-H ) :   0.8878
B(  2-C , 12-H ) :   0.9131 B(  3-C ,  4-O ) :   2.2183 B(  3-C ,  5-C ) :   0.9337
B(  5-C ,  6-N ) :   1.0663 B(  5-C , 13-H ) :   0.9325 B(  5-C , 14-H ) :   0.8965
B(  6-N , 15-H ) :   0.9441

FINAL SINGLE POINT ENERGY      -325.269100832396

DIPOLE MOMENT
-------------
                                X             Y             Z
Electronic contribution:      6.28321       1.42026       2.71143
Nuclear contribution   :     -7.16059      -1.62690      -2.85441
                        -----------------------------------------
Total Dipole Moment    :     -0.87738      -0.20664      -0.14298
                        -----------------------------------------
Magnitude (a.u.)       :      0.91265
Magnitude (Debye)      :      2.31978

                             ****ORCA TERMINATED NORMALLY****
TOTAL RUN TIME: 0 days 0 hours 0 minutes 6 seconds 545 msec
