                         Program Version 3.0.3 - RELEASE   -
|  1> ! RI PBE def2-SVP def2-SVP/J NBO PAL2
|  2> % maxcore 2000
|  3> % output
|  4>     # printlevel mini
|  5>     print[ P_Basis ] 0
|  6>     print[ P_SCFInfo ] 1
|  7>     print[ P_SCFIterInfo ] 1
|  8>     print[ P_OrbEn ] 0
|  9>     print[ P_Cartesian ] 0
| 10> end
| 11> *xyz 0 1
| 12>  C        0.9432400000     0.0397240000    -0.0384340000
| 13>  C        2.4515620000     0.0069500000     0.0260290000
| 14>  C        3.1013200000     1.1871340000     0.7506130000
| 15>  C        4.4983240000     0.6779290000     1.0663740000
| 16>  O        5.3500450000     1.0672280000     0.0004870000
| 17>  C        4.3126670000    -0.8597680000     1.1403280000
| 18>  N        2.9438580000    -1.1719410000     0.7383210000
| 19>  H        0.5957380000     0.9127820000    -0.5947200000
| 20>  H        0.5124210000     0.0932410000     0.9675270000
| 21>  H        0.5541660000    -0.8548230000    -0.5290740000
| 22>  H        2.8549420000    -0.0332990000    -0.9938110000
| 23>  H        2.5530740000     1.3844490000     1.6787330000
| 24>  H        3.1414930000     2.1110110000     0.1707680000
| 25>  H        4.8807040000     1.0859160000     2.0103380000
| 26>  H        6.2023470000     0.6408090000     0.1202770000
| 27>  H        4.5209210000    -1.2596430000     2.1353960000
| 28>  H        5.0226130000    -1.3231920000     0.4447470000
| 29>  H        2.3719570000    -1.3056870000     1.5648820000
| 30> *
| 31>
| 32>                          ****END OF INPUT****
 Total Charge           Charge          ....    0
 Multiplicity           Mult            ....    1
 Number of Electrons    NEL             ....   56
 Basis Dimension        Dim             ....  153

MULLIKEN ATOMIC CHARGES
-----------------------
   0 C :    0.050395
   1 C :   -0.073801
   2 C :    0.092359
   3 C :   -0.025779
   4 O :   -0.267355
   5 C :    0.189078
   6 N :   -0.248341
   7 H :    0.023151
   8 H :    0.002365
   9 H :    0.029851
  10 H :    0.013039
  11 H :   -0.009646
  12 H :    0.014599
  13 H :   -0.014818
  14 H :    0.153762
  15 H :   -0.001867
  16 H :   -0.015921
  17 H :    0.088928
Sum of atomic charges:   -0.0000000

LOEWDIN ATOMIC CHARGES
----------------------
   0 C :   -0.063387
   1 C :   -0.000151
   2 C :   -0.053641
   3 C :    0.033995
   4 O :   -0.119093
   5 C :   -0.002766
   6 N :   -0.098640
   7 H :    0.032587
   8 H :    0.019924
   9 H :    0.030906
  10 H :    0.021802
  11 H :    0.020777
  12 H :    0.029625
  13 H :    0.002198
  14 H :    0.065015
  15 H :    0.017823
  16 H :    0.015387
  17 H :    0.047639

  Mayer bond orders larger than 0.1
B(  0-C ,  1-C ) :   1.1065 B(  0-C ,  7-H ) :   0.9579 B(  0-C ,  8-H ) :   0.9445
B(  0-C ,  9-H ) :   0.9580 B(  1-C ,  2-C ) :   1.0242 B(  1-C ,  6-N ) :   1.0466
B(  1-C , 10-H ) :   0.9124 B(  2-C ,  3-C ) :   1.0933 B(  2-C , 11-H ) :   0.9114
B(  2-C , 12-H ) :   0.9129 B(  3-C ,  4-O ) :   1.0704 B(  3-C ,  5-C ) :   0.9927
B(  3-C , 13-H ) :   0.9162 B(  4-O , 14-H ) :   0.9791 B(  5-C ,  6-N ) :   1.1003
B(  5-C , 15-H ) :   0.9356 B(  5-C , 16-H ) :   0.9055 B(  6-N , 17-H ) :   0.9449

FINAL SINGLE POINT ENERGY      -326.455623850318

DIPOLE MOMENT
-------------
                                X             Y             Z
Electronic contribution:      4.03847       0.11240      -0.54950
Nuclear contribution   :     -3.93016      -0.13748       1.15523
                        -----------------------------------------
Total Dipole Moment    :      0.10831      -0.02508       0.60573
                        -----------------------------------------
Magnitude (a.u.)       :      0.61585
Magnitude (Debye)      :      1.56536

                             ****ORCA TERMINATED NORMALLY****
TOTAL RUN TIME: 0 days 0 hours 0 minutes 8 seconds 170 msec
