                         Program Version 3.0.3 - RELEASE   -
|  1> ! RI PBE def2-SVP def2-SVP/J NBO PAL2
|  2> % maxcore 2000
|  3> % output
|  4>     # printlevel mini
|  5>     print[ P_Basis ] 0
|  6>     print[ P_SCFInfo ] 1
|  7>     print[ P_SCFIterInfo ] 1
|  8>     print[ P_OrbEn ] 0
|  9>     print[ P_Cartesian ] 0
| 10> end
| 11> *xyz 0 1
| 12>  C        0.9102290000    -0.0207820000    -0.0768220000
| 13>  C        2.3933210000     0.0522070000    -0.0712900000
| 14>  C        3.2341600000     1.1434200000    -0.0675980000
| 15>  C        4.5634350000     0.6515550000    -0.0629190000
| 16>  O        5.7186180000     1.3695100000    -0.0582650000
| 17>  C        4.5086680000    -0.7164330000    -0.0638340000
| 18>  N        3.1760650000    -1.0575670000    -0.0689670000
| 19>  H        0.4899930000     0.9848760000    -0.0779210000
| 20>  H        0.5214070000    -0.5402930000     0.8050340000
| 21>  H        0.5279600000    -0.5394850000    -0.9620120000
| 22>  H        2.9216220000     2.1776800000    -0.0682210000
| 23>  H        5.4968130000     2.3028120000    -0.0585260000
| 24>  H        5.2944680000    -1.4522890000    -0.0613050000
| 25>  H        2.8311320000    -1.9994210000    -0.0707440000
| 26> *
| 27>
| 28>                          ****END OF INPUT****
 Total Charge           Charge          ....    0
 Multiplicity           Mult            ....    1
 Number of Electrons    NEL             ....   52
 Basis Dimension        Dim             ....  133

MULLIKEN ATOMIC CHARGES
-----------------------
   0 C :    0.092266
   1 C :   -0.085244
   2 C :   -0.123526
   3 C :    0.124893
   4 O :   -0.180127
   5 C :   -0.040812
   6 N :   -0.050674
   7 H :    0.016656
   8 H :    0.027889
   9 H :    0.027803
  10 H :   -0.053392
  11 H :    0.164947
  12 H :   -0.022243
  13 H :    0.101564
Sum of atomic charges:   -0.0000000

LOEWDIN ATOMIC CHARGES
----------------------
   0 C :   -0.065177
   1 C :   -0.040393
   2 C :   -0.142748
   3 C :   -0.017628
   4 O :   -0.047776
   5 C :   -0.086110
   6 N :    0.095632
   7 H :    0.041406
   8 H :    0.033486
   9 H :    0.033473
  10 H :    0.016603
  11 H :    0.084048
  12 H :    0.016707
  13 H :    0.078478

  Mayer bond orders larger than 0.1
B(  0-C ,  1-C ) :   1.1075 B(  0-C ,  7-H ) :   0.9413 B(  0-C ,  8-H ) :   0.9410
B(  0-C ,  9-H ) :   0.9410 B(  1-C ,  2-C ) :   1.4264 B(  1-C ,  5-C ) :   0.1125
B(  1-C ,  6-N ) :   1.2700 B(  2-C ,  3-C ) :   1.2519 B(  2-C , 10-H ) :   1.0084
B(  3-C ,  4-O ) :   1.1825 B(  3-C ,  5-C ) :   1.4570 B(  4-O , 11-H ) :   0.9749
B(  5-C ,  6-N ) :   1.1537 B(  5-C , 12-H ) :   0.9935 B(  6-N , 13-H ) :   0.9437

FINAL SINGLE POINT ENERGY      -324.076625455741

DIPOLE MOMENT
-------------
                                X             Y             Z
Electronic contribution:      5.38341       0.34149       0.02017
Nuclear contribution   :     -6.11012      -0.55901      -0.02289
                        -----------------------------------------
Total Dipole Moment    :     -0.72671      -0.21753      -0.00272
                        -----------------------------------------
Magnitude (a.u.)       :      0.75857
Magnitude (Debye)      :      1.92813

                             ****ORCA TERMINATED NORMALLY****
TOTAL RUN TIME: 0 days 0 hours 0 minutes 6 seconds 454 msec
