                         Program Version 3.0.3 - RELEASE   -
|  1> ! RI PBE def2-SVP def2-SVP/J NBO PAL2
|  2> % maxcore 2000
|  3> % output
|  4>     # printlevel mini
|  5>     print[ P_Basis ] 0
|  6>     print[ P_SCFInfo ] 1
|  7>     print[ P_SCFIterInfo ] 1
|  8>     print[ P_OrbEn ] 0
|  9>     print[ P_Cartesian ] 0
| 10> end
| 11> *xyz 0 1
| 12>  C        1.1022470000    -0.1853130000     0.2256420000
| 13>  C        2.5870830000    -0.1498570000     0.0169270000
| 14>  C        3.2971500000    -0.7697310000    -1.1535800000
| 15>  C        2.5624690000    -1.4320350000    -2.2530460000
| 16>  O        2.8501810000    -2.5163010000    -2.6856550000
| 17>  N        3.1318800000     0.6692260000    -1.0244400000
| 18>  C        4.3310370000     1.4217050000    -0.7300620000
| 19>  H        0.7979270000    -1.1270810000     0.6883440000
| 20>  H        0.5654130000    -0.0703030000    -0.7155950000
| 21>  H        0.7968710000     0.6291070000     0.8875390000
| 22>  H        3.1767240000    -0.2052520000     0.9338810000
| 23>  H        4.2725420000    -1.2039280000    -0.9415610000
| 24>  H        1.7123850000    -0.8498660000    -2.6648190000
| 25>  H        4.8747910000     1.6149940000    -1.6567410000
| 26>  H        5.0042240000     0.9009500000    -0.0320820000
| 27>  H        4.0520850000     2.3815740000    -0.2902820000
| 28> *
| 29>
| 30>                          ****END OF INPUT****
 Total Charge           Charge          ....    0
 Multiplicity           Mult            ....    1
 Number of Electrons    NEL             ....   54
 Basis Dimension        Dim             ....  143

MULLIKEN ATOMIC CHARGES
-----------------------
   0 C :    0.095584
   1 C :   -0.067589
   2 C :   -0.034496
   3 C :    0.175330
   4 O :   -0.160556
   5 N :   -0.273039
   6 C :    0.091226
   7 H :    0.032597
   8 H :    0.018003
   9 H :    0.030756
  10 H :    0.019544
  11 H :    0.019081
  12 H :   -0.018596
  13 H :    0.032970
  14 H :    0.006670
  15 H :    0.032516
Sum of atomic charges:   -0.0000000

LOEWDIN ATOMIC CHARGES
----------------------
   0 C :   -0.063634
   1 C :    0.017222
   2 C :   -0.035923
   3 C :    0.083111
   4 O :   -0.110946
   5 N :   -0.092213
   6 C :    0.005847
   7 H :    0.036312
   8 H :    0.032386
   9 H :    0.036157
  10 H :    0.016208
  11 H :    0.022435
  12 H :   -0.010597
  13 H :    0.028499
  14 H :    0.006711
  15 H :    0.028424

  Mayer bond orders larger than 0.1
B(  0-C ,  1-C ) :   1.1053 B(  0-C ,  7-H ) :   0.9535 B(  0-C ,  8-H ) :   0.9391
B(  0-C ,  9-H ) :   0.9500 B(  1-C ,  2-C ) :   0.9310 B(  1-C ,  5-N ) :   0.9424
B(  1-C , 10-H ) :   0.9220 B(  2-C ,  3-C ) :   1.0032 B(  2-C ,  5-N ) :   0.8615
B(  2-C , 11-H ) :   0.9265 B(  3-C ,  4-O ) :   2.1652 B(  3-C , 12-H ) :   0.9186
B(  5-N ,  6-C ) :   1.0190 B(  6-C , 13-H ) :   0.9701 B(  6-C , 14-H ) :   0.9417
B(  6-C , 15-H ) :   0.9691

FINAL SINGLE POINT ENERGY      -325.225661981584

DIPOLE MOMENT
-------------
                                X             Y             Z
Electronic contribution:      0.42803      -4.69344      -4.70819
Nuclear contribution   :     -0.29467       5.51106       5.61106
                        -----------------------------------------
Total Dipole Moment    :      0.13336       0.81761       0.90287
                        -----------------------------------------
Magnitude (a.u.)       :      1.22534
Magnitude (Debye)      :      3.11456

                             ****ORCA TERMINATED NORMALLY****
TOTAL RUN TIME: 0 days 0 hours 0 minutes 7 seconds 612 msec
