                         Program Version 3.0.3 - RELEASE   -
|  1> ! RI PBE def2-SVP def2-SVP/J NBO PAL2
|  2> % maxcore 2000
|  3> % output
|  4>     # printlevel mini
|  5>     print[ P_Basis ] 0
|  6>     print[ P_SCFInfo ] 1
|  7>     print[ P_SCFIterInfo ] 1
|  8>     print[ P_OrbEn ] 0
|  9>     print[ P_Cartesian ] 0
| 10> end
| 11> *xyz 0 1
| 12>  C        0.8795560000     0.0913520000    -0.0491840000
| 13>  C        2.3719740000    -0.0595800000    -0.0591000000
| 14>  C        3.1425060000    -0.9178210000    -0.9979690000
| 15>  C        2.5427910000    -1.6957930000    -2.1330780000
| 16>  O        3.2930350000    -1.5286720000    -3.3171200000
| 17>  N        3.1265800000     0.5285100000    -1.1473570000
| 18>  C        4.3415260000     1.2271930000    -0.7907680000
| 19>  H        0.4127360000    -0.6925450000     0.5531260000
| 20>  H        0.4660710000     0.0479930000    -1.0563420000
| 21>  H        0.6004290000     1.0561920000     0.3824890000
| 22>  H        2.8337170000     0.0361740000     0.9248450000
| 23>  H        4.0668570000    -1.3380240000    -0.6009580000
| 24>  H        1.4991860000    -1.3994640000    -2.2897890000
| 25>  H        2.5543510000    -2.7647030000    -1.9062360000
| 26>  H        3.3349640000    -0.5796530000    -3.4744690000
| 27>  H        5.0269980000     1.2299420000    -1.6414210000
| 28>  H        4.8610710000     0.7718580000     0.0666090000
| 29>  H        4.1059630000     2.2640310000    -0.5393760000
| 30> *
| 31>
| 32>                          ****END OF INPUT****
 Total Charge           Charge          ....    0
 Multiplicity           Mult            ....    1
 Number of Electrons    NEL             ....   56
 Basis Dimension        Dim             ....  153

MULLIKEN ATOMIC CHARGES
-----------------------
   0 C :    0.098606
   1 C :   -0.068814
   2 C :   -0.088880
   3 C :    0.302693
   4 O :   -0.298048
   5 N :   -0.300537
   6 C :    0.085573
   7 H :    0.025381
   8 H :    0.012228
   9 H :    0.019615
  10 H :    0.007185
  11 H :    0.009050
  12 H :   -0.022318
  13 H :    0.009121
  14 H :    0.151657
  15 H :    0.028909
  16 H :    0.001440
  17 H :    0.027139
Sum of atomic charges:   -0.0000000

LOEWDIN ATOMIC CHARGES
----------------------
   0 C :   -0.063245
   1 C :    0.002185
   2 C :   -0.020812
   3 C :    0.055350
   4 O :   -0.123793
   5 N :   -0.115988
   6 C :   -0.000236
   7 H :    0.032762
   8 H :    0.028030
   9 H :    0.032811
  10 H :    0.012688
  11 H :    0.012624
  12 H :    0.005942
  13 H :    0.023841
  14 H :    0.064740
  15 H :    0.023755
  16 H :    0.004452
  17 H :    0.024893

  Mayer bond orders larger than 0.1
B(  0-C ,  1-C ) :   1.0981 B(  0-C ,  7-H ) :   0.9550 B(  0-C ,  8-H ) :   0.9396
B(  0-C ,  9-H ) :   0.9472 B(  1-C ,  2-C ) :   0.9810 B(  1-C ,  5-N ) :   0.9415
B(  1-C , 10-H ) :   0.9205 B(  2-C ,  3-C ) :   1.0757 B(  2-C ,  5-N ) :   0.8756
B(  2-C , 11-H ) :   0.9249 B(  3-C ,  4-O ) :   1.0510 B(  3-C , 12-H ) :   0.9085
B(  3-C , 13-H ) :   0.9255 B(  4-O , 14-H ) :   0.9798 B(  5-N ,  6-C ) :   1.0241
B(  6-C , 15-H ) :   0.9711 B(  6-C , 16-H ) :   0.9402 B(  6-C , 17-H ) :   0.9695

FINAL SINGLE POINT ENERGY      -326.421465816190

DIPOLE MOMENT
-------------
                                X             Y             Z
Electronic contribution:      1.20918      -1.85932      -3.26724
Nuclear contribution   :     -1.24542       2.24443       3.95938
                        -----------------------------------------
Total Dipole Moment    :     -0.03624       0.38510       0.69214
                        -----------------------------------------
Magnitude (a.u.)       :      0.79289
Magnitude (Debye)      :      2.01537

                             ****ORCA TERMINATED NORMALLY****
TOTAL RUN TIME: 0 days 0 hours 0 minutes 7 seconds 930 msec
