                         Program Version 3.0.3 - RELEASE   -
|  1> ! RI PBE def2-SVP def2-SVP/J NBO PAL2
|  2> % maxcore 2000
|  3> % output
|  4>     # printlevel mini
|  5>     print[ P_Basis ] 0
|  6>     print[ P_SCFInfo ] 1
|  7>     print[ P_SCFIterInfo ] 1
|  8>     print[ P_OrbEn ] 0
|  9>     print[ P_Cartesian ] 0
| 10> end
| 11> *xyz 0 1
| 12>  C        0.9838070000     0.0912430000     0.1684580000
| 13>  C        2.4856310000     0.0326480000     0.0184020000
| 14>  C        3.3142680000     1.1543910000     0.6871820000
| 15>  C        3.9502120000     0.0355710000     1.5161910000
| 16>  O        4.8008510000    -0.0470330000     2.3615880000
| 17>  N        3.1708920000    -0.9028600000     0.9091610000
| 18>  C        3.1402570000    -2.3278560000     1.0196930000
| 19>  H        0.5716720000     0.8957180000    -0.4453910000
| 20>  H        0.7057470000     0.2740520000     1.2096050000
| 21>  H        0.5147660000    -0.8425840000    -0.1523240000
| 22>  H        2.7596250000    -0.1294100000    -1.0316620000
| 23>  H        2.7354480000     1.8704440000     1.2718030000
| 24>  H        4.0130810000     1.6828800000     0.0391170000
| 25>  H        3.8458330000    -2.6160950000     1.7998680000
| 26>  H        3.4384530000    -2.8095510000     0.0821910000
| 27>  H        2.1457770000    -2.6901780000     1.2970180000
| 28> *
| 29>
| 30>                          ****END OF INPUT****
 Total Charge           Charge          ....    0
 Multiplicity           Mult            ....    1
 Number of Electrons    NEL             ....   54
 Basis Dimension        Dim             ....  143

MULLIKEN ATOMIC CHARGES
-----------------------
   0 C :    0.056043
   1 C :   -0.036395
   2 C :    0.010682
   3 C :    0.064933
   4 O :   -0.183499
   5 N :   -0.273213
   6 C :    0.091890
   7 H :    0.032543
   8 H :    0.015827
   9 H :    0.026608
  10 H :    0.012168
  11 H :    0.029139
  12 H :    0.039965
  13 H :    0.051736
  14 H :    0.030194
  15 H :    0.031379
Sum of atomic charges:   -0.0000000

LOEWDIN ATOMIC CHARGES
----------------------
   0 C :   -0.068355
   1 C :    0.032976
   2 C :   -0.054234
   3 C :    0.016788
   4 O :   -0.174327
   5 N :   -0.034751
   6 C :    0.007698
   7 H :    0.035854
   8 H :    0.028816
   9 H :    0.029366
  10 H :    0.015732
  11 H :    0.035852
  12 H :    0.037638
  13 H :    0.041811
  14 H :    0.024750
  15 H :    0.024385

  Mayer bond orders larger than 0.1
B(  0-C ,  1-C ) :   1.0870 B(  0-C ,  7-H ) :   0.9563 B(  0-C ,  8-H ) :   0.9464
B(  0-C ,  9-H ) :   0.9565 B(  1-C ,  2-C ) :   1.0757 B(  1-C ,  5-N ) :   1.0133
B(  1-C , 10-H ) :   0.9135 B(  2-C ,  3-C ) :   0.9496 B(  2-C , 11-H ) :   0.9050
B(  2-C , 12-H ) :   0.9108 B(  3-C ,  4-O ) :   2.1435 B(  3-C ,  5-N ) :   1.1702
B(  4-O ,  5-N ) :   0.1102 B(  5-N ,  6-C ) :   0.9938 B(  6-C , 13-H ) :   0.9598
B(  6-C , 14-H ) :   0.9635 B(  6-C , 15-H ) :   0.9643

FINAL SINGLE POINT ENERGY      -325.279588265204

DIPOLE MOMENT
-------------
                                X             Y             Z
Electronic contribution:      5.76797       1.26400       3.31417
Nuclear contribution   :     -6.82462      -1.54108      -4.30176
                        -----------------------------------------
Total Dipole Moment    :     -1.05665      -0.27708      -0.98759
                        -----------------------------------------
Magnitude (a.u.)       :      1.47262
Magnitude (Debye)      :      3.74311

                             ****ORCA TERMINATED NORMALLY****
TOTAL RUN TIME: 0 days 0 hours 0 minutes 7 seconds 774 msec
