                         Program Version 3.0.3 - RELEASE   -
|  1> ! RI PBE def2-SVP def2-SVP/J NBO PAL2
|  2> % maxcore 2000
|  3> % output
|  4>     # printlevel mini
|  5>     print[ P_Basis ] 0
|  6>     print[ P_SCFInfo ] 1
|  7>     print[ P_SCFIterInfo ] 1
|  8>     print[ P_OrbEn ] 0
|  9>     print[ P_Cartesian ] 0
| 10> end
| 11> *xyz 0 1
| 12>  C        0.8669900000     0.0897320000     0.1764900000
| 13>  C        2.3644620000     0.0963780000    -0.0002110000
| 14>  C        3.1877520000     1.1678500000     0.7526810000
| 15>  C        3.8978570000     0.0010590000     1.4492300000
| 16>  O        4.8047770000    -0.1433830000     2.2226710000
| 17>  N        3.0916020000    -0.8902110000     0.8002520000
| 18>  N        3.0854130000    -2.2641360000     0.7035490000
| 19>  H        0.4093500000     0.9060540000    -0.3873410000
| 20>  H        0.5997230000     0.2038160000     1.2302930000
| 21>  H        0.4427500000    -0.8494640000    -0.1861790000
| 22>  H        2.6301270000     0.0313210000    -1.0615040000
| 23>  H        2.6111880000     1.8008500000     1.4275750000
| 24>  H        3.8462070000     1.7795010000     0.1368140000
| 25>  H        2.8129630000    -2.6725970000     1.5901990000
| 26>  H        4.0159500000    -2.5968790000     0.4740810000
| 27> *
| 28>
| 29>                          ****END OF INPUT****
 Total Charge           Charge          ....    0
 Multiplicity           Mult            ....    1
 Number of Electrons    NEL             ....   54
 Basis Dimension        Dim             ....  138

MULLIKEN ATOMIC CHARGES
-----------------------
   0 C :    0.061888
   1 C :   -0.021031
   2 C :    0.010570
   3 C :    0.052110
   4 O :   -0.173539
   5 N :   -0.258782
   6 N :   -0.050710
   7 H :    0.029628
   8 H :    0.007783
   9 H :    0.031541
  10 H :    0.013636
  11 H :    0.030323
  12 H :    0.039895
  13 H :    0.115768
  14 H :    0.110919
Sum of atomic charges:    0.0000000

LOEWDIN ATOMIC CHARGES
----------------------
   0 C :   -0.068158
   1 C :    0.031357
   2 C :   -0.057586
   3 C :    0.006188
   4 O :   -0.170904
   5 N :   -0.014749
   6 N :   -0.031814
   7 H :    0.033919
   8 H :    0.025987
   9 H :    0.032760
  10 H :    0.017105
  11 H :    0.036820
  12 H :    0.038085
  13 H :    0.061097
  14 H :    0.059892

  Mayer bond orders larger than 0.1
B(  0-C ,  1-C ) :   1.0946 B(  0-C ,  7-H ) :   0.9572 B(  0-C ,  8-H ) :   0.9450
B(  0-C ,  9-H ) :   0.9545 B(  1-C ,  2-C ) :   1.0753 B(  1-C ,  5-N ) :   0.9960
B(  1-C , 10-H ) :   0.9157 B(  2-C ,  3-C ) :   0.9357 B(  2-C , 11-H ) :   0.8999
B(  2-C , 12-H ) :   0.9098 B(  3-C ,  4-O ) :   2.1798 B(  3-C ,  5-N ) :   1.1581
B(  4-O ,  5-N ) :   0.1040 B(  5-N ,  6-N ) :   1.0196 B(  6-N , 13-H ) :   0.9651
B(  6-N , 14-H ) :   0.9653

FINAL SINGLE POINT ENERGY      -341.274587638584

DIPOLE MOMENT
-------------
                                X             Y             Z
Electronic contribution:      5.79713      -1.24246       2.98312
Nuclear contribution   :     -6.52923       1.04727      -3.58666
                        -----------------------------------------
Total Dipole Moment    :     -0.73210      -0.19519      -0.60354
                        -----------------------------------------
Magnitude (a.u.)       :      0.96867
Magnitude (Debye)      :      2.46217

                             ****ORCA TERMINATED NORMALLY****
TOTAL RUN TIME: 0 days 0 hours 0 minutes 7 seconds 113 msec
