                         Program Version 3.0.3 - RELEASE   -
|  1> ! RI PBE def2-SVP def2-SVP/J NBO PAL2
|  2> % maxcore 2000
|  3> % output
|  4>     # printlevel mini
|  5>     print[ P_Basis ] 0
|  6>     print[ P_SCFInfo ] 1
|  7>     print[ P_SCFIterInfo ] 1
|  8>     print[ P_OrbEn ] 0
|  9>     print[ P_Cartesian ] 0
| 10> end
| 11> *xyz 0 1
| 12>  C        0.9055640000    -0.0835420000     0.1546700000
| 13>  C        2.4014380000     0.0099110000     0.0025480000
| 14>  C        3.1642910000     1.1598930000     0.6971810000
| 15>  C        4.0396570000     0.0755870000     1.3423720000
| 16>  O        5.0522250000     0.0304530000     1.9751280000
| 17>  N        3.1803740000    -0.8846100000     0.8618390000
| 18>  O        3.4504340000    -2.2036840000     0.6038690000
| 19>  H        0.4105500000     0.6883030000    -0.4391870000
| 20>  H        0.6139270000     0.0429400000     1.2001240000
| 21>  H        0.5400060000    -1.0534340000    -0.1916530000
| 22>  H        2.6999620000    -0.0927820000    -1.0468800000
| 23>  H        2.5774420000     1.7439560000     1.4058190000
| 24>  H        3.7228230000     1.8186910000     0.0336240000
| 25>  H        3.0207970000    -2.7014930000     1.3090470000
| 26> *
| 27>
| 28>                          ****END OF INPUT****
 Total Charge           Charge          ....    0
 Multiplicity           Mult            ....    1
 Number of Electrons    NEL             ....   54
 Basis Dimension        Dim             ....  133

MULLIKEN ATOMIC CHARGES
-----------------------
   0 C :    0.065331
   1 C :   -0.030383
   2 C :    0.000808
   3 C :    0.069314
   4 O :   -0.146747
   5 N :   -0.142457
   6 O :   -0.176665
   7 H :    0.034501
   8 H :    0.011483
   9 H :    0.025795
  10 H :    0.019382
  11 H :    0.034949
  12 H :    0.046179
  13 H :    0.188511
Sum of atomic charges:   -0.0000000

LOEWDIN ATOMIC CHARGES
----------------------
   0 C :   -0.069575
   1 C :    0.024343
   2 C :   -0.053459
   3 C :    0.009760
   4 O :   -0.145722
   5 N :    0.013375
   6 O :   -0.057375
   7 H :    0.036364
   8 H :    0.027308
   9 H :    0.031050
  10 H :    0.020973
  11 H :    0.037479
  12 H :    0.041432
  13 H :    0.084049

  Mayer bond orders larger than 0.1
B(  0-C ,  1-C ) :   1.0943 B(  0-C ,  7-H ) :   0.9560 B(  0-C ,  8-H ) :   0.9456
B(  0-C ,  9-H ) :   0.9548 B(  1-C ,  2-C ) :   1.0722 B(  1-C ,  5-N ) :   0.9790
B(  1-C , 10-H ) :   0.9150 B(  2-C ,  3-C ) :   0.9353 B(  2-C , 11-H ) :   0.8998
B(  2-C , 12-H ) :   0.9108 B(  3-C ,  4-O ) :   2.2165 B(  3-C ,  5-N ) :   1.1178
B(  4-O ,  5-N ) :   0.1058 B(  5-N ,  6-O ) :   0.9360 B(  6-O , 13-H ) :   0.9702

FINAL SINGLE POINT ENERGY      -361.088977121318

DIPOLE MOMENT
-------------
                                X             Y             Z
Electronic contribution:      6.62661      -2.60107       2.76008
Nuclear contribution   :     -8.04179       2.52057      -3.18184
                        -----------------------------------------
Total Dipole Moment    :     -1.41518      -0.08050      -0.42176
                        -----------------------------------------
Magnitude (a.u.)       :      1.47889
Magnitude (Debye)      :      3.75903

                             ****ORCA TERMINATED NORMALLY****
TOTAL RUN TIME: 0 days 0 hours 0 minutes 6 seconds 479 msec
