                         Program Version 3.0.3 - RELEASE   -
|  1> ! RI PBE def2-SVP def2-SVP/J NBO PAL2
|  2> % maxcore 2000
|  3> % output
|  4>     # printlevel mini
|  5>     print[ P_Basis ] 0
|  6>     print[ P_SCFInfo ] 1
|  7>     print[ P_SCFIterInfo ] 1
|  8>     print[ P_OrbEn ] 0
|  9>     print[ P_Cartesian ] 0
| 10> end
| 11> *xyz 0 1
| 12>  C        0.8330460000    -0.0493660000    -0.3132930000
| 13>  C        2.1310920000     0.0724040000    -0.0377290000
| 14>  C        2.8363030000     1.3622600000     0.2416860000
| 15>  C        4.2588210000     1.2077300000    -0.2472800000
| 16>  O        4.9066950000     0.0981210000     0.3612320000
| 17>  N        4.2545660000    -1.1034230000     0.2853560000
| 18>  C        2.9956580000    -1.0946040000     0.0564380000
| 19>  H        0.1824280000     0.8158200000    -0.3728200000
| 20>  H        0.3843720000    -1.0222010000    -0.4818300000
| 21>  H        2.8431730000     1.5558780000     1.3199040000
| 22>  H        2.3438180000     2.2061630000    -0.2461950000
| 23>  H        4.8841540000     2.0654880000     0.0010710000
| 24>  H        4.2703610000     1.0614140000    -1.3357100000
| 25>  H        2.5562130000    -2.0861660000    -0.0105300000
| 26> *
| 27>
| 28>                          ****END OF INPUT****
 Total Charge           Charge          ....    0
 Multiplicity           Mult            ....    1
 Number of Electrons    NEL             ....   52
 Basis Dimension        Dim             ....  133

MULLIKEN ATOMIC CHARGES
-----------------------
   0 C :   -0.028454
   1 C :   -0.129427
   2 C :    0.079496
   3 C :    0.131097
   4 O :   -0.256352
   5 N :    0.044390
   6 C :   -0.019222
   7 H :    0.018900
   8 H :    0.021781
   9 H :    0.047524
  10 H :    0.016526
  11 H :    0.029445
  12 H :    0.036854
  13 H :    0.007442
Sum of atomic charges:   -0.0000000

LOEWDIN ATOMIC CHARGES
----------------------
   0 C :   -0.038031
   1 C :   -0.057477
   2 C :   -0.048943
   3 C :    0.053214
   4 O :   -0.075029
   5 N :    0.007058
   6 C :   -0.060658
   7 H :    0.025301
   8 H :    0.027431
   9 H :    0.044844
  10 H :    0.039154
  11 H :    0.029888
  12 H :    0.021116
  13 H :    0.032132

  Mayer bond orders larger than 0.1
B(  0-C ,  1-C ) :   1.9161 B(  0-C ,  5-N ) :   0.1040 B(  0-C ,  7-H ) :   0.9348
B(  0-C ,  8-H ) :   0.9346 B(  1-C ,  2-C ) :   1.0424 B(  1-C ,  6-C ) :   1.0587
B(  2-C ,  3-C ) :   1.0724 B(  2-C ,  9-H ) :   0.9069 B(  2-C , 10-H ) :   0.9104
B(  3-C ,  4-O ) :   0.9631 B(  3-C , 11-H ) :   0.9385 B(  3-C , 12-H ) :   0.9400
B(  4-O ,  5-N ) :   0.9897 B(  4-O ,  6-C ) :   0.1090 B(  5-N ,  6-C ) :   1.8437
B(  6-C , 13-H ) :   0.9603

FINAL SINGLE POINT ENERGY      -324.000781930538

DIPOLE MOMENT
-------------
                                X             Y             Z
Electronic contribution:      3.84248      -2.90736       1.09734
Nuclear contribution   :     -4.71654       3.71443      -1.39116
                        -----------------------------------------
Total Dipole Moment    :     -0.87407       0.80707      -0.29381
                        -----------------------------------------
Magnitude (a.u.)       :      1.22543
Magnitude (Debye)      :      3.11479

                             ****ORCA TERMINATED NORMALLY****
TOTAL RUN TIME: 0 days 0 hours 0 minutes 7 seconds 73 msec
