                         Program Version 3.0.3 - RELEASE   -
|  1> ! RI PBE def2-SVP def2-SVP/J NBO PAL2
|  2> % maxcore 2000
|  3> % output
|  4>     # printlevel mini
|  5>     print[ P_Basis ] 0
|  6>     print[ P_SCFInfo ] 1
|  7>     print[ P_SCFIterInfo ] 1
|  8>     print[ P_OrbEn ] 0
|  9>     print[ P_Cartesian ] 0
| 10> end
| 11> *xyz 0 1
| 12>  C        1.0481180000    -0.0530930000     0.0580570000
| 13>  C        2.5277940000    -0.1181020000    -0.0265160000
| 14>  C        3.3186320000    -1.1882320000    -0.1144640000
| 15>  C        4.7394030000    -0.7685690000    -0.1757510000
| 16>  O        5.7322080000    -1.4565690000    -0.2591090000
| 17>  N        4.7045790000     0.6003400000    -0.1173040000
| 18>  C        3.3746500000     1.1230850000    -0.0221390000
| 19>  H        0.6064540000    -1.0494310000     0.0413010000
| 20>  H        0.6318320000     0.5211790000    -0.7756760000
| 21>  H        0.7288290000     0.4487000000     0.9769990000
| 22>  H        3.0219930000    -2.2270480000    -0.1409430000
| 23>  H        5.5412060000     1.1543510000    -0.1407550000
| 24>  H        3.1168860000     1.7755110000    -0.8673630000
| 25>  H        3.2145150000     1.7026780000     0.8970640000
| 26> *
| 27>
| 28>                          ****END OF INPUT****
 Total Charge           Charge          ....    0
 Multiplicity           Mult            ....    1
 Number of Electrons    NEL             ....   52
 Basis Dimension        Dim             ....  133

MULLIKEN ATOMIC CHARGES
-----------------------
   0 C :    0.088081
   1 C :   -0.220206
   2 C :   -0.078393
   3 C :    0.109263
   4 O :   -0.191192
   5 N :   -0.196536
   6 C :    0.229052
   7 H :    0.027686
   8 H :    0.037191
   9 H :    0.035184
  10 H :   -0.019529
  11 H :    0.109736
  12 H :    0.035564
  13 H :    0.034099
Sum of atomic charges:   -0.0000000

LOEWDIN ATOMIC CHARGES
----------------------
   0 C :   -0.055797
   1 C :   -0.023869
   2 C :   -0.064624
   3 C :    0.014402
   4 O :   -0.190205
   5 N :   -0.010805
   6 C :    0.036221
   7 H :    0.039620
   8 H :    0.042077
   9 H :    0.041755
  10 H :    0.030931
  11 H :    0.071751
  12 H :    0.034402
  13 H :    0.034141

  Mayer bond orders larger than 0.1
B(  0-C ,  1-C ) :   1.1082 B(  0-C ,  7-H ) :   0.9513 B(  0-C ,  8-H ) :   0.9400
B(  0-C ,  9-H ) :   0.9397 B(  1-C ,  2-C ) :   1.7521 B(  1-C ,  6-C ) :   1.0214
B(  2-C ,  3-C ) :   0.9340 B(  2-C , 10-H ) :   1.0202 B(  3-C ,  4-O ) :   2.1288
B(  3-C ,  5-N ) :   1.1460 B(  5-N ,  6-C ) :   1.0266 B(  5-N , 11-H ) :   0.9282
B(  6-C , 12-H ) :   0.9073 B(  6-C , 13-H ) :   0.9073

FINAL SINGLE POINT ENERGY      -324.095270843389

DIPOLE MOMENT
-------------
                                X             Y             Z
Electronic contribution:      6.85720      -2.55291      -0.48633
Nuclear contribution   :     -8.14130       3.83391       0.60880
                        -----------------------------------------
Total Dipole Moment    :     -1.28410       1.28100       0.12246
                        -----------------------------------------
Magnitude (a.u.)       :      1.81793
Magnitude (Debye)      :      4.62080

                             ****ORCA TERMINATED NORMALLY****
TOTAL RUN TIME: 0 days 0 hours 0 minutes 7 seconds 151 msec
