                         Program Version 3.0.3 - RELEASE   -
|  1> ! RI PBE def2-SVP def2-SVP/J NBO PAL2
|  2> % maxcore 2000
|  3> % output
|  4>     # printlevel mini
|  5>     print[ P_Basis ] 0
|  6>     print[ P_SCFInfo ] 1
|  7>     print[ P_SCFIterInfo ] 1
|  8>     print[ P_OrbEn ] 0
|  9>     print[ P_Cartesian ] 0
| 10> end
| 11> *xyz 0 1
| 12>  C        0.9710850000     0.1240320000    -0.0432650000
| 13>  C        2.4456380000     0.0045190000    -0.0434880000
| 14>  C        3.2437910000    -1.0614620000    -0.0423180000
| 15>  C        4.6493630000    -0.5497810000    -0.0438320000
| 16>  O        5.6602200000    -1.1844980000    -0.0424970000
| 17>  N        4.6129170000     0.9028130000    -0.0445500000
| 18>  C        3.3733670000     1.1878740000    -0.0448990000
| 19>  H        0.4849890000    -0.8511010000    -0.0420320000
| 20>  H        0.6295060000     0.6816610000    -0.9214060000
| 21>  H        0.6299620000     0.6836500000     0.8337850000
| 22>  H        2.9898540000    -2.1107800000    -0.0408600000
| 23>  H        3.0237170000     2.2187730000    -0.0457470000
| 24> *
| 25>
| 26>                          ****END OF INPUT****
 Total Charge           Charge          ....    0
 Multiplicity           Mult            ....    1
 Number of Electrons    NEL             ....   50
 Basis Dimension        Dim             ....  123

MULLIKEN ATOMIC CHARGES
-----------------------
   0 C :    0.081143
   1 C :   -0.096865
   2 C :   -0.088202
   3 C :    0.110161
   4 O :   -0.074997
   5 N :   -0.128642
   6 C :    0.062549
   7 H :    0.034346
   8 H :    0.048150
   9 H :    0.048162
  10 H :   -0.004104
  11 H :    0.008298
Sum of atomic charges:   -0.0000000

LOEWDIN ATOMIC CHARGES
----------------------
   0 C :   -0.056316
   1 C :   -0.035496
   2 C :   -0.063841
   3 C :    0.055324
   4 O :   -0.049695
   5 N :   -0.101844
   6 C :    0.055596
   7 H :    0.041726
   8 H :    0.049593
   9 H :    0.049587
  10 H :    0.034246
  11 H :    0.021120

  Mayer bond orders larger than 0.1
B(  0-C ,  1-C ) :   1.1039 B(  0-C ,  7-H ) :   0.9520 B(  0-C ,  8-H ) :   0.9345
B(  0-C ,  9-H ) :   0.9345 B(  1-C ,  2-C ) :   1.6938 B(  1-C ,  6-C ) :   0.9565
B(  2-C ,  3-C ) :   0.9009 B(  2-C , 10-H ) :   1.0221 B(  3-C ,  4-O ) :   2.2034
B(  3-C ,  5-N ) :   1.0193 B(  5-N ,  6-C ) :   1.8936 B(  6-C , 11-H ) :   0.9802

FINAL SINGLE POINT ENERGY      -322.852464680285

DIPOLE MOMENT
-------------
                                X             Y             Z
Electronic contribution:      7.56455      -0.86692      -0.00155
Nuclear contribution   :     -9.42352       1.02788       0.00122
                        -----------------------------------------
Total Dipole Moment    :     -1.85897       0.16096      -0.00032
                        -----------------------------------------
Magnitude (a.u.)       :      1.86593
Magnitude (Debye)      :      4.74281

                             ****ORCA TERMINATED NORMALLY****
TOTAL RUN TIME: 0 days 0 hours 0 minutes 5 seconds 952 msec
