                         Program Version 3.0.3 - RELEASE   -
|  1> ! RI PBE def2-SVP def2-SVP/J NBO PAL2
|  2> % maxcore 2000
|  3> % output
|  4>     # printlevel mini
|  5>     print[ P_Basis ] 0
|  6>     print[ P_SCFInfo ] 1
|  7>     print[ P_SCFIterInfo ] 1
|  8>     print[ P_OrbEn ] 0
|  9>     print[ P_Cartesian ] 0
| 10> end
| 11> *xyz 0 1
| 12>  C        0.8587260000    -0.0993390000    -0.0402660000
| 13>  C        2.3460900000     0.0031400000    -0.0498450000
| 14>  C        3.0299200000     1.1413310000    -0.0637720000
| 15>  C        4.5168600000     1.1495600000    -0.0726310000
| 16>  O        5.1334200000    -0.1524270000    -0.0639840000
| 17>  N        4.4018110000    -1.3031640000    -0.0500180000
| 18>  C        3.1307330000    -1.2283410000    -0.0436590000
| 19>  H        0.3925180000     0.8865200000    -0.0459650000
| 20>  H        0.5101010000    -0.6396100000     0.8454220000
| 21>  H        0.4998360000    -0.6546190000    -0.9124720000
| 22>  H        2.5321130000     2.1065750000    -0.0692880000
| 23>  H        4.9052680000     1.6876700000     0.8023220000
| 24>  H        4.8948660000     1.6712130000    -0.9620090000
| 25>  H        2.6346580000    -2.1944090000    -0.0325250000
| 26> *
| 27>
| 28>                          ****END OF INPUT****
 Total Charge           Charge          ....    0
 Multiplicity           Mult            ....    1
 Number of Electrons    NEL             ....   52
 Basis Dimension        Dim             ....  133

MULLIKEN ATOMIC CHARGES
-----------------------
   0 C :    0.067635
   1 C :   -0.056298
   2 C :   -0.162836
   3 C :    0.273319
   4 O :   -0.279897
   5 N :    0.070807
   6 C :   -0.070976
   7 H :    0.018652
   8 H :    0.039680
   9 H :    0.039960
  10 H :   -0.002408
  11 H :    0.029789
  12 H :    0.029384
  13 H :    0.003190
Sum of atomic charges:    0.0000000

LOEWDIN ATOMIC CHARGES
----------------------
   0 C :   -0.050432
   1 C :   -0.065956
   2 C :   -0.041221
   3 C :    0.062718
   4 O :   -0.084234
   5 N :    0.022972
   6 C :   -0.066944
   7 H :    0.033520
   8 H :    0.041145
   9 H :    0.041190
  10 H :    0.030100
  11 H :    0.023915
  12 H :    0.023794
  13 H :    0.029433

  Mayer bond orders larger than 0.1
B(  0-C ,  1-C ) :   1.0868 B(  0-C ,  7-H ) :   0.9530 B(  0-C ,  8-H ) :   0.9449
B(  0-C ,  9-H ) :   0.9449 B(  1-C ,  2-C ) :   1.8303 B(  1-C ,  6-C ) :   1.0002
B(  2-C ,  3-C ) :   1.0456 B(  2-C , 10-H ) :   0.9509 B(  3-C ,  4-O ) :   0.9294
B(  3-C , 11-H ) :   0.9264 B(  3-C , 12-H ) :   0.9263 B(  4-O ,  5-N ) :   0.9971
B(  4-O ,  6-C ) :   0.1309 B(  5-N ,  6-C ) :   1.9011 B(  6-C , 13-H ) :   0.9644

FINAL SINGLE POINT ENERGY      -323.996669927568

DIPOLE MOMENT
-------------
                                X             Y             Z
Electronic contribution:      5.67151      -2.31308      -0.01116
Nuclear contribution   :     -6.72500       3.09737       0.01010
                        -----------------------------------------
Total Dipole Moment    :     -1.05349       0.78430      -0.00107
                        -----------------------------------------
Magnitude (a.u.)       :      1.31338
Magnitude (Debye)      :      3.33834

                             ****ORCA TERMINATED NORMALLY****
TOTAL RUN TIME: 0 days 0 hours 0 minutes 6 seconds 577 msec
