                         Program Version 3.0.3 - RELEASE   -
|  1> ! RI PBE def2-SVP def2-SVP/J NBO PAL2
|  2> % maxcore 2000
|  3> % output
|  4>     # printlevel mini
|  5>     print[ P_Basis ] 0
|  6>     print[ P_SCFInfo ] 1
|  7>     print[ P_SCFIterInfo ] 1
|  8>     print[ P_OrbEn ] 0
|  9>     print[ P_Cartesian ] 0
| 10> end
| 11> *xyz 0 1
| 12>  C        0.9971810000     0.0490320000    -0.0101030000
| 13>  C        2.5247030000     0.0520120000     0.0190210000
| 14>  C        3.0843210000     0.2776350000    -1.3845020000
| 15>  C        3.1066990000    -1.1992940000     0.6948320000
| 16>  O        3.8179330000    -0.7445870000     1.8604600000
| 17>  N        3.7290020000     0.6245540000     1.9503210000
| 18>  C        3.0472910000     1.0788070000     0.9845310000
| 19>  H        0.6291410000    -0.7510790000    -0.6585490000
| 20>  H        0.6108950000     0.9951640000    -0.3978960000
| 21>  H        0.5847620000    -0.1029520000     0.9894790000
| 22>  H        2.7567240000    -0.5185910000    -2.0589010000
| 23>  H        4.1761420000     0.2913920000    -1.3754320000
| 24>  H        2.7349440000     1.2274380000    -1.7975130000
| 25>  H        3.8149370000    -1.7300330000     0.0528270000
| 26>  H        2.3310780000    -1.8963580000     1.0232290000
| 27>  H        2.8833370000     2.1475400000     0.9109260000
| 28> *
| 29>
| 30>                          ****END OF INPUT****
 Total Charge           Charge          ....    0
 Multiplicity           Mult            ....    1
 Number of Electrons    NEL             ....   54
 Basis Dimension        Dim             ....  143

MULLIKEN ATOMIC CHARGES
-----------------------
   0 C :    0.072823
   1 C :   -0.450036
   2 C :    0.059802
   3 C :    0.334548
   4 O :   -0.283308
   5 N :    0.029114
   6 C :    0.021651
   7 H :    0.026956
   8 H :    0.019830
   9 H :    0.031056
  10 H :    0.028790
  11 H :    0.035137
  12 H :    0.021351
  13 H :    0.015004
  14 H :    0.013871
  15 H :    0.023411
Sum of atomic charges:   -0.0000000

LOEWDIN ATOMIC CHARGES
----------------------
   0 C :   -0.043923
   1 C :   -0.095237
   2 C :   -0.046535
   3 C :    0.074977
   4 O :   -0.095578
   5 N :    0.013011
   6 C :   -0.052019
   7 H :    0.028665
   8 H :    0.028404
   9 H :    0.029776
  10 H :    0.029032
  11 H :    0.030511
  12 H :    0.028768
  13 H :    0.020944
  14 H :    0.020698
  15 H :    0.028504

  Mayer bond orders larger than 0.1
B(  0-C ,  1-C ) :   1.0363 B(  0-C ,  7-H ) :   0.9580 B(  0-C ,  8-H ) :   0.9602
B(  0-C ,  9-H ) :   0.9573 B(  1-C ,  2-C ) :   1.0372 B(  1-C ,  3-C ) :   1.0237
B(  1-C ,  6-C ) :   0.9523 B(  2-C , 10-H ) :   0.9564 B(  2-C , 11-H ) :   0.9569
B(  2-C , 12-H ) :   0.9601 B(  3-C ,  4-O ) :   0.9405 B(  3-C , 13-H ) :   0.9362
B(  3-C , 14-H ) :   0.9350 B(  4-O ,  5-N ) :   0.9984 B(  4-O ,  6-C ) :   0.1171
B(  5-N ,  6-C ) :   1.9074 B(  6-C , 15-H ) :   0.9737

FINAL SINGLE POINT ENERGY      -325.215053164251

DIPOLE MOMENT
-------------
                                X             Y             Z
Electronic contribution:      4.45422       0.22634       6.83473
Nuclear contribution   :     -5.19612      -0.28973      -7.96907
                        -----------------------------------------
Total Dipole Moment    :     -0.74190      -0.06339      -1.13434
                        -----------------------------------------
Magnitude (a.u.)       :      1.35689
Magnitude (Debye)      :      3.44895

                             ****ORCA TERMINATED NORMALLY****
TOTAL RUN TIME: 0 days 0 hours 0 minutes 7 seconds 650 msec
