                         Program Version 3.0.3 - RELEASE   -
|  1> ! RI PBE def2-SVP def2-SVP/J NBO PAL2
|  2> % maxcore 2000
|  3> % output
|  4>     # printlevel mini
|  5>     print[ P_Basis ] 0
|  6>     print[ P_SCFInfo ] 1
|  7>     print[ P_SCFIterInfo ] 1
|  8>     print[ P_OrbEn ] 0
|  9>     print[ P_Cartesian ] 0
| 10> end
| 11> *xyz 0 1
| 12>  C        0.8349800000    -0.0218220000    -0.1375560000
| 13>  C        2.3265820000    -0.0019690000     0.1841240000
| 14>  C        3.0293610000     1.2595780000    -0.3030780000
| 15>  C        3.4659350000     1.0282790000    -1.7304640000
| 16>  O        4.3690650000    -0.0619890000    -1.8286620000
| 17>  N        3.9647410000    -1.2367940000    -1.2443460000
| 18>  C        3.0312420000    -1.1980560000    -0.3807510000
| 19>  H        0.3201840000     0.7809800000     0.3961100000
| 20>  H        0.3770430000    -0.9699850000     0.1541630000
| 21>  H        0.6608180000     0.1128450000    -1.2077680000
| 22>  H        2.4304090000    -0.0771860000     1.2735410000
| 23>  H        3.9119380000     1.4681520000     0.3073700000
| 24>  H        2.3687970000     2.1286360000    -0.2399630000
| 25>  H        4.0087430000     1.8778150000    -2.1464460000
| 26>  H        2.5976540000     0.8219940000    -2.3716560000
| 27>  H        2.7750290000    -2.1800680000     0.0117830000
| 28> *
| 29>
| 30>                          ****END OF INPUT****
 Total Charge           Charge          ....    0
 Multiplicity           Mult            ....    1
 Number of Electrons    NEL             ....   54
 Basis Dimension        Dim             ....  143

MULLIKEN ATOMIC CHARGES
-----------------------
   0 C :    0.041888
   1 C :   -0.123906
   2 C :    0.010693
   3 C :    0.156885
   4 O :   -0.263016
   5 N :    0.038874
   6 C :   -0.075391
   7 H :    0.022746
   8 H :    0.025179
   9 H :    0.020088
  10 H :    0.035335
  11 H :    0.028921
  12 H :    0.012182
  13 H :    0.027309
  14 H :    0.022294
  15 H :    0.019917
Sum of atomic charges:    0.0000000

LOEWDIN ATOMIC CHARGES
----------------------
   0 C :   -0.050339
   1 C :   -0.066064
   2 C :   -0.051349
   3 C :    0.049996
   4 O :   -0.083579
   5 N :   -0.000906
   6 C :   -0.058926
   7 H :    0.027343
   8 H :    0.030270
   9 H :    0.024723
  10 H :    0.043625
  11 H :    0.033498
  12 H :    0.031056
  13 H :    0.028630
  14 H :    0.014437
  15 H :    0.027585

  Mayer bond orders larger than 0.1
B(  0-C ,  1-C ) :   1.0753 B(  0-C ,  7-H ) :   0.9541 B(  0-C ,  8-H ) :   0.9592
B(  0-C ,  9-H ) :   0.9582 B(  1-C ,  2-C ) :   1.0579 B(  1-C ,  6-C ) :   0.9726
B(  1-C , 10-H ) :   0.8956 B(  2-C ,  3-C ) :   1.0807 B(  2-C , 11-H ) :   0.9219
B(  2-C , 12-H ) :   0.9243 B(  3-C ,  4-O ) :   0.9726 B(  3-C , 13-H ) :   0.9389
B(  3-C , 14-H ) :   0.9358 B(  4-O ,  5-N ) :   0.9772 B(  4-O ,  6-C ) :   0.1220
B(  5-N ,  6-C ) :   1.9483 B(  6-C , 15-H ) :   0.9547

FINAL SINGLE POINT ENERGY      -325.213953540678

DIPOLE MOMENT
-------------
                                X             Y             Z
Electronic contribution:      6.13193      -3.08662      -2.53323
Nuclear contribution   :     -7.06041       3.83994       3.12269
                        -----------------------------------------
Total Dipole Moment    :     -0.92848       0.75332       0.58946
                        -----------------------------------------
Magnitude (a.u.)       :      1.33305
Magnitude (Debye)      :      3.38835

                             ****ORCA TERMINATED NORMALLY****
TOTAL RUN TIME: 0 days 0 hours 0 minutes 7 seconds 627 msec
