                         Program Version 3.0.3 - RELEASE   -
|  1> ! RI PBE def2-SVP def2-SVP/J NBO PAL2
|  2> % maxcore 2000
|  3> % output
|  4>     # printlevel mini
|  5>     print[ P_Basis ] 0
|  6>     print[ P_SCFInfo ] 1
|  7>     print[ P_SCFIterInfo ] 1
|  8>     print[ P_OrbEn ] 0
|  9>     print[ P_Cartesian ] 0
| 10> end
| 11> *xyz 0 1
| 12>  C        1.0960720000    -0.0359000000    -0.0299830000
| 13>  C        2.5989890000     0.0119990000     0.0870800000
| 14>  C        3.1818950000     1.1779100000     0.8788990000
| 15>  C        4.4987890000     0.5952820000     1.3690390000
| 16>  O        5.5087840000     1.1760330000     1.6828920000
| 17>  N        4.3260740000    -0.7606240000     1.3598480000
| 18>  N        3.1176930000    -1.1878200000     0.7758040000
| 19>  H        0.7269480000     0.8258340000    -0.5887470000
| 20>  H        0.6252830000    -0.0196000000     0.9581240000
| 21>  H        0.7750350000    -0.9408830000    -0.5507220000
| 22>  H        3.0441870000     0.0134990000    -0.9152580000
| 23>  H        2.5581940000     1.4357960000     1.7428220000
| 24>  H        3.3611910000     2.0832950000     0.3014630000
| 25>  H        5.1178110000    -1.3806070000     1.3012320000
| 26>  H        2.4795540000    -1.4052220000     1.5394180000
| 27> *
| 28>
| 29>                          ****END OF INPUT****
 Total Charge           Charge          ....    0
 Multiplicity           Mult            ....    1
 Number of Electrons    NEL             ....   54
 Basis Dimension        Dim             ....  138

MULLIKEN ATOMIC CHARGES
-----------------------
   0 C :    0.027492
   1 C :   -0.076818
   2 C :    0.018843
   3 C :    0.033181
   4 O :   -0.171448
   5 N :   -0.123257
   6 N :   -0.123362
   7 H :    0.036018
   8 H :    0.013876
   9 H :    0.037217
  10 H :    0.025555
  11 H :    0.029849
  12 H :    0.036221
  13 H :    0.129131
  14 H :    0.107501
Sum of atomic charges:    0.0000000

LOEWDIN ATOMIC CHARGES
----------------------
   0 C :   -0.064474
   1 C :    0.000193
   2 C :   -0.075350
   3 C :    0.011237
   4 O :   -0.173976
   5 N :    0.024900
   6 N :   -0.048408
   7 H :    0.038501
   8 H :    0.024208
   9 H :    0.033956
  10 H :    0.026502
  11 H :    0.039436
  12 H :    0.041522
  13 H :    0.072846
  14 H :    0.048907

  Mayer bond orders larger than 0.1
B(  0-C ,  1-C ) :   1.1049 B(  0-C ,  7-H ) :   0.9570 B(  0-C ,  8-H ) :   0.9462
B(  0-C ,  9-H ) :   0.9559 B(  1-C ,  2-C ) :   1.0364 B(  1-C ,  6-N ) :   1.0154
B(  1-C , 10-H ) :   0.9143 B(  2-C ,  3-C ) :   0.9519 B(  2-C , 11-H ) :   0.8961
B(  2-C , 12-H ) :   0.9271 B(  3-C ,  4-O ) :   2.1768 B(  3-C ,  5-N ) :   1.1386
B(  5-N ,  6-N ) :   1.0079 B(  5-N , 13-H ) :   0.9303 B(  6-N , 14-H ) :   0.9391

FINAL SINGLE POINT ENERGY      -341.290663319018

DIPOLE MOMENT
-------------
                                X             Y             Z
Electronic contribution:      7.37381      -0.10240       2.77784
Nuclear contribution   :     -8.51200      -0.40832      -3.05449
                        -----------------------------------------
Total Dipole Moment    :     -1.13820      -0.51072      -0.27665
                        -----------------------------------------
Magnitude (a.u.)       :      1.27784
Magnitude (Debye)      :      3.24800

                             ****ORCA TERMINATED NORMALLY****
TOTAL RUN TIME: 0 days 0 hours 0 minutes 6 seconds 892 msec
