                         Program Version 3.0.3 - RELEASE   -
|  1> ! RI PBE def2-SVP def2-SVP/J NBO PAL2
|  2> % maxcore 2000
|  3> % output
|  4>     # printlevel mini
|  5>     print[ P_Basis ] 0
|  6>     print[ P_SCFInfo ] 1
|  7>     print[ P_SCFIterInfo ] 1
|  8>     print[ P_OrbEn ] 0
|  9>     print[ P_Cartesian ] 0
| 10> end
| 11> *xyz 0 1
| 12>  C        0.9422500000     0.0372840000     0.0808300000
| 13>  C        2.4239330000     0.1233990000     0.0775710000
| 14>  C        3.2484200000     1.2083770000     0.0774420000
| 15>  C        4.6239910000     0.7520310000     0.0735690000
| 16>  O        5.6927960000     1.3362290000     0.0720730000
| 17>  N        4.4948540000    -0.6342170000     0.0716340000
| 18>  N        3.1783100000    -0.9981350000     0.0740510000
| 19>  H        0.5137810000     1.0380280000     0.0831740000
| 20>  H        0.5765010000    -0.4914760000     0.9652860000
| 21>  H        0.5724630000    -0.4890640000    -0.8033830000
| 22>  H        2.9484550000     2.2425130000     0.0797920000
| 23>  H        5.2353330000    -1.3110810000     0.0688400000
| 24>  H        2.8903230000    -1.9567870000     0.0731220000
| 25> *
| 26>
| 27>                          ****END OF INPUT****
 Total Charge           Charge          ....    0
 Multiplicity           Mult            ....    1
 Number of Electrons    NEL             ....   52
 Basis Dimension        Dim             ....  128

MULLIKEN ATOMIC CHARGES
-----------------------
   0 C :    0.085321
   1 C :    0.003528
   2 C :   -0.221472
   3 C :    0.162325
   4 O :   -0.220204
   5 N :   -0.090135
   6 N :   -0.037155
   7 H :    0.032589
   8 H :    0.039048
   9 H :    0.039038
  10 H :   -0.017857
  11 H :    0.111666
  12 H :    0.113307
Sum of atomic charges:   -0.0000000

LOEWDIN ATOMIC CHARGES
----------------------
   0 C :   -0.059749
   1 C :   -0.008288
   2 C :   -0.142896
   3 C :   -0.003438
   4 O :   -0.232593
   5 N :    0.049920
   6 N :    0.090433
   7 H :    0.048297
   8 H :    0.040587
   9 H :    0.040578
  10 H :    0.029262
  11 H :    0.071288
  12 H :    0.076599

  Mayer bond orders larger than 0.1
B(  0-C ,  1-C ) :   1.1089 B(  0-C ,  7-H ) :   0.9404 B(  0-C ,  8-H ) :   0.9428
B(  0-C ,  9-H ) :   0.9428 B(  1-C ,  2-C ) :   1.4876 B(  1-C ,  6-N ) :   1.1823
B(  2-C ,  3-C ) :   1.0706 B(  2-C ,  6-N ) :   0.1178 B(  2-C , 10-H ) :   1.0078
B(  3-C ,  4-O ) :   2.1089 B(  3-C ,  5-N ) :   1.0168 B(  5-N ,  6-N ) :   0.9962
B(  5-N , 11-H ) :   0.9415 B(  6-N , 12-H ) :   0.9564

FINAL SINGLE POINT ENERGY      -340.090426329662

DIPOLE MOMENT
-------------
                                X             Y             Z
Electronic contribution:      6.27953       0.30481      -0.01382
Nuclear contribution   :     -7.88994      -2.22385       0.01441
                        -----------------------------------------
Total Dipole Moment    :     -1.61041      -1.91904       0.00059
                        -----------------------------------------
Magnitude (a.u.)       :      2.50522
Magnitude (Debye)      :      6.36777

                             ****ORCA TERMINATED NORMALLY****
TOTAL RUN TIME: 0 days 0 hours 0 minutes 6 seconds 613 msec
