                         Program Version 3.0.3 - RELEASE   -
|  1> ! RI PBE def2-SVP def2-SVP/J NBO PAL2
|  2> % maxcore 2000
|  3> % output
|  4>     # printlevel mini
|  5>     print[ P_Basis ] 0
|  6>     print[ P_SCFInfo ] 1
|  7>     print[ P_SCFIterInfo ] 1
|  8>     print[ P_OrbEn ] 0
|  9>     print[ P_Cartesian ] 0
| 10> end
| 11> *xyz 0 1
| 12>  C        1.0209890000     0.0284870000     0.0695960000
| 13>  C        2.4894840000     0.1841260000     0.0742870000
| 14>  C        3.3019720000     1.2523700000     0.0752080000
| 15>  C        4.6765900000     0.7648550000     0.0806750000
| 16>  O        5.7488990000     1.3308750000     0.0833300000
| 17>  N        4.5046440000    -0.6015340000     0.0823940000
| 18>  O        3.1846470000    -0.9793860000     0.0785970000
| 19>  H        0.5444570000     1.0072960000     0.0664090000
| 20>  H        0.6887180000    -0.5232200000     0.9522710000
| 21>  H        0.6946610000    -0.5260710000    -0.8135110000
| 22>  H        3.0169250000     2.2904250000     0.0724860000
| 23>  H        5.1700140000    -1.3531150000     0.0859370000
| 24> *
| 25>
| 26>                          ****END OF INPUT****
 Total Charge           Charge          ....    0
 Multiplicity           Mult            ....    1
 Number of Electrons    NEL             ....   52
 Basis Dimension        Dim             ....  123

MULLIKEN ATOMIC CHARGES
-----------------------
   0 C :    0.090043
   1 C :    0.056522
   2 C :   -0.199472
   3 C :    0.168251
   4 O :   -0.193583
   5 N :   -0.014654
   6 O :   -0.181695
   7 H :    0.036508
   8 H :    0.052810
   9 H :    0.052805
  10 H :    0.003140
  11 H :    0.129325
Sum of atomic charges:   -0.0000000

LOEWDIN ATOMIC CHARGES
----------------------
   0 C :   -0.060036
   1 C :    0.031526
   2 C :   -0.125057
   3 C :   -0.002829
   4 O :   -0.204929
   5 N :    0.092622
   6 O :    0.004702
   7 H :    0.049209
   8 H :    0.049916
   9 H :    0.049918
  10 H :    0.038491
  11 H :    0.076466

  Mayer bond orders larger than 0.1
B(  0-C ,  1-C ) :   1.1177 B(  0-C ,  7-H ) :   0.9470 B(  0-C ,  8-H ) :   0.9341
B(  0-C ,  9-H ) :   0.9341 B(  1-C ,  2-C ) :   1.5888 B(  1-C ,  6-O ) :   1.0866
B(  2-C ,  3-C ) :   1.0143 B(  2-C ,  6-O ) :   0.1005 B(  2-C , 10-H ) :   0.9998
B(  3-C ,  4-O ) :   2.1269 B(  3-C ,  5-N ) :   1.0462 B(  4-O ,  5-N ) :   0.1074
B(  5-N ,  6-O ) :   0.9533 B(  5-N , 11-H ) :   0.9393

FINAL SINGLE POINT ENERGY      -359.910961301334

DIPOLE MOMENT
-------------
                                X             Y             Z
Electronic contribution:      5.87454      -0.55489       0.02072
Nuclear contribution   :     -7.24761      -0.34492      -0.02384
                        -----------------------------------------
Total Dipole Moment    :     -1.37307      -0.89981      -0.00313
                        -----------------------------------------
Magnitude (a.u.)       :      1.64164
Magnitude (Debye)      :      4.17272

                             ****ORCA TERMINATED NORMALLY****
TOTAL RUN TIME: 0 days 0 hours 0 minutes 5 seconds 808 msec
