                         Program Version 3.0.3 - RELEASE   -
|  1> ! RI PBE def2-SVP def2-SVP/J NBO PAL2
|  2> % maxcore 2000
|  3> % output
|  4>     # printlevel mini
|  5>     print[ P_Basis ] 0
|  6>     print[ P_SCFInfo ] 1
|  7>     print[ P_SCFIterInfo ] 1
|  8>     print[ P_OrbEn ] 0
|  9>     print[ P_Cartesian ] 0
| 10> end
| 11> *xyz 0 1
| 12>  C        1.0234560000    -0.0637500000    -0.0451850000
| 13>  C        2.5234590000     0.0368940000    -0.0403810000
| 14>  C        3.1327530000     1.2039580000     0.7187930000
| 15>  C        4.4252510000     0.6122870000     1.2473090000
| 16>  O        5.3510080000     1.1645740000     1.7852090000
| 17>  N        4.3581230000    -0.7278760000     0.9575030000
| 18>  O        3.0475430000    -1.1156590000     0.6365450000
| 19>  H        0.5959620000     0.7775780000    -0.5943580000
| 20>  H        0.6330870000    -0.0501270000     0.9744450000
| 21>  H        0.7010900000    -0.9867170000    -0.5305460000
| 22>  H        2.9161480000     0.0268010000    -1.0669480000
| 23>  H        2.5224210000     1.4978220000     1.5790220000
| 24>  H        3.3250790000     2.0877190000     0.1124400000
| 25>  H        4.8067200000    -1.4060140000     1.5554420000
| 26> *
| 27>
| 28>                          ****END OF INPUT****
 Total Charge           Charge          ....    0
 Multiplicity           Mult            ....    1
 Number of Electrons    NEL             ....   54
 Basis Dimension        Dim             ....  133

MULLIKEN ATOMIC CHARGES
-----------------------
   0 C :    0.033759
   1 C :    0.050326
   2 C :    0.012825
   3 C :    0.022815
   4 O :   -0.168836
   5 N :    0.021993
   6 O :   -0.301019
   7 H :    0.034501
   8 H :    0.024893
   9 H :    0.037010
  10 H :    0.016084
  11 H :    0.035826
  12 H :    0.047970
  13 H :    0.131853
Sum of atomic charges:   -0.0000000

LOEWDIN ATOMIC CHARGES
----------------------
   0 C :   -0.063233
   1 C :    0.048329
   2 C :   -0.074478
   3 C :    0.008749
   4 O :   -0.163609
   5 N :    0.076370
   6 O :   -0.122690
   7 H :    0.038939
   8 H :    0.030417
   9 H :    0.036587
  10 H :    0.014769
  11 H :    0.046837
  12 H :    0.047593
  13 H :    0.075421

  Mayer bond orders larger than 0.1
B(  0-C ,  1-C ) :   1.0992 B(  0-C ,  7-H ) :   0.9555 B(  0-C ,  8-H ) :   0.9518
B(  0-C ,  9-H ) :   0.9524 B(  1-C ,  2-C ) :   1.0693 B(  1-C ,  6-O ) :   0.9494
B(  1-C , 10-H ) :   0.9205 B(  2-C ,  3-C ) :   0.9616 B(  2-C , 11-H ) :   0.8794
B(  2-C , 12-H ) :   0.9224 B(  3-C ,  4-O ) :   2.1629 B(  3-C ,  5-N ) :   1.1468
B(  4-O ,  5-N ) :   0.1040 B(  5-N ,  6-O ) :   0.9302 B(  5-N , 13-H ) :   0.9319

FINAL SINGLE POINT ENERGY      -361.105249382357

DIPOLE MOMENT
-------------
                                X             Y             Z
Electronic contribution:      6.85146      -1.17415       2.69923
Nuclear contribution   :     -7.80066       0.90642      -3.06941
                        -----------------------------------------
Total Dipole Moment    :     -0.94920      -0.26773      -0.37018
                        -----------------------------------------
Magnitude (a.u.)       :      1.05342
Magnitude (Debye)      :      2.67759

                             ****ORCA TERMINATED NORMALLY****
TOTAL RUN TIME: 0 days 0 hours 0 minutes 6 seconds 565 msec
