                         Program Version 3.0.3 - RELEASE   -
|  1> ! RI PBE def2-SVP def2-SVP/J NBO PAL2
|  2> % maxcore 2000
|  3> % output
|  4>     # printlevel mini
|  5>     print[ P_Basis ] 0
|  6>     print[ P_SCFInfo ] 1
|  7>     print[ P_SCFIterInfo ] 1
|  8>     print[ P_OrbEn ] 0
|  9>     print[ P_Cartesian ] 0
| 10> end
| 11> *xyz 0 1
| 12>  C        1.0044550000    -0.0507230000     0.0074880000
| 13>  C        2.4860220000    -0.1522170000     0.0115970000
| 14>  N        3.2071800000     0.9367280000     0.0153930000
| 15>  O        4.5357190000     0.5005220000     0.0186140000
| 16>  C        4.5437650000    -0.8265250000     0.0164830000
| 17>  O        5.7242570000    -1.4306160000     0.0189630000
| 18>  C        3.2842400000    -1.3258080000     0.0119660000
| 19>  H        0.7033790000     0.9964120000     0.0083050000
| 20>  H        0.5811110000    -0.5405600000     0.8873970000
| 21>  H        0.5862050000    -0.5377170000    -0.8764260000
| 22>  H        6.4186390000    -0.7613100000     0.0221230000
| 23>  H        2.9793370000    -2.3574960000     0.0093960000
| 24> *
| 25>
| 26>                          ****END OF INPUT****
 Total Charge           Charge          ....    0
 Multiplicity           Mult            ....    1
 Number of Electrons    NEL             ....   52
 Basis Dimension        Dim             ....  123

MULLIKEN ATOMIC CHARGES
-----------------------
   0 C :    0.098734
   1 C :   -0.136290
   2 N :   -0.043877
   3 O :   -0.185292
   4 C :    0.249829
   5 O :   -0.125038
   6 C :   -0.144225
   7 H :    0.032043
   8 H :    0.037368
   9 H :    0.037274
  10 H :    0.186947
  11 H :   -0.007471
Sum of atomic charges:   -0.0000000

LOEWDIN ATOMIC CHARGES
----------------------
   0 C :   -0.056780
   1 C :   -0.046032
   2 N :   -0.065176
   3 O :    0.001190
   4 C :    0.050761
   5 O :    0.004294
   6 C :   -0.151544
   7 H :    0.041923
   8 H :    0.042742
   9 H :    0.042725
  10 H :    0.101690
  11 H :    0.034206

  Mayer bond orders larger than 0.1
B(  0-C ,  1-C ) :   1.1047 B(  0-C ,  7-H ) :   0.9419 B(  0-C ,  8-H ) :   0.9425
B(  0-C ,  9-H ) :   0.9425 B(  1-C ,  2-N ) :   1.6844 B(  1-C ,  6-C ) :   1.1996
B(  2-N ,  3-O ) :   0.9450 B(  3-O ,  4-C ) :   1.1691 B(  4-C ,  5-O ) :   1.2677
B(  4-C ,  6-C ) :   1.4566 B(  5-O , 10-H ) :   0.9473 B(  6-C , 11-H ) :   1.0005

FINAL SINGLE POINT ENERGY      -359.910890041947

DIPOLE MOMENT
-------------
                                X             Y             Z
Electronic contribution:      6.46862       0.82079       0.02004
Nuclear contribution   :     -6.25572      -1.42435      -0.02033
                        -----------------------------------------
Total Dipole Moment    :      0.21289      -0.60356      -0.00030
                        -----------------------------------------
Magnitude (a.u.)       :      0.64001
Magnitude (Debye)      :      1.62678

                             ****ORCA TERMINATED NORMALLY****
TOTAL RUN TIME: 0 days 0 hours 0 minutes 5 seconds 899 msec
