                         Program Version 3.0.3 - RELEASE   -
|  1> ! RI PBE def2-SVP def2-SVP/J NBO PAL2
|  2> % maxcore 2000
|  3> % output
|  4>     # printlevel mini
|  5>     print[ P_Basis ] 0
|  6>     print[ P_SCFInfo ] 1
|  7>     print[ P_SCFIterInfo ] 1
|  8>     print[ P_OrbEn ] 0
|  9>     print[ P_Cartesian ] 0
| 10> end
| 11> *xyz 0 1
| 12>  C        1.0631270000    -0.0155680000    -0.0397730000
| 13>  C        2.5442820000     0.0749280000    -0.0363300000
| 14>  C        3.3691250000     1.1584690000    -0.0337450000
| 15>  C        4.7218590000     0.6877960000    -0.0309530000
| 16>  O        5.8025210000     1.2013630000    -0.0281470000
| 17>  O        4.6273420000    -0.7319880000    -0.0320730000
| 18>  N        3.2979610000    -1.0310730000    -0.0352690000
| 19>  H        0.6292030000     0.9825520000    -0.0404870000
| 20>  H        0.7018860000    -0.5479820000     0.8436270000
| 21>  H        0.7059520000    -0.5474870000    -0.9251200000
| 22>  H        3.0847720000     2.1959600000    -0.0337350000
| 23>  H        3.0664710000    -2.0060000000    -0.0365940000
| 24> *
| 25>
| 26>                          ****END OF INPUT****
 Total Charge           Charge          ....    0
 Multiplicity           Mult            ....    1
 Number of Electrons    NEL             ....   52
 Basis Dimension        Dim             ....  123

MULLIKEN ATOMIC CHARGES
-----------------------
   0 C :    0.083395
   1 C :    0.011132
   2 C :   -0.228756
   3 C :    0.213784
   4 O :   -0.169828
   5 O :   -0.214360
   6 N :    0.039190
   7 H :    0.038134
   8 H :    0.049572
   9 H :    0.049496
  10 H :   -0.002514
  11 H :    0.130756
Sum of atomic charges:   -0.0000000

LOEWDIN ATOMIC CHARGES
----------------------
   0 C :   -0.056080
   1 C :    0.001243
   2 C :   -0.156969
   3 C :    0.025598
   4 O :   -0.158522
   5 O :   -0.048433
   6 N :    0.133539
   7 H :    0.050621
   8 H :    0.046490
   9 H :    0.046471
  10 H :    0.035466
  11 H :    0.080576

  Mayer bond orders larger than 0.1
B(  0-C ,  1-C ) :   1.1029 B(  0-C ,  7-H ) :   0.9381 B(  0-C ,  8-H ) :   0.9420
B(  0-C ,  9-H ) :   0.9420 B(  1-C ,  2-C ) :   1.4509 B(  1-C ,  6-N ) :   1.2198
B(  2-C ,  3-C ) :   1.1144 B(  2-C ,  6-N ) :   0.1213 B(  2-C , 10-H ) :   1.0048
B(  3-C ,  4-O ) :   2.1547 B(  3-C ,  5-O ) :   0.9197 B(  5-O ,  6-N ) :   0.9834
B(  6-N , 11-H ) :   0.9535

FINAL SINGLE POINT ENERGY      -359.914083385622

DIPOLE MOMENT
-------------
                                X             Y             Z
Electronic contribution:      7.18272      -0.38232       0.01624
Nuclear contribution   :     -9.40248      -0.69116      -0.02209
                        -----------------------------------------
Total Dipole Moment    :     -2.21976      -1.07348      -0.00585
                        -----------------------------------------
Magnitude (a.u.)       :      2.46571
Magnitude (Debye)      :      6.26734

                             ****ORCA TERMINATED NORMALLY****
TOTAL RUN TIME: 0 days 0 hours 0 minutes 6 seconds 6 msec
