                         Program Version 3.0.3 - RELEASE   -
|  1> ! RI PBE def2-SVP def2-SVP/J NBO PAL2
|  2> % maxcore 2000
|  3> % output
|  4>     # printlevel mini
|  5>     print[ P_Basis ] 0
|  6>     print[ P_SCFInfo ] 1
|  7>     print[ P_SCFIterInfo ] 1
|  8>     print[ P_OrbEn ] 0
|  9>     print[ P_Cartesian ] 0
| 10> end
| 11> *xyz 0 1
| 12>  C        0.8588180000     0.1690200000    -0.1575840000
| 13>  C        2.2871800000    -0.2389170000     0.0809690000
| 14>  C        3.0020520000    -1.0174810000    -0.9519060000
| 15>  N        3.3395750000     0.3843580000    -0.7115970000
| 16>  C        2.6236050000    -0.4707070000     1.5181950000
| 17>  C        3.8967560000    -0.0678710000     2.0986600000
| 18>  O        2.7142140000     0.6810840000     2.3436140000
| 19>  H        0.6550170000     0.2791140000    -1.2256500000
| 20>  H        0.6487190000     1.1203240000     0.3378720000
| 21>  H        0.1658460000    -0.5766770000     0.2415230000
| 22>  H        2.4545410000    -1.2780480000    -1.8526810000
| 23>  H        3.7721240000    -1.7257280000    -0.6634500000
| 24>  H        2.9294300000     0.9771090000    -1.4253060000
| 25>  H        2.0846620000    -1.2992250000     1.9796500000
| 26>  H        4.6220080000     0.4196890000     1.4549630000
| 27>  H        4.2860450000    -0.6092140000     2.9577390000
| 28> *
| 29>
| 30>                          ****END OF INPUT****
 Total Charge           Charge          ....    0
 Multiplicity           Mult            ....    1
 Number of Electrons    NEL             ....   54
 Basis Dimension        Dim             ....  143

MULLIKEN ATOMIC CHARGES
-----------------------
   0 C :    0.114986
   1 C :   -0.248310
   2 C :    0.076281
   3 N :   -0.165974
   4 C :    0.081473
   5 C :    0.153095
   6 O :   -0.299414
   7 H :    0.001836
   8 H :    0.038292
   9 H :    0.023724
  10 H :    0.022255
  11 H :    0.030261
  12 H :    0.104521
  13 H :    0.009498
  14 H :    0.037721
  15 H :    0.019756
Sum of atomic charges:   -0.0000000

LOEWDIN ATOMIC CHARGES
----------------------
   0 C :   -0.053374
   1 C :   -0.043846
   2 C :    0.009105
   3 N :   -0.087076
   4 C :    0.038818
   5 C :    0.060669
   6 O :   -0.156024
   7 H :    0.024887
   8 H :    0.036638
   9 H :    0.034802
  10 H :    0.015178
  11 H :    0.020675
  12 H :    0.054693
  13 H :    0.014716
  14 H :    0.017903
  15 H :    0.012237

  Mayer bond orders larger than 0.1
B(  0-C ,  1-C ) :   1.0798 B(  0-C ,  7-H ) :   0.9366 B(  0-C ,  8-H ) :   0.9505
B(  0-C ,  9-H ) :   0.9462 B(  1-C ,  2-C ) :   1.0274 B(  1-C ,  3-N ) :   0.9979
B(  1-C ,  4-C ) :   0.9838 B(  2-C ,  3-N ) :   1.0157 B(  2-C , 10-H ) :   0.9381
B(  2-C , 11-H ) :   0.9351 B(  3-N , 12-H ) :   0.9386 B(  4-C ,  5-C ) :   1.1117
B(  4-C ,  6-O ) :   0.9618 B(  4-C , 13-H ) :   0.9353 B(  5-C ,  6-O ) :   1.0094
B(  5-C , 14-H ) :   0.9131 B(  5-C , 15-H ) :   0.9295

FINAL SINGLE POINT ENERGY      -325.196792270386

DIPOLE MOMENT
-------------
                                X             Y             Z
Electronic contribution:      1.90560       1.42527       2.78893
Nuclear contribution   :     -2.21281      -2.00487      -3.43611
                        -----------------------------------------
Total Dipole Moment    :     -0.30720      -0.57959      -0.64718
                        -----------------------------------------
Magnitude (a.u.)       :      0.92149
Magnitude (Debye)      :      2.34224

                             ****ORCA TERMINATED NORMALLY****
TOTAL RUN TIME: 0 days 0 hours 0 minutes 7 seconds 274 msec
