                         Program Version 3.0.3 - RELEASE   -
|  1> ! RI PBE def2-SVP def2-SVP/J NBO PAL2
|  2> % maxcore 2000
|  3> % output
|  4>     # printlevel mini
|  5>     print[ P_Basis ] 0
|  6>     print[ P_SCFInfo ] 1
|  7>     print[ P_SCFIterInfo ] 1
|  8>     print[ P_OrbEn ] 0
|  9>     print[ P_Cartesian ] 0
| 10> end
| 11> *xyz 0 1
| 12>  C        0.8356890000     0.6638360000    -0.5702200000
| 13>  C        2.1072470000     0.0169500000    -0.1127480000
| 14>  C        2.7903410000    -1.0288610000    -0.9020850000
| 15>  N        3.3259060000     0.3180730000    -0.8486310000
| 16>  C        4.5381780000     0.4893500000    -0.0710880000
| 17>  C        4.8379340000     1.9613390000     0.1209880000
| 18>  O        3.8010780000     2.6470170000     0.7880480000
| 19>  H       -0.0328580000     0.0857670000    -0.2439850000
| 20>  H        0.8141830000     0.7362590000    -1.6589880000
| 21>  H        0.7323080000     1.6727840000    -0.1589460000
| 22>  H        2.2250860000    -0.0657670000     0.9668970000
| 23>  H        2.3860910000    -1.3371810000    -1.8612960000
| 24>  H        3.3236960000    -1.8045790000    -0.3575160000
| 25>  H        5.3690600000     0.0311480000    -0.6189620000
| 26>  H        4.4683970000    -0.0095750000     0.9097100000
| 27>  H        5.0404880000     2.4174580000    -0.8568970000
| 28>  H        5.7330960000     2.0760050000     0.7371430000
| 29>  H        3.0331870000     2.6269580000     0.2100650000
| 30> *
| 31>
| 32>                          ****END OF INPUT****
 Total Charge           Charge          ....    0
 Multiplicity           Mult            ....    1
 Number of Electrons    NEL             ....   56
 Basis Dimension        Dim             ....  153

MULLIKEN ATOMIC CHARGES
-----------------------
   0 C :    0.093247
   1 C :   -0.138731
   2 C :    0.105020
   3 N :   -0.314522
   4 C :    0.080114
   5 C :    0.192871
   6 O :   -0.296623
   7 H :    0.024193
   8 H :    0.018682
   9 H :    0.015883
  10 H :    0.024939
  11 H :    0.021628
  12 H :    0.016111
  13 H :    0.002651
  14 H :   -0.010315
  15 H :   -0.000937
  16 H :    0.008239
  17 H :    0.157551
Sum of atomic charges:    0.0000000

LOEWDIN ATOMIC CHARGES
----------------------
   0 C :   -0.064312
   1 C :   -0.009671
   2 C :    0.009533
   3 N :   -0.119645
   4 C :   -0.005783
   5 C :    0.050543
   6 O :   -0.121941
   7 H :    0.033495
   8 H :    0.033225
   9 H :    0.025895
  10 H :    0.014325
  11 H :    0.018932
  12 H :    0.014529
  13 H :    0.024166
  14 H :    0.003947
  15 H :    0.007057
  16 H :    0.021463
  17 H :    0.064242

  Mayer bond orders larger than 0.1
B(  0-C ,  1-C ) :   1.0916 B(  0-C ,  7-H ) :   0.9518 B(  0-C ,  8-H ) :   0.9462
B(  0-C ,  9-H ) :   0.9522 B(  1-C ,  2-C ) :   1.0688 B(  1-C ,  3-N ) :   0.9083
B(  1-C , 10-H ) :   0.9206 B(  2-C ,  3-N ) :   0.9606 B(  2-C , 11-H ) :   0.9395
B(  2-C , 12-H ) :   0.9244 B(  3-N ,  4-C ) :   1.0034 B(  4-C ,  5-C ) :   1.0766
B(  4-C , 13-H ) :   0.9199 B(  4-C , 14-H ) :   0.8997 B(  5-C ,  6-O ) :   1.0683
B(  5-C , 15-H ) :   0.9300 B(  5-C , 16-H ) :   0.9348 B(  6-O , 17-H ) :   0.9787

FINAL SINGLE POINT ENERGY      -326.419878022645

DIPOLE MOMENT
-------------
                                X             Y             Z
Electronic contribution:      1.65051       1.43072       0.43511
Nuclear contribution   :     -1.82009      -1.95628      -0.63105
                        -----------------------------------------
Total Dipole Moment    :     -0.16958      -0.52556      -0.19594
                        -----------------------------------------
Magnitude (a.u.)       :      0.58597
Magnitude (Debye)      :      1.48943

                             ****ORCA TERMINATED NORMALLY****
TOTAL RUN TIME: 0 days 0 hours 0 minutes 7 seconds 940 msec
