                         Program Version 3.0.3 - RELEASE   -
|  1> ! RI PBE def2-SVP def2-SVP/J NBO PAL2
|  2> % maxcore 2000
|  3> % output
|  4>     # printlevel mini
|  5>     print[ P_Basis ] 0
|  6>     print[ P_SCFInfo ] 1
|  7>     print[ P_SCFIterInfo ] 1
|  8>     print[ P_OrbEn ] 0
|  9>     print[ P_Cartesian ] 0
| 10> end
| 11> *xyz 0 1
| 12>  C        1.1388600000    -0.2249820000    -0.9738000000
| 13>  C        2.4008320000     0.2762560000    -0.3421580000
| 14>  C        3.4198360000    -0.6367830000     0.2508630000
| 15>  N        3.6550560000     0.0046980000    -1.0119980000
| 16>  C        4.6687000000     0.9415960000    -1.1739210000
| 17>  C        4.3638970000     2.0082750000    -2.1898850000
| 18>  O        5.7319840000     0.8480670000    -0.6101570000
| 19>  H        0.3443050000    -0.3107200000    -0.2283720000
| 20>  H        1.3015830000    -1.2059860000    -1.4236360000
| 21>  H        0.7944090000     0.4550880000    -1.7570510000
| 22>  H        2.3298780000     1.2523460000     0.1362220000
| 23>  H        3.2543590000    -1.7086090000     0.2110360000
| 24>  H        4.0071130000    -0.2842090000     1.0926420000
| 25>  H        3.3327450000     2.3578350000    -2.1170660000
| 26>  H        4.4966990000     1.5873550000    -3.1899180000
| 27>  H        5.0561430000     2.8381740000    -2.0638000000
| 28> *
| 29>
| 30>                          ****END OF INPUT****
 Total Charge           Charge          ....    0
 Multiplicity           Mult            ....    1
 Number of Electrons    NEL             ....   54
 Basis Dimension        Dim             ....  143

MULLIKEN ATOMIC CHARGES
-----------------------
   0 C :    0.080732
   1 C :   -0.113379
   2 C :    0.105235
   3 N :   -0.214255
   4 C :   -0.013834
   5 C :    0.025918
   6 O :   -0.178239
   7 H :    0.034265
   8 H :    0.018990
   9 H :    0.030976
  10 H :    0.031718
  11 H :    0.034313
  12 H :    0.037380
  13 H :    0.024617
  14 H :    0.054025
  15 H :    0.041540
Sum of atomic charges:   -0.0000000

LOEWDIN ATOMIC CHARGES
----------------------
   0 C :   -0.065600
   1 C :    0.017106
   2 C :    0.026701
   3 N :   -0.071290
   4 C :    0.028683
   5 C :   -0.085195
   6 O :   -0.152171
   7 H :    0.036184
   8 H :    0.035343
   9 H :    0.033733
  10 H :    0.020674
  11 H :    0.024644
  12 H :    0.022671
  13 H :    0.034011
  14 H :    0.053223
  15 H :    0.041284

  Mayer bond orders larger than 0.1
B(  0-C ,  1-C ) :   1.0923 B(  0-C ,  7-H ) :   0.9528 B(  0-C ,  8-H ) :   0.9421
B(  0-C ,  9-H ) :   0.9538 B(  1-C ,  2-C ) :   1.0460 B(  1-C ,  3-N ) :   0.9020
B(  1-C , 10-H ) :   0.9321 B(  2-C ,  3-N ) :   0.9542 B(  2-C , 11-H ) :   0.9380
B(  2-C , 12-H ) :   0.9332 B(  3-N ,  4-C ) :   1.0697 B(  4-C ,  5-C ) :   1.0389
B(  4-C ,  6-O ) :   2.1306 B(  5-C , 13-H ) :   0.9441 B(  5-C , 14-H ) :   0.9396
B(  5-C , 15-H ) :   0.9522

FINAL SINGLE POINT ENERGY      -325.255221121625

DIPOLE MOMENT
-------------
                                X             Y             Z
Electronic contribution:      6.02921      -0.53791       1.29961
Nuclear contribution   :     -7.26338       0.66850      -1.38780
                        -----------------------------------------
Total Dipole Moment    :     -1.23417       0.13058      -0.08818
                        -----------------------------------------
Magnitude (a.u.)       :      1.24419
Magnitude (Debye)      :      3.16247

                             ****ORCA TERMINATED NORMALLY****
TOTAL RUN TIME: 0 days 0 hours 0 minutes 7 seconds 584 msec
