                         Program Version 3.0.3 - RELEASE   -
|  1> ! RI PBE def2-SVP def2-SVP/J NBO PAL2
|  2> % maxcore 2000
|  3> % output
|  4>     # printlevel mini
|  5>     print[ P_Basis ] 0
|  6>     print[ P_SCFInfo ] 1
|  7>     print[ P_SCFIterInfo ] 1
|  8>     print[ P_OrbEn ] 0
|  9>     print[ P_Cartesian ] 0
| 10> end
| 11> *xyz 0 1
| 12>  C        0.8431000000     0.4114830000    -0.5733960000
| 13>  C        2.1808450000    -0.0337600000    -0.0673520000
| 14>  C        2.9022530000    -1.1919420000    -0.6412950000
| 15>  N        3.3309970000     0.1621470000    -0.9338180000
| 16>  C        4.5535090000     0.5895100000    -0.2993470000
| 17>  C        4.6826650000     2.0918410000    -0.3281170000
| 18>  O        5.3628270000     2.7190590000     0.4348580000
| 19>  H        0.0384710000    -0.1161700000    -0.0548870000
| 20>  H        0.7556990000     0.2112790000    -1.6426220000
| 21>  H        0.7004950000     1.4837050000    -0.4159400000
| 22>  H        2.3600200000     0.1388420000     0.9940290000
| 23>  H        2.4721120000    -1.7381220000    -1.4748460000
| 24>  H        3.5203630000    -1.7850640000     0.0282970000
| 25>  H        5.4044220000     0.1924930000    -0.8695880000
| 26>  H        4.6723450000     0.2446710000     0.7395920000
| 27>  H        4.1043560000     2.5870470000    -1.1372100000
| 28> *
| 29>
| 30>                          ****END OF INPUT****
 Total Charge           Charge          ....    0
 Multiplicity           Mult            ....    1
 Number of Electrons    NEL             ....   54
 Basis Dimension        Dim             ....  143

MULLIKEN ATOMIC CHARGES
-----------------------
   0 C :    0.097346
   1 C :   -0.126032
   2 C :    0.091198
   3 N :   -0.300494
   4 C :    0.121121
   5 C :    0.080123
   6 O :   -0.159766
   7 H :    0.024164
   8 H :    0.015951
   9 H :    0.028439
  10 H :    0.022067
  11 H :    0.028434
  12 H :    0.022673
  13 H :    0.044992
  14 H :    0.010389
  15 H :   -0.000604
Sum of atomic charges:   -0.0000000

LOEWDIN ATOMIC CHARGES
----------------------
   0 C :   -0.061891
   1 C :   -0.003006
   2 C :    0.010262
   3 N :   -0.111571
   4 C :   -0.025954
   5 C :    0.088297
   6 O :   -0.102847
   7 H :    0.033093
   8 H :    0.033694
   9 H :    0.032830
  10 H :    0.014845
  11 H :    0.021180
  12 H :    0.015494
  13 H :    0.047994
  14 H :    0.017583
  15 H :   -0.010004

  Mayer bond orders larger than 0.1
B(  0-C ,  1-C ) :   1.0942 B(  0-C ,  7-H ) :   0.9523 B(  0-C ,  8-H ) :   0.9440
B(  0-C ,  9-H ) :   0.9560 B(  1-C ,  2-C ) :   1.0642 B(  1-C ,  3-N ) :   0.9119
B(  1-C , 10-H ) :   0.9244 B(  2-C ,  3-N ) :   0.9617 B(  2-C , 11-H ) :   0.9392
B(  2-C , 12-H ) :   0.9279 B(  3-N ,  4-C ) :   1.0041 B(  4-C ,  5-C ) :   0.9485
B(  4-C , 13-H ) :   0.9067 B(  4-C , 14-H ) :   0.8976 B(  5-C ,  6-O ) :   2.1854
B(  5-C , 15-H ) :   0.9255

FINAL SINGLE POINT ENERGY      -325.219678020994

DIPOLE MOMENT
-------------
                                X             Y             Z
Electronic contribution:      5.75202       3.90646       0.68499
Nuclear contribution   :     -6.28540      -4.74325      -0.78409
                        -----------------------------------------
Total Dipole Moment    :     -0.53338      -0.83679      -0.09910
                        -----------------------------------------
Magnitude (a.u.)       :      0.99727
Magnitude (Debye)      :      2.53485

                             ****ORCA TERMINATED NORMALLY****
TOTAL RUN TIME: 0 days 0 hours 0 minutes 6 seconds 843 msec
