                         Program Version 3.0.3 - RELEASE   -
|  1> ! RI PBE def2-SVP def2-SVP/J NBO PAL2
|  2> % maxcore 2000
|  3> % output
|  4>     # printlevel mini
|  5>     print[ P_Basis ] 0
|  6>     print[ P_SCFInfo ] 1
|  7>     print[ P_SCFIterInfo ] 1
|  8>     print[ P_OrbEn ] 0
|  9>     print[ P_Cartesian ] 0
| 10> end
| 11> *xyz 0 1
| 12>  C        1.1712390000     0.4862170000    -0.0321920000
| 13>  C        2.5579070000    -0.0723140000     0.0786020000
| 14>  C        3.1349330000    -0.8846100000    -1.0271460000
| 15>  N        3.6531470000     0.4308410000    -0.7246570000
| 16>  C        3.5559060000     1.4809550000    -1.6129910000
| 17>  N        3.0536820000     2.5987600000    -1.2800100000
| 18>  O        3.1891040000     3.5211220000    -2.3182940000
| 19>  H        0.4603720000    -0.2183680000     0.4070790000
| 20>  H        0.8895420000     0.6587110000    -1.0714040000
| 21>  H        1.0888780000     1.4377350000     0.4957940000
| 22>  H        2.8692280000    -0.3264090000     1.0890250000
| 23>  H        2.5201150000    -0.9956710000    -1.9170170000
| 24>  H        3.8048060000    -1.7124860000    -0.8190060000
| 25>  H        4.0173560000     1.3279390000    -2.5897510000
| 26>  H        2.8015860000     4.3155880000    -1.9436330000
| 27> *
| 28>
| 29>                          ****END OF INPUT****
 Total Charge           Charge          ....    0
 Multiplicity           Mult            ....    1
 Number of Electrons    NEL             ....   54
 Basis Dimension        Dim             ....  138

MULLIKEN ATOMIC CHARGES
-----------------------
   0 C :    0.085379
   1 C :   -0.111180
   2 C :    0.092058
   3 N :   -0.200709
   4 C :    0.071640
   5 N :   -0.089934
   6 O :   -0.195819
   7 H :    0.029330
   8 H :    0.012734
   9 H :    0.040574
  10 H :    0.029255
  11 H :    0.031084
  12 H :    0.038823
  13 H :   -0.001138
  14 H :    0.167905
Sum of atomic charges:   -0.0000000

LOEWDIN ATOMIC CHARGES
----------------------
   0 C :   -0.064121
   1 C :    0.016397
   2 C :    0.024418
   3 N :   -0.057346
   4 C :   -0.023706
   5 N :   -0.065027
   6 O :   -0.069880
   7 H :    0.035298
   8 H :    0.030255
   9 H :    0.037188
  10 H :    0.025956
  11 H :    0.017625
  12 H :    0.022517
  13 H :    0.000343
  14 H :    0.070083

  Mayer bond orders larger than 0.1
B(  0-C ,  1-C ) :   1.1045 B(  0-C ,  7-H ) :   0.9496 B(  0-C ,  8-H ) :   0.9401
B(  0-C ,  9-H ) :   0.9494 B(  1-C ,  2-C ) :   1.0333 B(  1-C ,  3-N ) :   0.9373
B(  1-C , 10-H ) :   0.9359 B(  2-C ,  3-N ) :   0.9485 B(  2-C , 11-H ) :   0.9369
B(  2-C , 12-H ) :   0.9421 B(  3-N ,  4-C ) :   1.1245 B(  4-C ,  5-N ) :   1.7902
B(  4-C ,  6-O ) :   0.1003 B(  4-C , 13-H ) :   0.9372 B(  5-N ,  6-O ) :   0.9690
B(  6-O , 14-H ) :   0.9782

FINAL SINGLE POINT ENERGY      -341.200844801339

DIPOLE MOMENT
-------------
                                X             Y             Z
Electronic contribution:      3.81616       4.00271      -1.68116
Nuclear contribution   :     -4.32255      -4.40416       1.72519
                        -----------------------------------------
Total Dipole Moment    :     -0.50639      -0.40145       0.04403
                        -----------------------------------------
Magnitude (a.u.)       :      0.64771
Magnitude (Debye)      :      1.64635

                             ****ORCA TERMINATED NORMALLY****
TOTAL RUN TIME: 0 days 0 hours 0 minutes 6 seconds 918 msec
