                         Program Version 3.0.3 - RELEASE   -
|  1> ! RI PBE def2-SVP def2-SVP/J NBO PAL2
|  2> % maxcore 2000
|  3> % output
|  4>     # printlevel mini
|  5>     print[ P_Basis ] 0
|  6>     print[ P_SCFInfo ] 1
|  7>     print[ P_SCFIterInfo ] 1
|  8>     print[ P_OrbEn ] 0
|  9>     print[ P_Cartesian ] 0
| 10> end
| 11> *xyz 0 1
| 12>  C        1.0573940000     0.0433820000    -0.6450020000
| 13>  C        2.4910140000     0.3394520000    -0.3319820000
| 14>  C        3.5425980000    -0.7044410000    -0.3105850000
| 15>  N        3.4621570000     0.2187200000    -1.4167680000
| 16>  C        4.4780790000     1.1845380000    -1.5319970000
| 17>  N        4.0535070000     2.2974200000    -2.1942440000
| 18>  O        5.6013980000     1.0456220000    -1.1053640000
| 19>  H        0.5104660000    -0.2076510000     0.2674810000
| 20>  H        0.9834250000    -0.7979330000    -1.3363360000
| 21>  H        0.5673420000     0.9068310000    -1.1025000000
| 22>  H        2.6612860000     1.1755980000     0.3436810000
| 23>  H        3.2790550000    -1.7292650000    -0.5506530000
| 24>  H        4.3831280000    -0.5770350000     0.3629290000
| 25>  H        3.2275870000     2.2341860000    -2.7622030000
| 26>  H        4.7651740000     2.9508870000    -2.4699680000
| 27> *
| 28>
| 29>                          ****END OF INPUT****
 Total Charge           Charge          ....    0
 Multiplicity           Mult            ....    1
 Number of Electrons    NEL             ....   54
 Basis Dimension        Dim             ....  138

MULLIKEN ATOMIC CHARGES
-----------------------
   0 C :    0.091577
   1 C :   -0.109761
   2 C :    0.097514
   3 N :   -0.256739
   4 C :    0.027471
   5 N :   -0.072760
   6 O :   -0.195857
   7 H :    0.029429
   8 H :    0.019097
   9 H :    0.024645
  10 H :    0.034096
  11 H :    0.028758
  12 H :    0.043242
  13 H :    0.116218
  14 H :    0.123068
Sum of atomic charges:   -0.0000000

LOEWDIN ATOMIC CHARGES
----------------------
   0 C :   -0.065277
   1 C :    0.014785
   2 C :    0.021966
   3 N :   -0.103784
   4 C :    0.012606
   5 N :   -0.003664
   6 O :   -0.192339
   7 H :    0.035406
   8 H :    0.033982
   9 H :    0.031192
  10 H :    0.022080
  11 H :    0.022179
  12 H :    0.023567
  13 H :    0.071375
  14 H :    0.075925

  Mayer bond orders larger than 0.1
B(  0-C ,  1-C ) :   1.0848 B(  0-C ,  7-H ) :   0.9507 B(  0-C ,  8-H ) :   0.9462
B(  0-C ,  9-H ) :   0.9538 B(  1-C ,  2-C ) :   1.0684 B(  1-C ,  3-N ) :   0.8945
B(  1-C , 10-H ) :   0.9258 B(  2-C ,  3-N ) :   0.9578 B(  2-C , 11-H ) :   0.9410
B(  2-C , 12-H ) :   0.9246 B(  3-N ,  4-C ) :   1.0462 B(  4-C ,  5-N ) :   1.2180
B(  4-C ,  6-O ) :   2.1023 B(  5-N , 13-H ) :   0.9364 B(  5-N , 14-H ) :   0.9479

FINAL SINGLE POINT ENERGY      -341.296662757031

DIPOLE MOMENT
-------------
                                X             Y             Z
Electronic contribution:      6.28257       1.65678      -1.65668
Nuclear contribution   :     -7.41539      -1.24861       1.39613
                        -----------------------------------------
Total Dipole Moment    :     -1.13281       0.40817      -0.26054
                        -----------------------------------------
Magnitude (a.u.)       :      1.23197
Magnitude (Debye)      :      3.13142

                             ****ORCA TERMINATED NORMALLY****
TOTAL RUN TIME: 0 days 0 hours 0 minutes 6 seconds 79 msec
