                         Program Version 3.0.3 - RELEASE   -
|  1> ! RI PBE def2-SVP def2-SVP/J NBO PAL2
|  2> % maxcore 2000
|  3> % output
|  4>     # printlevel mini
|  5>     print[ P_Basis ] 0
|  6>     print[ P_SCFInfo ] 1
|  7>     print[ P_SCFIterInfo ] 1
|  8>     print[ P_OrbEn ] 0
|  9>     print[ P_Cartesian ] 0
| 10> end
| 11> *xyz 0 1
| 12>  C        0.8435510000     0.4439910000    -0.3338670000
| 13>  C        2.0825960000    -0.3433840000    -0.0457170000
| 14>  C        2.8434760000    -1.0477100000    -1.0893330000
| 15>  N        3.3464790000     0.2178850000    -0.5449420000
| 16>  N        4.4278860000     0.0049380000     0.3442690000
| 17>  C        4.5646670000     0.7867920000     1.4470590000
| 18>  O        5.5892860000     0.8967460000     2.0765650000
| 19>  H       -0.0366760000    -0.2020780000    -0.2909430000
| 20>  H        0.8950520000     0.8906440000    -1.3279070000
| 21>  H        0.7110070000     1.2477490000     0.3944910000
| 22>  H        2.1498980000    -0.7896920000     0.9426570000
| 23>  H        2.5357200000    -0.9907490000    -2.1271010000
| 24>  H        3.3748970000    -1.9482450000    -0.8011600000
| 25>  H        5.2886110000    -0.2600240000    -0.1151870000
| 26>  H        3.6181410000     1.2820370000     1.7318070000
| 27> *
| 28>
| 29>                          ****END OF INPUT****
 Total Charge           Charge          ....    0
 Multiplicity           Mult            ....    1
 Number of Electrons    NEL             ....   54
 Basis Dimension        Dim             ....  138

MULLIKEN ATOMIC CHARGES
-----------------------
   0 C :    0.101588
   1 C :   -0.123208
   2 C :    0.104583
   3 N :   -0.225297
   4 N :   -0.047951
   5 C :    0.131057
   6 O :   -0.222036
   7 H :    0.032029
   8 H :    0.017675
   9 H :    0.032820
  10 H :    0.029311
  11 H :    0.036325
  12 H :    0.028296
  13 H :    0.121390
  14 H :   -0.016580
Sum of atomic charges:   -0.0000000

LOEWDIN ATOMIC CHARGES
----------------------
   0 C :   -0.059318
   1 C :   -0.004144
   2 C :    0.006857
   3 N :   -0.068761
   4 N :    0.033446
   5 C :    0.041495
   6 O :   -0.176232
   7 H :    0.036298
   8 H :    0.035148
   9 H :    0.034907
  10 H :    0.019924
  11 H :    0.025391
  12 H :    0.019779
  13 H :    0.071153
  14 H :   -0.015942

  Mayer bond orders larger than 0.1
B(  0-C ,  1-C ) :   1.0901 B(  0-C ,  7-H ) :   0.9560 B(  0-C ,  8-H ) :   0.9413
B(  0-C ,  9-H ) :   0.9544 B(  1-C ,  2-C ) :   1.0644 B(  1-C ,  3-N ) :   0.8807
B(  1-C , 10-H ) :   0.9309 B(  2-C ,  3-N ) :   0.9369 B(  2-C , 11-H ) :   0.9396
B(  2-C , 12-H ) :   0.9314 B(  3-N ,  4-N ) :   0.9341 B(  4-N ,  5-C ) :   1.1702
B(  4-N ,  6-O ) :   0.1046 B(  4-N , 13-H ) :   0.9223 B(  5-C ,  6-O ) :   2.0586
B(  5-C , 14-H ) :   0.9215

FINAL SINGLE POINT ENERGY      -341.239597205631

DIPOLE MOMENT
-------------
                                X             Y             Z
Electronic contribution:      7.08888       1.09611       2.73019
Nuclear contribution   :     -8.14396      -1.81897      -3.61231
                        -----------------------------------------
Total Dipole Moment    :     -1.05508      -0.72286      -0.88212
                        -----------------------------------------
Magnitude (a.u.)       :      1.55365
Magnitude (Debye)      :      3.94907

                             ****ORCA TERMINATED NORMALLY****
TOTAL RUN TIME: 0 days 0 hours 0 minutes 6 seconds 336 msec
