                         Program Version 3.0.3 - RELEASE   -
|  1> ! RI PBE def2-SVP def2-SVP/J NBO PAL2
|  2> % maxcore 2000
|  3> % output
|  4>     # printlevel mini
|  5>     print[ P_Basis ] 0
|  6>     print[ P_SCFInfo ] 1
|  7>     print[ P_SCFIterInfo ] 1
|  8>     print[ P_OrbEn ] 0
|  9>     print[ P_Cartesian ] 0
| 10> end
| 11> *xyz 0 1
| 12>  C        0.9560880000     0.0376830000     0.0140780000
| 13>  C        2.4632450000     0.0215330000    -0.0190410000
| 14>  C        3.2451720000     1.0796490000     0.7790050000
| 15>  N        4.2022170000     0.0346490000     1.1790090000
| 16>  C        3.2308840000    -1.0125560000     0.8290670000
| 17>  C        3.8281290000    -2.2239790000     0.1522250000
| 18>  O        2.8434620000    -3.1315350000    -0.2994720000
| 19>  H        0.5582970000     0.9110850000    -0.5104890000
| 20>  H        0.5838760000     0.0705630000     1.0423440000
| 21>  H        0.5460180000    -0.8543170000    -0.4658890000
| 22>  H        2.8235020000    -0.0199190000    -1.0508970000
| 23>  H        2.6443380000     1.4767800000     1.6088690000
| 24>  H        3.6856130000     1.9168310000     0.2306670000
| 25>  H        4.5031750000     0.0570710000     2.1444760000
| 26>  H        2.6106210000    -1.3373630000     1.6834410000
| 27>  H        4.5453710000    -2.7116710000     0.8290030000
| 28>  H        4.3840750000    -1.9030870000    -0.7313950000
| 29>  H        2.3766190000    -3.4778180000     0.4653190000
| 30> *
| 31>
| 32>                          ****END OF INPUT****
 Total Charge           Charge          ....    0
 Multiplicity           Mult            ....    1
 Number of Electrons    NEL             ....   56
 Basis Dimension        Dim             ....  153

MULLIKEN ATOMIC CHARGES
-----------------------
   0 C :    0.063730
   1 C :   -0.183178
   2 C :    0.181515
   3 N :   -0.258050
   4 C :   -0.042213
   5 C :    0.270793
   6 O :   -0.285115
   7 H :    0.021645
   8 H :    0.003637
   9 H :    0.023567
  10 H :    0.007695
  11 H :   -0.013668
  12 H :    0.007186
  13 H :    0.093174
  14 H :   -0.031513
  15 H :   -0.006186
  16 H :   -0.004155
  17 H :    0.151136
Sum of atomic charges:   -0.0000000

LOEWDIN ATOMIC CHARGES
----------------------
   0 C :   -0.063262
   1 C :   -0.038134
   2 C :    0.031539
   3 N :   -0.103533
   4 C :   -0.004229
   5 C :    0.047983
   6 O :   -0.120620
   7 H :    0.029071
   8 H :    0.019442
   9 H :    0.029506
  10 H :    0.028575
  11 H :    0.002569
  12 H :    0.009539
  13 H :    0.045672
  14 H :   -0.003696
  15 H :    0.003537
  16 H :    0.020040
  17 H :    0.066000

  Mayer bond orders larger than 0.1
B(  0-C ,  1-C ) :   1.0914 B(  0-C ,  7-H ) :   0.9569 B(  0-C ,  8-H ) :   0.9515
B(  0-C ,  9-H ) :   0.9569 B(  1-C ,  2-C ) :   1.0774 B(  1-C ,  4-C ) :   1.0190
B(  1-C , 10-H ) :   0.8826 B(  2-C ,  3-N ) :   1.0537 B(  2-C , 11-H ) :   0.9234
B(  2-C , 12-H ) :   0.9342 B(  3-N ,  4-C ) :   1.0259 B(  3-N , 13-H ) :   0.9383
B(  4-C ,  5-C ) :   1.0384 B(  4-C , 14-H ) :   0.8943 B(  5-C ,  6-O ) :   1.0622
B(  5-C , 15-H ) :   0.9331 B(  5-C , 16-H ) :   0.9082 B(  6-O , 17-H ) :   0.9845

FINAL SINGLE POINT ENERGY      -326.427026862902

DIPOLE MOMENT
-------------
                                X             Y             Z
Electronic contribution:      2.70672      -2.57630      -0.22912
Nuclear contribution   :     -3.01592       2.69790       1.02897
                        -----------------------------------------
Total Dipole Moment    :     -0.30920       0.12160       0.79985
                        -----------------------------------------
Magnitude (a.u.)       :      0.86612
Magnitude (Debye)      :      2.20149

                             ****ORCA TERMINATED NORMALLY****
TOTAL RUN TIME: 0 days 0 hours 0 minutes 7 seconds 988 msec
