                         Program Version 3.0.3 - RELEASE   -
|  1> ! RI PBE def2-SVP def2-SVP/J NBO PAL2
|  2> % maxcore 2000
|  3> % output
|  4>     # printlevel mini
|  5>     print[ P_Basis ] 0
|  6>     print[ P_SCFInfo ] 1
|  7>     print[ P_SCFIterInfo ] 1
|  8>     print[ P_OrbEn ] 0
|  9>     print[ P_Cartesian ] 0
| 10> end
| 11> *xyz 0 1
| 12>  C        1.7469720000     1.2862140000     0.8668120000
| 13>  C        2.7446580000     0.2591150000     0.4064540000
| 14>  C        2.2918070000    -1.1658130000     0.5848450000
| 15>  N        4.1472200000     0.5700030000     0.6956340000
| 16>  C        3.6970080000     0.5322280000    -0.6949250000
| 17>  C        3.7721460000     1.8198850000    -1.4529370000
| 18>  O        2.8813320000     1.7355230000    -2.5493540000
| 19>  H        0.8336130000     1.2335210000     0.2687170000
| 20>  H        2.1500930000     2.2956460000     0.7987470000
| 21>  H        1.4801420000     1.1069040000     1.9124440000
| 22>  H        1.3551590000    -1.3467450000     0.0508780000
| 23>  H        2.1200070000    -1.3880090000     1.6427790000
| 24>  H        3.0360870000    -1.8697290000     0.2032980000
| 25>  H        4.6630650000    -0.2727010000     0.9253190000
| 26>  H        3.9766460000    -0.3342230000    -1.2918230000
| 27>  H        4.8063040000     1.9686840000    -1.7953550000
| 28>  H        3.5234940000     2.6562450000    -0.7902190000
| 29>  H        2.9914380000     2.5192520000    -3.0917140000
| 30> *
| 31>
| 32>                          ****END OF INPUT****
 Total Charge           Charge          ....    0
 Multiplicity           Mult            ....    1
 Number of Electrons    NEL             ....   56
 Basis Dimension        Dim             ....  153

MULLIKEN ATOMIC CHARGES
-----------------------
   0 C :    0.132871
   1 C :   -0.288511
   2 C :    0.096007
   3 N :   -0.155090
   4 C :   -0.088701
   5 C :    0.284519
   6 O :   -0.285966
   7 H :    0.019747
   8 H :    0.004403
   9 H :    0.009285
  10 H :    0.027074
  11 H :    0.019760
  12 H :   -0.001164
  13 H :    0.096660
  14 H :    0.008010
  15 H :   -0.008960
  16 H :   -0.024005
  17 H :    0.154059
Sum of atomic charges:    0.0000000

LOEWDIN ATOMIC CHARGES
----------------------
   0 C :   -0.051101
   1 C :   -0.028606
   2 C :   -0.055752
   3 N :   -0.097168
   4 C :   -0.011190
   5 C :    0.056529
   6 O :   -0.131053
   7 H :    0.031051
   8 H :    0.027505
   9 H :    0.028261
  10 H :    0.034371
  11 H :    0.027982
  12 H :    0.023740
  13 H :    0.050351
  14 H :    0.013937
  15 H :    0.007065
  16 H :    0.004650
  17 H :    0.069429

  Mayer bond orders larger than 0.1
B(  0-C ,  1-C ) :   1.0877 B(  0-C ,  7-H ) :   0.9529 B(  0-C ,  8-H ) :   0.9335
B(  0-C ,  9-H ) :   0.9462 B(  1-C ,  2-C ) :   1.0847 B(  1-C ,  3-N ) :   0.9622
B(  1-C ,  4-C ) :   0.9826 B(  2-C , 10-H ) :   0.9519 B(  2-C , 11-H ) :   0.9517
B(  2-C , 12-H ) :   0.9348 B(  3-N ,  4-C ) :   0.9772 B(  3-N , 13-H ) :   0.9365
B(  4-C ,  5-C ) :   1.0553 B(  4-C , 14-H ) :   0.9292 B(  5-C ,  6-O ) :   1.0987
B(  5-C , 15-H ) :   0.9110 B(  5-C , 16-H ) :   0.9037 B(  6-O , 17-H ) :   0.9804

FINAL SINGLE POINT ENERGY      -326.427300123106

DIPOLE MOMENT
-------------
                                X             Y             Z
Electronic contribution:      2.34444       1.43128      -2.71001
Nuclear contribution   :     -2.25002      -1.49411       2.52086
                        -----------------------------------------
Total Dipole Moment    :      0.09442      -0.06283      -0.18915
                        -----------------------------------------
Magnitude (a.u.)       :      0.22055
Magnitude (Debye)      :      0.56060

                             ****ORCA TERMINATED NORMALLY****
TOTAL RUN TIME: 0 days 0 hours 0 minutes 7 seconds 939 msec
