                         Program Version 3.0.3 - RELEASE   -
|  1> ! RI PBE def2-SVP def2-SVP/J NBO PAL2
|  2> % maxcore 2000
|  3> % output
|  4>     # printlevel mini
|  5>     print[ P_Basis ] 0
|  6>     print[ P_SCFInfo ] 1
|  7>     print[ P_SCFIterInfo ] 1
|  8>     print[ P_OrbEn ] 0
|  9>     print[ P_Cartesian ] 0
| 10> end
| 11> *xyz 0 1
| 12>  C        0.9480160000     0.0172250000     0.0435580000
| 13>  C        2.4511540000    -0.0634990000     0.0078540000
| 14>  C        3.2779210000     0.9055340000     0.8952810000
| 15>  N        4.1757100000    -0.2021240000     1.2356320000
| 16>  C        3.1644390000    -1.1783400000     0.8196220000
| 17>  C        3.0020730000    -0.0431550000    -1.3910860000
| 18>  O        2.3370290000     0.0289910000    -2.3885470000
| 19>  H        0.5847850000    -0.0001470000     1.0731880000
| 20>  H        0.5005880000    -0.8186540000    -0.4982490000
| 21>  H        0.5962940000     0.9336530000    -0.4348880000
| 22>  H        2.6637760000     1.2767020000     1.7260940000
| 23>  H        3.7614670000     1.7564890000     0.4048650000
| 24>  H        4.4838270000    -0.2538230000     2.1971450000
| 25>  H        2.5104990000    -1.5399940000     1.6238170000
| 26>  H        3.5548160000    -2.0388480000     0.2668290000
| 27>  H        4.1107840000    -0.1020320000    -1.4430050000
| 28> *
| 29>
| 30>                          ****END OF INPUT****
 Total Charge           Charge          ....    0
 Multiplicity           Mult            ....    1
 Number of Electrons    NEL             ....   54
 Basis Dimension        Dim             ....  143

MULLIKEN ATOMIC CHARGES
-----------------------
   0 C :    0.102616
   1 C :   -0.478330
   2 C :    0.211110
   3 N :   -0.269123
   4 C :    0.210427
   5 C :    0.173989
   6 O :   -0.147351
   7 H :    0.006536
   8 H :    0.033045
   9 H :    0.031108
  10 H :   -0.000381
  11 H :    0.017696
  12 H :    0.098017
  13 H :   -0.000027
  14 H :    0.017031
  15 H :   -0.006364
Sum of atomic charges:    0.0000000

LOEWDIN ATOMIC CHARGES
----------------------
   0 C :   -0.052448
   1 C :   -0.106159
   2 C :    0.046971
   3 N :   -0.107834
   4 C :    0.046934
   5 C :    0.097657
   6 O :   -0.106214
   7 H :    0.023172
   8 H :    0.035731
   9 H :    0.035448
  10 H :    0.009403
  11 H :    0.011588
  12 H :    0.050190
  13 H :    0.009428
  14 H :    0.011384
  15 H :   -0.005250

  Mayer bond orders larger than 0.1
B(  0-C ,  1-C ) :   1.0765 B(  0-C ,  7-H ) :   0.9441 B(  0-C ,  8-H ) :   0.9529
B(  0-C ,  9-H ) :   0.9524 B(  1-C ,  2-C ) :   0.9923 B(  1-C ,  4-C ) :   0.9906
B(  1-C ,  5-C ) :   0.8830 B(  2-C ,  3-N ) :   1.0453 B(  2-C , 10-H ) :   0.9181
B(  2-C , 11-H ) :   0.9353 B(  3-N ,  4-C ) :   1.0458 B(  3-N , 12-H ) :   0.9413
B(  4-C , 13-H ) :   0.9182 B(  4-C , 14-H ) :   0.9352 B(  5-C ,  6-O ) :   2.2092
B(  5-C , 15-H ) :   0.9315

FINAL SINGLE POINT ENERGY      -325.229576251550

DIPOLE MOMENT
-------------
                                X             Y             Z
Electronic contribution:      1.91425       0.05173      -4.31276
Nuclear contribution   :     -1.89954      -0.09742       5.56052
                        -----------------------------------------
Total Dipole Moment    :      0.01471      -0.04568       1.24776
                        -----------------------------------------
Magnitude (a.u.)       :      1.24868
Magnitude (Debye)      :      3.17389

                             ****ORCA TERMINATED NORMALLY****
TOTAL RUN TIME: 0 days 0 hours 0 minutes 7 seconds 37 msec
