                         Program Version 3.0.3 - RELEASE   -
|  1> ! RI PBE def2-SVP def2-SVP/J NBO PAL2
|  2> % maxcore 2000
|  3> % output
|  4>     # printlevel mini
|  5>     print[ P_Basis ] 0
|  6>     print[ P_SCFInfo ] 1
|  7>     print[ P_SCFIterInfo ] 1
|  8>     print[ P_OrbEn ] 0
|  9>     print[ P_Cartesian ] 0
| 10> end
| 11> *xyz 0 1
| 12>  C        0.9439660000     0.0583540000    -0.1263170000
| 13>  C        2.4422000000    -0.0122530000    -0.0856630000
| 14>  C        3.2185090000    -0.9232640000    -1.0101890000
| 15>  N        2.6316450000    -1.7571710000    -2.0170310000
| 16>  C        3.2736150000     0.5572600000    -1.2019900000
| 17>  C        4.5326590000     1.3199140000    -0.9139250000
| 18>  O        4.3036440000     2.6395620000    -0.4580300000
| 19>  H        0.4920180000    -0.6974450000     0.5228170000
| 20>  H        0.5600670000    -0.1069720000    -1.1359840000
| 21>  H        0.5864850000     1.0368290000     0.2046210000
| 22>  H        2.8730460000     0.1105720000     0.9045000000
| 23>  H        4.1110900000    -1.3687210000    -0.5787860000
| 24>  H        1.9991800000    -1.2406580000    -2.6119640000
| 25>  H        2.1110350000    -2.5220890000    -1.6051000000
| 26>  H        2.7068940000     0.9260000000    -2.0573400000
| 27>  H        5.1822030000     1.3217350000    -1.8007690000
| 28>  H        5.0848550000     0.8248220000    -0.1109770000
| 29>  H        3.8234990000     3.1151240000    -1.1403840000
| 30> *
| 31>
| 32>                          ****END OF INPUT****
 Total Charge           Charge          ....    0
 Multiplicity           Mult            ....    1
 Number of Electrons    NEL             ....   56
 Basis Dimension        Dim             ....  153

MULLIKEN ATOMIC CHARGES
-----------------------
   0 C :    0.083142
   1 C :   -0.099835
   2 C :   -0.051079
   3 N :   -0.110107
   4 C :   -0.172227
   5 C :    0.265897
   6 O :   -0.287323
   7 H :    0.020990
   8 H :   -0.021725
   9 H :    0.022818
  10 H :    0.012841
  11 H :    0.011778
  12 H :    0.077813
  13 H :    0.094509
  14 H :    0.006467
  15 H :    0.001280
  16 H :   -0.004766
  17 H :    0.149526
Sum of atomic charges:    0.0000000

LOEWDIN ATOMIC CHARGES
----------------------
   0 C :   -0.057761
   1 C :   -0.061134
   2 C :   -0.000723
   3 N :   -0.079209
   4 C :   -0.071657
   5 C :    0.060227
   6 O :   -0.125290
   7 H :    0.028143
   8 H :    0.014455
   9 H :    0.031087
  10 H :    0.025324
  11 H :    0.019264
  12 H :    0.047768
  13 H :    0.056135
  14 H :    0.018907
  15 H :    0.007661
  16 H :    0.021495
  17 H :    0.065309

  Mayer bond orders larger than 0.1
B(  0-C ,  1-C ) :   1.1022 B(  0-C ,  7-H ) :   0.9572 B(  0-C ,  8-H ) :   0.9408
B(  0-C ,  9-H ) :   0.9586 B(  1-C ,  2-C ) :   0.9027 B(  1-C ,  4-C ) :   0.9218
B(  1-C , 10-H ) :   0.9310 B(  2-C ,  3-N ) :   1.1694 B(  2-C ,  4-C ) :   0.9355
B(  2-C , 11-H ) :   0.9384 B(  3-N , 12-H ) :   0.9636 B(  3-N , 13-H ) :   0.9672
B(  4-C ,  5-C ) :   1.0654 B(  4-C , 14-H ) :   0.9316 B(  5-C ,  6-O ) :   1.0626
B(  5-C , 15-H ) :   0.9314 B(  5-C , 16-H ) :   0.9190 B(  6-O , 17-H ) :   0.9871

FINAL SINGLE POINT ENERGY      -326.426880263127

DIPOLE MOMENT
-------------
                                X             Y             Z
Electronic contribution:      3.11232       1.72522      -0.19135
Nuclear contribution   :     -3.76179      -1.83101      -0.13992
                        -----------------------------------------
Total Dipole Moment    :     -0.64947      -0.10579      -0.33126
                        -----------------------------------------
Magnitude (a.u.)       :      0.73671
Magnitude (Debye)      :      1.87256

                             ****ORCA TERMINATED NORMALLY****
TOTAL RUN TIME: 0 days 0 hours 0 minutes 7 seconds 903 msec
