                         Program Version 3.0.3 - RELEASE   -
|  1> ! RI PBE def2-SVP def2-SVP/J NBO PAL2
|  2> % maxcore 2000
|  3> % output
|  4>     # printlevel mini
|  5>     print[ P_Basis ] 0
|  6>     print[ P_SCFInfo ] 1
|  7>     print[ P_SCFIterInfo ] 1
|  8>     print[ P_OrbEn ] 0
|  9>     print[ P_Cartesian ] 0
| 10> end
| 11> *xyz 0 1
| 12>  C        0.4669940000     0.1160850000    -0.7479050000
| 13>  C        1.8258620000     0.3750930000    -0.1635420000
| 14>  C        3.0320710000    -0.4688220000    -0.5289540000
| 15>  N        2.8669270000    -1.4908030000    -1.5172040000
| 16>  C        2.9419340000     0.9781570000    -0.9481860000
| 17>  C        2.7850530000     1.3556980000    -2.3901750000
| 18>  O        3.7061070000     1.8834490000    -0.1968470000
| 19>  H       -0.1047790000    -0.5630890000    -0.1093960000
| 20>  H        0.5361920000    -0.3401450000    -1.7354220000
| 21>  H       -0.1048800000     1.0436920000    -0.8361370000
| 22>  H        1.8257750000     0.6986900000     0.8724110000
| 23>  H        3.7247660000    -0.6455310000     0.2946230000
| 24>  H        2.4863640000    -2.3356390000    -1.1096680000
| 25>  H        3.7485310000    -1.7303500000    -1.9521740000
| 26>  H        2.2426610000     0.5896890000    -2.9426860000
| 27>  H        3.7674150000     1.4714410000    -2.8616420000
| 28>  H        2.2570050000     2.3082480000    -2.4790750000
| 29>  H        4.6006920000     1.8829480000    -0.5512310000
| 30> *
| 31>
| 32>                          ****END OF INPUT****
 Total Charge           Charge          ....    0
 Multiplicity           Mult            ....    1
 Number of Electrons    NEL             ....   56
 Basis Dimension        Dim             ....  153

MULLIKEN ATOMIC CHARGES
-----------------------
   0 C :    0.081466
   1 C :   -0.126132
   2 C :   -0.063317
   3 N :   -0.131323
   4 C :   -0.077724
   5 C :    0.116173
   6 O :   -0.235448
   7 H :    0.018018
   8 H :    0.014612
   9 H :    0.022311
  10 H :    0.017892
  11 H :   -0.003087
  12 H :    0.094437
  13 H :    0.093244
  14 H :    0.016021
  15 H :   -0.003834
  16 H :    0.018708
  17 H :    0.147986
Sum of atomic charges:   -0.0000000

LOEWDIN ATOMIC CHARGES
----------------------
   0 C :   -0.061082
   1 C :   -0.047655
   2 C :   -0.030777
   3 N :   -0.084887
   4 C :    0.002521
   5 C :   -0.064113
   6 O :   -0.094903
   7 H :    0.028396
   8 H :    0.027198
   9 H :    0.030521
  10 H :    0.030564
  11 H :    0.002398
  12 H :    0.056084
  13 H :    0.055611
  14 H :    0.031479
  15 H :    0.022102
  16 H :    0.029777
  17 H :    0.066765

  Mayer bond orders larger than 0.1
B(  0-C ,  1-C ) :   1.1262 B(  0-C ,  7-H ) :   0.9537 B(  0-C ,  8-H ) :   0.9327
B(  0-C ,  9-H ) :   0.9542 B(  1-C ,  2-C ) :   0.9303 B(  1-C ,  4-C ) :   0.9307
B(  1-C , 10-H ) :   0.9206 B(  2-C ,  3-N ) :   1.1627 B(  2-C ,  4-C ) :   0.8880
B(  2-C , 11-H ) :   0.9250 B(  3-N , 12-H ) :   0.9605 B(  3-N , 13-H ) :   0.9660
B(  4-C ,  5-C ) :   1.1133 B(  4-C ,  6-O ) :   1.0995 B(  5-C , 14-H ) :   0.9218
B(  5-C , 15-H ) :   0.9411 B(  5-C , 16-H ) :   0.9473 B(  6-O , 17-H ) :   0.9797

FINAL SINGLE POINT ENERGY      -326.436548076004

DIPOLE MOMENT
-------------
                                X             Y             Z
Electronic contribution:      3.29934       1.22540       2.61145
Nuclear contribution   :     -2.80489      -1.83165      -2.84862
                        -----------------------------------------
Total Dipole Moment    :      0.49446      -0.60625      -0.23717
                        -----------------------------------------
Magnitude (a.u.)       :      0.81748
Magnitude (Debye)      :      2.07787

                             ****ORCA TERMINATED NORMALLY****
TOTAL RUN TIME: 0 days 0 hours 0 minutes 7 seconds 219 msec
