                         Program Version 3.0.3 - RELEASE   -
|  1> ! RI PBE def2-SVP def2-SVP/J NBO PAL2
|  2> % maxcore 2000
|  3> % output
|  4>     # printlevel mini
|  5>     print[ P_Basis ] 0
|  6>     print[ P_SCFInfo ] 1
|  7>     print[ P_SCFIterInfo ] 1
|  8>     print[ P_OrbEn ] 0
|  9>     print[ P_Cartesian ] 0
| 10> end
| 11> *xyz 0 1
| 12>  C        1.0314490000     0.0744320000     0.2124870000
| 13>  C        2.5019570000     0.0422990000    -0.1266050000
| 14>  C        3.3875380000     1.1308170000     0.5335600000
| 15>  N        4.1580040000     0.0642580000     1.1533860000
| 16>  C        3.3602590000    -1.0186450000     0.6075810000
| 17>  C        5.2120680000     0.0426620000     1.9799040000
| 18>  O        5.7186720000    -0.9644440000     2.4258100000
| 19>  H        0.5430600000     0.9482810000    -0.2266320000
| 20>  H        0.8803800000     0.1132450000     1.2950360000
| 21>  H        0.5218210000    -0.8160280000    -0.1643210000
| 22>  H        2.6445050000     0.0050950000    -1.2077910000
| 23>  H        2.8573570000     1.7700720000     1.2476450000
| 24>  H        3.9590410000     1.7593510000    -0.1552280000
| 25>  H        2.8294670000    -1.5956960000     1.3713380000
| 26>  H        3.9263860000    -1.7076130000    -0.0240360000
| 27>  H        5.5814450000     1.0610150000     2.2153750000
| 28> *
| 29>
| 30>                          ****END OF INPUT****
 Total Charge           Charge          ....    0
 Multiplicity           Mult            ....    1
 Number of Electrons    NEL             ....   54
 Basis Dimension        Dim             ....  143

MULLIKEN ATOMIC CHARGES
-----------------------
   0 C :    0.045958
   1 C :   -0.329656
   2 C :    0.252246
   3 N :   -0.298107
   4 C :    0.256403
   5 C :    0.147323
   6 O :   -0.242809
   7 H :    0.030542
   8 H :    0.024345
   9 H :    0.033272
  10 H :    0.030744
  11 H :    0.014264
  12 H :    0.024152
  13 H :    0.018634
  14 H :    0.028588
  15 H :   -0.035899
Sum of atomic charges:    0.0000000

LOEWDIN ATOMIC CHARGES
----------------------
   0 C :   -0.060250
   1 C :   -0.042345
   2 C :    0.052595
   3 N :   -0.039059
   4 C :    0.055974
   5 C :    0.039415
   6 O :   -0.192273
   7 H :    0.031400
   8 H :    0.028046
   9 H :    0.032867
  10 H :    0.029980
  11 H :    0.018120
  12 H :    0.020352
  13 H :    0.021872
  14 H :    0.024014
  15 H :   -0.020708

  Mayer bond orders larger than 0.1
B(  0-C ,  1-C ) :   1.0701 B(  0-C ,  7-H ) :   0.9593 B(  0-C ,  8-H ) :   0.9568
B(  0-C ,  9-H ) :   0.9598 B(  1-C ,  2-C ) :   1.0629 B(  1-C ,  4-C ) :   1.0586
B(  1-C , 10-H ) :   0.9056 B(  2-C ,  3-N ) :   0.9891 B(  2-C , 11-H ) :   0.9291
B(  2-C , 12-H ) :   0.9315 B(  3-N ,  4-C ) :   0.9841 B(  3-N ,  5-C ) :   1.1883
B(  4-C , 13-H ) :   0.9321 B(  4-C , 14-H ) :   0.9349 B(  5-C ,  6-O ) :   2.0285
B(  5-C , 15-H ) :   0.9212

FINAL SINGLE POINT ENERGY      -325.261432697450

DIPOLE MOMENT
-------------
                                X             Y             Z
Electronic contribution:      7.15096      -1.49372       3.30962
Nuclear contribution   :     -8.33272       2.25848      -4.23151
                        -----------------------------------------
Total Dipole Moment    :     -1.18176       0.76477      -0.92189
                        -----------------------------------------
Magnitude (a.u.)       :      1.68264
Magnitude (Debye)      :      4.27694

                             ****ORCA TERMINATED NORMALLY****
TOTAL RUN TIME: 0 days 0 hours 0 minutes 7 seconds 427 msec
