                         Program Version 3.0.3 - RELEASE   -
|  1> ! RI PBE def2-SVP def2-SVP/J NBO PAL2
|  2> % maxcore 2000
|  3> % output
|  4>     # printlevel mini
|  5>     print[ P_Basis ] 0
|  6>     print[ P_SCFInfo ] 1
|  7>     print[ P_SCFIterInfo ] 1
|  8>     print[ P_OrbEn ] 0
|  9>     print[ P_Cartesian ] 0
| 10> end
| 11> *xyz 0 1
| 12>  C        0.8782150000    -0.1300690000     0.0347160000
| 13>  C        2.3824240000    -0.0858930000    -0.0177390000
| 14>  C        3.1527810000     0.9954960000     0.7603440000
| 15>  N        4.1395610000    -0.0257950000     1.1423440000
| 16>  C        3.1891710000    -1.0985110000     0.8442950000
| 17>  C        3.7451910000    -2.2695310000     0.0906590000
| 18>  O        3.2288600000    -3.3532640000     0.0517630000
| 19>  H        0.4444910000     0.7096310000    -0.5151710000
| 20>  H        0.5175830000    -0.0807310000     1.0653840000
| 21>  H        0.4966890000    -1.0520650000    -0.4108310000
| 22>  H        2.7353980000    -0.1219170000    -1.0526130000
| 23>  H        2.5583240000     1.3816240000     1.5992800000
| 24>  H        3.5595510000     1.8382550000     0.1954320000
| 25>  H        4.4816470000     0.0119000000     2.0932990000
| 26>  H        2.5913680000    -1.4594340000     1.6915860000
| 27>  H        4.6721460000    -2.0401960000    -0.4803360000
| 28> *
| 29>
| 30>                          ****END OF INPUT****
 Total Charge           Charge          ....    0
 Multiplicity           Mult            ....    1
 Number of Electrons    NEL             ....   54
 Basis Dimension        Dim             ....  143

MULLIKEN ATOMIC CHARGES
-----------------------
   0 C :    0.069223
   1 C :   -0.203444
   2 C :    0.189402
   3 N :   -0.247959
   4 C :    0.004913
   5 C :    0.161921
   6 O :   -0.154042
   7 H :    0.029905
   8 H :    0.013250
   9 H :    0.034116
  10 H :    0.018160
  11 H :   -0.006532
  12 H :    0.013521
  13 H :    0.101622
  14 H :   -0.000300
  15 H :   -0.023756
Sum of atomic charges:   -0.0000000

LOEWDIN ATOMIC CHARGES
----------------------
   0 C :   -0.059663
   1 C :   -0.023430
   2 C :    0.035024
   3 N :   -0.098265
   4 C :   -0.019637
   5 C :    0.079572
   6 O :   -0.107232
   7 H :    0.033096
   8 H :    0.024472
   9 H :    0.035903
  10 H :    0.029986
  11 H :    0.005921
  12 H :    0.011936
  13 H :    0.050777
  14 H :    0.016152
  15 H :   -0.014612

  Mayer bond orders larger than 0.1
B(  0-C ,  1-C ) :   1.0940 B(  0-C ,  7-H ) :   0.9568 B(  0-C ,  8-H ) :   0.9531
B(  0-C ,  9-H ) :   0.9557 B(  1-C ,  2-C ) :   1.0673 B(  1-C ,  4-C ) :   1.0011
B(  1-C , 10-H ) :   0.8882 B(  2-C ,  3-N ) :   1.0515 B(  2-C , 11-H ) :   0.9230
B(  2-C , 12-H ) :   0.9355 B(  3-N ,  4-C ) :   1.0128 B(  3-N , 13-H ) :   0.9397
B(  4-C ,  5-C ) :   0.9509 B(  4-C , 14-H ) :   0.8980 B(  5-C ,  6-O ) :   2.1884
B(  5-C , 15-H ) :   0.9106

FINAL SINGLE POINT ENERGY      -325.230549901439

DIPOLE MOMENT
-------------
                                X             Y             Z
Electronic contribution:      3.96199      -5.49986       0.00837
Nuclear contribution   :     -4.18327       6.52338       0.38127
                        -----------------------------------------
Total Dipole Moment    :     -0.22128       1.02352       0.38964
                        -----------------------------------------
Magnitude (a.u.)       :      1.11731
Magnitude (Debye)      :      2.83997

                             ****ORCA TERMINATED NORMALLY****
TOTAL RUN TIME: 0 days 0 hours 0 minutes 6 seconds 951 msec
