                         Program Version 3.0.3 - RELEASE   -
|  1> ! RI PBE def2-SVP def2-SVP/J NBO PAL2
|  2> % maxcore 2000
|  3> % output
|  4>     # printlevel mini
|  5>     print[ P_Basis ] 0
|  6>     print[ P_SCFInfo ] 1
|  7>     print[ P_SCFIterInfo ] 1
|  8>     print[ P_OrbEn ] 0
|  9>     print[ P_Cartesian ] 0
| 10> end
| 11> *xyz 0 1
| 12>  C        1.1155730000     0.0359710000    -0.2262710000
| 13>  C        2.6071390000     0.0662480000     0.0229450000
| 14>  C        3.0944060000     1.1525670000     0.9659650000
| 15>  N        4.4479270000     0.7255900000     1.3080510000
| 16>  C        4.5213330000    -0.7318510000     1.2360120000
| 17>  C        3.1588210000    -1.1870600000     0.7014740000
| 18>  O        3.1955510000    -2.3414610000    -0.1004930000
| 19>  H        0.7724630000     0.9410870000    -0.7335710000
| 20>  H        0.5662920000    -0.0489890000     0.7163720000
| 21>  H        0.8470880000    -0.8212650000    -0.8475180000
| 22>  H        3.1394160000     0.1824530000    -0.9319760000
| 23>  H        2.4189610000     1.2045540000     1.8363640000
| 24>  H        3.1022530000     2.1418870000     0.4988130000
| 25>  H        4.7570530000     1.0890340000     2.1959370000
| 26>  H        4.7506460000    -1.1982620000     2.1995200000
| 27>  H        5.3074760000    -1.0487180000     0.5355460000
| 28>  H        2.4982150000    -1.4475400000     1.5359040000
| 29>  H        3.7973750000    -2.1764650000    -0.8328730000
| 30> *
| 31>
| 32>                          ****END OF INPUT****
 Total Charge           Charge          ....    0
 Multiplicity           Mult            ....    1
 Number of Electrons    NEL             ....   56
 Basis Dimension        Dim             ....  153

MULLIKEN ATOMIC CHARGES
-----------------------
   0 C :    0.060685
   1 C :   -0.172694
   2 C :    0.169328
   3 N :   -0.285029
   4 C :    0.212202
   5 C :    0.010567
   6 O :   -0.257616
   7 H :    0.019642
   8 H :    0.009488
   9 H :    0.022979
  10 H :   -0.002450
  11 H :   -0.011957
  12 H :    0.002586
  13 H :    0.093510
  14 H :   -0.001532
  15 H :   -0.020766
  16 H :   -0.000262
  17 H :    0.151319
Sum of atomic charges:    0.0000000

LOEWDIN ATOMIC CHARGES
----------------------
   0 C :   -0.057667
   1 C :   -0.067357
   2 C :    0.021683
   3 N :   -0.113365
   4 C :    0.003288
   5 C :    0.036819
   6 O :   -0.101841
   7 H :    0.026996
   8 H :    0.024412
   9 H :    0.029011
  10 H :    0.023180
  11 H :    0.000273
  12 H :    0.015798
  13 H :    0.053495
  14 H :    0.013675
  15 H :    0.006106
  16 H :    0.021003
  17 H :    0.064491

  Mayer bond orders larger than 0.1
B(  0-C ,  1-C ) :   1.0993 B(  0-C ,  7-H ) :   0.9617 B(  0-C ,  8-H ) :   0.9511
B(  0-C ,  9-H ) :   0.9525 B(  1-C ,  2-C ) :   1.0301 B(  1-C ,  5-C ) :   1.0229
B(  1-C , 10-H ) :   0.8945 B(  2-C ,  3-N ) :   1.0499 B(  2-C , 11-H ) :   0.9284
B(  2-C , 12-H ) :   0.9269 B(  3-N ,  4-C ) :   1.0606 B(  3-N , 13-H ) :   0.9401
B(  4-C ,  5-C ) :   1.0363 B(  4-C , 14-H ) :   0.9288 B(  4-C , 15-H ) :   0.9102
B(  5-C ,  6-O ) :   1.0809 B(  5-C , 16-H ) :   0.8991 B(  6-O , 17-H ) :   0.9787

FINAL SINGLE POINT ENERGY      -326.453901680621

DIPOLE MOMENT
-------------
                                X             Y             Z
Electronic contribution:      2.72104      -2.23933       0.02246
Nuclear contribution   :     -2.63582       2.58809       0.13656
                        -----------------------------------------
Total Dipole Moment    :      0.08521       0.34876       0.15902
                        -----------------------------------------
Magnitude (a.u.)       :      0.39266
Magnitude (Debye)      :      0.99807

                             ****ORCA TERMINATED NORMALLY****
TOTAL RUN TIME: 0 days 0 hours 0 minutes 8 seconds 135 msec
