                         Program Version 3.0.3 - RELEASE   -
|  1> ! RI PBE def2-SVP def2-SVP/J NBO PAL2
|  2> % maxcore 2000
|  3> % output
|  4>     # printlevel mini
|  5>     print[ P_Basis ] 0
|  6>     print[ P_SCFInfo ] 1
|  7>     print[ P_SCFIterInfo ] 1
|  8>     print[ P_OrbEn ] 0
|  9>     print[ P_Cartesian ] 0
| 10> end
| 11> *xyz 0 1
| 12>  C        1.1343080000    -0.0531800000     0.2289190000
| 13>  C        2.4437040000     0.0158380000     0.0327440000
| 14>  C        3.3562650000     1.2025680000     0.0232520000
| 15>  N        4.5027380000     0.7332980000    -0.7549510000
| 16>  C        4.6924750000    -0.6787680000    -0.4766460000
| 17>  C        3.2836930000    -1.1863070000    -0.2424460000
| 18>  O        2.9238630000    -2.3336830000    -0.2578450000
| 19>  H        0.5247910000     0.8238340000     0.4164690000
| 20>  H        0.6433740000    -1.0203010000     0.2007040000
| 21>  H        3.6179660000     1.4695660000     1.0619260000
| 22>  H        2.9052670000     2.0823070000    -0.4416870000
| 23>  H        5.3325000000     1.2819030000    -0.5837300000
| 24>  H        5.2689960000    -0.8961570000     0.4404290000
| 25>  H        5.1676510000    -1.2094280000    -1.3040290000
| 26> *
| 27>
| 28>                          ****END OF INPUT****
 Total Charge           Charge          ....    0
 Multiplicity           Mult            ....    1
 Number of Electrons    NEL             ....   52
 Basis Dimension        Dim             ....  133

MULLIKEN ATOMIC CHARGES
-----------------------
   0 C :   -0.011947
   1 C :   -0.184647
   2 C :    0.235858
   3 N :   -0.289318
   4 C :    0.157042
   5 C :   -0.022879
   6 O :   -0.134501
   7 H :    0.024503
   8 H :    0.039918
   9 H :    0.010554
  10 H :    0.017091
  11 H :    0.102272
  12 H :    0.021130
  13 H :    0.034923
Sum of atomic charges:    0.0000000

LOEWDIN ATOMIC CHARGES
----------------------
   0 C :    0.006873
   1 C :   -0.075892
   2 C :    0.023560
   3 N :   -0.106803
   4 C :   -0.012457
   5 C :    0.052592
   6 O :   -0.109125
   7 H :    0.029720
   8 H :    0.035079
   9 H :    0.014767
  10 H :    0.027709
  11 H :    0.056990
  12 H :    0.022943
  13 H :    0.034044

  Mayer bond orders larger than 0.1
B(  0-C ,  1-C ) :   1.9878 B(  0-C ,  7-H ) :   0.9333 B(  0-C ,  8-H ) :   0.9189
B(  1-C ,  2-C ) :   1.0218 B(  1-C ,  5-C ) :   0.9725 B(  2-C ,  3-N ) :   1.0127
B(  2-C ,  9-H ) :   0.8946 B(  2-C , 10-H ) :   0.9202 B(  3-N ,  4-C ) :   1.0449
B(  3-N , 11-H ) :   0.9386 B(  4-C ,  5-C ) :   0.9738 B(  4-C , 12-H ) :   0.8824
B(  4-C , 13-H ) :   0.9173 B(  5-C ,  6-O ) :   2.2092

FINAL SINGLE POINT ENERGY      -324.046632691557

DIPOLE MOMENT
-------------
                                X             Y             Z
Electronic contribution:     -0.54952      -3.51953      -0.75967
Nuclear contribution   :      0.87516       4.57767       1.16028
                        -----------------------------------------
Total Dipole Moment    :      0.32565       1.05813       0.40061
                        -----------------------------------------
Magnitude (a.u.)       :      1.17736
Magnitude (Debye)      :      2.99261

                             ****ORCA TERMINATED NORMALLY****
TOTAL RUN TIME: 0 days 0 hours 0 minutes 6 seconds 755 msec
