                         Program Version 3.0.3 - RELEASE   -
|  1> ! RI PBE def2-SVP def2-SVP/J NBO PAL2
|  2> % maxcore 2000
|  3> % output
|  4>     # printlevel mini
|  5>     print[ P_Basis ] 0
|  6>     print[ P_SCFInfo ] 1
|  7>     print[ P_SCFIterInfo ] 1
|  8>     print[ P_OrbEn ] 0
|  9>     print[ P_Cartesian ] 0
| 10> end
| 11> *xyz 0 1
| 12>  C        0.8983370000     0.1148760000    -0.0548900000
| 13>  C        2.3784830000     0.1044750000    -0.0526890000
| 14>  C        3.2686200000     1.0969800000    -0.0501130000
| 15>  N        4.6539420000     0.6579830000    -0.0486400000
| 16>  C        4.6363210000    -0.6089330000    -0.0503090000
| 17>  C        3.2059430000    -1.1380280000    -0.0529540000
| 18>  O        2.8504690000    -2.2841780000    -0.0549650000
| 19>  H        0.5080860000     1.1331040000    -0.0542190000
| 20>  H        0.5047550000    -0.4090020000     0.8206000000
| 21>  H        0.5073760000    -0.4068420000    -0.9328420000
| 22>  H        3.0851380000     2.1630770000    -0.0490520000
| 23>  H        5.5278300000    -1.2271230000    -0.0498180000
| 24> *
| 25>
| 26>                          ****END OF INPUT****
 Total Charge           Charge          ....    0
 Multiplicity           Mult            ....    1
 Number of Electrons    NEL             ....   50
 Basis Dimension        Dim             ....  123

MULLIKEN ATOMIC CHARGES
-----------------------
   0 C :    0.092100
   1 C :   -0.116593
   2 C :    0.009571
   3 N :   -0.103787
   4 C :    0.027160
   5 C :    0.045533
   6 O :   -0.086560
   7 H :    0.022657
   8 H :    0.045374
   9 H :    0.045320
  10 H :    0.005094
  11 H :    0.014131
Sum of atomic charges:   -0.0000000

LOEWDIN ATOMIC CHARGES
----------------------
   0 C :   -0.050276
   1 C :   -0.093894
   2 C :    0.029357
   3 N :   -0.049990
   4 C :   -0.001337
   5 C :    0.043398
   6 O :   -0.057538
   7 H :    0.038324
   8 H :    0.046994
   9 H :    0.046985
  10 H :    0.023027
  11 H :    0.024950

  Mayer bond orders larger than 0.1
B(  0-C ,  1-C ) :   1.1095 B(  0-C ,  7-H ) :   0.9495 B(  0-C ,  8-H ) :   0.9378
B(  0-C ,  9-H ) :   0.9378 B(  1-C ,  2-C ) :   1.6850 B(  1-C ,  5-C ) :   0.9519
B(  2-C ,  3-N ) :   1.0776 B(  2-C , 10-H ) :   1.0041 B(  3-N ,  4-C ) :   1.9348
B(  4-C ,  5-C ) :   0.8848 B(  4-C , 11-H ) :   0.9731 B(  5-C ,  6-O ) :   2.2035

FINAL SINGLE POINT ENERGY      -322.837900591518

DIPOLE MOMENT
-------------
                                X             Y             Z
Electronic contribution:      4.48977      -2.32256       0.00397
Nuclear contribution   :     -4.98083       2.69303      -0.00417
                        -----------------------------------------
Total Dipole Moment    :     -0.49105       0.37047      -0.00020
                        -----------------------------------------
Magnitude (a.u.)       :      0.61513
Magnitude (Debye)      :      1.56353

                             ****ORCA TERMINATED NORMALLY****
TOTAL RUN TIME: 0 days 0 hours 0 minutes 6 seconds 342 msec
