                         Program Version 3.0.3 - RELEASE   -
|  1> ! RI PBE def2-SVP def2-SVP/J NBO PAL2
|  2> % maxcore 2000
|  3> % output
|  4>     # printlevel mini
|  5>     print[ P_Basis ] 0
|  6>     print[ P_SCFInfo ] 1
|  7>     print[ P_SCFIterInfo ] 1
|  8>     print[ P_OrbEn ] 0
|  9>     print[ P_Cartesian ] 0
| 10> end
| 11> *xyz 0 1
| 12>  C        0.9905980000    -0.1192130000     0.2133840000
| 13>  C        2.4863140000    -0.0710930000     0.0022000000
| 14>  C        2.8320320000     0.0337290000    -1.4707940000
| 15>  N        3.1906930000     1.0043070000     0.7715190000
| 16>  C        4.2165950000     0.0260220000     1.2101520000
| 17>  C        3.3229720000    -1.1317540000     0.7508580000
| 18>  O        3.8528270000    -2.1589720000    -0.0410600000
| 19>  H        0.5173670000     0.7845920000    -0.1808890000
| 20>  H        0.7417040000    -0.2013540000     1.2755670000
| 21>  H        0.5561630000    -0.9781660000    -0.3043530000
| 22>  H        2.3746750000     0.9343330000    -1.8870310000
| 23>  H        2.4676730000    -0.8375740000    -2.0190730000
| 24>  H        3.9102580000     0.0980910000    -1.6211020000
| 25>  H        2.6210690000     1.2842640000     1.5624170000
| 26>  H        4.4899570000     0.0687220000     2.2672340000
| 27>  H        5.1244260000     0.1135800000     0.6061610000
| 28>  H        2.7444280000    -1.5398220000     1.5909590000
| 29>  H        4.2785390000    -2.8044920000     0.5277420000
| 30> *
| 31>
| 32>                          ****END OF INPUT****
 Total Charge           Charge          ....    0
 Multiplicity           Mult            ....    1
 Number of Electrons    NEL             ....   56
 Basis Dimension        Dim             ....  153

MULLIKEN ATOMIC CHARGES
-----------------------
   0 C :    0.083411
   1 C :   -0.329630
   2 C :    0.151852
   3 N :   -0.204376
   4 C :    0.162503
   5 C :    0.074893
   6 O :   -0.227352
   7 H :    0.024612
   8 H :   -0.003435
   9 H :    0.024878
  10 H :    0.007579
  11 H :    0.014331
  12 H :    0.004226
  13 H :    0.083496
  14 H :    0.000100
  15 H :    0.004299
  16 H :   -0.028903
  17 H :    0.157515
Sum of atomic charges:   -0.0000000

LOEWDIN ATOMIC CHARGES
----------------------
   0 C :   -0.061125
   1 C :   -0.022370
   2 C :   -0.049969
   3 N :   -0.106964
   4 C :    0.007633
   5 C :    0.034059
   6 O :   -0.104105
   7 H :    0.030047
   8 H :    0.016239
   9 H :    0.034203
  10 H :    0.025729
  11 H :    0.027188
  12 H :    0.027567
  13 H :    0.044241
  14 H :    0.008902
  15 H :    0.014380
  16 H :    0.001741
  17 H :    0.072604

  Mayer bond orders larger than 0.1
B(  0-C ,  1-C ) :   1.0784 B(  0-C ,  7-H ) :   0.9552 B(  0-C ,  8-H ) :   0.9381
B(  0-C ,  9-H ) :   0.9535 B(  1-C ,  2-C ) :   1.0361 B(  1-C ,  3-N ) :   1.0652
B(  1-C ,  5-C ) :   0.9975 B(  2-C , 10-H ) :   0.9491 B(  2-C , 11-H ) :   0.9484
B(  2-C , 12-H ) :   0.9405 B(  3-N ,  4-C ) :   1.0627 B(  3-N , 13-H ) :   0.9337
B(  4-C ,  5-C ) :   1.0684 B(  4-C , 14-H ) :   0.9290 B(  4-C , 15-H ) :   0.9062
B(  5-C ,  6-O ) :   1.1643 B(  5-C , 16-H ) :   0.8868 B(  6-O , 17-H ) :   0.9762

FINAL SINGLE POINT ENERGY      -326.430340004459

DIPOLE MOMENT
-------------
                                X             Y             Z
Electronic contribution:      2.75177      -1.57414       1.15485
Nuclear contribution   :     -2.89085       1.04617      -0.38261
                        -----------------------------------------
Total Dipole Moment    :     -0.13908      -0.52797       0.77224
                        -----------------------------------------
Magnitude (a.u.)       :      0.94576
Magnitude (Debye)      :      2.40392

                             ****ORCA TERMINATED NORMALLY****
TOTAL RUN TIME: 0 days 0 hours 0 minutes 8 seconds 144 msec
