                         Program Version 3.0.3 - RELEASE   -
|  1> ! RI PBE def2-SVP def2-SVP/J NBO PAL2
|  2> % maxcore 2000
|  3> % output
|  4>     # printlevel mini
|  5>     print[ P_Basis ] 0
|  6>     print[ P_SCFInfo ] 1
|  7>     print[ P_SCFIterInfo ] 1
|  8>     print[ P_OrbEn ] 0
|  9>     print[ P_Cartesian ] 0
| 10> end
| 11> *xyz 0 1
| 12>  C        0.9793610000    -0.0418250000     0.2299270000
| 13>  C        2.4496600000    -0.0616400000    -0.1572470000
| 14>  C        2.6450140000    -0.0920030000    -1.6587080000
| 15>  N        3.2835150000     0.9622500000     0.5359840000
| 16>  C        3.8972110000    -0.0261200000     1.4452630000
| 17>  C        3.2310160000    -1.1225240000     0.6281030000
| 18>  O        3.2934090000    -2.3113590000     0.5911420000
| 19>  H        0.5029620000     0.8620990000    -0.1614200000
| 20>  H        0.8484400000    -0.0585170000     1.3151720000
| 21>  H        0.4595930000    -0.9066890000    -0.1874010000
| 22>  H        2.1813340000     0.7856310000    -2.1169740000
| 23>  H        2.1888110000    -0.9883530000    -2.0850300000
| 24>  H        3.7064320000    -0.0851750000    -1.9100560000
| 25>  H        2.7368430000     1.6680260000     1.0118200000
| 26>  H        3.5436580000    -0.0121790000     2.4837160000
| 27>  H        4.9908410000    -0.0315010000     1.4482090000
| 28> *
| 29>
| 30>                          ****END OF INPUT****
 Total Charge           Charge          ....    0
 Multiplicity           Mult            ....    1
 Number of Electrons    NEL             ....   54
 Basis Dimension        Dim             ....  143

MULLIKEN ATOMIC CHARGES
-----------------------
   0 C :    0.092991
   1 C :   -0.317484
   2 C :    0.130247
   3 N :   -0.197262
   4 C :    0.109054
   5 C :   -0.010737
   6 O :   -0.111764
   7 H :    0.030019
   8 H :    0.010157
   9 H :    0.034724
  10 H :    0.017680
  11 H :    0.024082
  12 H :    0.013534
  13 H :    0.088602
  14 H :    0.037991
  15 H :    0.048166
Sum of atomic charges:   -0.0000000

LOEWDIN ATOMIC CHARGES
----------------------
   0 C :   -0.052329
   1 C :   -0.051265
   2 C :   -0.047675
   3 N :   -0.099679
   4 C :   -0.009525
   5 C :    0.056602
   6 O :   -0.089234
   7 H :    0.030928
   8 H :    0.025479
   9 H :    0.037495
  10 H :    0.029478
  11 H :    0.032143
  12 H :    0.029356
  13 H :    0.046788
  14 H :    0.029027
  15 H :    0.032413

  Mayer bond orders larger than 0.1
B(  0-C ,  1-C ) :   1.0487 B(  0-C ,  7-H ) :   0.9531 B(  0-C ,  8-H ) :   0.9464
B(  0-C ,  9-H ) :   0.9502 B(  1-C ,  2-C ) :   1.0441 B(  1-C ,  3-N ) :   1.0582
B(  1-C ,  4-C ) :  -0.1059 B(  1-C ,  5-C ) :   0.8670 B(  2-C , 10-H ) :   0.9537
B(  2-C , 11-H ) :   0.9512 B(  2-C , 12-H ) :   0.9477 B(  3-N ,  4-C ) :   1.0555
B(  3-N , 13-H ) :   0.9289 B(  4-C ,  5-C ) :   0.9734 B(  4-C , 14-H ) :   0.9093
B(  4-C , 15-H ) :   0.9172 B(  5-C ,  6-O ) :   2.2798

FINAL SINGLE POINT ENERGY      -325.244112245215

DIPOLE MOMENT
-------------
                                X             Y             Z
Electronic contribution:      3.36823      -3.64062       2.36069
Nuclear contribution   :     -3.86766       4.40694      -2.10864
                        -----------------------------------------
Total Dipole Moment    :     -0.49944       0.76633       0.25206
                        -----------------------------------------
Magnitude (a.u.)       :      0.94880
Magnitude (Debye)      :      2.41167

                             ****ORCA TERMINATED NORMALLY****
TOTAL RUN TIME: 0 days 0 hours 0 minutes 7 seconds 768 msec
