                         Program Version 3.0.3 - RELEASE   -
|  1> ! RI PBE def2-SVP def2-SVP/J NBO PAL2
|  2> % maxcore 2000
|  3> % output
|  4>     # printlevel mini
|  5>     print[ P_Basis ] 0
|  6>     print[ P_SCFInfo ] 1
|  7>     print[ P_SCFIterInfo ] 1
|  8>     print[ P_OrbEn ] 0
|  9>     print[ P_Cartesian ] 0
| 10> end
| 11> *xyz 0 1
| 12>  C        0.8731530000     0.1005450000    -0.2579650000
| 13>  C        2.3635260000     0.0846500000    -0.0483190000
| 14>  C        2.7485340000     0.1182330000     1.4152540000
| 15>  N        4.1841820000    -0.0383830000     1.6444040000
| 16>  C        3.2007080000    -0.7011640000    -1.0352520000
| 17>  C        3.2255240000     0.8012950000    -1.0454340000
| 18>  O        4.3539420000     1.5083120000    -0.6671080000
| 19>  H        0.4027280000    -0.7967520000     0.1582920000
| 20>  H        0.6272560000     0.1394410000    -1.3211630000
| 21>  H        0.4153780000     0.9723840000     0.2205260000
| 22>  H        2.1505800000    -0.6329920000     1.9527700000
| 23>  H        2.4583270000     1.0941770000     1.8201700000
| 24>  H        4.4627770000    -1.0047900000     1.5301370000
| 25>  H        4.4224910000     0.2291650000     2.5904800000
| 26>  H        2.6877540000    -1.2359500000    -1.8269300000
| 27>  H        4.1045350000    -1.1842640000    -0.6819750000
| 28>  H        2.7162630000     1.2990470000    -1.8643270000
| 29>  H        4.6553430000     1.1070380000     0.1697610000
| 30> *
| 31>
| 32>                          ****END OF INPUT****
 Total Charge           Charge          ....    0
 Multiplicity           Mult            ....    1
 Number of Electrons    NEL             ....   56
 Basis Dimension        Dim             ....  153

MULLIKEN ATOMIC CHARGES
-----------------------
   0 C :    0.100844
   1 C :   -0.335912
   2 C :    0.172583
   3 N :   -0.226206
   4 C :   -0.007496
   5 C :    0.103163
   6 O :   -0.238476
   7 H :    0.011052
   8 H :    0.007309
   9 H :    0.016220
  10 H :    0.002764
  11 H :    0.010600
  12 H :    0.104734
  13 H :    0.106287
  14 H :    0.019925
  15 H :    0.010980
  16 H :    0.005824
  17 H :    0.135803
Sum of atomic charges:   -0.0000000

LOEWDIN ATOMIC CHARGES
----------------------
   0 C :   -0.043794
   1 C :   -0.096023
   2 C :    0.023162
   3 N :   -0.069848
   4 C :   -0.072008
   5 C :    0.046242
   6 O :   -0.107896
   7 H :    0.023244
   8 H :    0.027802
   9 H :    0.027183
  10 H :    0.009269
  11 H :    0.025532
  12 H :    0.057016
  13 H :    0.062586
  14 H :    0.022907
  15 H :    0.019619
  16 H :    0.016128
  17 H :    0.028879

  Mayer bond orders larger than 0.1
B(  0-C ,  1-C ) :   1.0856 B(  0-C ,  7-H ) :   0.9498 B(  0-C ,  8-H ) :   0.9450
B(  0-C ,  9-H ) :   0.9561 B(  1-C ,  2-C ) :   1.0291 B(  1-C ,  4-C ) :   0.9590
B(  1-C ,  5-C ) :   0.8938 B(  2-C ,  3-N ) :   1.0503 B(  2-C , 10-H ) :   0.9351
B(  2-C , 11-H ) :   0.9289 B(  3-N , 12-H ) :   0.9594 B(  3-N , 13-H ) :   0.9583
B(  3-N , 17-H ) :   0.1542 B(  4-C ,  5-C ) :   0.9459 B(  4-C , 14-H ) :   0.9320
B(  4-C , 15-H ) :   0.9275 B(  5-C ,  6-O ) :   1.1828 B(  5-C , 16-H ) :   0.9526
B(  6-O , 17-H ) :   0.9191

FINAL SINGLE POINT ENERGY      -326.436248862509

DIPOLE MOMENT
-------------
                                X             Y             Z
Electronic contribution:      3.63979       2.15424      -1.21094
Nuclear contribution   :     -3.95929      -2.89664       2.22350
                        -----------------------------------------
Total Dipole Moment    :     -0.31950      -0.74239       1.01256
                        -----------------------------------------
Magnitude (a.u.)       :      1.29557
Magnitude (Debye)      :      3.29308

                             ****ORCA TERMINATED NORMALLY****
TOTAL RUN TIME: 0 days 0 hours 0 minutes 8 seconds 110 msec
