                         Program Version 3.0.3 - RELEASE   -
|  1> ! RI PBE def2-SVP def2-SVP/J NBO PAL2
|  2> % maxcore 2000
|  3> % output
|  4>     # printlevel mini
|  5>     print[ P_Basis ] 0
|  6>     print[ P_SCFInfo ] 1
|  7>     print[ P_SCFIterInfo ] 1
|  8>     print[ P_OrbEn ] 0
|  9>     print[ P_Cartesian ] 0
| 10> end
| 11> *xyz 0 1
| 12>  C        0.9908220000     0.0832130000     0.7004560000
| 13>  C        2.4259300000     0.1236900000     0.2225810000
| 14>  C        3.3993690000     0.8707930000     1.1670160000
| 15>  N        4.3343840000     1.7079850000     0.4487730000
| 16>  C        3.8994160000    -0.5105760000     1.6757240000
| 17>  C        3.2222480000    -1.1799020000     0.4758310000
| 18>  O        4.1962890000    -1.4553540000    -0.5110250000
| 19>  H        0.3850010000    -0.5907390000     0.0880660000
| 20>  H        0.5366640000     1.0763310000     0.6587470000
| 21>  H        0.9269110000    -0.2656750000     1.7357830000
| 22>  H        2.4810940000     0.4765350000    -0.8122700000
| 23>  H        2.9033560000     1.4836250000     1.9249390000
| 24>  H        4.8363230000     1.1485230000    -0.2327600000
| 25>  H        5.0270800000     2.0896900000     1.0826130000
| 26>  H        3.4559100000    -0.8076230000     2.6280400000
| 27>  H        4.9808480000    -0.6488130000     1.7250140000
| 28>  H        2.6173760000    -2.0715330000     0.6858520000
| 29>  H        3.7418790000    -1.6892800000    -1.3252620000
| 30> *
| 31>
| 32>                          ****END OF INPUT****
 Total Charge           Charge          ....    0
 Multiplicity           Mult            ....    1
 Number of Electrons    NEL             ....   56
 Basis Dimension        Dim             ....  153

MULLIKEN ATOMIC CHARGES
-----------------------
   0 C :    0.058213
   1 C :   -0.059376
   2 C :   -0.121794
   3 N :   -0.125716
   4 C :    0.181856
   5 C :    0.008494
   6 O :   -0.252060
   7 H :    0.017040
   8 H :    0.027738
   9 H :    0.007453
  10 H :   -0.018909
  11 H :   -0.007934
  12 H :    0.077538
  13 H :    0.086680
  14 H :   -0.002753
  15 H :   -0.015008
  16 H :   -0.016188
  17 H :    0.154726
Sum of atomic charges:   -0.0000000

LOEWDIN ATOMIC CHARGES
----------------------
   0 C :   -0.057575
   1 C :   -0.056062
   2 C :    0.010546
   3 N :   -0.091285
   4 C :   -0.054633
   5 C :    0.051502
   6 O :   -0.112310
   7 H :    0.025587
   8 H :    0.030690
   9 H :    0.024106
  10 H :    0.015104
  11 H :    0.010662
  12 H :    0.045089
  13 H :    0.051088
  14 H :    0.024102
  15 H :    0.019774
  16 H :   -0.005334
  17 H :    0.068949

  Mayer bond orders larger than 0.1
B(  0-C ,  1-C ) :   1.0723 B(  0-C ,  7-H ) :   0.9549 B(  0-C ,  8-H ) :   0.9543
B(  0-C ,  9-H ) :   0.9532 B(  1-C ,  2-C ) :   1.0132 B(  1-C ,  5-C ) :   1.0129
B(  1-C , 10-H ) :   0.8829 B(  2-C ,  3-N ) :   1.1152 B(  2-C ,  4-C ) :   1.0324
B(  2-C , 11-H ) :   0.9156 B(  3-N , 12-H ) :   0.9561 B(  3-N , 13-H ) :   0.9640
B(  4-C ,  5-C ) :   1.0702 B(  4-C , 14-H ) :   0.9082 B(  4-C , 15-H ) :   0.8781
B(  5-C ,  6-O ) :   1.0824 B(  5-C , 16-H ) :   0.9236 B(  6-O , 17-H ) :   0.9813

FINAL SINGLE POINT ENERGY      -326.435643991798

DIPOLE MOMENT
-------------
                                X             Y             Z
Electronic contribution:      3.23148      -1.14213      -1.79941
Nuclear contribution   :     -3.46296       0.84281       1.79366
                        -----------------------------------------
Total Dipole Moment    :     -0.23148      -0.29932      -0.00576
                        -----------------------------------------
Magnitude (a.u.)       :      0.37843
Magnitude (Debye)      :      0.96190

                             ****ORCA TERMINATED NORMALLY****
TOTAL RUN TIME: 0 days 0 hours 0 minutes 7 seconds 824 msec
