                         Program Version 3.0.3 - RELEASE   -
|  1> ! RI PBE def2-SVP def2-SVP/J NBO PAL2
|  2> % maxcore 2000
|  3> % output
|  4>     # printlevel mini
|  5>     print[ P_Basis ] 0
|  6>     print[ P_SCFInfo ] 1
|  7>     print[ P_SCFIterInfo ] 1
|  8>     print[ P_OrbEn ] 0
|  9>     print[ P_Cartesian ] 0
| 10> end
| 11> *xyz 0 1
| 12>  C        0.9053510000    -0.0110520000     0.3202840000
| 13>  C        2.3605800000     0.0991110000    -0.0717320000
| 14>  C        3.2337150000     1.1502490000     0.6553490000
| 15>  N        4.0436240000     0.0477140000     1.1531110000
| 16>  C        5.2050310000    -0.0014860000     1.9935100000
| 17>  C        3.3103460000    -0.9318070000     0.5570970000
| 18>  O        3.4082850000    -2.1307870000     0.5642340000
| 19>  H        0.3228630000     0.8260910000    -0.0719350000
| 20>  H        0.7917130000    -0.0257110000     1.4074610000
| 21>  H        0.4770590000    -0.9356630000    -0.0718210000
| 22>  H        2.4780100000     0.1355010000    -1.1576560000
| 23>  H        2.7116210000     1.7079180000     1.4401260000
| 24>  H        3.7746350000     1.8469490000     0.0074220000
| 25>  H        5.4833010000     1.0142150000     2.2756390000
| 26>  H        6.0501080000    -0.4619780000     1.4742440000
| 27>  H        5.0099370000    -0.5741650000     2.9044670000
| 28> *
| 29>
| 30>                          ****END OF INPUT****
 Total Charge           Charge          ....    0
 Multiplicity           Mult            ....    1
 Number of Electrons    NEL             ....   54
 Basis Dimension        Dim             ....  143

MULLIKEN ATOMIC CHARGES
-----------------------
   0 C :    0.049102
   1 C :   -0.289946
   2 C :    0.246232
   3 N :   -0.318585
   4 C :    0.105171
   5 C :    0.129498
   6 O :   -0.183170
   7 H :    0.029284
   8 H :    0.020894
   9 H :    0.040722
  10 H :    0.042464
  11 H :    0.006398
  12 H :    0.012328
  13 H :    0.026343
  14 H :    0.040754
  15 H :    0.042512
Sum of atomic charges:   -0.0000000

LOEWDIN ATOMIC CHARGES
----------------------
   0 C :   -0.053941
   1 C :   -0.066370
   2 C :    0.050559
   3 N :   -0.038828
   4 C :    0.010466
   5 C :    0.016594
   6 O :   -0.174425
   7 H :    0.029095
   8 H :    0.028418
   9 H :    0.037513
  10 H :    0.036727
  11 H :    0.013329
  12 H :    0.014658
  13 H :    0.032231
  14 H :    0.031792
  15 H :    0.032184

  Mayer bond orders larger than 0.1
B(  0-C ,  1-C ) :   1.0711 B(  0-C ,  7-H ) :   0.9625 B(  0-C ,  8-H ) :   0.9584
B(  0-C ,  9-H ) :   0.9591 B(  1-C ,  2-C ) :   1.0514 B(  1-C ,  5-C ) :   0.8946
B(  1-C , 10-H ) :   0.8905 B(  2-C ,  3-N ) :   1.0178 B(  2-C , 11-H ) :   0.9261
B(  2-C , 12-H ) :   0.9241 B(  3-N ,  4-C ) :   0.9791 B(  3-N ,  5-C ) :   1.1804
B(  3-N ,  6-O ) :   0.1037 B(  4-C , 13-H ) :   0.9686 B(  4-C , 14-H ) :   0.9660
B(  4-C , 15-H ) :   0.9660 B(  5-C ,  6-O ) :   2.1711

FINAL SINGLE POINT ENERGY      -325.275094799807

DIPOLE MOMENT
-------------
                                X             Y             Z
Electronic contribution:      1.86587      -4.15327      -1.09843
Nuclear contribution   :     -1.72483       5.52016       1.31650
                        -----------------------------------------
Total Dipole Moment    :      0.14103       1.36690       0.21807
                        -----------------------------------------
Magnitude (a.u.)       :      1.39135
Magnitude (Debye)      :      3.53653

                             ****ORCA TERMINATED NORMALLY****
TOTAL RUN TIME: 0 days 0 hours 0 minutes 7 seconds 665 msec
