                         Program Version 3.0.3 - RELEASE   -
|  1> ! RI PBE def2-SVP def2-SVP/J NBO PAL2
|  2> % maxcore 2000
|  3> % output
|  4>     # printlevel mini
|  5>     print[ P_Basis ] 0
|  6>     print[ P_SCFInfo ] 1
|  7>     print[ P_SCFIterInfo ] 1
|  8>     print[ P_OrbEn ] 0
|  9>     print[ P_Cartesian ] 0
| 10> end
| 11> *xyz 0 1
| 12>  C        1.0256380000    -0.0894930000     0.0145910000
| 13>  C        2.5361590000    -0.0448350000     0.0839940000
| 14>  C        3.1671410000     1.0415470000     0.9452830000
| 15>  N        4.5078810000     0.5219210000     1.1901210000
| 16>  C        4.3618180000    -0.8900980000     1.4866400000
| 17>  C        3.1618330000    -1.3070790000     0.6562720000
| 18>  O        2.7647680000    -2.4297280000     0.5077500000
| 19>  H        0.6258310000     0.7949510000    -0.4857950000
| 20>  H        0.5894950000    -0.1392780000     1.0155250000
| 21>  H        0.6991870000    -0.9741870000    -0.5340880000
| 22>  H        2.9571880000     0.0417810000    -0.9275570000
| 23>  H        2.5706500000     1.1638590000     1.8665960000
| 24>  H        3.2153760000     2.0111690000     0.4456400000
| 25>  H        4.9968410000     1.0290890000     1.9134680000
| 26>  H        4.1124360000    -1.1172940000     2.5377120000
| 27>  H        5.2453660000    -1.4755260000     1.2216480000
| 28> *
| 29>
| 30>                          ****END OF INPUT****
 Total Charge           Charge          ....    0
 Multiplicity           Mult            ....    1
 Number of Electrons    NEL             ....   54
 Basis Dimension        Dim             ....  143

MULLIKEN ATOMIC CHARGES
-----------------------
   0 C :    0.049637
   1 C :   -0.133215
   2 C :    0.136310
   3 N :   -0.278030
   4 C :    0.190050
   5 C :   -0.101478
   6 O :   -0.143927
   7 H :    0.022104
   8 H :    0.017206
   9 H :    0.036690
  10 H :    0.045934
  11 H :   -0.006539
  12 H :    0.010572
  13 H :    0.103085
  14 H :    0.017661
  15 H :    0.033938
Sum of atomic charges:    0.0000000

LOEWDIN ATOMIC CHARGES
----------------------
   0 C :   -0.051020
   1 C :   -0.081807
   2 C :    0.021553
   3 N :   -0.106509
   4 C :   -0.013905
   5 C :    0.060952
   6 O :   -0.110819
   7 H :    0.029208
   8 H :    0.027473
   9 H :    0.034518
  10 H :    0.052850
  11 H :   -0.000106
  12 H :    0.020726
  13 H :    0.057096
  14 H :    0.024690
  15 H :    0.035101

  Mayer bond orders larger than 0.1
B(  0-C ,  1-C ) :   1.0958 B(  0-C ,  7-H ) :   0.9613 B(  0-C ,  8-H ) :   0.9598
B(  0-C ,  9-H ) :   0.9514 B(  1-C ,  2-C ) :   1.0520 B(  1-C ,  5-C ) :   0.9413
B(  1-C , 10-H ) :   0.8633 B(  2-C ,  3-N ) :   1.0403 B(  2-C , 11-H ) :   0.9204
B(  2-C , 12-H ) :   0.9276 B(  3-N ,  4-C ) :   1.0549 B(  3-N , 13-H ) :   0.9384
B(  4-C ,  5-C ) :   0.9686 B(  4-C , 14-H ) :   0.8884 B(  4-C , 15-H ) :   0.9150
B(  5-C ,  6-O ) :   2.2288

FINAL SINGLE POINT ENERGY      -325.268266373837

DIPOLE MOMENT
-------------
                                X             Y             Z
Electronic contribution:      2.56383      -4.17587      -0.22821
Nuclear contribution   :     -2.40436       5.12177       0.63930
                        -----------------------------------------
Total Dipole Moment    :      0.15946       0.94590       0.41109
                        -----------------------------------------
Magnitude (a.u.)       :      1.04363
Magnitude (Debye)      :      2.65268

                             ****ORCA TERMINATED NORMALLY****
TOTAL RUN TIME: 0 days 0 hours 0 minutes 7 seconds 308 msec
