                         Program Version 3.0.3 - RELEASE   -
|  1> ! RI PBE def2-SVP def2-SVP/J NBO PAL2
|  2> % maxcore 2000
|  3> % output
|  4>     # printlevel mini
|  5>     print[ P_Basis ] 0
|  6>     print[ P_SCFInfo ] 1
|  7>     print[ P_SCFIterInfo ] 1
|  8>     print[ P_OrbEn ] 0
|  9>     print[ P_Cartesian ] 0
| 10> end
| 11> *xyz 0 1
| 12>  C        1.0672350000    -0.0711740000    -0.0847550000
| 13>  C        2.5336210000     0.0883260000    -0.0797580000
| 14>  C        3.3821600000     1.1375550000    -0.0796050000
| 15>  N        4.6871330000     0.6797730000    -0.0734560000
| 16>  C        4.5816030000    -0.6038820000    -0.0701600000
| 17>  C        5.6557450000    -1.6176310000    -0.0632640000
| 18>  O        3.3008810000    -1.0420500000    -0.0736550000
| 19>  H        0.5926570000     0.9101080000    -0.0893140000
| 20>  H        0.7217000000    -0.6156500000     0.7984050000
| 21>  H        0.7282630000    -0.6206780000    -0.9673450000
| 22>  H        3.1456090000     2.1899380000    -0.0834990000
| 23>  H        6.6178120000    -1.1095390000    -0.0610910000
| 24>  H        5.5929920000    -2.2615390000    -0.9439980000
| 25>  H        5.5863700000    -2.2565560000     0.8205960000
| 26> *
| 27>
| 28>                          ****END OF INPUT****
 Total Charge           Charge          ....    0
 Multiplicity           Mult            ....    1
 Number of Electrons    NEL             ....   52
 Basis Dimension        Dim             ....  133

MULLIKEN ATOMIC CHARGES
-----------------------
   0 C :    0.092582
   1 C :   -0.019852
   2 C :   -0.036736
   3 N :   -0.103108
   4 C :   -0.068572
   5 C :    0.090969
   6 O :   -0.181234
   7 H :    0.026221
   8 H :    0.042724
   9 H :    0.042728
  10 H :   -0.009651
  11 H :    0.038869
  12 H :    0.042599
  13 H :    0.042460
Sum of atomic charges:   -0.0000000

LOEWDIN ATOMIC CHARGES
----------------------
   0 C :   -0.063617
   1 C :   -0.011426
   2 C :   -0.062957
   3 N :   -0.105535
   4 C :    0.005885
   5 C :   -0.067248
   6 O :    0.011880
   7 H :    0.045405
   8 H :    0.043387
   9 H :    0.043388
  10 H :    0.021161
  11 H :    0.049482
  12 H :    0.045102
  13 H :    0.045092

  Mayer bond orders larger than 0.1
B(  0-C ,  1-C ) :   1.1170 B(  0-C ,  7-H ) :   0.9434 B(  0-C ,  8-H ) :   0.9355
B(  0-C ,  9-H ) :   0.9354 B(  1-C ,  2-C ) :   1.5873 B(  1-C ,  6-O ) :   1.1079
B(  2-C ,  3-N ) :   1.2986 B(  2-C , 10-H ) :   0.9903 B(  3-N ,  4-C ) :   1.7589
B(  4-C ,  5-C ) :   1.1129 B(  4-C ,  6-O ) :   1.1560 B(  5-C , 11-H ) :   0.9413
B(  5-C , 12-H ) :   0.9369 B(  5-C , 13-H ) :   0.9368

FINAL SINGLE POINT ENERGY      -324.087309375020

DIPOLE MOMENT
-------------
                                X             Y             Z
Electronic contribution:      1.42325       1.47982       0.00098
Nuclear contribution   :     -1.99780      -1.93139      -0.00191
                        -----------------------------------------
Total Dipole Moment    :     -0.57455      -0.45156      -0.00093
                        -----------------------------------------
Magnitude (a.u.)       :      0.73077
Magnitude (Debye)      :      1.85746

                             ****ORCA TERMINATED NORMALLY****
TOTAL RUN TIME: 0 days 0 hours 0 minutes 6 seconds 594 msec
