                         Program Version 3.0.3 - RELEASE   -
|  1> ! RI PBE def2-SVP def2-SVP/J NBO PAL2
|  2> % maxcore 2000
|  3> % output
|  4>     # printlevel mini
|  5>     print[ P_Basis ] 0
|  6>     print[ P_SCFInfo ] 1
|  7>     print[ P_SCFIterInfo ] 1
|  8>     print[ P_OrbEn ] 0
|  9>     print[ P_Cartesian ] 0
| 10> end
| 11> *xyz 0 1
| 12>  C        0.8586010000     0.0614410000     0.1022930000
| 13>  C        2.3657630000     0.0021110000    -0.0869710000
| 14>  C        2.8768030000    -1.3887340000    -0.4579740000
| 15>  N        2.5891240000    -1.7746330000    -1.8287760000
| 16>  C        3.0304670000    -0.7402040000    -2.7506280000
| 17>  C        2.5074730000     0.6330850000    -2.3755520000
| 18>  O        2.8238160000     0.9569430000    -1.0381150000
| 19>  H        0.5651840000    -0.5492820000     0.9596820000
| 20>  H        0.3111920000    -0.3070890000    -0.7687070000
| 21>  H        0.5424890000     1.0892840000     0.2890750000
| 22>  H        2.8415390000     0.3085760000     0.8502480000
| 23>  H        2.4636860000    -2.1385670000     0.2228750000
| 24>  H        3.9653230000    -1.4008190000    -0.3339760000
| 25>  H        1.5966290000    -1.9424210000    -1.9469020000
| 26>  H        2.7214770000    -1.0007200000    -3.7671110000
| 27>  H        4.1265110000    -0.7226120000    -2.7351810000
| 28>  H        1.4197220000     0.6770530000    -2.5393570000
| 29>  H        2.9648920000     1.4132970000    -2.9897140000
| 30> *
| 31>
| 32>                          ****END OF INPUT****
 Total Charge           Charge          ....    0
 Multiplicity           Mult            ....    1
 Number of Electrons    NEL             ....   56
 Basis Dimension        Dim             ....  153

MULLIKEN ATOMIC CHARGES
-----------------------
   0 C :    0.011063
   1 C :    0.041279
   2 C :    0.107290
   3 N :   -0.230371
   4 C :    0.050032
   5 C :    0.185055
   6 O :   -0.341494
   7 H :    0.015756
   8 H :    0.005389
   9 H :    0.030571
  10 H :   -0.003005
  11 H :    0.007063
  12 H :    0.010685
  13 H :    0.091890
  14 H :    0.008962
  15 H :    0.014489
  16 H :   -0.015674
  17 H :    0.011020
Sum of atomic charges:   -0.0000000

LOEWDIN ATOMIC CHARGES
----------------------
   0 C :   -0.078126
   1 C :    0.027644
   2 C :   -0.003787
   3 N :   -0.089090
   4 C :   -0.011284
   5 C :    0.040265
   6 O :   -0.150355
   7 H :    0.030506
   8 H :    0.015458
   9 H :    0.032118
  10 H :    0.022227
  11 H :    0.023017
  12 H :    0.023839
  13 H :    0.049240
  14 H :    0.023535
  15 H :    0.023537
  16 H :   -0.000804
  17 H :    0.022061

  Mayer bond orders larger than 0.1
B(  0-C ,  1-C ) :   1.0666 B(  0-C ,  7-H ) :   0.9526 B(  0-C ,  8-H ) :   0.9482
B(  0-C ,  9-H ) :   0.9555 B(  1-C ,  2-C ) :   1.0316 B(  1-C ,  6-O ) :   1.0079
B(  1-C , 10-H ) :   0.9071 B(  2-C ,  3-N ) :   1.0962 B(  2-C , 11-H ) :   0.9368
B(  2-C , 12-H ) :   0.9161 B(  3-N ,  4-C ) :   1.0786 B(  3-N , 13-H ) :   0.9505
B(  4-C ,  5-C ) :   1.0764 B(  4-C , 14-H ) :   0.9358 B(  4-C , 15-H ) :   0.9164
B(  5-C ,  6-O ) :   1.0195 B(  5-C , 16-H ) :   0.9118 B(  5-C , 17-H ) :   0.9318

FINAL SINGLE POINT ENERGY      -326.450338998562

DIPOLE MOMENT
-------------
                                X             Y             Z
Electronic contribution:      2.45095       0.92808      -0.51031
Nuclear contribution   :     -2.91985      -1.08028       0.47333
                        -----------------------------------------
Total Dipole Moment    :     -0.46890      -0.15220      -0.03698
                        -----------------------------------------
Magnitude (a.u.)       :      0.49437
Magnitude (Debye)      :      1.25659

                             ****ORCA TERMINATED NORMALLY****
TOTAL RUN TIME: 0 days 0 hours 0 minutes 7 seconds 310 msec
