                         Program Version 3.0.3 - RELEASE   -
|  1> ! RI PBE def2-SVP def2-SVP/J NBO PAL2
|  2> % maxcore 2000
|  3> % output
|  4>     # printlevel mini
|  5>     print[ P_Basis ] 0
|  6>     print[ P_SCFInfo ] 1
|  7>     print[ P_SCFIterInfo ] 1
|  8>     print[ P_OrbEn ] 0
|  9>     print[ P_Cartesian ] 0
| 10> end
| 11> *xyz 0 1
| 12>  C        1.0426750000    -0.0131870000     0.1065770000
| 13>  C        2.3546410000    -0.0807320000    -0.0858350000
| 14>  C        3.1606130000    -1.3478420000    -0.0857870000
| 15>  N        4.1540870000    -1.4112930000    -1.1493940000
| 16>  C        4.9427640000    -0.1916070000    -1.1539630000
| 17>  C        4.0781570000     1.0481670000    -1.2312500000
| 18>  O        3.0807370000     1.0695040000    -0.2166570000
| 19>  H        0.4697480000    -0.9138800000     0.2825800000
| 20>  H        0.5311980000     0.9409070000     0.1250210000
| 21>  H        2.4981190000    -2.2123770000    -0.1454390000
| 22>  H        3.6999950000    -1.4136180000     0.8682710000
| 23>  H        3.6816710000    -1.5110680000    -2.0421070000
| 24>  H        5.6435890000    -0.2089580000    -1.9934310000
| 25>  H        5.5361910000    -0.1697220000    -0.2328480000
| 26>  H        3.5850910000     1.1006660000    -2.2132390000
| 27>  H        4.6633430000     1.9597300000    -1.0931980000
| 28> *
| 29>
| 30>                          ****END OF INPUT****
 Total Charge           Charge          ....    0
 Multiplicity           Mult            ....    1
 Number of Electrons    NEL             ....   54
 Basis Dimension        Dim             ....  143

MULLIKEN ATOMIC CHARGES
-----------------------
   0 C :   -0.057312
   1 C :   -0.042836
   2 C :    0.192276
   3 N :   -0.242682
   4 C :    0.036563
   5 C :    0.206772
   6 O :   -0.286432
   7 H :    0.006665
   8 H :    0.017799
   9 H :    0.007938
  10 H :    0.021333
  11 H :    0.092163
  12 H :    0.023442
  13 H :    0.016736
  14 H :   -0.009605
  15 H :    0.017180
Sum of atomic charges:    0.0000000

LOEWDIN ATOMIC CHARGES
----------------------
   0 C :   -0.114996
   1 C :    0.003278
   2 C :    0.002288
   3 N :   -0.090262
   4 C :   -0.011662
   5 C :    0.055455
   6 O :   -0.096188
   7 H :    0.025505
   8 H :    0.026574
   9 H :    0.030575
  10 H :    0.033189
  11 H :    0.052341
  12 H :    0.028872
  13 H :    0.024696
  14 H :    0.006268
  15 H :    0.024067

  Mayer bond orders larger than 0.1
B(  0-C ,  1-C ) :   1.9494 B(  0-C ,  7-H ) :   0.9261 B(  0-C ,  8-H ) :   0.9279
B(  1-C ,  2-C ) :   1.0002 B(  1-C ,  6-O ) :   1.1021 B(  2-C ,  3-N ) :   1.0604
B(  2-C ,  9-H ) :   0.9290 B(  2-C , 10-H ) :   0.8992 B(  3-N ,  4-C ) :   1.0790
B(  3-N , 11-H ) :   0.9469 B(  4-C ,  5-C ) :   1.0790 B(  4-C , 12-H ) :   0.9378
B(  4-C , 13-H ) :   0.9205 B(  5-C ,  6-O ) :   0.9721 B(  5-C , 14-H ) :   0.9144
B(  5-C , 15-H ) :   0.9377

FINAL SINGLE POINT ENERGY      -325.234909367818

DIPOLE MOMENT
-------------
                                X             Y             Z
Electronic contribution:     -0.51320       1.15792       0.85862
Nuclear contribution   :      0.74308      -1.23419      -1.31767
                        -----------------------------------------
Total Dipole Moment    :      0.22988      -0.07628      -0.45905
                        -----------------------------------------
Magnitude (a.u.)       :      0.51903
Magnitude (Debye)      :      1.31926

                             ****ORCA TERMINATED NORMALLY****
TOTAL RUN TIME: 0 days 0 hours 0 minutes 7 seconds 302 msec
