                         Program Version 3.0.3 - RELEASE   -
|  1> ! RI PBE def2-SVP def2-SVP/J NBO PAL2
|  2> % maxcore 2000
|  3> % output
|  4>     # printlevel mini
|  5>     print[ P_Basis ] 0
|  6>     print[ P_SCFInfo ] 1
|  7>     print[ P_SCFIterInfo ] 1
|  8>     print[ P_OrbEn ] 0
|  9>     print[ P_Cartesian ] 0
| 10> end
| 11> *xyz 0 1
| 12>  C        1.0125610000    -0.1955850000     0.1316180000
| 13>  C        2.4714820000     0.0800630000    -0.1448820000
| 14>  C        2.7256570000     0.2911230000    -1.6259410000
| 15>  N        4.1408740000     0.4616770000    -1.8909210000
| 16>  C        3.1500380000     1.0851130000     0.8022590000
| 17>  C        3.9389160000    -0.1210110000     1.3039990000
| 18>  O        3.3090310000    -0.9963320000     0.3562200000
| 19>  H        0.3942500000     0.6509730000    -0.1804620000
| 20>  H        0.8508070000    -0.3658450000     1.1976740000
| 21>  H        0.6803750000    -1.0846460000    -0.4101830000
| 22>  H        2.1935620000     1.1967390000    -1.9369760000
| 23>  H        2.2698390000    -0.5540460000    -2.1669940000
| 24>  H        4.3049210000     0.6495690000    -2.8707140000
| 25>  H        4.6256710000    -0.3966760000    -1.6577020000
| 26>  H        2.4838790000     1.5551930000     1.5254030000
| 27>  H        3.7503380000     1.8340790000     0.2893940000
| 28>  H        3.7317760000    -0.4302930000     2.3338510000
| 29>  H        5.0216410000    -0.0743850000     1.1542660000
| 30> *
| 31>
| 32>                          ****END OF INPUT****
 Total Charge           Charge          ....    0
 Multiplicity           Mult            ....    1
 Number of Electrons    NEL             ....   56
 Basis Dimension        Dim             ....  153

MULLIKEN ATOMIC CHARGES
-----------------------
   0 C :    0.106964
   1 C :   -0.203636
   2 C :    0.161991
   3 N :   -0.206679
   4 C :    0.041780
   5 C :    0.187541
   6 O :   -0.356701
   7 H :    0.017679
   8 H :    0.008631
   9 H :    0.018702
  10 H :    0.002753
  11 H :   -0.007699
  12 H :    0.088875
  13 H :    0.095376
  14 H :    0.007981
  15 H :    0.013566
  16 H :    0.007125
  17 H :    0.015751
Sum of atomic charges:   -0.0000000

LOEWDIN ATOMIC CHARGES
----------------------
   0 C :   -0.061417
   1 C :    0.027350
   2 C :    0.002139
   3 N :   -0.106122
   4 C :   -0.043714
   5 C :    0.083820
   6 O :   -0.184970
   7 H :    0.030466
   8 H :    0.027889
   9 H :    0.029391
  10 H :    0.023688
  11 H :    0.004500
  12 H :    0.053783
  13 H :    0.051190
  14 H :    0.020075
  15 H :    0.026140
  16 H :    0.006568
  17 H :    0.009224

  Mayer bond orders larger than 0.1
B(  0-C ,  1-C ) :   1.0632 B(  0-C ,  7-H ) :   0.9484 B(  0-C ,  8-H ) :   0.9419
B(  0-C ,  9-H ) :   0.9443 B(  1-C ,  2-C ) :   1.0098 B(  1-C ,  4-C ) :   1.0608
B(  1-C ,  6-O ) :   1.0260 B(  2-C ,  3-N ) :   1.0969 B(  2-C , 10-H ) :   0.9226
B(  2-C , 11-H ) :   0.9155 B(  3-N , 12-H ) :   0.9640 B(  3-N , 13-H ) :   0.9556
B(  4-C ,  5-C ) :   1.1152 B(  4-C , 14-H ) :   0.9379 B(  4-C , 15-H ) :   0.9106
B(  5-C ,  6-O ) :   1.0167 B(  5-C , 16-H ) :   0.9359 B(  5-C , 17-H ) :   0.9379

FINAL SINGLE POINT ENERGY      -326.434441244059

DIPOLE MOMENT
-------------
                                X             Y             Z
Electronic contribution:      2.14510      -1.76282       0.44247
Nuclear contribution   :     -2.28815       2.04612      -0.72721
                        -----------------------------------------
Total Dipole Moment    :     -0.14305       0.28330      -0.28474
                        -----------------------------------------
Magnitude (a.u.)       :      0.42638
Magnitude (Debye)      :      1.08377

                             ****ORCA TERMINATED NORMALLY****
TOTAL RUN TIME: 0 days 0 hours 0 minutes 7 seconds 820 msec
