                         Program Version 3.0.3 - RELEASE   -
|  1> ! RI PBE def2-SVP def2-SVP/J NBO PAL2
|  2> % maxcore 2000
|  3> % output
|  4>     # printlevel mini
|  5>     print[ P_Basis ] 0
|  6>     print[ P_SCFInfo ] 1
|  7>     print[ P_SCFIterInfo ] 1
|  8>     print[ P_OrbEn ] 0
|  9>     print[ P_Cartesian ] 0
| 10> end
| 11> *xyz 0 1
| 12>  C        1.1029320000    -0.0719950000    -0.0277820000
| 13>  C        2.5774900000     0.0532400000    -0.0106460000
| 14>  C        3.4373520000     1.1163770000    -0.0832350000
| 15>  N        4.7421410000     0.7108600000    -0.0093810000
| 16>  C        4.7030840000    -0.5891090000     0.1075410000
| 17>  N        3.4197990000    -1.0236370000     0.0971260000
| 18>  O        3.0199560000    -2.3151940000     0.2907870000
| 19>  H        0.6561590000     0.9214790000    -0.0580520000
| 20>  H        0.7326220000    -0.5877060000     0.8621200000
| 21>  H        0.7446560000    -0.6256550000    -0.9013030000
| 22>  H        3.1758350000     2.1593380000    -0.1824680000
| 23>  H        5.5371650000    -1.2669590000     0.2070340000
| 24>  H        2.9144100000    -2.6959390000    -0.5904420000
| 25> *
| 26>
| 27>                          ****END OF INPUT****
 Total Charge           Charge          ....    0
 Multiplicity           Mult            ....    1
 Number of Electrons    NEL             ....   52
 Basis Dimension        Dim             ....  128

MULLIKEN ATOMIC CHARGES
-----------------------
   0 C :    0.095185
   1 C :   -0.054297
   2 C :   -0.051669
   3 N :   -0.135220
   4 C :    0.093488
   5 N :   -0.055373
   6 O :   -0.166098
   7 H :    0.026974
   8 H :    0.042311
   9 H :    0.025086
  10 H :   -0.020404
  11 H :    0.006789
  12 H :    0.193229
Sum of atomic charges:   -0.0000000

LOEWDIN ATOMIC CHARGES
----------------------
   0 C :   -0.062869
   1 C :   -0.064636
   2 C :   -0.063364
   3 N :   -0.105211
   4 C :   -0.026519
   5 N :    0.120842
   6 O :   -0.039485
   7 H :    0.046012
   8 H :    0.041532
   9 H :    0.034248
  10 H :    0.015589
  11 H :    0.015775
  12 H :    0.088085

  Mayer bond orders larger than 0.1
B(  0-C ,  1-C ) :   1.1172 B(  0-C ,  7-H ) :   0.9387 B(  0-C ,  8-H ) :   0.9350
B(  0-C ,  9-H ) :   0.9355 B(  1-C ,  2-C ) :   1.4852 B(  1-C ,  5-N ) :   1.1721
B(  2-C ,  3-N ) :   1.4073 B(  2-C , 10-H ) :   0.9916 B(  3-N ,  4-C ) :   1.6326
B(  4-C ,  5-N ) :   1.1864 B(  4-C , 11-H ) :   0.9712 B(  5-N ,  6-O ) :   0.9525
B(  6-O , 12-H ) :   0.9656

FINAL SINGLE POINT ENERGY      -340.051678249627

DIPOLE MOMENT
-------------
                                X             Y             Z
Electronic contribution:      4.41499      -1.13918       0.40086
Nuclear contribution   :     -5.35845       0.15543      -0.90803
                        -----------------------------------------
Total Dipole Moment    :     -0.94346      -0.98375      -0.50717
                        -----------------------------------------
Magnitude (a.u.)       :      1.45434
Magnitude (Debye)      :      3.69663

                             ****ORCA TERMINATED NORMALLY****
TOTAL RUN TIME: 0 days 0 hours 0 minutes 6 seconds 173 msec
