                         Program Version 3.0.3 - RELEASE   -
|  1> ! RI PBE def2-SVP def2-SVP/J NBO PAL2
|  2> % maxcore 2000
|  3> % output
|  4>     # printlevel mini
|  5>     print[ P_Basis ] 0
|  6>     print[ P_SCFInfo ] 1
|  7>     print[ P_SCFIterInfo ] 1
|  8>     print[ P_OrbEn ] 0
|  9>     print[ P_Cartesian ] 0
| 10> end
| 11> *xyz 0 1
| 12>  C        1.0196520000     0.1493540000     0.2093770000
| 13>  C        2.4549290000     0.1336180000    -0.2562840000
| 14>  C        2.9013340000    -1.1189830000    -1.0230990000
| 15>  N        3.9098720000    -0.6594010000    -1.9810490000
| 16>  C        3.7745340000     0.5987410000    -2.0388820000
| 17>  N        2.7512830000     1.1519870000    -1.2700110000
| 18>  O        3.0790070000     2.4032120000    -0.7245750000
| 19>  H        0.8457420000    -0.6458840000     0.9382040000
| 20>  H        0.3399130000     0.0009150000    -0.6328560000
| 21>  H        0.7738570000     1.0980500000     0.6922980000
| 22>  H        3.1299570000     0.3090020000     0.5939670000
| 23>  H        2.0562930000    -1.5475870000    -1.5768950000
| 24>  H        3.3045930000    -1.9015810000    -0.3786450000
| 25>  H        4.3593140000     1.2584970000    -2.6715960000
| 26>  H        2.3587190000     2.9767410000    -1.0030450000
| 27> *
| 28>
| 29>                          ****END OF INPUT****
 Total Charge           Charge          ....    0
 Multiplicity           Mult            ....    1
 Number of Electrons    NEL             ....   54
 Basis Dimension        Dim             ....  138

MULLIKEN ATOMIC CHARGES
-----------------------
   0 C :    0.042087
   1 C :   -0.037125
   2 C :    0.141644
   3 N :   -0.209524
   4 C :    0.133291
   5 N :   -0.177422
   6 O :   -0.199592
   7 H :    0.032387
   8 H :    0.019134
   9 H :    0.015982
  10 H :    0.008406
  11 H :    0.014785
  12 H :    0.024011
  13 H :    0.010225
  14 H :    0.181714
Sum of atomic charges:   -0.0000000

LOEWDIN ATOMIC CHARGES
----------------------
   0 C :   -0.068287
   1 C :   -0.006229
   2 C :    0.011163
   3 N :   -0.123806
   4 C :    0.012758
   5 N :   -0.001049
   6 O :   -0.071645
   7 H :    0.034371
   8 H :    0.026893
   9 H :    0.025902
  10 H :    0.016891
  11 H :    0.025888
  12 H :    0.025989
  13 H :    0.016477
  14 H :    0.074684

  Mayer bond orders larger than 0.1
B(  0-C ,  1-C ) :   1.1021 B(  0-C ,  7-H ) :   0.9598 B(  0-C ,  8-H ) :   0.9450
B(  0-C ,  9-H ) :   0.9507 B(  1-C ,  2-C ) :   1.0369 B(  1-C ,  5-N ) :   0.9444
B(  1-C , 10-H ) :   0.8972 B(  2-C ,  3-N ) :   1.0642 B(  2-C , 11-H ) :   0.9159
B(  2-C , 12-H ) :   0.9385 B(  3-N ,  4-C ) :   1.8922 B(  3-N ,  5-N ) :   0.1062
B(  4-C ,  5-N ) :   1.0790 B(  4-C , 13-H ) :   0.9611 B(  5-N ,  6-O ) :   0.9353
B(  6-O , 14-H ) :   0.9779

FINAL SINGLE POINT ENERGY      -341.233674354217

DIPOLE MOMENT
-------------
                                X             Y             Z
Electronic contribution:      4.16902       2.39424      -3.21271
Nuclear contribution   :     -5.00711      -1.82350       3.59492
                        -----------------------------------------
Total Dipole Moment    :     -0.83809       0.57074       0.38220
                        -----------------------------------------
Magnitude (a.u.)       :      1.08362
Magnitude (Debye)      :      2.75434

                             ****ORCA TERMINATED NORMALLY****
TOTAL RUN TIME: 0 days 0 hours 0 minutes 6 seconds 910 msec
