                         Program Version 3.0.3 - RELEASE   -
|  1> ! RI PBE def2-SVP def2-SVP/J NBO PAL2
|  2> % maxcore 2000
|  3> % output
|  4>     # printlevel mini
|  5>     print[ P_Basis ] 0
|  6>     print[ P_SCFInfo ] 1
|  7>     print[ P_SCFIterInfo ] 1
|  8>     print[ P_OrbEn ] 0
|  9>     print[ P_Cartesian ] 0
| 10> end
| 11> *xyz 0 1
| 12>  C        0.9479580000    -0.0515690000    -0.0698520000
| 13>  C        2.4126010000     0.1105010000    -0.0652970000
| 14>  C        3.2705740000     1.1458230000    -0.0651940000
| 15>  N        4.5829140000     0.6914790000    -0.0595330000
| 16>  C        4.4521880000    -0.5922890000    -0.0564820000
| 17>  N        5.4250950000    -1.5284890000    -0.0508390000
| 18>  O        3.1840970000    -1.0409050000    -0.0595140000
| 19>  H        0.4766340000     0.9316880000    -0.0739740000
| 20>  H        0.5973160000    -0.5935940000     0.8137350000
| 21>  H        0.6033000000    -0.5981320000    -0.9529990000
| 22>  H        3.0383280000     2.1993680000    -0.0688400000
| 23>  H        6.3800810000    -1.2297130000    -0.0472540000
| 24>  H        5.1967030000    -2.5022680000    -0.0474570000
| 25> *
| 26>
| 27>                          ****END OF INPUT****
 Total Charge           Charge          ....    0
 Multiplicity           Mult            ....    1
 Number of Electrons    NEL             ....   52
 Basis Dimension        Dim             ....  128

MULLIKEN ATOMIC CHARGES
-----------------------
   0 C :    0.090889
   1 C :   -0.027083
   2 C :   -0.029667
   3 N :   -0.158268
   4 C :    0.036798
   5 N :   -0.044699
   6 O :   -0.202209
   7 H :    0.022532
   8 H :    0.035509
   9 H :    0.035529
  10 H :   -0.016079
  11 H :    0.131224
  12 H :    0.125526
Sum of atomic charges:   -0.0000000

LOEWDIN ATOMIC CHARGES
----------------------
   0 C :   -0.065332
   1 C :   -0.027909
   2 C :   -0.056959
   3 N :   -0.165338
   4 C :    0.022903
   5 N :    0.004321
   6 O :   -0.016216
   7 H :    0.044841
   8 H :    0.038349
   9 H :    0.038354
  10 H :    0.019346
  11 H :    0.084632
  12 H :    0.079008

  Mayer bond orders larger than 0.1
B(  0-C ,  1-C ) :   1.1275 B(  0-C ,  7-H ) :   0.9416 B(  0-C ,  8-H ) :   0.9354
B(  0-C ,  9-H ) :   0.9354 B(  1-C ,  2-C ) :   1.6243 B(  1-C ,  6-O ) :   1.0405
B(  2-C ,  3-N ) :   1.2727 B(  2-C , 10-H ) :   0.9901 B(  3-N ,  4-C ) :   1.6709
B(  4-C ,  5-N ) :   1.2452 B(  4-C ,  6-O ) :   1.1844 B(  5-N , 11-H ) :   0.9452
B(  5-N , 12-H ) :   0.9372

FINAL SINGLE POINT ENERGY      -340.111214219105

DIPOLE MOMENT
-------------
                                X             Y             Z
Electronic contribution:      4.18328      -0.49587       0.01508
Nuclear contribution   :     -4.24916      -0.38599      -0.01129
                        -----------------------------------------
Total Dipole Moment    :     -0.06588      -0.88187       0.00379
                        -----------------------------------------
Magnitude (a.u.)       :      0.88433
Magnitude (Debye)      :      2.24780

                             ****ORCA TERMINATED NORMALLY****
TOTAL RUN TIME: 0 days 0 hours 0 minutes 6 seconds 69 msec
