                         Program Version 3.0.3 - RELEASE   -
|  1> ! RI PBE def2-SVP def2-SVP/J NBO PAL2
|  2> % maxcore 2000
|  3> % output
|  4>     # printlevel mini
|  5>     print[ P_Basis ] 0
|  6>     print[ P_SCFInfo ] 1
|  7>     print[ P_SCFIterInfo ] 1
|  8>     print[ P_OrbEn ] 0
|  9>     print[ P_Cartesian ] 0
| 10> end
| 11> *xyz 0 1
| 12>  C        1.0856410000     0.0897150000     0.3980480000
| 13>  C        2.4622950000     0.0993480000    -0.2127980000
| 14>  C        2.8899460000    -1.2307700000    -0.8006790000
| 15>  N        4.1355540000    -1.1307440000    -1.5313310000
| 16>  C        4.4286430000     0.0265980000    -1.9553140000
| 17>  N        3.6368760000     1.1495500000    -1.9380140000
| 18>  O        2.4230500000     1.0668660000    -1.2697650000
| 19>  H        1.0434200000    -0.6339760000     1.2145900000
| 20>  H        0.3400080000    -0.1873510000    -0.3500570000
| 21>  H        0.8273720000     1.0730690000     0.7948110000
| 22>  H        3.2113840000     0.4231010000     0.5248870000
| 23>  H        2.0972610000    -1.6079050000    -1.4586170000
| 24>  H        3.0164610000    -1.9688190000    -0.0018280000
| 25>  H        5.3860100000     0.2084510000    -2.4456850000
| 26>  H        4.1058780000     2.0205570000    -1.7162380000
| 27> *
| 28>
| 29>                          ****END OF INPUT****
 Total Charge           Charge          ....    0
 Multiplicity           Mult            ....    1
 Number of Electrons    NEL             ....   54
 Basis Dimension        Dim             ....  138

MULLIKEN ATOMIC CHARGES
-----------------------
   0 C :    0.027135
   1 C :   -0.011512
   2 C :    0.145412
   3 N :   -0.201331
   4 C :    0.037922
   5 N :    0.030459
   6 O :   -0.298562
   7 H :    0.033157
   8 H :    0.031065
   9 H :    0.028476
  10 H :    0.008526
  11 H :    0.019726
  12 H :    0.015698
  13 H :    0.007029
  14 H :    0.126799
Sum of atomic charges:   -0.0000000

LOEWDIN ATOMIC CHARGES
----------------------
   0 C :   -0.063751
   1 C :    0.025857
   2 C :   -0.011983
   3 N :   -0.145737
   4 C :   -0.014208
   5 N :    0.064184
   6 O :   -0.112519
   7 H :    0.038185
   8 H :    0.033477
   9 H :    0.032812
  10 H :    0.010168
  11 H :    0.028559
  12 H :    0.027832
  13 H :    0.020055
  14 H :    0.067067

  Mayer bond orders larger than 0.1
B(  0-C ,  1-C ) :   1.0926 B(  0-C ,  7-H ) :   0.9562 B(  0-C ,  8-H ) :   0.9525
B(  0-C ,  9-H ) :   0.9514 B(  1-C ,  2-C ) :   1.0396 B(  1-C ,  6-O ) :   0.9353
B(  1-C , 10-H ) :   0.9140 B(  2-C ,  3-N ) :   1.0757 B(  2-C , 11-H ) :   0.9147
B(  2-C , 12-H ) :   0.9233 B(  3-N ,  4-C ) :   1.8782 B(  3-N ,  5-N ) :   0.1258
B(  4-C ,  5-N ) :   1.1602 B(  4-C , 13-H ) :   0.9420 B(  5-N ,  6-O ) :   0.9461
B(  5-N , 14-H ) :   0.9219

FINAL SINGLE POINT ENERGY      -341.232351122974

DIPOLE MOMENT
-------------
                                X             Y             Z
Electronic contribution:      3.54202       1.60603      -3.94227
Nuclear contribution   :     -3.57328      -0.95099       4.50334
                        -----------------------------------------
Total Dipole Moment    :     -0.03126       0.65505       0.56107
                        -----------------------------------------
Magnitude (a.u.)       :      0.86305
Magnitude (Debye)      :      2.19370

                             ****ORCA TERMINATED NORMALLY****
TOTAL RUN TIME: 0 days 0 hours 0 minutes 7 seconds 99 msec
