                         Program Version 3.0.3 - RELEASE   -
|  1> ! RI PBE def2-SVP def2-SVP/J NBO PAL2
|  2> % maxcore 2000
|  3> % output
|  4>     # printlevel mini
|  5>     print[ P_Basis ] 0
|  6>     print[ P_SCFInfo ] 1
|  7>     print[ P_SCFIterInfo ] 1
|  8>     print[ P_OrbEn ] 0
|  9>     print[ P_Cartesian ] 0
| 10> end
| 11> *xyz 0 1
| 12>  C        1.1459570000    -0.0542350000     0.0720370000
| 13>  C        2.6479780000     0.0226370000     0.0452680000
| 14>  C        3.2632080000     1.2023180000     0.7890270000
| 15>  N        4.5149110000     0.6079550000     1.1998500000
| 16>  C        4.3484880000    -0.7622860000     1.3398850000
| 17>  N        5.0645930000    -1.6334660000     1.9051270000
| 18>  O        3.2061960000    -1.1151690000     0.7081540000
| 19>  H        0.7160640000     0.8124660000    -0.4359900000
| 20>  H        0.7802980000    -0.0754050000     1.1006740000
| 21>  H        0.7996530000    -0.9545870000    -0.4371020000
| 22>  H        3.0128630000     0.0144240000    -0.9896250000
| 23>  H        2.6330990000     1.4993880000     1.6389630000
| 24>  H        3.4110130000     2.0666690000     0.1388030000
| 25>  H        5.0696190000     1.0666150000     1.9025640000
| 26>  H        5.8753600000    -1.2104240000     2.3439550000
| 27> *
| 28>
| 29>                          ****END OF INPUT****
 Total Charge           Charge          ....    0
 Multiplicity           Mult            ....    1
 Number of Electrons    NEL             ....   54
 Basis Dimension        Dim             ....  138

MULLIKEN ATOMIC CHARGES
-----------------------
   0 C :    0.029853
   1 C :    0.014328
   2 C :    0.155812
   3 N :   -0.222113
   4 C :    0.019316
   5 N :   -0.087980
   6 O :   -0.252587
   7 H :    0.026708
   8 H :    0.026716
   9 H :    0.043172
  10 H :    0.022551
  11 H :    0.008870
  12 H :    0.020133
  13 H :    0.115838
  14 H :    0.079385
Sum of atomic charges:    0.0000000

LOEWDIN ATOMIC CHARGES
----------------------
   0 C :   -0.064169
   1 C :    0.057696
   2 C :    0.017606
   3 N :   -0.053944
   4 C :    0.022175
   5 N :   -0.188541
   6 O :   -0.072124
   7 H :    0.035292
   8 H :    0.030895
   9 H :    0.039238
  10 H :    0.020406
  11 H :    0.012876
  12 H :    0.025353
  13 H :    0.070182
  14 H :    0.047061

  Mayer bond orders larger than 0.1
B(  0-C ,  1-C ) :   1.1024 B(  0-C ,  7-H ) :   0.9522 B(  0-C ,  8-H ) :   0.9520
B(  0-C ,  9-H ) :   0.9545 B(  1-C ,  2-C ) :   1.0654 B(  1-C ,  6-O ) :   0.9759
B(  1-C , 10-H ) :   0.9091 B(  2-C ,  3-N ) :   1.0224 B(  2-C , 11-H ) :   0.9266
B(  2-C , 12-H ) :   0.9282 B(  3-N ,  4-C ) :   1.0811 B(  3-N , 13-H ) :   0.9346
B(  4-C ,  5-N ) :   1.9889 B(  4-C ,  6-O ) :   1.1041 B(  5-N , 14-H ) :   0.9215

FINAL SINGLE POINT ENERGY      -341.299480074051

DIPOLE MOMENT
-------------
                                X             Y             Z
Electronic contribution:      4.58641      -3.05560       1.46980
Nuclear contribution   :     -4.92759       4.80746      -1.58764
                        -----------------------------------------
Total Dipole Moment    :     -0.34118       1.75186      -0.11784
                        -----------------------------------------
Magnitude (a.u.)       :      1.78866
Magnitude (Debye)      :      4.54641

                             ****ORCA TERMINATED NORMALLY****
TOTAL RUN TIME: 0 days 0 hours 0 minutes 7 seconds 72 msec
