                         Program Version 3.0.3 - RELEASE   -
|  1> ! RI PBE def2-SVP def2-SVP/J NBO PAL2
|  2> % maxcore 2000
|  3> % output
|  4>     # printlevel mini
|  5>     print[ P_Basis ] 0
|  6>     print[ P_SCFInfo ] 1
|  7>     print[ P_SCFIterInfo ] 1
|  8>     print[ P_OrbEn ] 0
|  9>     print[ P_Cartesian ] 0
| 10> end
| 11> *xyz 0 1
| 12>  C        1.1019590000     0.0795380000     0.3022960000
| 13>  C        2.3848680000     0.0805290000    -0.0232580000
| 14>  C        3.2297070000     1.3291070000    -0.1806690000
| 15>  N        4.5251950000     0.8065030000    -0.5336290000
| 16>  C        4.6225190000    -0.5456120000    -0.6201080000
| 17>  O        5.6195130000    -1.1677140000    -0.9017540000
| 18>  C        3.2516000000    -1.1139210000    -0.2978010000
| 19>  H        0.5616820000     1.0030680000     0.4815900000
| 20>  H        0.5434080000    -0.8439810000     0.4018880000
| 21>  H        3.2646550000     1.9057270000     0.7507810000
| 22>  H        2.8294000000     1.9841940000    -0.9629220000
| 23>  H        5.3294660000     1.3836290000    -0.7115390000
| 24>  H        3.3359760000    -1.7894100000     0.5573290000
| 25>  H        2.9038420000    -1.7119560000    -1.1440050000
| 26> *
| 27>
| 28>                          ****END OF INPUT****
 Total Charge           Charge          ....    0
 Multiplicity           Mult            ....    1
 Number of Electrons    NEL             ....   52
 Basis Dimension        Dim             ....  133

MULLIKEN ATOMIC CHARGES
-----------------------
   0 C :   -0.029956
   1 C :   -0.267775
   2 C :    0.240554
   3 N :   -0.181927
   4 C :    0.013449
   5 O :   -0.187042
   6 C :    0.083182
   7 H :    0.011299
   8 H :    0.017935
   9 H :    0.034824
  10 H :    0.037076
  11 H :    0.111765
  12 H :    0.059095
  13 H :    0.057521
Sum of atomic charges:   -0.0000000

LOEWDIN ATOMIC CHARGES
----------------------
   0 C :   -0.067434
   1 C :   -0.036236
   2 C :    0.035366
   3 N :   -0.001985
   4 C :    0.020286
   5 O :   -0.186855
   6 C :   -0.059854
   7 H :    0.024397
   8 H :    0.027641
   9 H :    0.029449
  10 H :    0.029642
  11 H :    0.074499
  12 H :    0.055715
  13 H :    0.055369

  Mayer bond orders larger than 0.1
B(  0-C ,  1-C ) :   2.0402 B(  0-C ,  7-H ) :   0.9308 B(  0-C ,  8-H ) :   0.9363
B(  1-C ,  2-C ) :   0.9910 B(  1-C ,  6-C ) :   1.0686 B(  2-C ,  3-N ) :   1.0008
B(  2-C ,  9-H ) :   0.9230 B(  2-C , 10-H ) :   0.9237 B(  3-N ,  4-C ) :   1.2019
B(  3-N , 11-H ) :   0.9233 B(  4-C ,  5-O ) :   2.1557 B(  4-C ,  6-C ) :   0.9265
B(  6-C , 12-H ) :   0.8995 B(  6-C , 13-H ) :   0.8998

FINAL SINGLE POINT ENERGY      -324.083479631247

DIPOLE MOMENT
-------------
                                X             Y             Z
Electronic contribution:      4.98651      -1.32169      -1.32540
Nuclear contribution   :     -5.85225       2.30676       1.59177
                        -----------------------------------------
Total Dipole Moment    :     -0.86573       0.98507       0.26637
                        -----------------------------------------
Magnitude (a.u.)       :      1.33821
Magnitude (Debye)      :      3.40147

                             ****ORCA TERMINATED NORMALLY****
TOTAL RUN TIME: 0 days 0 hours 0 minutes 6 seconds 688 msec
