                         Program Version 3.0.3 - RELEASE   -
|  1> ! RI PBE def2-SVP def2-SVP/J NBO PAL2
|  2> % maxcore 2000
|  3> % output
|  4>     # printlevel mini
|  5>     print[ P_Basis ] 0
|  6>     print[ P_SCFInfo ] 1
|  7>     print[ P_SCFIterInfo ] 1
|  8>     print[ P_OrbEn ] 0
|  9>     print[ P_Cartesian ] 0
| 10> end
| 11> *xyz 0 1
| 12>  C        1.0129700000     0.0510180000     0.0027300000
| 13>  C        2.4924390000     0.0524630000    -0.1026580000
| 14>  C        3.3089480000    -0.9981070000    -0.2049170000
| 15>  N        4.6484870000    -0.6019650000    -0.2837150000
| 16>  C        4.7727090000     0.7629950000    -0.2353710000
| 17>  O        5.8039190000     1.3885070000    -0.2826630000
| 18>  C        3.3458020000     1.2869930000    -0.1116900000
| 19>  H        0.6173650000    -0.9663740000    -0.0118220000
| 20>  H        0.5513630000     0.6032830000    -0.8228590000
| 21>  H        0.6761830000     0.5296940000     0.9285380000
| 22>  H        3.0573480000    -2.0492150000    -0.2310710000
| 23>  H        5.4399320000    -1.2153230000    -0.3659200000
| 24>  H        3.1323440000     1.9590880000    -0.9492240000
| 25>  H        3.2570810000     1.8856230000     0.8007330000
| 26> *
| 27>
| 28>                          ****END OF INPUT****
 Total Charge           Charge          ....    0
 Multiplicity           Mult            ....    1
 Number of Electrons    NEL             ....   52
 Basis Dimension        Dim             ....  133

MULLIKEN ATOMIC CHARGES
-----------------------
   0 C :    0.087310
   1 C :   -0.243238
   2 C :    0.069326
   3 N :   -0.106406
   4 C :    0.019282
   5 O :   -0.177807
   6 C :    0.067615
   7 H :    0.011799
   8 H :    0.029947
   9 H :    0.027529
  10 H :   -0.010129
  11 H :    0.113277
  12 H :    0.056436
  13 H :    0.055058
Sum of atomic charges:   -0.0000000

LOEWDIN ATOMIC CHARGES
----------------------
   0 C :   -0.055917
   1 C :   -0.084872
   2 C :   -0.003986
   3 N :    0.026817
   4 C :    0.032343
   5 O :   -0.175441
   6 C :   -0.054890
   7 H :    0.033316
   8 H :    0.035436
   9 H :    0.035006
  10 H :    0.021933
  11 H :    0.078499
  12 H :    0.056007
  13 H :    0.055750

  Mayer bond orders larger than 0.1
B(  0-C ,  1-C ) :   1.1257 B(  0-C ,  7-H ) :   0.9485 B(  0-C ,  8-H ) :   0.9431
B(  0-C ,  9-H ) :   0.9426 B(  1-C ,  2-C ) :   1.7427 B(  1-C ,  6-C ) :   1.0740
B(  2-C ,  3-N ) :   1.0574 B(  2-C , 10-H ) :   0.9847 B(  3-N ,  4-C ) :   1.1567
B(  3-N , 11-H ) :   0.9268 B(  4-C ,  5-O ) :   2.1596 B(  4-C ,  6-C ) :   0.9483
B(  6-C , 12-H ) :   0.8955 B(  6-C , 13-H ) :   0.8956

FINAL SINGLE POINT ENERGY      -324.094767466755

DIPOLE MOMENT
-------------
                                X             Y             Z
Electronic contribution:      7.29104       0.32402      -0.50804
Nuclear contribution   :     -8.21654      -1.20944       0.53490
                        -----------------------------------------
Total Dipole Moment    :     -0.92550      -0.88542       0.02686
                        -----------------------------------------
Magnitude (a.u.)       :      1.28111
Magnitude (Debye)      :      3.25632

                             ****ORCA TERMINATED NORMALLY****
TOTAL RUN TIME: 0 days 0 hours 0 minutes 6 seconds 698 msec
