                         Program Version 3.0.3 - RELEASE   -
|  1> ! RI PBE def2-SVP def2-SVP/J NBO PAL2
|  2> % maxcore 2000
|  3> % output
|  4>     # printlevel mini
|  5>     print[ P_Basis ] 0
|  6>     print[ P_SCFInfo ] 1
|  7>     print[ P_SCFIterInfo ] 1
|  8>     print[ P_OrbEn ] 0
|  9>     print[ P_Cartesian ] 0
| 10> end
| 11> *xyz 0 1
| 12>  C        0.9205270000     0.0800370000     0.1437970000
| 13>  C        2.4288690000     0.1219080000     0.0002300000
| 14>  C        2.8199590000     0.1387510000    -1.4694900000
| 15>  N        4.2573280000     0.1276590000    -1.6768530000
| 16>  C        3.1019240000     1.1637180000     0.9139530000
| 17>  O        3.6556870000     0.1498590000     1.7534060000
| 18>  C        3.1727280000    -0.8897610000     0.8882940000
| 19>  H        0.4542580000     0.9516060000    -0.3259020000
| 20>  H        0.6291680000     0.0700930000     1.1966230000
| 21>  H        0.5056290000    -0.8159760000    -0.3278970000
| 22>  H        2.3083710000     0.9899270000    -1.9492370000
| 23>  H        2.4109250000    -0.7650790000    -1.9348660000
| 24>  H        4.6690040000     1.0219920000    -1.4434110000
| 25>  H        4.4771370000    -0.0551820000    -2.6465850000
| 26>  H        2.4182360000     1.8247560000     1.4586410000
| 27>  H        3.8844760000     1.7768310000     0.4491490000
| 28>  H        2.5402460000    -1.6049230000     1.4251150000
| 29>  H        3.9944380000    -1.4081390000     0.3864540000
| 30> *
| 31>
| 32>                          ****END OF INPUT****
 Total Charge           Charge          ....    0
 Multiplicity           Mult            ....    1
 Number of Electrons    NEL             ....   56
 Basis Dimension        Dim             ....  153

MULLIKEN ATOMIC CHARGES
-----------------------
   0 C :    0.084503
   1 C :   -0.509405
   2 C :    0.150827
   3 N :   -0.193743
   4 C :    0.306360
   5 O :   -0.366550
   6 C :    0.326053
   7 H :    0.016102
   8 H :    0.022427
   9 H :    0.016692
  10 H :   -0.009264
  11 H :    0.001741
  12 H :    0.087724
  13 H :    0.094006
  14 H :   -0.005654
  15 H :   -0.015404
  16 H :   -0.007729
  17 H :    0.001312
Sum of atomic charges:    0.0000000

LOEWDIN ATOMIC CHARGES
----------------------
   0 C :   -0.048726
   1 C :   -0.089583
   2 C :    0.011708
   3 N :   -0.102367
   4 C :    0.090819
   5 O :   -0.181312
   6 C :    0.095565
   7 H :    0.024917
   8 H :    0.028658
   9 H :    0.026299
  10 H :    0.001580
  11 H :    0.022829
  12 H :    0.048715
  13 H :    0.056286
  14 H :    0.005604
  15 H :   -0.000947
  16 H :    0.003420
  17 H :    0.006536

  Mayer bond orders larger than 0.1
B(  0-C ,  1-C ) :   1.0475 B(  0-C ,  7-H ) :   0.9518 B(  0-C ,  8-H ) :   0.9522
B(  0-C ,  9-H ) :   0.9534 B(  1-C ,  2-C ) :   1.0089 B(  1-C ,  4-C ) :   1.0509
B(  1-C ,  6-C ) :   1.0469 B(  2-C ,  3-N ) :   1.1103 B(  2-C , 10-H ) :   0.9233
B(  2-C , 11-H ) :   0.9251 B(  3-N , 12-H ) :   0.9639 B(  3-N , 13-H ) :   0.9643
B(  4-C ,  5-O ) :   1.0529 B(  4-C , 14-H ) :   0.9249 B(  4-C , 15-H ) :   0.9208
B(  5-O ,  6-C ) :   1.0331 B(  6-C , 16-H ) :   0.9284 B(  6-C , 17-H ) :   0.9165

FINAL SINGLE POINT ENERGY      -326.421977624819

DIPOLE MOMENT
-------------
                                X             Y             Z
Electronic contribution:      3.22306      -0.17608       3.12779
Nuclear contribution   :     -3.64965       0.47881      -4.13534
                        -----------------------------------------
Total Dipole Moment    :     -0.42659       0.30273      -1.00754
                        -----------------------------------------
Magnitude (a.u.)       :      1.13524
Magnitude (Debye)      :      2.88555

                             ****ORCA TERMINATED NORMALLY****
TOTAL RUN TIME: 0 days 0 hours 0 minutes 7 seconds 867 msec
