                         Program Version 3.0.3 - RELEASE   -
|  1> ! RI PBE def2-SVP def2-SVP/J NBO PAL2
|  2> % maxcore 2000
|  3> % output
|  4>     # printlevel mini
|  5>     print[ P_Basis ] 0
|  6>     print[ P_SCFInfo ] 1
|  7>     print[ P_SCFIterInfo ] 1
|  8>     print[ P_OrbEn ] 0
|  9>     print[ P_Cartesian ] 0
| 10> end
| 11> *xyz 0 1
| 12>  C        0.9031900000    -0.0205940000    -0.0889110000
| 13>  C        2.4153370000    -0.0689840000    -0.0209250000
| 14>  C        3.0368620000     1.0844060000     0.7809220000
| 15>  N        4.2874050000     0.5216460000     1.2283100000
| 16>  C        4.3180580000    -0.8391700000     1.2482250000
| 17>  O        5.2175010000    -1.5228430000     1.6784520000
| 18>  C        3.0026770000    -1.3085790000     0.6505120000
| 19>  H        0.5541620000     0.9117610000    -0.5411780000
| 20>  H        0.4649370000    -0.0930840000     0.9107310000
| 21>  H        0.5087300000    -0.8457370000    -0.6862320000
| 22>  H        2.8217730000    -0.0125020000    -1.0367450000
| 23>  H        2.3906440000     1.3635990000     1.6252070000
| 24>  H        3.1916600000     1.9760860000     0.1681490000
| 25>  H        5.0011780000     1.0483800000     1.7030970000
| 26>  H        2.3715560000    -1.6555050000     1.4771980000
| 27>  H        3.1623200000    -2.1548500000    -0.0171030000
| 28> *
| 29>
| 30>                          ****END OF INPUT****
 Total Charge           Charge          ....    0
 Multiplicity           Mult            ....    1
 Number of Electrons    NEL             ....   54
 Basis Dimension        Dim             ....  143

MULLIKEN ATOMIC CHARGES
-----------------------
   0 C :    0.039795
   1 C :   -0.224795
   2 C :    0.189917
   3 N :   -0.173716
   4 C :    0.018369
   5 O :   -0.186771
   6 C :    0.034788
   7 H :    0.020530
   8 H :    0.017294
   9 H :    0.029288
  10 H :    0.025812
  11 H :    0.010962
  12 H :    0.017309
  13 H :    0.111208
  14 H :    0.033930
  15 H :    0.036080
Sum of atomic charges:    0.0000000

LOEWDIN ATOMIC CHARGES
----------------------
   0 C :   -0.058509
   1 C :   -0.046184
   2 C :    0.033112
   3 N :   -0.004510
   4 C :    0.019954
   5 O :   -0.186727
   6 C :   -0.060814
   7 H :    0.027740
   8 H :    0.024774
   9 H :    0.031498
  10 H :    0.031781
  11 H :    0.013195
  12 H :    0.021276
  13 H :    0.071695
  14 H :    0.042100
  15 H :    0.039621

  Mayer bond orders larger than 0.1
B(  0-C ,  1-C ) :   1.0920 B(  0-C ,  7-H ) :   0.9581 B(  0-C ,  8-H ) :   0.9550
B(  0-C ,  9-H ) :   0.9614 B(  1-C ,  2-C ) :   1.0370 B(  1-C ,  6-C ) :   1.0723
B(  1-C , 10-H ) :   0.9102 B(  2-C ,  3-N ) :   1.0017 B(  2-C , 11-H ) :   0.9326
B(  2-C , 12-H ) :   0.9371 B(  3-N ,  4-C ) :   1.1912 B(  3-N , 13-H ) :   0.9249
B(  4-C ,  5-O ) :   2.1598 B(  4-C ,  6-C ) :   0.9454 B(  6-C , 14-H ) :   0.9079
B(  6-C , 15-H ) :   0.9261

FINAL SINGLE POINT ENERGY      -325.305888979114

DIPOLE MOMENT
-------------
                                X             Y             Z
Electronic contribution:      7.77581      -2.02534       2.91957
Nuclear contribution   :     -8.73807       3.07755      -3.29514
                        -----------------------------------------
Total Dipole Moment    :     -0.96225       1.05221      -0.37557
                        -----------------------------------------
Magnitude (a.u.)       :      1.47450
Magnitude (Debye)      :      3.74787

                             ****ORCA TERMINATED NORMALLY****
TOTAL RUN TIME: 0 days 0 hours 0 minutes 7 seconds 791 msec
