                         Program Version 3.0.3 - RELEASE   -
|  1> ! RI PBE def2-SVP def2-SVP/J NBO PAL2
|  2> % maxcore 2000
|  3> % output
|  4>     # printlevel mini
|  5>     print[ P_Basis ] 0
|  6>     print[ P_SCFInfo ] 1
|  7>     print[ P_SCFIterInfo ] 1
|  8>     print[ P_OrbEn ] 0
|  9>     print[ P_Cartesian ] 0
| 10> end
| 11> *xyz 0 1
| 12>  C        1.1099630000    -0.0048120000     0.2068020000
| 13>  C        2.3984640000     0.0634330000    -0.1157430000
| 14>  C        3.2523580000     1.3146930000    -0.1957440000
| 15>  N        4.5342450000     0.7850550000    -0.5831480000
| 16>  C        4.5374680000    -0.5702380000    -0.7342300000
| 17>  O        5.4578310000    -1.2841150000    -1.0493050000
| 18>  N        3.2430470000    -0.9754800000    -0.4473390000
| 19>  H        0.5599710000     0.8943440000     0.4474190000
| 20>  H        0.5788790000    -0.9472760000     0.2383680000
| 21>  H        3.2876860000     1.8243480000     0.7726220000
| 22>  H        2.8497500000     2.0140180000    -0.9357220000
| 23>  H        5.3651410000     1.3234350000    -0.7363950000
| 24>  H        2.9844980000    -1.9443750000    -0.4885840000
| 25> *
| 26>
| 27>                          ****END OF INPUT****
 Total Charge           Charge          ....    0
 Multiplicity           Mult            ....    1
 Number of Electrons    NEL             ....   52
 Basis Dimension        Dim             ....  128

MULLIKEN ATOMIC CHARGES
-----------------------
   0 C :   -0.078885
   1 C :   -0.082028
   2 C :    0.222788
   3 N :   -0.229320
   4 C :    0.134742
   5 O :   -0.192186
   6 N :   -0.113340
   7 H :    0.005029
   8 H :    0.007408
   9 H :    0.040947
  10 H :    0.044576
  11 H :    0.122954
  12 H :    0.117315
Sum of atomic charges:   -0.0000000

LOEWDIN ATOMIC CHARGES
----------------------
   0 C :   -0.149134
   1 C :    0.003740
   2 C :    0.041120
   3 N :   -0.025644
   4 C :    0.024599
   5 O :   -0.200108
   6 N :    0.022166
   7 H :    0.027127
   8 H :    0.024266
   9 H :    0.033424
  10 H :    0.033852
  11 H :    0.078430
  12 H :    0.086161

  Mayer bond orders larger than 0.1
B(  0-C ,  1-C ) :   1.9102 B(  0-C ,  7-H ) :   0.9214 B(  0-C ,  8-H ) :   0.9325
B(  1-C ,  2-C ) :   0.9804 B(  1-C ,  6-N ) :   1.1577 B(  2-C ,  3-N ) :   1.0194
B(  2-C ,  9-H ) :   0.9197 B(  2-C , 10-H ) :   0.9205 B(  3-N ,  4-C ) :   1.1247
B(  3-N , 11-H ) :   0.9326 B(  4-C ,  5-O ) :   2.1557 B(  4-C ,  6-N ) :   1.0222
B(  6-N , 12-H ) :   0.9310

FINAL SINGLE POINT ENERGY      -340.127322475888

DIPOLE MOMENT
-------------
                                X             Y             Z
Electronic contribution:      4.60828      -2.67167      -1.47719
Nuclear contribution   :     -5.25894       3.54691       1.74120
                        -----------------------------------------
Total Dipole Moment    :     -0.65066       0.87525       0.26401
                        -----------------------------------------
Magnitude (a.u.)       :      1.12210
Magnitude (Debye)      :      2.85216

                             ****ORCA TERMINATED NORMALLY****
TOTAL RUN TIME: 0 days 0 hours 0 minutes 6 seconds 447 msec
