                         Program Version 3.0.3 - RELEASE   -
|  1> ! RI PBE def2-SVP def2-SVP/J NBO PAL2
|  2> % maxcore 2000
|  3> % output
|  4>     # printlevel mini
|  5>     print[ P_Basis ] 0
|  6>     print[ P_SCFInfo ] 1
|  7>     print[ P_SCFIterInfo ] 1
|  8>     print[ P_OrbEn ] 0
|  9>     print[ P_Cartesian ] 0
| 10> end
| 11> *xyz 0 1
| 12>  C        1.0206160000     0.0746150000     0.1209500000
| 13>  C        2.5318600000     0.0401080000     0.1007720000
| 14>  C        3.1972260000     1.2224170000     0.8158230000
| 15>  N        4.4478260000     0.6371340000     1.2411270000
| 16>  C        4.3182320000    -0.7279700000     1.3954400000
| 17>  O        5.1157580000    -1.4769160000     1.9080910000
| 18>  N        3.0972200000    -1.0671910000     0.8479650000
| 19>  H        0.6512600000     0.9652340000    -0.3939460000
| 20>  H        0.6510010000     0.0845240000     1.1485180000
| 21>  H        0.6000150000    -0.7972720000    -0.3853800000
| 22>  H        2.8824990000     0.0192060000    -0.9421210000
| 23>  H        2.5771780000     1.5436430000     1.6645520000
| 24>  H        3.3445860000     2.0731340000     0.1481330000
| 25>  H        5.0628830000     1.1108350000     1.8804400000
| 26>  H        2.9926510000    -2.0163110000     0.5302260000
| 27> *
| 28>
| 29>                          ****END OF INPUT****
 Total Charge           Charge          ....    0
 Multiplicity           Mult            ....    1
 Number of Electrons    NEL             ....   54
 Basis Dimension        Dim             ....  138

MULLIKEN ATOMIC CHARGES
-----------------------
   0 C :    0.037596
   1 C :   -0.051758
   2 C :    0.163934
   3 N :   -0.218021
   4 C :    0.112480
   5 O :   -0.199859
   6 N :   -0.203627
   7 H :    0.025338
   8 H :    0.023726
   9 H :    0.025287
  10 H :    0.017396
  11 H :    0.008913
  12 H :    0.020016
  13 H :    0.120227
  14 H :    0.118353
Sum of atomic charges:   -0.0000000

LOEWDIN ATOMIC CHARGES
----------------------
   0 C :   -0.064761
   1 C :    0.013911
   2 C :    0.030494
   3 N :   -0.038978
   4 C :    0.014438
   5 O :   -0.207997
   6 N :   -0.036528
   7 H :    0.032354
   8 H :    0.028169
   9 H :    0.030306
  10 H :    0.016372
  11 H :    0.013688
  12 H :    0.022843
  13 H :    0.073135
  14 H :    0.072554

  Mayer bond orders larger than 0.1
B(  0-C ,  1-C ) :   1.1010 B(  0-C ,  7-H ) :   0.9550 B(  0-C ,  8-H ) :   0.9500
B(  0-C ,  9-H ) :   0.9588 B(  1-C ,  2-C ) :   1.0537 B(  1-C ,  6-N ) :   0.9907
B(  1-C , 10-H ) :   0.9059 B(  2-C ,  3-N ) :   1.0290 B(  2-C , 11-H ) :   0.9208
B(  2-C , 12-H ) :   0.9366 B(  3-N ,  4-C ) :   1.0907 B(  3-N , 13-H ) :   0.9320
B(  4-C ,  5-O ) :   2.1544 B(  4-C ,  6-N ) :   1.0858 B(  6-N , 14-H ) :   0.9344

FINAL SINGLE POINT ENERGY      -341.338173888789

DIPOLE MOMENT
-------------
                                X             Y             Z
Electronic contribution:      6.74936      -3.29063       2.83447
Nuclear contribution   :     -7.80917       4.22834      -3.50791
                        -----------------------------------------
Total Dipole Moment    :     -1.05982       0.93771      -0.67343
                        -----------------------------------------
Magnitude (a.u.)       :      1.56717
Magnitude (Debye)      :      3.98344

                             ****ORCA TERMINATED NORMALLY****
TOTAL RUN TIME: 0 days 0 hours 0 minutes 7 seconds 370 msec
