                         Program Version 3.0.3 - RELEASE   -
|  1> ! RI PBE def2-SVP def2-SVP/J NBO PAL2
|  2> % maxcore 2000
|  3> % output
|  4>     # printlevel mini
|  5>     print[ P_Basis ] 0
|  6>     print[ P_SCFInfo ] 1
|  7>     print[ P_SCFIterInfo ] 1
|  8>     print[ P_OrbEn ] 0
|  9>     print[ P_Cartesian ] 0
| 10> end
| 11> *xyz 0 1
| 12>  C        1.0065500000    -0.0687510000     0.0614910000
| 13>  C        2.4841910000     0.0033030000     0.0663960000
| 14>  C        3.3180830000     1.0598790000     0.0690230000
| 15>  N        4.6171990000     0.5712600000     0.0734410000
| 16>  C        4.6309360000    -0.8051930000     0.0736510000
| 17>  O        5.5859670000    -1.5543810000     0.0769590000
| 18>  N        3.2882130000    -1.1285780000     0.0692300000
| 19>  H        0.5841410000     0.9361040000     0.0599540000
| 20>  H        0.6255740000    -0.5932720000     0.9434960000
| 21>  H        0.6314530000    -0.5935010000    -0.8228950000
| 22>  H        3.0938700000     2.1126770000     0.0681340000
| 23>  H        5.4633490000     1.1091260000     0.0762090000
| 24>  H        2.9761740000    -2.0823720000     0.0683310000
| 25> *
| 26>
| 27>                          ****END OF INPUT****
 Total Charge           Charge          ....    0
 Multiplicity           Mult            ....    1
 Number of Electrons    NEL             ....   52
 Basis Dimension        Dim             ....  128

MULLIKEN ATOMIC CHARGES
-----------------------
   0 C :    0.092235
   1 C :   -0.061897
   2 C :   -0.004256
   3 N :   -0.118020
   4 C :    0.113414
   5 O :   -0.218867
   6 N :   -0.121471
   7 H :    0.020653
   8 H :    0.035275
   9 H :    0.035216
  10 H :   -0.006632
  11 H :    0.122234
  12 H :    0.112116
Sum of atomic charges:   -0.0000000

LOEWDIN ATOMIC CHARGES
----------------------
   0 C :   -0.060418
   1 C :   -0.042236
   2 C :   -0.051752
   3 N :    0.036057
   4 C :    0.007559
   5 O :   -0.230591
   6 N :    0.034432
   7 H :    0.042938
   8 H :    0.037364
   9 H :    0.037355
  10 H :    0.023576
  11 H :    0.083817
  12 H :    0.081897

  Mayer bond orders larger than 0.1
B(  0-C ,  1-C ) :   1.1297 B(  0-C ,  7-H ) :   0.9394 B(  0-C ,  8-H ) :   0.9380
B(  0-C ,  9-H ) :   0.9380 B(  1-C ,  2-C ) :   1.6196 B(  1-C ,  6-N ) :   1.1478
B(  2-C ,  3-N ) :   1.1182 B(  2-C , 10-H ) :   0.9895 B(  3-N ,  4-C ) :   1.0991
B(  3-N , 11-H ) :   0.9346 B(  4-C ,  5-O ) :   2.1215 B(  4-C ,  6-N ) :   1.0707
B(  6-N , 12-H ) :   0.9384

FINAL SINGLE POINT ENERGY      -340.141958833339

DIPOLE MOMENT
-------------
                                X             Y             Z
Electronic contribution:      6.30522      -1.66893       0.02121
Nuclear contribution   :     -7.55728       2.50852      -0.02548
                        -----------------------------------------
Total Dipole Moment    :     -1.25206       0.83959      -0.00427
                        -----------------------------------------
Magnitude (a.u.)       :      1.50751
Magnitude (Debye)      :      3.83178

                             ****ORCA TERMINATED NORMALLY****
TOTAL RUN TIME: 0 days 0 hours 0 minutes 6 seconds 146 msec
