                         Program Version 3.0.3 - RELEASE   -
|  1> ! RI PBE def2-SVP def2-SVP/J NBO PAL2
|  2> % maxcore 2000
|  3> % output
|  4>     # printlevel mini
|  5>     print[ P_Basis ] 0
|  6>     print[ P_SCFInfo ] 1
|  7>     print[ P_SCFIterInfo ] 1
|  8>     print[ P_OrbEn ] 0
|  9>     print[ P_Cartesian ] 0
| 10> end
| 11> *xyz 0 1
| 12>  C        1.0538490000    -0.0430460000     0.1939220000
| 13>  C        2.5545340000     0.0300310000     0.1217330000
| 14>  C        3.1891470000     1.2086980000     0.8629500000
| 15>  N        4.4119800000     0.5925060000     1.3082150000
| 16>  C        4.2708950000    -0.7680210000     1.4000940000
| 17>  O        4.9968150000    -1.5487840000     1.9421630000
| 18>  O        3.1352110000    -1.1214750000     0.7461060000
| 19>  H        0.6126780000     0.8370520000    -0.2806420000
| 20>  H        0.7207050000    -0.0838550000     1.2329930000
| 21>  H        0.6863980000    -0.9302050000    -0.3234200000
| 22>  H        2.8874750000     0.0329640000    -0.9229230000
| 23>  H        2.5559310000     1.5389580000     1.6973680000
| 24>  H        3.3665220000     2.0574590000     0.1997690000
| 25>  H        5.0387390000     1.0343080000     1.9579710000
| 26> *
| 27>
| 28>                          ****END OF INPUT****
 Total Charge           Charge          ....    0
 Multiplicity           Mult            ....    1
 Number of Electrons    NEL             ....   54
 Basis Dimension        Dim             ....  133

MULLIKEN ATOMIC CHARGES
-----------------------
   0 C :    0.026609
   1 C :    0.004063
   2 C :    0.166686
   3 N :   -0.229377
   4 C :    0.174506
   5 O :   -0.173527
   6 O :   -0.266047
   7 H :    0.029309
   8 H :    0.028318
   9 H :    0.044569
  10 H :    0.027316
  11 H :    0.013565
  12 H :    0.025555
  13 H :    0.128454
Sum of atomic charges:    0.0000000

LOEWDIN ATOMIC CHARGES
----------------------
   0 C :   -0.064189
   1 C :    0.058064
   2 C :    0.020393
   3 N :   -0.034647
   4 C :    0.022344
   5 O :   -0.168449
   6 O :   -0.084241
   7 H :    0.036291
   8 H :    0.031448
   9 H :    0.039582
  10 H :    0.022233
  11 H :    0.015518
  12 H :    0.026583
  13 H :    0.079072

  Mayer bond orders larger than 0.1
B(  0-C ,  1-C ) :   1.1015 B(  0-C ,  7-H ) :   0.9519 B(  0-C ,  8-H ) :   0.9526
B(  0-C ,  9-H ) :   0.9549 B(  1-C ,  2-C ) :   1.0602 B(  1-C ,  6-O ) :   0.9742
B(  1-C , 10-H ) :   0.9106 B(  2-C ,  3-N ) :   1.0199 B(  2-C , 11-H ) :   0.9289
B(  2-C , 12-H ) :   0.9314 B(  3-N ,  4-C ) :   1.1098 B(  3-N , 13-H ) :   0.9324
B(  4-C ,  5-O ) :   2.1771 B(  4-C ,  6-O ) :   1.0795

FINAL SINGLE POINT ENERGY      -361.175828620245

DIPOLE MOMENT
-------------
                                X             Y             Z
Electronic contribution:      6.37926      -4.11562       2.44433
Nuclear contribution   :     -7.22551       5.79014      -2.87426
                        -----------------------------------------
Total Dipole Moment    :     -0.84625       1.67452      -0.42993
                        -----------------------------------------
Magnitude (a.u.)       :      1.92484
Magnitude (Debye)      :      4.89254

                             ****ORCA TERMINATED NORMALLY****
TOTAL RUN TIME: 0 days 0 hours 0 minutes 6 seconds 181 msec
