                         Program Version 3.0.3 - RELEASE   -
|  1> ! RI PBE def2-SVP def2-SVP/J NBO PAL2
|  2> % maxcore 2000
|  3> % output
|  4>     # printlevel mini
|  5>     print[ P_Basis ] 0
|  6>     print[ P_SCFInfo ] 1
|  7>     print[ P_SCFIterInfo ] 1
|  8>     print[ P_OrbEn ] 0
|  9>     print[ P_Cartesian ] 0
| 10> end
| 11> *xyz 0 1
| 12>  C        0.8660610000     0.0425540000     0.0477240000
| 13>  C        2.3542820000     0.0336970000     0.0523410000
| 14>  C        3.2065890000     1.1124740000     0.0569180000
| 15>  N        4.4881700000     0.6592610000     0.0600930000
| 16>  C        4.4970110000    -0.7123670000     0.0576920000
| 17>  C        3.1843690000    -1.1153140000     0.0528860000
| 18>  O        2.6759220000    -2.3774910000     0.0490640000
| 19>  H        0.4827700000     1.0645320000     0.0482260000
| 20>  H        0.4593910000    -0.4701690000     0.9240200000
| 21>  H        0.4648640000    -0.4672550000    -0.8327840000
| 22>  H        2.9830300000     2.1677770000     0.0580950000
| 23>  H        5.3062050000     1.2375220000     0.0636590000
| 24>  H        5.4149360000    -1.2779220000     0.0595490000
| 25>  H        3.3984990000    -3.0091990000     0.0501090000
| 26> *
| 27>
| 28>                          ****END OF INPUT****
 Total Charge           Charge          ....    0
 Multiplicity           Mult            ....    1
 Number of Electrons    NEL             ....   52
 Basis Dimension        Dim             ....  133

MULLIKEN ATOMIC CHARGES
-----------------------
   0 C :    0.086177
   1 C :   -0.125316
   2 C :   -0.020204
   3 N :   -0.050766
   4 C :   -0.064707
   5 C :    0.078758
   6 O :   -0.177251
   7 H :   -0.000562
   8 H :    0.027440
   9 H :    0.027338
  10 H :   -0.020302
  11 H :    0.111019
  12 H :   -0.035886
  13 H :    0.164261
Sum of atomic charges:   -0.0000000

LOEWDIN ATOMIC CHARGES
----------------------
   0 C :   -0.054014
   1 C :   -0.107339
   2 C :   -0.046033
   3 N :    0.093545
   4 C :   -0.109218
   5 C :   -0.019031
   6 O :   -0.045912
   7 H :    0.029323
   8 H :    0.034231
   9 H :    0.034214
  10 H :    0.014845
  11 H :    0.080273
  12 H :    0.010391
  13 H :    0.084726

  Mayer bond orders larger than 0.1
B(  0-C ,  1-C ) :   1.1096 B(  0-C ,  7-H ) :   0.9445 B(  0-C ,  8-H ) :   0.9473
B(  0-C ,  9-H ) :   0.9473 B(  1-C ,  2-C ) :   1.4541 B(  1-C ,  5-C ) :   1.3655
B(  2-C ,  3-N ) :   1.2349 B(  2-C ,  4-C ) :   0.1093 B(  2-C , 10-H ) :   0.9880
B(  3-N ,  4-C ) :   1.1722 B(  3-N , 11-H ) :   0.9434 B(  4-C ,  5-C ) :   1.3933
B(  4-C , 12-H ) :   0.9920 B(  5-C ,  6-O ) :   1.2133 B(  6-O , 13-H ) :   0.9722

FINAL SINGLE POINT ENERGY      -324.074874246220

DIPOLE MOMENT
-------------
                                X             Y             Z
Electronic contribution:      3.46398      -1.59520       0.00813
Nuclear contribution   :     -2.49842       1.78633      -0.00468
                        -----------------------------------------
Total Dipole Moment    :      0.96556       0.19113       0.00345
                        -----------------------------------------
Magnitude (a.u.)       :      0.98430
Magnitude (Debye)      :      2.50189

                             ****ORCA TERMINATED NORMALLY****
TOTAL RUN TIME: 0 days 0 hours 0 minutes 6 seconds 257 msec
