                         Program Version 3.0.3 - RELEASE   -
|  1> ! RI PBE def2-SVP def2-SVP/J NBO PAL2
|  2> % maxcore 2000
|  3> % output
|  4>     # printlevel mini
|  5>     print[ P_Basis ] 0
|  6>     print[ P_SCFInfo ] 1
|  7>     print[ P_SCFIterInfo ] 1
|  8>     print[ P_OrbEn ] 0
|  9>     print[ P_Cartesian ] 0
| 10> end
| 11> *xyz 0 1
| 12>  C        1.0564220000     0.0379500000    -0.0412950000
| 13>  C        2.5202120000     0.1961830000    -0.0360280000
| 14>  C        3.3365080000     1.2508520000    -0.0354010000
| 15>  N        4.6350450000     0.7506890000    -0.0292050000
| 16>  C        4.6029490000    -0.6239420000    -0.0260590000
| 17>  N        5.4964290000    -1.5186460000    -0.0204810000
| 18>  O        3.2769930000    -0.9551770000    -0.0303780000
| 19>  H        0.5761480000     1.0164940000    -0.0454280000
| 20>  H        0.7180000000    -0.5125810000     0.8409620000
| 21>  H        0.7247920000    -0.5166990000    -0.9235520000
| 22>  H        3.1147730000     2.3040680000    -0.0387630000
| 23>  H        5.4798120000     1.2881420000    -0.0272070000
| 24>  H        6.4261180000    -1.1154220000    -0.0178540000
| 25> *
| 26>
| 27>                          ****END OF INPUT****
 Total Charge           Charge          ....    0
 Multiplicity           Mult            ....    1
 Number of Electrons    NEL             ....   52
 Basis Dimension        Dim             ....  128

MULLIKEN ATOMIC CHARGES
-----------------------
   0 C :    0.096148
   1 C :   -0.021973
   2 C :    0.012916
   3 N :   -0.131284
   4 C :    0.029919
   5 N :   -0.093822
   6 O :   -0.202052
   7 H :    0.019892
   8 H :    0.045421
   9 H :    0.045417
  10 H :    0.003568
  11 H :    0.116748
  12 H :    0.079102
Sum of atomic charges:   -0.0000000

LOEWDIN ATOMIC CHARGES
----------------------
   0 C :   -0.059992
   1 C :   -0.003399
   2 C :   -0.051663
   3 N :    0.017241
   4 C :    0.029372
   5 N :   -0.202651
   6 O :   -0.016517
   7 H :    0.042658
   8 H :    0.044576
   9 H :    0.044575
  10 H :    0.027859
  11 H :    0.080955
  12 H :    0.046988

  Mayer bond orders larger than 0.1
B(  0-C ,  1-C ) :   1.1390 B(  0-C ,  7-H ) :   0.9426 B(  0-C ,  8-H ) :   0.9328
B(  0-C ,  9-H ) :   0.9327 B(  1-C ,  2-C ) :   1.6780 B(  1-C ,  6-O ) :   1.0855
B(  2-C ,  3-N ) :   1.0708 B(  2-C , 10-H ) :   0.9804 B(  3-N ,  4-C ) :   1.1059
B(  3-N , 11-H ) :   0.9394 B(  4-C ,  5-N ) :   1.9677 B(  4-C ,  6-O ) :   1.0658
B(  5-N , 12-H ) :   0.9184

FINAL SINGLE POINT ENERGY      -340.094408910488

DIPOLE MOMENT
-------------
                                X             Y             Z
Electronic contribution:      3.88752      -1.30017       0.01805
Nuclear contribution   :     -4.07441       3.05492      -0.02295
                        -----------------------------------------
Total Dipole Moment    :     -0.18689       1.75475      -0.00489
                        -----------------------------------------
Magnitude (a.u.)       :      1.76468
Magnitude (Debye)      :      4.48547

                             ****ORCA TERMINATED NORMALLY****
TOTAL RUN TIME: 0 days 0 hours 0 minutes 6 seconds 95 msec
