                         Program Version 3.0.3 - RELEASE   -
|  1> ! RI PBE def2-SVP def2-SVP/J NBO PAL2
|  2> % maxcore 2000
|  3> % output
|  4>     # printlevel mini
|  5>     print[ P_Basis ] 0
|  6>     print[ P_SCFInfo ] 1
|  7>     print[ P_SCFIterInfo ] 1
|  8>     print[ P_OrbEn ] 0
|  9>     print[ P_Cartesian ] 0
| 10> end
| 11> *xyz 0 1
| 12>  C        0.9670240000     0.1350740000     0.0212070000
| 13>  C        2.4557640000     0.0929420000     0.0272850000
| 14>  C        3.2985320000     1.1681360000     0.0304370000
| 15>  N        4.5960700000     0.6919620000     0.0358480000
| 16>  C        4.5687950000    -0.6680950000     0.0360980000
| 17>  O        5.6844370000    -1.4310940000     0.0408260000
| 18>  C        3.2665570000    -1.0820490000     0.0309070000
| 19>  H        0.6039220000     1.1646110000     0.0194750000
| 20>  H        0.5482120000    -0.3645450000     0.8997150000
| 21>  H        0.5553860000    -0.3649770000    -0.8604410000
| 22>  H        3.0944630000     2.2264910000     0.0293270000
| 23>  H        5.4189350000     1.2659750000     0.0390190000
| 24>  H        6.4707600000    -0.8808390000     0.0440590000
| 25>  H        2.9356420000    -2.1083930000     0.0298380000
| 26> *
| 27>
| 28>                          ****END OF INPUT****
 Total Charge           Charge          ....    0
 Multiplicity           Mult            ....    1
 Number of Electrons    NEL             ....   52
 Basis Dimension        Dim             ....  133

MULLIKEN ATOMIC CHARGES
-----------------------
   0 C :    0.081133
   1 C :   -0.078854
   2 C :   -0.019335
   3 N :   -0.082990
   4 C :    0.134355
   5 O :   -0.149874
   6 C :   -0.125904
   7 H :    0.002490
   8 H :    0.024039
   9 H :    0.023956
  10 H :   -0.025345
  11 H :    0.098678
  12 H :    0.162790
  13 H :   -0.045139
Sum of atomic charges:    0.0000000

LOEWDIN ATOMIC CHARGES
----------------------
   0 C :   -0.056233
   1 C :   -0.073558
   2 C :   -0.069319
   3 N :    0.058063
   4 C :    0.020046
   5 O :   -0.032135
   6 C :   -0.132409
   7 H :    0.028882
   8 H :    0.032744
   9 H :    0.032730
  10 H :    0.012432
  11 H :    0.073570
  12 H :    0.083027
  13 H :    0.022159

  Mayer bond orders larger than 0.1
B(  0-C ,  1-C ) :   1.1172 B(  0-C ,  7-H ) :   0.9519 B(  0-C ,  8-H ) :   0.9468
B(  0-C ,  9-H ) :   0.9468 B(  1-C ,  2-C ) :   1.5194 B(  1-C ,  6-C ) :   1.2655
B(  2-C ,  3-N ) :   1.1273 B(  2-C , 10-H ) :   0.9890 B(  3-N ,  4-C ) :   1.1938
B(  3-N , 11-H ) :   0.9359 B(  4-C ,  5-O ) :   1.2114 B(  4-C ,  6-C ) :   1.4260
B(  5-O , 12-H ) :   0.9626 B(  6-C , 13-H ) :   1.0282

FINAL SINGLE POINT ENERGY      -324.072570070819

DIPOLE MOMENT
-------------
                                X             Y             Z
Electronic contribution:      6.19384      -1.19393       0.02555
Nuclear contribution   :     -5.21394       1.98283      -0.02164
                        -----------------------------------------
Total Dipole Moment    :      0.97989       0.78890       0.00392
                        -----------------------------------------
Magnitude (a.u.)       :      1.25800
Magnitude (Debye)      :      3.19759

                             ****ORCA TERMINATED NORMALLY****
TOTAL RUN TIME: 0 days 0 hours 0 minutes 6 seconds 452 msec
