                         Program Version 3.0.3 - RELEASE   -
|  1> ! RI PBE def2-SVP def2-SVP/J NBO PAL2
|  2> % maxcore 2000
|  3> % output
|  4>     # printlevel mini
|  5>     print[ P_Basis ] 0
|  6>     print[ P_SCFInfo ] 1
|  7>     print[ P_SCFIterInfo ] 1
|  8>     print[ P_OrbEn ] 0
|  9>     print[ P_Cartesian ] 0
| 10> end
| 11> *xyz 0 1
| 12>  C        0.9951530000    -0.0315640000    -0.1011010000
| 13>  C        2.4614200000     0.1054340000    -0.0965580000
| 14>  C        3.2912790000     1.1520260000    -0.0957900000
| 15>  N        4.5810880000     0.6357460000    -0.0906150000
| 16>  C        4.5418300000    -0.7290920000    -0.0882140000
| 17>  O        5.4352570000    -1.5267190000    -0.0838060000
| 18>  O        3.2069350000    -1.0523500000    -0.0919730000
| 19>  H        0.5298840000     0.9542670000    -0.1044140000
| 20>  H        0.6491030000    -0.5767880000     0.7812690000
| 21>  H        0.6548690000    -0.5799990000    -0.9837230000
| 22>  H        3.0811970000     2.2075650000    -0.0984340000
| 23>  H        5.4438950000     1.1465640000    -0.0887300000
| 24> *
| 25>
| 26>                          ****END OF INPUT****
 Total Charge           Charge          ....    0
 Multiplicity           Mult            ....    1
 Number of Electrons    NEL             ....   52
 Basis Dimension        Dim             ....  123

MULLIKEN ATOMIC CHARGES
-----------------------
   0 C :    0.098266
   1 C :   -0.028097
   2 C :    0.016047
   3 N :   -0.126059
   4 C :    0.173423
   5 O :   -0.176993
   6 O :   -0.212663
   7 H :    0.021772
   8 H :    0.047320
   9 H :    0.047315
  10 H :    0.008700
  11 H :    0.130969
Sum of atomic charges:   -0.0000000

LOEWDIN ATOMIC CHARGES
----------------------
   0 C :   -0.059172
   1 C :   -0.003699
   2 C :   -0.048990
   3 N :    0.035056
   4 C :    0.023344
   5 O :   -0.174624
   6 O :   -0.026396
   7 H :    0.043510
   8 H :    0.045657
   9 H :    0.045657
  10 H :    0.029820
  11 H :    0.089835

  Mayer bond orders larger than 0.1
B(  0-C ,  1-C ) :   1.1338 B(  0-C ,  7-H ) :   0.9420 B(  0-C ,  8-H ) :   0.9336
B(  0-C ,  9-H ) :   0.9335 B(  1-C ,  2-C ) :   1.6723 B(  1-C ,  6-O ) :   1.0925
B(  2-C ,  3-N ) :   1.0849 B(  2-C , 10-H ) :   0.9843 B(  3-N ,  4-C ) :   1.1285
B(  3-N , 11-H ) :   0.9328 B(  4-C ,  5-O ) :   2.1640 B(  4-C ,  6-O ) :   1.0434

FINAL SINGLE POINT ENERGY      -359.972691933485

DIPOLE MOMENT
-------------
                                X             Y             Z
Electronic contribution:      5.94407      -2.39189       0.02380
Nuclear contribution   :     -6.74871       4.02928      -0.02953
                        -----------------------------------------
Total Dipole Moment    :     -0.80464       1.63739      -0.00573
                        -----------------------------------------
Magnitude (a.u.)       :      1.82442
Magnitude (Debye)      :      4.63732

                             ****ORCA TERMINATED NORMALLY****
TOTAL RUN TIME: 0 days 0 hours 0 minutes 5 seconds 409 msec
