                         Program Version 3.0.3 - RELEASE   -
|  1> ! RI PBE def2-SVP def2-SVP/J NBO PAL2
|  2> % maxcore 2000
|  3> % output
|  4>     # printlevel mini
|  5>     print[ P_Basis ] 0
|  6>     print[ P_SCFInfo ] 1
|  7>     print[ P_SCFIterInfo ] 1
|  8>     print[ P_OrbEn ] 0
|  9>     print[ P_Cartesian ] 0
| 10> end
| 11> *xyz 0 1
| 12>  C        0.9271560000     0.0899350000    -0.0903480000
| 13>  C        2.4106690000     0.0963940000    -0.0784730000
| 14>  C        3.2679880000     1.1513360000    -0.0747540000
| 15>  N        4.5482690000     0.7171540000    -0.0631730000
| 16>  N        4.5231090000    -0.6458450000    -0.0592840000
| 17>  C        3.2169600000    -1.1150870000    -0.0683860000
| 18>  O        2.9044360000    -2.2941670000    -0.0673740000
| 19>  H        0.5236500000     1.1040890000    -0.0969820000
| 20>  H        0.5311870000    -0.4321820000     0.7849160000
| 21>  H        0.5452820000    -0.4380560000    -0.9683420000
| 22>  H        3.0631210000     2.2116970000    -0.0795730000
| 23>  H        5.4028730000     1.2359480000    -0.0578030000
| 24>  H        5.3630080000    -1.1948150000    -0.0509140000
| 25> *
| 26>
| 27>                          ****END OF INPUT****
 Total Charge           Charge          ....    0
 Multiplicity           Mult            ....    1
 Number of Electrons    NEL             ....   52
 Basis Dimension        Dim             ....  128

MULLIKEN ATOMIC CHARGES
-----------------------
   0 C :    0.096276
   1 C :   -0.300543
   2 C :    0.088597
   3 N :   -0.026455
   4 N :   -0.085135
   5 C :    0.140155
   6 O :   -0.216522
   7 H :    0.000758
   8 H :    0.035539
   9 H :    0.035465
  10 H :   -0.002724
  11 H :    0.123162
  12 H :    0.111428
Sum of atomic charges:   -0.0000000

LOEWDIN ATOMIC CHARGES
----------------------
   0 C :   -0.050114
   1 C :   -0.135437
   2 C :   -0.009690
   3 N :    0.091940
   4 N :    0.056818
   5 C :   -0.005104
   6 O :   -0.233723
   7 H :    0.028615
   8 H :    0.039601
   9 H :    0.039595
  10 H :    0.025567
  11 H :    0.079201
  12 H :    0.072730

  Mayer bond orders larger than 0.1
B(  0-C ,  1-C ) :   1.1227 B(  0-C ,  7-H ) :   0.9498 B(  0-C ,  8-H ) :   0.9442
B(  0-C ,  9-H ) :   0.9441 B(  1-C ,  2-C ) :   1.5312 B(  1-C ,  3-N ) :   0.1170
B(  1-C ,  5-C ) :   1.0786 B(  2-C ,  3-N ) :   1.1809 B(  2-C , 10-H ) :   0.9854
B(  3-N ,  4-N ) :   1.0110 B(  3-N , 11-H ) :   0.9552 B(  4-N ,  5-C ) :   1.0264
B(  4-N , 12-H ) :   0.9418 B(  5-C ,  6-O ) :   2.1352

FINAL SINGLE POINT ENERGY      -340.088968995108

DIPOLE MOMENT
-------------
                                X             Y             Z
Electronic contribution:      4.54309      -2.31203       0.04338
Nuclear contribution   :     -3.13135       4.05893      -0.03718
                        -----------------------------------------
Total Dipole Moment    :      1.41174       1.74690       0.00620
                        -----------------------------------------
Magnitude (a.u.)       :      2.24604
Magnitude (Debye)      :      5.70899

                             ****ORCA TERMINATED NORMALLY****
TOTAL RUN TIME: 0 days 0 hours 0 minutes 6 seconds 422 msec
