                         Program Version 3.0.3 - RELEASE   -
|  1> ! RI PBE def2-SVP def2-SVP/J NBO PAL2
|  2> % maxcore 2000
|  3> % output
|  4>     # printlevel mini
|  5>     print[ P_Basis ] 0
|  6>     print[ P_SCFInfo ] 1
|  7>     print[ P_SCFIterInfo ] 1
|  8>     print[ P_OrbEn ] 0
|  9>     print[ P_Cartesian ] 0
| 10> end
| 11> *xyz 0 1
| 12>  C        0.9925170000     0.1012610000     0.0501480000
| 13>  C        2.4745980000     0.1185250000     0.0529640000
| 14>  C        3.3353820000     1.1612700000     0.0540350000
| 15>  N        4.6055910000     0.7178550000     0.0563890000
| 16>  O        4.6235520000    -0.6574300000     0.0576350000
| 17>  C        3.2893310000    -1.0731350000     0.0551880000
| 18>  N        2.9387930000    -2.2897800000     0.0551490000
| 19>  H        0.5834220000     1.1128570000     0.0481650000
| 20>  H        0.6081940000    -0.4272440000     0.9267430000
| 21>  H        0.6116170000    -0.4293150000    -0.8266840000
| 22>  H        3.1389400000     2.2238200000     0.0532540000
| 23>  H        5.4984490000     1.1671310000     0.0595450000
| 24>  H        3.7362240000    -2.9189160000     0.0570790000
| 25> *
| 26>
| 27>                          ****END OF INPUT****
 Total Charge           Charge          ....    0
 Multiplicity           Mult            ....    1
 Number of Electrons    NEL             ....   52
 Basis Dimension        Dim             ....  128

MULLIKEN ATOMIC CHARGES
-----------------------
   0 C :    0.107838
   1 C :   -0.239051
   2 C :    0.096265
   3 N :    0.031804
   4 O :   -0.224050
   5 C :    0.038664
   6 N :   -0.110622
   7 H :    0.000754
   8 H :    0.036957
   9 H :    0.036941
  10 H :    0.003057
  11 H :    0.133406
  12 H :    0.088038
Sum of atomic charges:   -0.0000000

LOEWDIN ATOMIC CHARGES
----------------------
   0 C :   -0.046422
   1 C :   -0.124352
   2 C :   -0.002370
   3 N :    0.118860
   4 O :   -0.047122
   5 C :    0.013538
   6 N :   -0.184165
   7 H :    0.029548
   8 H :    0.041219
   9 H :    0.041221
  10 H :    0.032846
  11 H :    0.077795
  12 H :    0.049404

  Mayer bond orders larger than 0.1
B(  0-C ,  1-C ) :   1.1304 B(  0-C ,  7-H ) :   0.9437 B(  0-C ,  8-H ) :   0.9397
B(  0-C ,  9-H ) :   0.9397 B(  1-C ,  2-C ) :   1.5402 B(  1-C ,  3-N ) :   0.1224
B(  1-C ,  5-C ) :   1.1261 B(  2-C ,  3-N ) :   1.1810 B(  2-C , 10-H ) :   0.9775
B(  3-N ,  4-O ) :   0.9672 B(  3-N , 11-H ) :   0.9541 B(  4-O ,  5-C ) :   0.9578
B(  5-C ,  6-N ) :   1.9946 B(  6-N , 12-H ) :   0.9172

FINAL SINGLE POINT ENERGY      -340.039793075661

DIPOLE MOMENT
-------------
                                X             Y             Z
Electronic contribution:      5.60242      -0.79595       0.01078
Nuclear contribution   :     -4.75520       2.28484      -0.00879
                        -----------------------------------------
Total Dipole Moment    :      0.84722       1.48889       0.00199
                        -----------------------------------------
Magnitude (a.u.)       :      1.71306
Magnitude (Debye)      :      4.35426

                             ****ORCA TERMINATED NORMALLY****
TOTAL RUN TIME: 0 days 0 hours 0 minutes 6 seconds 164 msec
