                         Program Version 3.0.3 - RELEASE   -
|  1> ! RI PBE def2-SVP def2-SVP/J NBO PAL2
|  2> % maxcore 2000
|  3> % output
|  4>     # printlevel mini
|  5>     print[ P_Basis ] 0
|  6>     print[ P_SCFInfo ] 1
|  7>     print[ P_SCFIterInfo ] 1
|  8>     print[ P_OrbEn ] 0
|  9>     print[ P_Cartesian ] 0
| 10> end
| 11> *xyz 0 1
| 12>  C        0.8790130000    -0.0232240000     0.0565560000
| 13>  C        2.3631220000     0.0020640000     0.0615710000
| 14>  C        3.2194310000     1.0554390000     0.0637850000
| 15>  N        4.4848610000     0.6196460000     0.0684430000
| 16>  O        4.5241300000    -0.7404740000     0.0695100000
| 17>  C        3.1811650000    -1.1833570000     0.0650970000
| 18>  O        2.9409590000    -2.3577090000     0.0651080000
| 19>  H        0.4663840000     0.9867840000     0.0543380000
| 20>  H        0.4926000000    -0.5490370000     0.9334890000
| 21>  H        0.4985850000    -0.5504510000    -0.8221410000
| 22>  H        3.0168180000     2.1171910000     0.0624180000
| 23>  H        5.3698300000     1.0867280000     0.0714260000
| 24> *
| 25>
| 26>                          ****END OF INPUT****
 Total Charge           Charge          ....    0
 Multiplicity           Mult            ....    1
 Number of Electrons    NEL             ....   52
 Basis Dimension        Dim             ....  123

MULLIKEN ATOMIC CHARGES
-----------------------
   0 C :    0.096001
   1 C :   -0.309069
   2 C :    0.106580
   3 N :    0.049215
   4 O :   -0.209707
   5 C :    0.194270
   6 O :   -0.168167
   7 H :    0.007468
   8 H :    0.042000
   9 H :    0.041954
  10 H :    0.009141
  11 H :    0.140313
Sum of atomic charges:   -0.0000000

LOEWDIN ATOMIC CHARGES
----------------------
   0 C :   -0.047868
   1 C :   -0.150039
   2 C :    0.005020
   3 N :    0.136333
   4 O :   -0.037678
   5 C :    0.022329
   6 O :   -0.160572
   7 H :    0.032005
   8 H :    0.042004
   9 H :    0.041998
  10 H :    0.033811
  11 H :    0.082657

  Mayer bond orders larger than 0.1
B(  0-C ,  1-C ) :   1.1125 B(  0-C ,  7-H ) :   0.9485 B(  0-C ,  8-H ) :   0.9456
B(  0-C ,  9-H ) :   0.9456 B(  1-C ,  2-C ) :   1.4999 B(  1-C ,  3-N ) :   0.1204
B(  1-C ,  5-C ) :   1.1225 B(  2-C ,  3-N ) :   1.2198 B(  2-C , 10-H ) :   0.9806
B(  3-N ,  4-O ) :   0.9885 B(  3-N , 11-H ) :   0.9505 B(  4-O ,  5-C ) :   0.9324
B(  5-C ,  6-O ) :   2.1739

FINAL SINGLE POINT ENERGY      -359.911041503227

DIPOLE MOMENT
-------------
                                X             Y             Z
Electronic contribution:      5.72626      -2.66184       0.02116
Nuclear contribution   :     -5.31886       4.74463      -0.02097
                        -----------------------------------------
Total Dipole Moment    :      0.40740       2.08279       0.00019
                        -----------------------------------------
Magnitude (a.u.)       :      2.12226
Magnitude (Debye)      :      5.39436

                             ****ORCA TERMINATED NORMALLY****
TOTAL RUN TIME: 0 days 0 hours 0 minutes 6 seconds 47 msec
