                         Program Version 3.0.3 - RELEASE   -
|  1> ! RI PBE def2-SVP def2-SVP/J NBO PAL2
|  2> % maxcore 2000
|  3> % output
|  4>     # printlevel mini
|  5>     print[ P_Basis ] 0
|  6>     print[ P_SCFInfo ] 1
|  7>     print[ P_SCFIterInfo ] 1
|  8>     print[ P_OrbEn ] 0
|  9>     print[ P_Cartesian ] 0
| 10> end
| 11> *xyz 0 1
| 12>  C        1.1040620000    -0.0103240000    -0.0983470000
| 13>  C        2.4165790000    -0.0594910000     0.1127500000
| 14>  C        3.3245990000    -1.1766710000     0.2830410000
| 15>  N        4.5357850000    -0.7818240000     0.4676860000
| 16>  N        4.5373580000     0.5831270000     0.4374330000
| 17>  C        3.3030730000     1.1459900000     0.2277870000
| 18>  O        3.0324230000     2.3203410000     0.1581310000
| 19>  H        0.5005210000    -0.9074690000    -0.1748540000
| 20>  H        0.6115270000     0.9510060000    -0.1985730000
| 21>  H        3.0894030000    -2.2318400000     0.2689850000
| 22>  H        5.4021710000     1.0780560000     0.5644700000
| 23> *
| 24>
| 25>                          ****END OF INPUT****
 Total Charge           Charge          ....    0
 Multiplicity           Mult            ....    1
 Number of Electrons    NEL             ....   50
 Basis Dimension        Dim             ....  118

MULLIKEN ATOMIC CHARGES
-----------------------
   0 C :    0.015959
   1 C :   -0.185235
   2 C :    0.056777
   3 N :   -0.045721
   4 N :   -0.100978
   5 C :    0.184787
   6 O :   -0.150138
   7 H :    0.038388
   8 H :    0.050585
   9 H :    0.008157
  10 H :    0.127419
Sum of atomic charges:   -0.0000000

LOEWDIN ATOMIC CHARGES
----------------------
   0 C :    0.041399
   1 C :   -0.092864
   2 C :   -0.038917
   3 N :   -0.022776
   4 N :    0.056329
   5 C :    0.024170
   6 O :   -0.149043
   7 H :    0.036476
   8 H :    0.040972
   9 H :    0.025134
  10 H :    0.079120

  Mayer bond orders larger than 0.1
B(  0-C ,  1-C ) :   1.8937 B(  0-C ,  7-H ) :   0.9367 B(  0-C ,  8-H ) :   0.9175
B(  1-C ,  2-C ) :   1.0489 B(  1-C ,  5-C ) :   0.8819 B(  2-C ,  3-N ) :   1.7857
B(  2-C ,  9-H ) :   0.9902 B(  3-N ,  4-N ) :   1.0748 B(  4-N ,  5-C ) :   1.0748
B(  4-N , 10-H ) :   0.9388 B(  5-C ,  6-O ) :   2.1703

FINAL SINGLE POINT ENERGY      -338.881013528317

DIPOLE MOMENT
-------------
                                X             Y             Z
Electronic contribution:      2.70113       1.61611       0.39612
Nuclear contribution   :     -2.97435      -2.26726      -0.42542
                        -----------------------------------------
Total Dipole Moment    :     -0.27321      -0.65115      -0.02930
                        -----------------------------------------
Magnitude (a.u.)       :      0.70676
Magnitude (Debye)      :      1.79643

                             ****ORCA TERMINATED NORMALLY****
TOTAL RUN TIME: 0 days 0 hours 0 minutes 5 seconds 707 msec
