                         Program Version 3.0.3 - RELEASE   -
|  1> ! RI PBE def2-SVP def2-SVP/J NBO PAL2
|  2> % maxcore 2000
|  3> % output
|  4>     # printlevel mini
|  5>     print[ P_Basis ] 0
|  6>     print[ P_SCFInfo ] 1
|  7>     print[ P_SCFIterInfo ] 1
|  8>     print[ P_OrbEn ] 0
|  9>     print[ P_Cartesian ] 0
| 10> end
| 11> *xyz 0 1
| 12>  C        1.2048340000     0.0223830000     0.3357650000
| 13>  C        2.4556970000     0.1333650000    -0.0811580000
| 14>  C        3.3174870000     1.3379450000    -0.3091730000
| 15>  N        4.7006770000     0.8241090000    -0.3489200000
| 16>  N        4.5540340000    -0.5526880000    -0.6161730000
| 17>  C        3.2855400000    -1.0401500000    -0.4984150000
| 18>  O        2.9297320000    -2.1740460000    -0.7221190000
| 19>  H        0.6078660000     0.8811900000     0.6210250000
| 20>  H        0.7487400000    -0.9602720000     0.3897190000
| 21>  H        3.2243240000     2.1116830000     0.4534380000
| 22>  H        3.0836650000     1.7878080000    -1.2809160000
| 23>  H        5.0831580000     0.8956960000     0.5900940000
| 24>  H        5.2548670000    -1.0035340000    -1.1801670000
| 25> *
| 26>
| 27>                          ****END OF INPUT****
 Total Charge           Charge          ....    0
 Multiplicity           Mult            ....    1
 Number of Electrons    NEL             ....   52
 Basis Dimension        Dim             ....  128

MULLIKEN ATOMIC CHARGES
-----------------------
   0 C :   -0.011189
   1 C :   -0.279600
   2 C :    0.211382
   3 N :   -0.143827
   4 N :   -0.134741
   5 C :    0.151315
   6 O :   -0.174493
   7 H :    0.017857
   8 H :    0.037053
   9 H :    0.030152
  10 H :    0.049737
  11 H :    0.118731
  12 H :    0.127624
Sum of atomic charges:    0.0000000

LOEWDIN ATOMIC CHARGES
----------------------
   0 C :   -0.017878
   1 C :   -0.088069
   2 C :    0.019381
   3 N :   -0.046682
   4 N :    0.034314
   5 C :    0.009837
   6 O :   -0.176423
   7 H :    0.027732
   8 H :    0.036101
   9 H :    0.032919
  10 H :    0.038522
  11 H :    0.055347
  12 H :    0.074899

  Mayer bond orders larger than 0.1
B(  0-C ,  1-C ) :   2.0181 B(  0-C ,  7-H ) :   0.9352 B(  0-C ,  8-H ) :   0.9136
B(  1-C ,  2-C ) :   1.0118 B(  1-C ,  5-C ) :   0.8857 B(  2-C ,  3-N ) :   1.0235
B(  2-C ,  9-H ) :   0.9344 B(  2-C , 10-H ) :   0.9157 B(  3-N ,  4-N ) :   1.0100
B(  3-N , 11-H ) :   0.9426 B(  4-N ,  5-C ) :   1.1259 B(  4-N ,  6-O ) :   0.1070
B(  4-N , 12-H ) :   0.9291 B(  5-C ,  6-O ) :   2.1618

FINAL SINGLE POINT ENERGY      -340.066013789419

DIPOLE MOMENT
-------------
                                X             Y             Z
Electronic contribution:      1.72791      -3.56151      -1.04813
Nuclear contribution   :     -1.34160       4.70844       1.45396
                        -----------------------------------------
Total Dipole Moment    :      0.38631       1.14693       0.40583
                        -----------------------------------------
Magnitude (a.u.)       :      1.27647
Magnitude (Debye)      :      3.24454

                             ****ORCA TERMINATED NORMALLY****
TOTAL RUN TIME: 0 days 0 hours 0 minutes 5 seconds 666 msec
