                         Program Version 3.0.3 - RELEASE   -
|  1> ! RI PBE def2-SVP def2-SVP/J NBO PAL2
|  2> % maxcore 2000
|  3> % output
|  4>     # printlevel mini
|  5>     print[ P_Basis ] 0
|  6>     print[ P_SCFInfo ] 1
|  7>     print[ P_SCFIterInfo ] 1
|  8>     print[ P_OrbEn ] 0
|  9>     print[ P_Cartesian ] 0
| 10> end
| 11> *xyz 0 1
| 12>  C        0.9262170000     0.0767930000    -0.1628390000
| 13>  C        2.4429830000     0.0304340000    -0.0365120000
| 14>  C        3.1268720000    -1.1376580000    -0.6651710000
| 15>  N        4.0164770000    -0.8067080000    -1.5205210000
| 16>  N        4.0439680000     0.5628370000    -1.5738130000
| 17>  C        3.1319480000     1.1826190000    -0.7635370000
| 18>  O        2.9327740000     2.3681330000    -0.6674540000
| 19>  H        0.4611500000    -0.7218540000     0.4176130000
| 20>  H        0.6180960000    -0.0310670000    -1.2044760000
| 21>  H        0.5594490000     1.0363940000     0.2041740000
| 22>  H        2.7209190000     0.1023550000     1.0228750000
| 23>  H        2.9373620000    -2.1840310000    -0.4613490000
| 24>  H        4.6558850000     1.0173420000    -2.2290110000
| 25> *
| 26>
| 27>                          ****END OF INPUT****
 Total Charge           Charge          ....    0
 Multiplicity           Mult            ....    1
 Number of Electrons    NEL             ....   52
 Basis Dimension        Dim             ....  128

MULLIKEN ATOMIC CHARGES
-----------------------
   0 C :    0.034274
   1 C :   -0.211857
   2 C :    0.025480
   3 N :   -0.052707
   4 N :   -0.098291
   5 C :    0.133367
   6 O :   -0.162575
   7 H :    0.033048
   8 H :    0.032581
   9 H :    0.046797
  10 H :    0.072439
  11 H :    0.020102
  12 H :    0.127343
Sum of atomic charges:    0.0000000

LOEWDIN ATOMIC CHARGES
----------------------
   0 C :   -0.036923
   1 C :   -0.091294
   2 C :   -0.023555
   3 N :   -0.032256
   4 N :    0.055247
   5 C :    0.025251
   6 O :   -0.163296
   7 H :    0.031893
   8 H :    0.032516
   9 H :    0.038016
  10 H :    0.064237
  11 H :    0.022696
  12 H :    0.077468

  Mayer bond orders larger than 0.1
B(  0-C ,  1-C ) :   1.0653 B(  0-C ,  7-H ) :   0.9650 B(  0-C ,  8-H ) :   0.9692
B(  0-C ,  9-H ) :   0.9558 B(  1-C ,  2-C ) :   0.9929 B(  1-C ,  5-C ) :   0.8973
B(  1-C , 10-H ) :   0.8665 B(  2-C ,  3-N ) :   1.8717 B(  2-C , 11-H ) :   0.9789
B(  3-N ,  4-N ) :   1.0549 B(  4-N ,  5-C ) :   1.1052 B(  4-N , 12-H ) :   0.9381
B(  5-C ,  6-O ) :   2.1858

FINAL SINGLE POINT ENERGY      -340.096045325294

DIPOLE MOMENT
-------------
                                X             Y             Z
Electronic contribution:      5.09455       2.05505      -2.07734
Nuclear contribution   :     -5.27096      -2.74589       2.23373
                        -----------------------------------------
Total Dipole Moment    :     -0.17641      -0.69084       0.15639
                        -----------------------------------------
Magnitude (a.u.)       :      0.72995
Magnitude (Debye)      :      1.85539

                             ****ORCA TERMINATED NORMALLY****
TOTAL RUN TIME: 0 days 0 hours 0 minutes 6 seconds 210 msec
