                         Program Version 3.0.3 - RELEASE   -
|  1> ! RI PBE def2-SVP def2-SVP/J NBO PAL2
|  2> % maxcore 2000
|  3> % output
|  4>     # printlevel mini
|  5>     print[ P_Basis ] 0
|  6>     print[ P_SCFInfo ] 1
|  7>     print[ P_SCFIterInfo ] 1
|  8>     print[ P_OrbEn ] 0
|  9>     print[ P_Cartesian ] 0
| 10> end
| 11> *xyz 0 1
| 12>  C        1.0374010000    -0.0609340000     0.2452690000
| 13>  C        2.4907130000    -0.0491830000    -0.1690540000
| 14>  C        3.4209900000     0.9985400000     0.4807420000
| 15>  N        4.1739900000    -0.1234980000     1.0368890000
| 16>  N        5.2829440000    -0.2008600000     1.8386040000
| 17>  C        3.3817920000    -1.1090270000     0.5068470000
| 18>  O        3.3921220000    -2.3038740000     0.5716420000
| 19>  H        0.4914410000     0.7787510000    -0.1910800000
| 20>  H        0.9391200000    -0.0034400000     1.3325640000
| 21>  H        0.5584890000    -0.9854890000    -0.0829700000
| 22>  H        2.5974210000    -0.0859600000    -1.2556360000
| 23>  H        2.9413230000     1.6278730000     1.2378270000
| 24>  H        3.9954680000     1.6223310000    -0.2109680000
| 25>  H        5.1228870000     0.2487490000     2.7321210000
| 26>  H        6.0919890000     0.2081300000     1.3867030000
| 27> *
| 28>
| 29>                          ****END OF INPUT****
 Total Charge           Charge          ....    0
 Multiplicity           Mult            ....    1
 Number of Electrons    NEL             ....   54
 Basis Dimension        Dim             ....  138

MULLIKEN ATOMIC CHARGES
-----------------------
   0 C :    0.050732
   1 C :   -0.290640
   2 C :    0.244324
   3 N :   -0.302898
   4 N :   -0.041850
   5 C :    0.141949
   6 O :   -0.158181
   7 H :    0.028779
   8 H :    0.019797
   9 H :    0.042241
  10 H :    0.043326
  11 H :    0.002321
  12 H :    0.008780
  13 H :    0.106234
  14 H :    0.105086
Sum of atomic charges:   -0.0000000

LOEWDIN ATOMIC CHARGES
----------------------
   0 C :   -0.053357
   1 C :   -0.068560
   2 C :    0.033159
   3 N :   -0.019301
   4 N :   -0.021840
   5 C :    0.019194
   6 O :   -0.153587
   7 H :    0.028959
   8 H :    0.028396
   9 H :    0.037760
  10 H :    0.037146
  11 H :    0.010980
  12 H :    0.012435
  13 H :    0.054392
  14 H :    0.054222

  Mayer bond orders larger than 0.1
B(  0-C ,  1-C ) :   1.0704 B(  0-C ,  7-H ) :   0.9626 B(  0-C ,  8-H ) :   0.9577
B(  0-C ,  9-H ) :   0.9592 B(  1-C ,  2-C ) :   1.0585 B(  1-C ,  5-C ) :   0.8837
B(  1-C , 10-H ) :   0.8902 B(  2-C ,  3-N ) :   0.9995 B(  2-C , 11-H ) :   0.9246
B(  2-C , 12-H ) :   0.9221 B(  3-N ,  4-N ) :   1.0215 B(  3-N ,  5-C ) :   1.1404
B(  3-N ,  6-O ) :   0.1060 B(  4-N , 13-H ) :   0.9652 B(  4-N , 14-H ) :   0.9652
B(  5-C ,  6-O ) :   2.2163

FINAL SINGLE POINT ENERGY      -341.268162987366

DIPOLE MOMENT
-------------
                                X             Y             Z
Electronic contribution:      3.85926      -4.42467       0.49067
Nuclear contribution   :     -3.66954       6.21927      -0.38706
                        -----------------------------------------
Total Dipole Moment    :      0.18972       1.79460       0.10360
                        -----------------------------------------
Magnitude (a.u.)       :      1.80757
Magnitude (Debye)      :      4.59448

                             ****ORCA TERMINATED NORMALLY****
TOTAL RUN TIME: 0 days 0 hours 0 minutes 6 seconds 925 msec
