                         Program Version 3.0.3 - RELEASE   -
|  1> ! RI PBE def2-SVP def2-SVP/J NBO PAL2
|  2> % maxcore 2000
|  3> % output
|  4>     # printlevel mini
|  5>     print[ P_Basis ] 0
|  6>     print[ P_SCFInfo ] 1
|  7>     print[ P_SCFIterInfo ] 1
|  8>     print[ P_OrbEn ] 0
|  9>     print[ P_Cartesian ] 0
| 10> end
| 11> *xyz 0 1
| 12>  C        1.0743100000     0.0326220000     0.0190350000
| 13>  C        2.5858900000     0.0307150000     0.0719830000
| 14>  C        3.2421540000     1.1506760000     0.8601970000
| 15>  N        4.5422730000     0.5818130000     1.2540240000
| 16>  N        4.2110960000    -0.7851010000     1.5132280000
| 17>  C        3.1772100000    -1.2087120000     0.7258850000
| 18>  O        2.8371510000    -2.3574710000     0.5683350000
| 19>  H        0.6982050000     0.8851430000    -0.5505720000
| 20>  H        0.6490480000     0.0790310000     1.0247150000
| 21>  H        0.7175340000    -0.8836830000    -0.4534670000
| 22>  H        2.9921960000     0.0197340000    -0.9484250000
| 23>  H        2.6192800000     1.3840510000     1.7358380000
| 24>  H        3.4014440000     2.0644140000     0.2874300000
| 25>  H        4.8100250000     0.9835190000     2.1467620000
| 26>  H        4.9993920000    -1.4057520000     1.6230320000
| 27> *
| 28>
| 29>                          ****END OF INPUT****
 Total Charge           Charge          ....    0
 Multiplicity           Mult            ....    1
 Number of Electrons    NEL             ....   54
 Basis Dimension        Dim             ....  138

MULLIKEN ATOMIC CHARGES
-----------------------
   0 C :    0.045121
   1 C :   -0.232595
   2 C :    0.164494
   3 N :   -0.160999
   4 N :   -0.111661
   5 C :    0.082377
   6 O :   -0.181620
   7 H :    0.023074
   8 H :    0.019360
   9 H :    0.040501
  10 H :    0.039865
  11 H :    0.008107
  12 H :    0.022675
  13 H :    0.114614
  14 H :    0.126686
Sum of atomic charges:    0.0000000

LOEWDIN ATOMIC CHARGES
----------------------
   0 C :   -0.049523
   1 C :   -0.079948
   2 C :    0.017077
   3 N :   -0.053428
   4 N :    0.025915
   5 C :    0.012799
   6 O :   -0.177815
   7 H :    0.028140
   8 H :    0.027547
   9 H :    0.036816
  10 H :    0.046795
  11 H :    0.009957
  12 H :    0.026344
  13 H :    0.055995
  14 H :    0.073330

  Mayer bond orders larger than 0.1
B(  0-C ,  1-C ) :   1.0971 B(  0-C ,  7-H ) :   0.9633 B(  0-C ,  8-H ) :   0.9602
B(  0-C ,  9-H ) :   0.9521 B(  1-C ,  2-C ) :   1.0609 B(  1-C ,  5-C ) :   0.9190
B(  1-C , 10-H ) :   0.8601 B(  2-C ,  3-N ) :   1.0053 B(  2-C , 11-H ) :   0.9360
B(  2-C , 12-H ) :   0.9301 B(  3-N ,  4-N ) :   0.9866 B(  3-N , 13-H ) :   0.9415
B(  4-N ,  5-C ) :   1.1721 B(  4-N , 14-H ) :   0.9268 B(  5-C ,  6-O ) :   2.1617

FINAL SINGLE POINT ENERGY      -341.285083275863

DIPOLE MOMENT
-------------
                                X             Y             Z
Electronic contribution:      4.03539      -4.52319       1.29019
Nuclear contribution   :     -3.64160       5.70665      -0.89557
                        -----------------------------------------
Total Dipole Moment    :      0.39379       1.18347       0.39462
                        -----------------------------------------
Magnitude (a.u.)       :      1.30820
Magnitude (Debye)      :      3.32518

                             ****ORCA TERMINATED NORMALLY****
TOTAL RUN TIME: 0 days 0 hours 0 minutes 7 seconds 37 msec
