                         Program Version 3.0.3 - RELEASE   -
|  1> ! RI PBE def2-SVP def2-SVP/J NBO PAL2
|  2> % maxcore 2000
|  3> % output
|  4>     # printlevel mini
|  5>     print[ P_Basis ] 0
|  6>     print[ P_SCFInfo ] 1
|  7>     print[ P_SCFIterInfo ] 1
|  8>     print[ P_OrbEn ] 0
|  9>     print[ P_Cartesian ] 0
| 10> end
| 11> *xyz 0 1
| 12>  C        0.8610950000    -0.1119330000    -0.0783370000
| 13>  C        2.1847490000    -0.0396670000    -0.0745000000
| 14>  C        2.9234600000     1.2781050000    -0.0860780000
| 15>  N        4.3480450000     1.1018600000    -0.0782150000
| 16>  N        4.9710800000    -0.0832160000    -0.0637150000
| 17>  C        4.2693260000    -1.1326720000    -0.0554440000
| 18>  O        2.9047830000    -1.1926990000    -0.0597920000
| 19>  H        0.2697880000     0.7933880000    -0.0900150000
| 20>  H        0.3554880000    -1.0678370000    -0.0699500000
| 21>  H        2.5961790000     1.8546600000     0.7888910000
| 22>  H        2.6033940000     1.8351420000    -0.9762480000
| 23>  H        4.9579920000     1.8945560000    -0.0845770000
| 24>  H        4.7241210000    -2.1111970000    -0.0436010000
| 25> *
| 26>
| 27>                          ****END OF INPUT****
 Total Charge           Charge          ....    0
 Multiplicity           Mult            ....    1
 Number of Electrons    NEL             ....   52
 Basis Dimension        Dim             ....  128

MULLIKEN ATOMIC CHARGES
-----------------------
   0 C :   -0.061337
   1 C :   -0.037563
   2 C :    0.205985
   3 N :   -0.174192
   4 N :   -0.075417
   5 C :    0.083175
   6 O :   -0.200416
   7 H :    0.012138
   8 H :    0.029391
   9 H :    0.039382
  10 H :    0.038996
  11 H :    0.122681
  12 H :    0.017176
Sum of atomic charges:   -0.0000000

LOEWDIN ATOMIC CHARGES
----------------------
   0 C :   -0.114239
   1 C :    0.024775
   2 C :    0.005036
   3 N :   -0.002972
   4 N :   -0.068743
   5 C :   -0.029616
   6 O :   -0.025050
   7 H :    0.029643
   8 H :    0.032778
   9 H :    0.031746
  10 H :    0.031616
  11 H :    0.066301
  12 H :    0.018724

  Mayer bond orders larger than 0.1
B(  0-C ,  1-C ) :   1.9417 B(  0-C ,  7-H ) :   0.9310 B(  0-C ,  8-H ) :   0.9312
B(  1-C ,  2-C ) :   0.9797 B(  1-C ,  6-O ) :   1.1170 B(  2-C ,  3-N ) :   0.9797
B(  2-C ,  9-H ) :   0.9216 B(  2-C , 10-H ) :   0.9216 B(  3-N ,  4-N ) :   1.1148
B(  3-N ,  5-C ) :   0.1315 B(  3-N , 11-H ) :   0.9504 B(  4-N ,  5-C ) :   1.8452
B(  5-C ,  6-O ) :   1.0393 B(  5-C , 12-H ) :   0.9692

FINAL SINGLE POINT ENERGY      -340.036805395236

DIPOLE MOMENT
-------------
                                X             Y             Z
Electronic contribution:      3.30025      -2.29017       0.03705
Nuclear contribution   :     -3.54972       3.08482      -0.04662
                        -----------------------------------------
Total Dipole Moment    :     -0.24948       0.79465      -0.00957
                        -----------------------------------------
Magnitude (a.u.)       :      0.83295
Magnitude (Debye)      :      2.11718

                             ****ORCA TERMINATED NORMALLY****
TOTAL RUN TIME: 0 days 0 hours 0 minutes 6 seconds 436 msec
