                         Program Version 3.0.3 - RELEASE   -
|  1> ! RI PBE def2-SVP def2-SVP/J NBO PAL2
|  2> % maxcore 2000
|  3> % output
|  4>     # printlevel mini
|  5>     print[ P_Basis ] 0
|  6>     print[ P_SCFInfo ] 1
|  7>     print[ P_SCFIterInfo ] 1
|  8>     print[ P_OrbEn ] 0
|  9>     print[ P_Cartesian ] 0
| 10> end
| 11> *xyz 0 1
| 12>  C        0.9192610000     0.0414000000     0.3169680000
| 13>  C        2.3721300000     0.0813940000    -0.0803370000
| 14>  C        2.7657700000     1.3366120000    -0.8338100000
| 15>  N        4.1462210000     1.1889680000    -1.2323730000
| 16>  N        4.3965990000     0.0581970000    -1.9852070000
| 17>  C        3.6519070000    -0.9446840000    -1.7770960000
| 18>  O        2.6213780000    -1.0577040000    -0.9112910000
| 19>  H        0.6946620000     0.8512890000     1.0145990000
| 20>  H        0.6865390000    -0.9067370000     0.8039550000
| 21>  H        0.2758280000     0.1449240000    -0.5595640000
| 22>  H        3.0126110000    -0.0077400000     0.8040470000
| 23>  H        2.6650550000     2.2103670000    -0.1858770000
| 24>  H        2.0869830000     1.4573990000    -1.6934560000
| 25>  H        4.5099390000     1.9859220000    -1.7323600000
| 26>  H        3.8251160000    -1.8602190000    -2.3293090000
| 27> *
| 28>
| 29>                          ****END OF INPUT****
 Total Charge           Charge          ....    0
 Multiplicity           Mult            ....    1
 Number of Electrons    NEL             ....   54
 Basis Dimension        Dim             ....  138

MULLIKEN ATOMIC CHARGES
-----------------------
   0 C :    0.024520
   1 C :    0.050649
   2 C :    0.082602
   3 N :   -0.129135
   4 N :   -0.126611
   5 C :    0.085913
   6 O :   -0.269074
   7 H :    0.024926
   8 H :    0.037196
   9 H :    0.028555
  10 H :    0.024920
  11 H :    0.017309
  12 H :    0.012812
  13 H :    0.117029
  14 H :    0.018388
Sum of atomic charges:    0.0000000

LOEWDIN ATOMIC CHARGES
----------------------
   0 C :   -0.065774
   1 C :    0.052106
   2 C :   -0.008985
   3 N :   -0.026055
   4 N :   -0.101855
   5 C :   -0.015117
   6 O :   -0.083303
   7 H :    0.034250
   8 H :    0.036524
   9 H :    0.031556
  10 H :    0.023168
  11 H :    0.030379
  12 H :    0.012603
  13 H :    0.061591
  14 H :    0.018912

  Mayer bond orders larger than 0.1
B(  0-C ,  1-C ) :   1.0940 B(  0-C ,  7-H ) :   0.9534 B(  0-C ,  8-H ) :   0.9524
B(  0-C ,  9-H ) :   0.9517 B(  1-C ,  2-C ) :   1.0460 B(  1-C ,  6-O ) :   0.9549
B(  1-C , 10-H ) :   0.9226 B(  2-C ,  3-N ) :   1.0452 B(  2-C , 11-H ) :   0.9259
B(  2-C , 12-H ) :   0.9160 B(  3-N ,  4-N ) :   1.0500 B(  3-N , 13-H ) :   0.9403
B(  4-N ,  5-C ) :   1.8717 B(  5-C ,  6-O ) :   1.1184 B(  5-C , 14-H ) :   0.9645

FINAL SINGLE POINT ENERGY      -341.263652661195

DIPOLE MOMENT
-------------
                                X             Y             Z
Electronic contribution:      4.85614      -2.19049      -2.88719
Nuclear contribution   :     -5.52920       2.82685       3.25656
                        -----------------------------------------
Total Dipole Moment    :     -0.67306       0.63635       0.36936
                        -----------------------------------------
Magnitude (a.u.)       :      0.99719
Magnitude (Debye)      :      2.53466

                             ****ORCA TERMINATED NORMALLY****
TOTAL RUN TIME: 0 days 0 hours 0 minutes 7 seconds 182 msec
