                         Program Version 3.0.3 - RELEASE   -
|  1> ! RI PBE def2-SVP def2-SVP/J NBO PAL2
|  2> % maxcore 2000
|  3> % output
|  4>     # printlevel mini
|  5>     print[ P_Basis ] 0
|  6>     print[ P_SCFInfo ] 1
|  7>     print[ P_SCFIterInfo ] 1
|  8>     print[ P_OrbEn ] 0
|  9>     print[ P_Cartesian ] 0
| 10> end
| 11> *xyz 0 1
| 12>  C        1.0135560000    -0.0613740000    -0.0733770000
| 13>  C        2.4962020000     0.0787670000    -0.0182550000
| 14>  C        3.2348380000     1.2509260000    -0.0996110000
| 15>  N        4.5141740000     0.8699420000    -0.0043940000
| 16>  O        5.5825730000     1.7118870000    -0.0379680000
| 17>  N        4.7024970000    -0.4163170000     0.1303450000
| 18>  C        3.4650080000    -0.9227810000     0.1238870000
| 19>  H        0.5314670000     0.9130940000    -0.1651750000
| 20>  H        0.6219480000    -0.5392260000     0.8281650000
| 21>  H        0.6985000000    -0.6666030000    -0.9273240000
| 22>  H        2.9565760000     2.2854700000    -0.2133020000
| 23>  H        6.3302600000     1.1040900000     0.0576330000
| 24>  H        3.3272240000    -1.9889840000     0.2224740000
| 25> *
| 26>
| 27>                          ****END OF INPUT****
 Total Charge           Charge          ....    0
 Multiplicity           Mult            ....    1
 Number of Electrons    NEL             ....   52
 Basis Dimension        Dim             ....  128

MULLIKEN ATOMIC CHARGES
-----------------------
   0 C :    0.083288
   1 C :   -0.153890
   2 C :    0.083460
   3 N :    0.011358
   4 O :   -0.130070
   5 N :   -0.117051
   6 C :   -0.014446
   7 H :    0.011872
   8 H :    0.033670
   9 H :    0.035351
  10 H :   -0.002963
  11 H :    0.170031
  12 H :   -0.010610
Sum of atomic charges:   -0.0000000

LOEWDIN ATOMIC CHARGES
----------------------
   0 C :   -0.056247
   1 C :   -0.098053
   2 C :   -0.044782
   3 N :    0.182279
   4 O :   -0.036564
   5 N :   -0.117851
   6 C :   -0.063452
   7 H :    0.034003
   8 H :    0.037891
   9 H :    0.038134
  10 H :    0.027421
  11 H :    0.078717
  12 H :    0.018503

  Mayer bond orders larger than 0.1
B(  0-C ,  1-C ) :   1.1045 B(  0-C ,  7-H ) :   0.9487 B(  0-C ,  8-H ) :   0.9482
B(  0-C ,  9-H ) :   0.9474 B(  1-C ,  2-C ) :   1.3782 B(  1-C ,  6-C ) :   1.3843
B(  2-C ,  3-N ) :   1.2205 B(  2-C ,  5-N ) :   0.1267 B(  2-C , 10-H ) :   0.9868
B(  3-N ,  4-O ) :   0.9749 B(  3-N ,  5-N ) :   1.2312 B(  4-O , 11-H ) :   0.9502
B(  5-N ,  6-C ) :   1.4674 B(  6-C , 12-H ) :   0.9937

FINAL SINGLE POINT ENERGY      -340.039988069218

DIPOLE MOMENT
-------------
                                X             Y             Z
Electronic contribution:      6.62363       1.37185       0.16899
Nuclear contribution   :     -6.79347      -1.18137      -0.19375
                        -----------------------------------------
Total Dipole Moment    :     -0.16984       0.19048      -0.02476
                        -----------------------------------------
Magnitude (a.u.)       :      0.25640
Magnitude (Debye)      :      0.65171

                             ****ORCA TERMINATED NORMALLY****
TOTAL RUN TIME: 0 days 0 hours 0 minutes 5 seconds 922 msec
