                         Program Version 3.0.3 - RELEASE   -
|  1> ! RI PBE def2-SVP def2-SVP/J NBO PAL2
|  2> % maxcore 2000
|  3> % output
|  4>     # printlevel mini
|  5>     print[ P_Basis ] 0
|  6>     print[ P_SCFInfo ] 1
|  7>     print[ P_SCFIterInfo ] 1
|  8>     print[ P_OrbEn ] 0
|  9>     print[ P_Cartesian ] 0
| 10> end
| 11> *xyz 0 1
| 12>  C        0.9848650000    -0.2245960000    -0.0007770000
| 13>  C        2.4497010000    -0.0251120000    -0.0051470000
| 14>  C        3.2476040000     1.0755910000    -0.0020160000
| 15>  C        2.8736020000     2.5151030000     0.0073350000
| 16>  C        4.5511340000     0.5119520000    -0.0099760000
| 17>  N        4.5332180000    -0.7882270000    -0.0171280000
| 18>  O        3.2056420000    -1.1345570000    -0.0140970000
| 19>  H        0.4704690000     0.7358000000     0.0061230000
| 20>  H        0.6715140000    -0.7909730000     0.8798080000
| 21>  H        0.6650130000    -0.7817850000    -0.8848750000
| 22>  H        1.7902460000     2.6435630000     0.0123510000
| 23>  H        3.2629820000     3.0348360000    -0.8721500000
| 24>  H        3.2699900000     3.0252020000     0.8893240000
| 25>  H        5.5045300000     1.0227930000    -0.0106850000
| 26> *
| 27>
| 28>                          ****END OF INPUT****
 Total Charge           Charge          ....    0
 Multiplicity           Mult            ....    1
 Number of Electrons    NEL             ....   52
 Basis Dimension        Dim             ....  133

MULLIKEN ATOMIC CHARGES
-----------------------
   0 C :    0.090400
   1 C :   -0.022523
   2 C :   -0.195367
   3 C :    0.087105
   4 C :    0.020269
   5 N :   -0.019430
   6 O :   -0.166279
   7 H :    0.022305
   8 H :    0.049141
   9 H :    0.049080
  10 H :    0.014302
  11 H :    0.036801
  12 H :    0.036582
  13 H :   -0.002387
Sum of atomic charges:    0.0000000

LOEWDIN ATOMIC CHARGES
----------------------
   0 C :   -0.062233
   1 C :    0.004989
   2 C :   -0.115386
   3 C :   -0.054469
   4 C :   -0.044256
   5 N :   -0.038702
   6 O :    0.030985
   7 H :    0.041259
   8 H :    0.048405
   9 H :    0.048397
  10 H :    0.033003
  11 H :    0.040420
  12 H :    0.040374
  13 H :    0.027214

  Mayer bond orders larger than 0.1
B(  0-C ,  1-C ) :   1.1379 B(  0-C ,  7-H ) :   0.9413 B(  0-C ,  8-H ) :   0.9316
B(  0-C ,  9-H ) :   0.9316 B(  1-C ,  2-C ) :   1.5443 B(  1-C ,  5-N ) :   0.1148
B(  1-C ,  6-O ) :   1.1492 B(  2-C ,  3-C ) :   1.1124 B(  2-C ,  4-C ) :   1.2179
B(  3-C , 10-H ) :   0.9436 B(  3-C , 11-H ) :   0.9433 B(  3-C , 12-H ) :   0.9432
B(  4-C ,  5-N ) :   1.6891 B(  4-C , 13-H ) :   0.9812 B(  5-N ,  6-O ) :   1.0155

FINAL SINGLE POINT ENERGY      -324.046181388434

DIPOLE MOMENT
-------------
                                X             Y             Z
Electronic contribution:      4.80490      -5.53333      -0.04855
Nuclear contribution   :     -5.60750       6.55204       0.05720
                        -----------------------------------------
Total Dipole Moment    :     -0.80260       1.01871       0.00864
                        -----------------------------------------
Magnitude (a.u.)       :      1.29693
Magnitude (Debye)      :      3.29652

                             ****ORCA TERMINATED NORMALLY****
TOTAL RUN TIME: 0 days 0 hours 0 minutes 6 seconds 257 msec
