                         Program Version 3.0.3 - RELEASE   -
|  1> ! RI PBE def2-SVP def2-SVP/J NBO PAL2
|  2> % maxcore 2000
|  3> % output
|  4>     # printlevel mini
|  5>     print[ P_Basis ] 0
|  6>     print[ P_SCFInfo ] 1
|  7>     print[ P_SCFIterInfo ] 1
|  8>     print[ P_OrbEn ] 0
|  9>     print[ P_Cartesian ] 0
| 10> end
| 11> *xyz 0 1
| 12>  C        0.9134920000     0.0502520000    -0.0395660000
| 13>  C        2.4003710000     0.0976740000    -0.0388440000
| 14>  C        3.2261720000     1.1806870000    -0.0367510000
| 15>  O        3.0234260000     2.4949810000    -0.0347360000
| 16>  O        4.5024050000     0.8280170000    -0.0367600000
| 17>  N        4.5762660000    -0.5585390000    -0.0389490000
| 18>  C        3.3393050000    -0.9636920000    -0.0401310000
| 19>  H        0.4783150000     1.0538460000    -0.0381650000
| 20>  H        0.5229400000    -0.4653030000     0.8416150000
| 21>  H        0.5237090000    -0.4625050000    -0.9227180000
| 22>  H        2.0765860000     2.6654250000    -0.0348780000
| 23>  H        3.1438240000    -2.0278520000    -0.0419180000
| 24> *
| 25>
| 26>                          ****END OF INPUT****
 Total Charge           Charge          ....    0
 Multiplicity           Mult            ....    1
 Number of Electrons    NEL             ....   52
 Basis Dimension        Dim             ....  123

MULLIKEN ATOMIC CHARGES
-----------------------
   0 C :    0.086036
   1 C :   -0.247714
   2 C :    0.177554
   3 O :   -0.113910
   4 O :   -0.152790
   5 N :   -0.034944
   6 C :    0.017378
   7 H :   -0.008616
   8 H :    0.044838
   9 H :    0.044791
  10 H :    0.180576
  11 H :    0.006801
Sum of atomic charges:    0.0000000

LOEWDIN ATOMIC CHARGES
----------------------
   0 C :   -0.054392
   1 C :   -0.171065
   2 C :    0.037380
   3 O :    0.005804
   4 O :    0.032078
   5 N :   -0.046184
   6 C :   -0.039925
   7 H :    0.024157
   8 H :    0.041610
   9 H :    0.041602
  10 H :    0.099861
  11 H :    0.029074

  Mayer bond orders larger than 0.1
B(  0-C ,  1-C ) :   1.0941 B(  0-C ,  7-H ) :   0.9411 B(  0-C ,  8-H ) :   0.9473
B(  0-C ,  9-H ) :   0.9473 B(  1-C ,  2-C ) :   1.4403 B(  1-C ,  6-C ) :   1.2329
B(  2-C ,  3-O ) :   1.2914 B(  2-C ,  4-O ) :   1.1830 B(  3-O , 10-H ) :   0.9569
B(  4-O ,  5-N ) :   0.9825 B(  5-N ,  6-C ) :   1.6945 B(  6-C , 11-H ) :   0.9838

FINAL SINGLE POINT ENERGY      -359.903703834066

DIPOLE MOMENT
-------------
                                X             Y             Z
Electronic contribution:      6.55043       1.91939       0.00589
Nuclear contribution   :     -8.31870      -1.64580      -0.00625
                        -----------------------------------------
Total Dipole Moment    :     -1.76827       0.27360      -0.00036
                        -----------------------------------------
Magnitude (a.u.)       :      1.78932
Magnitude (Debye)      :      4.54808

                             ****ORCA TERMINATED NORMALLY****
TOTAL RUN TIME: 0 days 0 hours 0 minutes 5 seconds 980 msec
