                         Program Version 3.0.3 - RELEASE   -
|  1> ! RI PBE def2-SVP def2-SVP/J NBO PAL2
|  2> % maxcore 2000
|  3> % output
|  4>     # printlevel mini
|  5>     print[ P_Basis ] 0
|  6>     print[ P_SCFInfo ] 1
|  7>     print[ P_SCFIterInfo ] 1
|  8>     print[ P_OrbEn ] 0
|  9>     print[ P_Cartesian ] 0
| 10> end
| 11> *xyz 0 1
| 12>  C        0.9154630000    -0.0103040000    -0.0849480000
| 13>  C        2.2393280000    -0.0674530000     0.0292080000
| 14>  C        3.1516280000    -1.1746140000     0.1712890000
| 15>  N        4.3697280000    -0.7911330000     0.2495850000
| 16>  O        4.4106120000     0.6053470000     0.1699470000
| 17>  C        3.1437460000     1.1100630000     0.0353160000
| 18>  O        2.9153520000     2.2757340000    -0.0537910000
| 19>  H        0.2997960000    -0.9019980000    -0.0835220000
| 20>  H        0.4262930000     0.9526510000    -0.1828950000
| 21>  H        2.9264530000    -2.2320150000     0.2152110000
| 22> *
| 23>
| 24>                          ****END OF INPUT****
 Total Charge           Charge          ....    0
 Multiplicity           Mult            ....    1
 Number of Electrons    NEL             ....   50
 Basis Dimension        Dim             ....  113

MULLIKEN ATOMIC CHARGES
-----------------------
   0 C :    0.028032
   1 C :   -0.184570
   2 C :    0.064105
   3 N :    0.031241
   4 O :   -0.193509
   5 C :    0.234378
   6 O :   -0.115559
   7 H :    0.047939
   8 H :    0.060136
   9 H :    0.027805
Sum of atomic charges:   -0.0000000

LOEWDIN ATOMIC CHARGES
----------------------
   0 C :    0.054022
   1 C :   -0.104646
   2 C :   -0.028801
   3 N :    0.031931
   4 O :   -0.024727
   5 C :    0.042194
   6 O :   -0.093721
   7 H :    0.040722
   8 H :    0.045809
   9 H :    0.037216

  Mayer bond orders larger than 0.1
B(  0-C ,  1-C ) :   1.8823 B(  0-C ,  3-N ) :   0.1050 B(  0-C ,  7-H ) :   0.9374
B(  0-C ,  8-H ) :   0.9213 B(  1-C ,  2-C ) :   1.0391 B(  1-C ,  5-C ) :   0.9201
B(  2-C ,  3-N ) :   1.8245 B(  2-C ,  9-H ) :   0.9812 B(  3-N ,  4-O ) :   0.9608
B(  4-O ,  5-C ) :   1.0443 B(  5-C ,  6-O ) :   2.2072

FINAL SINGLE POINT ENERGY      -358.693810257384

DIPOLE MOMENT
-------------
                                X             Y             Z
Electronic contribution:      3.75967       1.84075       0.20589
Nuclear contribution   :     -5.11839      -2.92135      -0.25380
                        -----------------------------------------
Total Dipole Moment    :     -1.35872      -1.08060      -0.04791
                        -----------------------------------------
Magnitude (a.u.)       :      1.73670
Magnitude (Debye)      :      4.41433

                             ****ORCA TERMINATED NORMALLY****
TOTAL RUN TIME: 0 days 0 hours 0 minutes 5 seconds 108 msec
