                         Program Version 3.0.3 - RELEASE   -
|  1> ! RI PBE def2-SVP def2-SVP/J NBO PAL2
|  2> % maxcore 2000
|  3> % output
|  4>     # printlevel mini
|  5>     print[ P_Basis ] 0
|  6>     print[ P_SCFInfo ] 1
|  7>     print[ P_SCFIterInfo ] 1
|  8>     print[ P_OrbEn ] 0
|  9>     print[ P_Cartesian ] 0
| 10> end
| 11> *xyz 0 1
| 12>  C        0.9473990000    -0.0682860000     0.0227060000
| 13>  C        2.4708110000    -0.0953160000     0.0734260000
| 14>  C        3.1328260000    -1.2553690000    -0.5704350000
| 15>  N        3.9513470000    -0.9419240000    -1.4900030000
| 16>  O        3.9729240000     0.4569950000    -1.6140220000
| 17>  C        3.1043920000     1.0246480000    -0.7250770000
| 18>  O        2.9292290000     2.1995970000    -0.6621500000
| 19>  H        0.5254290000    -0.8594840000     0.6441200000
| 20>  H        0.5878130000    -0.2010420000    -0.9989870000
| 21>  H        0.5896330000     0.8941990000     0.3902210000
| 22>  H        2.8020340000     0.0067660000     1.1138700000
| 23>  H        2.9887630000    -2.3041840000    -0.3396700000
| 24> *
| 25>
| 26>                          ****END OF INPUT****
 Total Charge           Charge          ....    0
 Multiplicity           Mult            ....    1
 Number of Electrons    NEL             ....   52
 Basis Dimension        Dim             ....  123

MULLIKEN ATOMIC CHARGES
-----------------------
   0 C :    0.033375
   1 C :   -0.211695
   2 C :    0.027006
   3 N :    0.018941
   4 O :   -0.188036
   5 C :    0.189718
   6 O :   -0.127056
   7 H :    0.040460
   8 H :    0.041169
   9 H :    0.054057
  10 H :    0.083157
  11 H :    0.038906
Sum of atomic charges:   -0.0000000

LOEWDIN ATOMIC CHARGES
----------------------
   0 C :   -0.033863
   1 C :   -0.097531
   2 C :   -0.018839
   3 N :    0.021653
   4 O :   -0.026303
   5 C :    0.043355
   6 O :   -0.105136
   7 H :    0.035135
   8 H :    0.036223
   9 H :    0.041755
  10 H :    0.068851
  11 H :    0.034698

  Mayer bond orders larger than 0.1
B(  0-C ,  1-C ) :   1.0614 B(  0-C ,  7-H ) :   0.9648 B(  0-C ,  8-H ) :   0.9681
B(  0-C ,  9-H ) :   0.9560 B(  1-C ,  2-C ) :   0.9814 B(  1-C ,  5-C ) :   0.9242
B(  1-C , 10-H ) :   0.8702 B(  2-C ,  3-N ) :   1.9117 B(  2-C , 11-H ) :   0.9696
B(  3-N ,  4-O ) :   0.9445 B(  4-O ,  5-C ) :   1.0718 B(  5-C ,  6-O ) :   2.2193

FINAL SINGLE POINT ENERGY      -359.909547410971

DIPOLE MOMENT
-------------
                                X             Y             Z
Electronic contribution:      5.76318       2.29044      -3.12648
Nuclear contribution   :     -6.64365      -3.33087       4.09804
                        -----------------------------------------
Total Dipole Moment    :     -0.88047      -1.04043       0.97156
                        -----------------------------------------
Magnitude (a.u.)       :      1.67382
Magnitude (Debye)      :      4.25450

                             ****ORCA TERMINATED NORMALLY****
TOTAL RUN TIME: 0 days 0 hours 0 minutes 6 seconds 218 msec
