                         Program Version 3.0.3 - RELEASE   -
|  1> ! RI PBE def2-SVP def2-SVP/J NBO PAL2
|  2> % maxcore 2000
|  3> % output
|  4>     # printlevel mini
|  5>     print[ P_Basis ] 0
|  6>     print[ P_SCFInfo ] 1
|  7>     print[ P_SCFIterInfo ] 1
|  8>     print[ P_OrbEn ] 0
|  9>     print[ P_Cartesian ] 0
| 10> end
| 11> *xyz 0 1
| 12>  C        0.9975090000    -0.0182460000     0.2647460000
| 13>  C        2.4848360000     0.0898870000     0.0161710000
| 14>  C        3.2526410000     1.2180980000     0.7437350000
| 15>  N        4.0935150000     0.1659170000     1.2962100000
| 16>  O        4.8684890000     0.2492820000     2.4219660000
| 17>  C        3.3441470000    -0.8897250000     0.8414080000
| 18>  O        3.3626450000    -2.0674290000     1.0475410000
| 19>  H        0.4530010000     0.7800190000    -0.2445920000
| 20>  H        0.7710760000     0.0403220000     1.3322110000
| 21>  H        0.6232290000    -0.9757750000    -0.1021470000
| 22>  H        2.7208080000     0.0371840000    -1.0484630000
| 23>  H        2.6528840000     1.7342220000     1.4990120000
| 24>  H        3.7875640000     1.9408830000     0.1240110000
| 25>  H        5.7813460000     0.1758520000     2.1188810000
| 26> *
| 27>
| 28>                          ****END OF INPUT****
 Total Charge           Charge          ....    0
 Multiplicity           Mult            ....    1
 Number of Electrons    NEL             ....   54
 Basis Dimension        Dim             ....  133

MULLIKEN ATOMIC CHARGES
-----------------------
   0 C :    0.047884
   1 C :   -0.297947
   2 C :    0.255769
   3 N :   -0.176217
   4 O :   -0.175943
   5 C :    0.137524
   6 O :   -0.149913
   7 H :    0.032210
   8 H :    0.024090
   9 H :    0.042181
  10 H :    0.044746
  11 H :    0.014662
  12 H :    0.014107
  13 H :    0.186848
Sum of atomic charges:   -0.0000000

LOEWDIN ATOMIC CHARGES
----------------------
   0 C :   -0.051200
   1 C :   -0.064384
   2 C :    0.041950
   3 N :    0.015323
   4 O :   -0.057421
   5 C :    0.010099
   6 O :   -0.148954
   7 H :    0.031073
   8 H :    0.030347
   9 H :    0.038217
  10 H :    0.036818
  11 H :    0.019009
  12 H :    0.015123
  13 H :    0.083999

  Mayer bond orders larger than 0.1
B(  0-C ,  1-C ) :   1.0654 B(  0-C ,  7-H ) :   0.9620 B(  0-C ,  8-H ) :   0.9599
B(  0-C ,  9-H ) :   0.9583 B(  1-C ,  2-C ) :   1.0583 B(  1-C ,  5-C ) :   0.8780
B(  1-C , 10-H ) :   0.8898 B(  2-C ,  3-N ) :   0.9998 B(  2-C , 11-H ) :   0.9260
B(  2-C , 12-H ) :   0.9275 B(  3-N ,  4-O ) :   0.9330 B(  3-N ,  5-C ) :   1.1320
B(  3-N ,  6-O ) :   0.1086 B(  4-O , 13-H ) :   0.9702 B(  5-C ,  6-O ) :   2.2255

FINAL SINGLE POINT ENERGY      -361.085928470759

DIPOLE MOMENT
-------------
                                X             Y             Z
Electronic contribution:      5.70096      -3.41674       2.52733
Nuclear contribution   :     -5.45827       4.66428      -3.00628
                        -----------------------------------------
Total Dipole Moment    :      0.24268       1.24754      -0.47896
                        -----------------------------------------
Magnitude (a.u.)       :      1.35818
Magnitude (Debye)      :      3.45222

                             ****ORCA TERMINATED NORMALLY****
TOTAL RUN TIME: 0 days 0 hours 0 minutes 6 seconds 485 msec
