                         Program Version 3.0.3 - RELEASE   -
|  1> ! RI PBE def2-SVP def2-SVP/J NBO PAL2
|  2> % maxcore 2000
|  3> % output
|  4>     # printlevel mini
|  5>     print[ P_Basis ] 0
|  6>     print[ P_SCFInfo ] 1
|  7>     print[ P_SCFIterInfo ] 1
|  8>     print[ P_OrbEn ] 0
|  9>     print[ P_Cartesian ] 0
| 10> end
| 11> *xyz 0 1
| 12>  C        0.8938220000     0.0248970000     0.0146710000
| 13>  C        2.3755360000     0.1283550000    -0.0193440000
| 14>  C        3.1493140000     1.2511300000    -0.1465090000
| 15>  N        4.4362550000     0.7875170000    -0.1140290000
| 16>  O        5.5580750000     1.5472750000    -0.2835860000
| 17>  C        4.4088760000    -0.5553300000     0.0097920000
| 18>  N        3.1736120000    -0.9822780000     0.0763100000
| 19>  H        0.4282090000     1.0068960000    -0.0800140000
| 20>  H        0.5577260000    -0.4267830000     0.9512420000
| 21>  H        0.5317120000    -0.6077990000    -0.7993200000
| 22>  H        2.9256390000     2.2980860000    -0.2636420000
| 23>  H        5.8001860000     1.8597530000     0.5975540000
| 24>  H        5.3102280000    -1.1485080000     0.0399760000
| 25> *
| 26>
| 27>                          ****END OF INPUT****
 Total Charge           Charge          ....    0
 Multiplicity           Mult            ....    1
 Number of Electrons    NEL             ....   52
 Basis Dimension        Dim             ....  128

MULLIKEN ATOMIC CHARGES
-----------------------
   0 C :    0.116679
   1 C :   -0.138753
   2 C :    0.030141
   3 N :   -0.035952
   4 O :   -0.170670
   5 C :    0.097337
   6 N :   -0.155184
   7 H :    0.000511
   8 H :    0.030235
   9 H :    0.034190
  10 H :   -0.010898
  11 H :    0.193626
  12 H :    0.008738
Sum of atomic charges:    0.0000000

LOEWDIN ATOMIC CHARGES
----------------------
   0 C :   -0.061185
   1 C :   -0.056449
   2 C :   -0.068754
   3 N :    0.126006
   4 O :   -0.040435
   5 C :   -0.021735
   6 N :   -0.114818
   7 H :    0.030620
   8 H :    0.038923
   9 H :    0.040215
  10 H :    0.022113
  11 H :    0.088408
  12 H :    0.017090

  Mayer bond orders larger than 0.1
B(  0-C ,  1-C ) :   1.1135 B(  0-C ,  7-H ) :   0.9440 B(  0-C ,  8-H ) :   0.9394
B(  0-C ,  9-H ) :   0.9388 B(  1-C ,  2-C ) :   1.4676 B(  1-C ,  6-N ) :   1.3958
B(  2-C ,  3-N ) :   1.1580 B(  2-C , 10-H ) :   0.9841 B(  3-N ,  4-O ) :   0.9307
B(  3-N ,  5-C ) :   1.2171 B(  4-O , 11-H ) :   0.9671 B(  5-C ,  6-N ) :   1.6055
B(  5-C , 12-H ) :   0.9706

FINAL SINGLE POINT ENERGY      -340.050896049760

DIPOLE MOMENT
-------------
                                X             Y             Z
Electronic contribution:      5.46415       0.19575      -0.29925
Nuclear contribution   :     -4.95333       0.78841       0.77780
                        -----------------------------------------
Total Dipole Moment    :      0.51082       0.98416       0.47855
                        -----------------------------------------
Magnitude (a.u.)       :      1.20769
Magnitude (Debye)      :      3.06971

                             ****ORCA TERMINATED NORMALLY****
TOTAL RUN TIME: 0 days 0 hours 0 minutes 6 seconds 37 msec
