                         Program Version 3.0.3 - RELEASE   -
|  1> ! RI PBE def2-SVP def2-SVP/J NBO PAL2
|  2> % maxcore 2000
|  3> % output
|  4>     # printlevel mini
|  5>     print[ P_Basis ] 0
|  6>     print[ P_SCFInfo ] 1
|  7>     print[ P_SCFIterInfo ] 1
|  8>     print[ P_OrbEn ] 0
|  9>     print[ P_Cartesian ] 0
| 10> end
| 11> *xyz 0 1
| 12>  C        1.0664570000     0.0745130000    -0.3022410000
| 13>  C        2.4697610000    -0.0111930000     0.2535050000
| 14>  C        2.8417890000    -1.3701490000     0.8678130000
| 15>  N        3.7710920000    -0.9529840000     1.9144670000
| 16>  O        3.7705910000    -1.7936970000     3.0391130000
| 17>  C        3.3878620000     0.3550050000     2.2108660000
| 18>  N        2.6956670000     0.9562480000     1.3378270000
| 19>  H        0.9236040000    -0.6384710000    -1.1183970000
| 20>  H        0.8730440000     1.0782590000    -0.6840500000
| 21>  H        0.3318090000    -0.1405300000     0.4772990000
| 22>  H        3.1867190000     0.2288900000    -0.5429250000
| 23>  H        3.3090800000    -2.0606050000     0.1652970000
| 24>  H        1.9694610000    -1.8521610000     1.3283670000
| 25>  H        4.6427890000    -2.1994550000     3.0288740000
| 26>  H        3.7383850000     0.7944310000     3.1390840000
| 27> *
| 28>
| 29>                          ****END OF INPUT****
 Total Charge           Charge          ....    0
 Multiplicity           Mult            ....    1
 Number of Electrons    NEL             ....   54
 Basis Dimension        Dim             ....  138

MULLIKEN ATOMIC CHARGES
-----------------------
   0 C :    0.042851
   1 C :   -0.101503
   2 C :    0.207735
   3 N :   -0.195255
   4 O :   -0.201498
   5 C :    0.130539
   6 N :   -0.185221
   7 H :    0.020480
   8 H :    0.031494
   9 H :    0.019860
  10 H :    0.024332
  11 H :    0.017672
  12 H :   -0.001422
  13 H :    0.180075
  14 H :    0.009862
Sum of atomic charges:   -0.0000000

LOEWDIN ATOMIC CHARGES
----------------------
   0 C :   -0.063683
   1 C :   -0.003400
   2 C :    0.010012
   3 N :   -0.003125
   4 O :   -0.073406
   5 C :    0.013966
   6 N :   -0.124072
   7 H :    0.028008
   8 H :    0.034645
   9 H :    0.026737
  10 H :    0.027915
  11 H :    0.020301
  12 H :    0.014941
  13 H :    0.074655
  14 H :    0.016505

  Mayer bond orders larger than 0.1
B(  0-C ,  1-C ) :   1.0967 B(  0-C ,  7-H ) :   0.9581 B(  0-C ,  8-H ) :   0.9539
B(  0-C ,  9-H ) :   0.9518 B(  1-C ,  2-C ) :   1.0352 B(  1-C ,  6-N ) :   1.0395
B(  1-C , 10-H ) :   0.8958 B(  2-C ,  3-N ) :   0.9756 B(  2-C , 11-H ) :   0.9368
B(  2-C , 12-H ) :   0.9104 B(  3-N ,  4-O ) :   0.9325 B(  3-N ,  5-C ) :   1.0846
B(  3-N ,  6-N ) :   0.1036 B(  4-O , 13-H ) :   0.9789 B(  5-C ,  6-N ) :   1.8777
B(  5-C , 14-H ) :   0.9601

FINAL SINGLE POINT ENERGY      -341.233307011690

DIPOLE MOMENT
-------------
                                X             Y             Z
Electronic contribution:      4.21719       0.28715       4.60679
Nuclear contribution   :     -3.72012      -1.14171      -4.76270
                        -----------------------------------------
Total Dipole Moment    :      0.49706      -0.85456      -0.15591
                        -----------------------------------------
Magnitude (a.u.)       :      1.00083
Magnitude (Debye)      :      2.54391

                             ****ORCA TERMINATED NORMALLY****
TOTAL RUN TIME: 0 days 0 hours 0 minutes 6 seconds 850 msec
