                         Program Version 3.0.3 - RELEASE   -
|  1> ! RI PBE def2-SVP def2-SVP/J NBO PAL2
|  2> % maxcore 2000
|  3> % output
|  4>     # printlevel mini
|  5>     print[ P_Basis ] 0
|  6>     print[ P_SCFInfo ] 1
|  7>     print[ P_SCFIterInfo ] 1
|  8>     print[ P_OrbEn ] 0
|  9>     print[ P_Cartesian ] 0
| 10> end
| 11> *xyz 0 1
| 12>  C        1.0241100000     0.1479570000    -0.2647050000
| 13>  C        2.4295040000    -0.2694570000     0.0625030000
| 14>  C        3.2327040000    -0.9911520000    -0.9229350000
| 15>  O        3.4476840000     0.3931100000    -0.6822500000
| 16>  C        2.7282990000    -0.4156840000     1.5223550000
| 17>  C        4.1045570000    -0.3151250000     2.0298330000
| 18>  N        3.1445340000     0.7592010000     2.2840590000
| 19>  H        0.9011560000     0.2758110000    -1.3407480000
| 20>  H        0.7818750000     1.0927410000     0.2284330000
| 21>  H        0.3108180000    -0.6035720000     0.0830570000
| 22>  H        2.8043030000    -1.2279930000    -1.8942630000
| 23>  H        4.0298910000    -1.6481820000    -0.5841770000
| 24>  H        2.0234220000    -1.0501150000     2.0543940000
| 25>  H        4.8891920000    -0.1281360000     1.3043630000
| 26>  H        4.3978780000    -0.8869030000     2.9033450000
| 27>  H        3.3338630000     1.5181880000     1.6348370000
| 28> *
| 29>
| 30>                          ****END OF INPUT****
 Total Charge           Charge          ....    0
 Multiplicity           Mult            ....    1
 Number of Electrons    NEL             ....   54
 Basis Dimension        Dim             ....  143

MULLIKEN ATOMIC CHARGES
-----------------------
   0 C :    0.123236
   1 C :   -0.144036
   2 C :    0.178963
   3 O :   -0.296407
   4 C :   -0.028729
   5 C :    0.040662
   6 N :   -0.190926
   7 H :    0.016232
   8 H :    0.027958
   9 H :    0.028310
  10 H :    0.019403
  11 H :    0.027971
  12 H :    0.017573
  13 H :    0.038288
  14 H :    0.030854
  15 H :    0.110648
Sum of atomic charges:    0.0000000

LOEWDIN ATOMIC CHARGES
----------------------
   0 C :   -0.055279
   1 C :   -0.000373
   2 C :    0.065747
   3 O :   -0.153889
   4 C :   -0.014301
   5 C :    0.001477
   6 N :   -0.097417
   7 H :    0.033668
   8 H :    0.036534
   9 H :    0.037126
  10 H :    0.014403
  11 H :    0.014726
  12 H :    0.025142
  13 H :    0.017885
  14 H :    0.020758
  15 H :    0.053792

  Mayer bond orders larger than 0.1
B(  0-C ,  1-C ) :   1.0786 B(  0-C ,  7-H ) :   0.9374 B(  0-C ,  8-H ) :   0.9472
B(  0-C ,  9-H ) :   0.9472 B(  1-C ,  2-C ) :   1.0837 B(  1-C ,  3-O ) :   0.9510
B(  1-C ,  4-C ) :   1.0013 B(  2-C ,  3-O ) :   0.9941 B(  2-C , 10-H ) :   0.9279
B(  2-C , 11-H ) :   0.9241 B(  4-C ,  5-C ) :   1.0518 B(  4-C ,  6-N ) :   1.0124
B(  4-C , 12-H ) :   0.9362 B(  5-C ,  6-N ) :   1.0006 B(  5-C , 13-H ) :   0.9320
B(  5-C , 14-H ) :   0.9323 B(  6-N , 15-H ) :   0.9444

FINAL SINGLE POINT ENERGY      -325.199180491591

DIPOLE MOMENT
-------------
                                X             Y             Z
Electronic contribution:      2.04252       1.19608       0.07629
Nuclear contribution   :     -2.26431      -1.80953      -0.54587
                        -----------------------------------------
Total Dipole Moment    :     -0.22179      -0.61345      -0.46958
                        -----------------------------------------
Magnitude (a.u.)       :      0.80375
Magnitude (Debye)      :      2.04298

                             ****ORCA TERMINATED NORMALLY****
TOTAL RUN TIME: 0 days 0 hours 0 minutes 7 seconds 146 msec
