                         Program Version 3.0.3 - RELEASE   -
|  1> ! RI PBE def2-SVP def2-SVP/J NBO PAL2
|  2> % maxcore 2000
|  3> % output
|  4>     # printlevel mini
|  5>     print[ P_Basis ] 0
|  6>     print[ P_SCFInfo ] 1
|  7>     print[ P_SCFIterInfo ] 1
|  8>     print[ P_OrbEn ] 0
|  9>     print[ P_Cartesian ] 0
| 10> end
| 11> *xyz 0 1
| 12>  C        0.8210930000     0.1157240000     0.2168510000
| 13>  C        2.3209650000    -0.0131500000     0.1183780000
| 14>  C        3.1930940000     1.0007660000     0.8681470000
| 15>  O        3.9234790000    -0.0429590000     1.5294760000
| 16>  C        3.0307830000    -1.0406500000     1.0100630000
| 17>  C        3.7646980000    -2.1827380000     0.3522990000
| 18>  N        2.8022360000    -3.1295220000    -0.1895690000
| 19>  H        0.4611760000     0.9902210000    -0.3323700000
| 20>  H        0.5034390000     0.2225120000     1.2581570000
| 21>  H        0.3291140000    -0.7664000000    -0.1995520000
| 22>  H        2.6264810000    -0.1312460000    -0.9241970000
| 23>  H        2.6393000000     1.6201900000     1.5849840000
| 24>  H        3.8478910000     1.6423390000     0.2711400000
| 25>  H        2.3769160000    -1.4294800000     1.8073470000
| 26>  H        4.4699350000    -2.6099700000     1.0819350000
| 27>  H        4.3629710000    -1.7807150000    -0.4708050000
| 28>  H        2.3353270000    -3.6297940000     0.5572320000
| 29>  H        3.2636230000    -3.8224070000    -0.7637170000
| 30> *
| 31>
| 32>                          ****END OF INPUT****
 Total Charge           Charge          ....    0
 Multiplicity           Mult            ....    1
 Number of Electrons    NEL             ....   56
 Basis Dimension        Dim             ....  153

MULLIKEN ATOMIC CHARGES
-----------------------
   0 C :    0.063477
   1 C :   -0.211347
   2 C :    0.258640
   3 O :   -0.353794
   4 C :    0.099717
   5 C :    0.141199
   6 N :   -0.222396
   7 H :    0.019397
   8 H :    0.009122
   9 H :    0.028454
  10 H :    0.006061
  11 H :   -0.005368
  12 H :    0.008413
  13 H :   -0.019996
  14 H :    0.004479
  15 H :   -0.009880
  16 H :    0.089937
  17 H :    0.093886
Sum of atomic charges:   -0.0000000

LOEWDIN ATOMIC CHARGES
----------------------
   0 C :   -0.060608
   1 C :   -0.053523
   2 C :    0.087809
   3 O :   -0.179027
   4 C :    0.062831
   5 C :   -0.003509
   6 N :   -0.109370
   7 H :    0.027951
   8 H :    0.021986
   9 H :    0.031199
  10 H :    0.027263
  11 H :    0.005041
  12 H :    0.008780
  13 H :    0.002420
  14 H :    0.004867
  15 H :    0.018639
  16 H :    0.051915
  17 H :    0.055336

  Mayer bond orders larger than 0.1
B(  0-C ,  1-C ) :   1.0789 B(  0-C ,  7-H ) :   0.9550 B(  0-C ,  8-H ) :   0.9527
B(  0-C ,  9-H ) :   0.9572 B(  1-C ,  2-C ) :   1.0826 B(  1-C ,  4-C ) :   1.0478
B(  1-C , 10-H ) :   0.9003 B(  2-C ,  3-O ) :   1.0266 B(  2-C , 11-H ) :   0.9284
B(  2-C , 12-H ) :   0.9359 B(  3-O ,  4-C ) :   1.0538 B(  4-C ,  5-C ) :   1.0450
B(  4-C , 13-H ) :   0.9044 B(  5-C ,  6-N ) :   1.0787 B(  5-C , 14-H ) :   0.9214
B(  5-C , 15-H ) :   0.9103 B(  6-N , 16-H ) :   0.9688 B(  6-N , 17-H ) :   0.9651

FINAL SINGLE POINT ENERGY      -326.427685466391

DIPOLE MOMENT
-------------
                                X             Y             Z
Electronic contribution:      3.48858       0.51446       1.84704
Nuclear contribution   :     -3.74958      -0.95970      -2.12678
                        -----------------------------------------
Total Dipole Moment    :     -0.26100      -0.44524      -0.27974
                        -----------------------------------------
Magnitude (a.u.)       :      0.58704
Magnitude (Debye)      :      1.49213

                             ****ORCA TERMINATED NORMALLY****
TOTAL RUN TIME: 0 days 0 hours 0 minutes 7 seconds 945 msec
