                         Program Version 3.0.3 - RELEASE   -
|  1> ! RI PBE def2-SVP def2-SVP/J NBO PAL2
|  2> % maxcore 2000
|  3> % output
|  4>     # printlevel mini
|  5>     print[ P_Basis ] 0
|  6>     print[ P_SCFInfo ] 1
|  7>     print[ P_SCFIterInfo ] 1
|  8>     print[ P_OrbEn ] 0
|  9>     print[ P_Cartesian ] 0
| 10> end
| 11> *xyz 0 1
| 12>  C        1.6471700000     1.2578190000     0.7504950000
| 13>  C        2.8057660000     0.3298350000     0.5256950000
| 14>  C        2.5022680000    -1.1250070000     0.7531190000
| 15>  O        4.0603780000     0.7589100000     1.0711730000
| 16>  C        3.9330060000     0.6837330000    -0.3402510000
| 17>  C        4.0786340000     1.9605620000    -1.1163270000
| 18>  N        3.6661940000     1.7448370000    -2.4961460000
| 19>  H        0.8514560000     1.0554920000     0.0292890000
| 20>  H        1.9391310000     2.3029570000     0.6621080000
| 21>  H        1.2402410000     1.1067880000     1.7541280000
| 22>  H        1.7142710000    -1.4648420000     0.0760800000
| 23>  H        2.1583850000    -1.2858930000     1.7786530000
| 24>  H        3.3909010000    -1.7363570000     0.5901070000
| 25>  H        4.4777490000    -0.1552320000    -0.7829490000
| 26>  H        5.1192220000     2.3052000000    -1.0044860000
| 27>  H        3.4456660000     2.7344290000    -0.6795900000
| 28>  H        4.2940170000     1.0959720000    -2.9560510000
| 29>  H        3.7118540000     2.6106970000    -3.0176370000
| 30> *
| 31>
| 32>                          ****END OF INPUT****
 Total Charge           Charge          ....    0
 Multiplicity           Mult            ....    1
 Number of Electrons    NEL             ....   56
 Basis Dimension        Dim             ....  153

MULLIKEN ATOMIC CHARGES
-----------------------
   0 C :    0.102333
   1 C :   -0.179384
   2 C :    0.091695
   3 O :   -0.285889
   4 C :    0.042686
   5 C :    0.186483
   6 N :   -0.229748
   7 H :    0.029992
   8 H :    0.009987
   9 H :    0.017498
  10 H :    0.027124
  11 H :    0.018216
  12 H :    0.012305
  13 H :   -0.007902
  14 H :   -0.001843
  15 H :   -0.014700
  16 H :    0.088963
  17 H :    0.092183
Sum of atomic charges:   -0.0000000

LOEWDIN ATOMIC CHARGES
----------------------
   0 C :   -0.057734
   1 C :    0.013551
   2 C :   -0.057419
   3 O :   -0.157700
   4 C :    0.037614
   5 C :   -0.000910
   6 N :   -0.111457
   7 H :    0.037163
   8 H :    0.028435
   9 H :    0.032155
  10 H :    0.034072
  11 H :    0.031066
  12 H :    0.031111
  13 H :    0.007690
  14 H :    0.006331
  15 H :    0.021561
  16 H :    0.050221
  17 H :    0.054250

  Mayer bond orders larger than 0.1
B(  0-C ,  1-C ) :   1.0889 B(  0-C ,  7-H ) :   0.9496 B(  0-C ,  8-H ) :   0.9345
B(  0-C ,  9-H ) :   0.9441 B(  1-C ,  2-C ) :   1.0748 B(  1-C ,  3-O ) :   0.9596
B(  1-C ,  4-C ) :   1.0491 B(  2-C , 10-H ) :   0.9543 B(  2-C , 11-H ) :   0.9464
B(  2-C , 12-H ) :   0.9383 B(  3-O ,  4-C ) :   0.9908 B(  4-C ,  5-C ) :   1.0481
B(  4-C , 13-H ) :   0.9119 B(  5-C ,  6-N ) :   1.0653 B(  5-C , 14-H ) :   0.9016
B(  5-C , 15-H ) :   0.9064 B(  6-N , 16-H ) :   0.9692 B(  6-N , 17-H ) :   0.9620

FINAL SINGLE POINT ENERGY      -326.431584854356

DIPOLE MOMENT
-------------
                                X             Y             Z
Electronic contribution:      3.12634       0.44851       1.19539
Nuclear contribution   :     -3.17693      -0.37731      -1.84385
                        -----------------------------------------
Total Dipole Moment    :     -0.05059       0.07120      -0.64846
                        -----------------------------------------
Magnitude (a.u.)       :      0.65432
Magnitude (Debye)      :      1.66314

                             ****ORCA TERMINATED NORMALLY****
TOTAL RUN TIME: 0 days 0 hours 0 minutes 7 seconds 906 msec
