                         Program Version 3.0.3 - RELEASE   -
|  1> ! RI PBE def2-SVP def2-SVP/J NBO PAL2
|  2> % maxcore 2000
|  3> % output
|  4>     # printlevel mini
|  5>     print[ P_Basis ] 0
|  6>     print[ P_SCFInfo ] 1
|  7>     print[ P_SCFIterInfo ] 1
|  8>     print[ P_OrbEn ] 0
|  9>     print[ P_Cartesian ] 0
| 10> end
| 11> *xyz 0 1
| 12>  C        0.9225060000    -0.0917370000     0.1217850000
| 13>  C        2.4326450000    -0.0918020000    -0.0550740000
| 14>  C        3.1763420000     0.9331110000     0.8326560000
| 15>  O        3.5854620000    -0.0921560000     1.7397440000
| 16>  C        3.1762130000    -1.1170840000     0.8323400000
| 17>  C        2.8044880000    -0.0916320000    -1.4578960000
| 18>  N        3.1005440000    -0.0914400000    -2.5695430000
| 19>  H        0.6828100000    -0.0918860000     1.1868970000
| 20>  H        0.4769020000    -0.9763700000    -0.3369440000
| 21>  H        0.4770040000     0.7930890000    -0.3366740000
| 22>  H        2.5429030000     1.6857710000     1.3097310000
| 23>  H        4.0286360000     1.4146810000     0.3432470000
| 24>  H        2.5426900000    -1.8698340000     1.3091670000
| 25>  H        4.0284430000    -1.5986020000     0.3427640000
| 26> *
| 27>
| 28>                          ****END OF INPUT****
 Total Charge           Charge          ....    0
 Multiplicity           Mult            ....    1
 Number of Electrons    NEL             ....   52
 Basis Dimension        Dim             ....  133

MULLIKEN ATOMIC CHARGES
-----------------------
   0 C :    0.082871
   1 C :   -0.596227
   2 C :    0.338598
   3 O :   -0.354855
   4 C :    0.338591
   5 C :   -0.091057
   6 N :    0.076019
   7 H :    0.037080
   8 H :    0.045897
   9 H :    0.045894
  10 H :    0.020232
  11 H :    0.018365
  12 H :    0.020230
  13 H :    0.018361
Sum of atomic charges:    0.0000000

LOEWDIN ATOMIC CHARGES
----------------------
   0 C :   -0.031681
   1 C :   -0.106506
   2 C :    0.113802
   3 O :   -0.171777
   4 C :    0.113799
   5 C :   -0.039391
   6 N :   -0.060810
   7 H :    0.035590
   8 H :    0.038265
   9 H :    0.038264
  10 H :    0.016884
  11 H :    0.018340
  12 H :    0.016882
  13 H :    0.018339

  Mayer bond orders larger than 0.1
B(  0-C ,  1-C ) :   1.0214 B(  0-C ,  7-H ) :   0.9492 B(  0-C ,  8-H ) :   0.9567
B(  0-C ,  9-H ) :   0.9567 B(  1-C ,  2-C ) :   1.0502 B(  1-C ,  4-C ) :   1.0502
B(  1-C ,  5-C ) :   1.0112 B(  2-C ,  3-O ) :   1.0299 B(  2-C , 10-H ) :   0.9320
B(  2-C , 11-H ) :   0.9257 B(  3-O ,  4-C ) :   1.0299 B(  4-C , 12-H ) :   0.9320
B(  4-C , 13-H ) :   0.9257 B(  5-C ,  6-N ) :   3.0801

FINAL SINGLE POINT ENERGY      -324.018507254997

DIPOLE MOMENT
-------------
                                X             Y             Z
Electronic contribution:      3.41317       0.00023      -2.82462
Nuclear contribution   :     -4.10552      -0.00032       3.66290
                        -----------------------------------------
Total Dipole Moment    :     -0.69235      -0.00009       0.83828
                        -----------------------------------------
Magnitude (a.u.)       :      1.08723
Magnitude (Debye)      :      2.76351

                             ****ORCA TERMINATED NORMALLY****
TOTAL RUN TIME: 0 days 0 hours 0 minutes 6 seconds 529 msec
