                         Program Version 3.0.3 - RELEASE   -
|  1> ! RI PBE def2-SVP def2-SVP/J NBO PAL2
|  2> % maxcore 2000
|  3> % output
|  4>     # printlevel mini
|  5>     print[ P_Basis ] 0
|  6>     print[ P_SCFInfo ] 1
|  7>     print[ P_SCFIterInfo ] 1
|  8>     print[ P_OrbEn ] 0
|  9>     print[ P_Cartesian ] 0
| 10> end
| 11> *xyz 0 1
| 12>  C        0.9089460000     0.3271470000    -0.1065750000
| 13>  C        2.4062230000     0.2158750000    -0.1143110000
| 14>  C        3.1012730000    -0.7353170000    -1.0321330000
| 15>  O        2.3037010000    -1.5191520000    -1.8627550000
| 16>  C        3.2118480000     0.7420790000    -1.2713190000
| 17>  C        4.5065470000     1.4646060000    -1.0408190000
| 18>  N        4.2740060000     2.8154290000    -0.5457940000
| 19>  H        0.4630600000    -0.4032140000     0.5737260000
| 20>  H        0.4973630000     0.1433990000    -1.0997220000
| 21>  H        0.5998930000     1.3238920000     0.2182210000
| 22>  H        2.8787950000     0.3419220000     0.8554130000
| 23>  H        3.9846820000    -1.2426170000    -0.6458250000
| 24>  H        2.7511340000    -1.6142640000    -2.7073880000
| 25>  H        2.6158740000     1.1008050000    -2.1084670000
| 26>  H        5.1057650000     1.4311890000    -1.9658010000
| 27>  H        5.0804370000     0.9255920000    -0.2792060000
| 28>  H        3.7302120000     3.3452790000    -1.2166590000
| 29>  H        5.1511510000     3.3071490000    -0.4261660000
| 30> *
| 31>
| 32>                          ****END OF INPUT****
 Total Charge           Charge          ....    0
 Multiplicity           Mult            ....    1
 Number of Electrons    NEL             ....   56
 Basis Dimension        Dim             ....  153

MULLIKEN ATOMIC CHARGES
-----------------------
   0 C :    0.091665
   1 C :   -0.119754
   2 C :    0.077336
   3 O :   -0.230819
   4 C :   -0.152912
   5 C :    0.168207
   6 N :   -0.210651
   7 H :    0.020742
   8 H :    0.007437
   9 H :    0.017153
  10 H :    0.018261
  11 H :   -0.002158
  12 H :    0.158873
  13 H :    0.009821
  14 H :   -0.012161
  15 H :   -0.011069
  16 H :    0.085858
  17 H :    0.084172
Sum of atomic charges:   -0.0000000

LOEWDIN ATOMIC CHARGES
----------------------
   0 C :   -0.051896
   1 C :   -0.043687
   2 C :    0.033365
   3 O :   -0.095232
   4 C :   -0.069663
   5 C :    0.010562
   6 N :   -0.114905
   7 H :    0.029877
   8 H :    0.025147
   9 H :    0.028483
  10 H :    0.028372
  11 H :    0.004663
  12 H :    0.074023
  13 H :    0.022430
  14 H :   -0.000434
  15 H :    0.019054
  16 H :    0.049180
  17 H :    0.050660

  Mayer bond orders larger than 0.1
B(  0-C ,  1-C ) :   1.1035 B(  0-C ,  7-H ) :   0.9582 B(  0-C ,  8-H ) :   0.9452
B(  0-C ,  9-H ) :   0.9595 B(  1-C ,  2-C ) :   0.9531 B(  1-C ,  4-C ) :   0.9329
B(  1-C , 10-H ) :   0.9305 B(  2-C ,  3-O ) :   1.1363 B(  2-C ,  4-C ) :   0.9326
B(  2-C , 11-H ) :   0.9390 B(  3-O , 12-H ) :   0.9819 B(  4-C ,  5-C ) :   1.0673
B(  4-C , 13-H ) :   0.9327 B(  5-C ,  6-N ) :   1.0825 B(  5-C , 14-H ) :   0.9159
B(  5-C , 15-H ) :   0.9138 B(  6-N , 16-H ) :   0.9684 B(  6-N , 17-H ) :   0.9619

FINAL SINGLE POINT ENERGY      -326.427049858468

DIPOLE MOMENT
-------------
                                X             Y             Z
Electronic contribution:      0.39695      -2.88897      -1.45175
Nuclear contribution   :      0.25530       3.20437       0.82437
                        -----------------------------------------
Total Dipole Moment    :      0.65225       0.31540      -0.62737
                        -----------------------------------------
Magnitude (a.u.)       :      0.95839
Magnitude (Debye)      :      2.43603

                             ****ORCA TERMINATED NORMALLY****
TOTAL RUN TIME: 0 days 0 hours 0 minutes 7 seconds 867 msec
