                         Program Version 3.0.3 - RELEASE   -
|  1> ! RI PBE def2-SVP def2-SVP/J NBO PAL2
|  2> % maxcore 2000
|  3> % output
|  4>     # printlevel mini
|  5>     print[ P_Basis ] 0
|  6>     print[ P_SCFInfo ] 1
|  7>     print[ P_SCFIterInfo ] 1
|  8>     print[ P_OrbEn ] 0
|  9>     print[ P_Cartesian ] 0
| 10> end
| 11> *xyz 0 1
| 12>  C        0.5348560000    -0.0190150000    -0.5886650000
| 13>  C        1.8543180000     0.5426600000    -0.1411470000
| 14>  C        3.1382240000    -0.1763540000    -0.4155420000
| 15>  O        3.0416730000    -1.3732690000    -1.1213770000
| 16>  C        2.8585550000     1.1387510000    -1.1006650000
| 17>  C        2.5745900000     1.1529410000    -2.5793130000
| 18>  N        3.5918560000     2.2513850000    -0.5568150000
| 19>  H        0.0897430000    -0.6202900000     0.2079680000
| 20>  H        0.6418200000    -0.6665820000    -1.4584990000
| 21>  H       -0.1713000000     0.7781690000    -0.8366340000
| 22>  H        1.8329520000     1.0496400000     0.8180450000
| 23>  H        3.8944740000    -0.1555040000     0.3657270000
| 24>  H        3.8446240000    -1.4866760000    -1.6364560000
| 25>  H        2.1077610000     0.2284430000    -2.9197220000
| 26>  H        3.5050300000     1.2845680000    -3.1424460000
| 27>  H        1.9127120000     1.9847980000    -2.8396350000
| 28>  H        4.4536740000     2.4005010000    -1.0701120000
| 29>  H        3.0496270000     3.1054350000    -0.6271320000
| 30> *
| 31>
| 32>                          ****END OF INPUT****
 Total Charge           Charge          ....    0
 Multiplicity           Mult            ....    1
 Number of Electrons    NEL             ....   56
 Basis Dimension        Dim             ....  153

MULLIKEN ATOMIC CHARGES
-----------------------
   0 C :    0.092077
   1 C :   -0.127914
   2 C :    0.106399
   3 O :   -0.225040
   4 C :   -0.245562
   5 C :    0.119395
   6 N :   -0.128581
   7 H :    0.023445
   8 H :    0.017964
   9 H :    0.014707
  10 H :    0.010684
  11 H :    0.002582
  12 H :    0.160431
  13 H :    0.000160
  14 H :    0.000962
  15 H :    0.011757
  16 H :    0.081277
  17 H :    0.085258
Sum of atomic charges:   -0.0000000

LOEWDIN ATOMIC CHARGES
----------------------
   0 C :   -0.057692
   1 C :   -0.049440
   2 C :    0.028286
   3 O :   -0.091221
   4 C :   -0.054524
   5 C :   -0.067290
   6 N :   -0.077734
   7 H :    0.032561
   8 H :    0.027585
   9 H :    0.027282
  10 H :    0.028245
  11 H :    0.007511
  12 H :    0.075565
  13 H :    0.025453
  14 H :    0.020969
  15 H :    0.025483
  16 H :    0.048511
  17 H :    0.050450

  Mayer bond orders larger than 0.1
B(  0-C ,  1-C ) :   1.1213 B(  0-C ,  7-H ) :   0.9535 B(  0-C ,  8-H ) :   0.9377
B(  0-C ,  9-H ) :   0.9544 B(  1-C ,  2-C ) :   0.9565 B(  1-C ,  4-C ) :   0.9107
B(  1-C , 10-H ) :   0.9199 B(  2-C ,  3-O ) :   1.1560 B(  2-C ,  4-C ) :   0.8743
B(  2-C , 11-H ) :   0.9336 B(  3-O , 12-H ) :   0.9788 B(  4-C ,  5-C ) :   1.0846
B(  4-C ,  6-N ) :   1.1282 B(  5-C , 13-H ) :   0.9207 B(  5-C , 14-H ) :   0.9485
B(  5-C , 15-H ) :   0.9520 B(  6-N , 16-H ) :   0.9672 B(  6-N , 17-H ) :   0.9649

FINAL SINGLE POINT ENERGY      -326.435023595517

DIPOLE MOMENT
-------------
                                X             Y             Z
Electronic contribution:      2.88878      -1.96448       1.90142
Nuclear contribution   :     -2.49838       2.37369      -2.43616
                        -----------------------------------------
Total Dipole Moment    :      0.39040       0.40921      -0.53474
                        -----------------------------------------
Magnitude (a.u.)       :      0.77834
Magnitude (Debye)      :      1.97838

                             ****ORCA TERMINATED NORMALLY****
TOTAL RUN TIME: 0 days 0 hours 0 minutes 7 seconds 311 msec
