                         Program Version 3.0.3 - RELEASE   -
|  1> ! RI PBE def2-SVP def2-SVP/J NBO PAL2
|  2> % maxcore 2000
|  3> % output
|  4>     # printlevel mini
|  5>     print[ P_Basis ] 0
|  6>     print[ P_SCFInfo ] 1
|  7>     print[ P_SCFIterInfo ] 1
|  8>     print[ P_OrbEn ] 0
|  9>     print[ P_Cartesian ] 0
| 10> end
| 11> *xyz 0 1
| 12>  C        0.8959630000     0.1318940000     0.0226440000
| 13>  C        2.3906230000     0.0336280000    -0.0648700000
| 14>  C        3.0540330000    -0.7059600000    -1.1640710000
| 15>  O        2.2396960000    -1.3141120000    -2.1003610000
| 16>  C        3.1248510000     0.8134600000    -1.1454260000
| 17>  C        4.3608780000     1.4648730000    -0.8563830000
| 18>  N        5.3673680000     1.9708190000    -0.6151280000
| 19>  H        0.4906400000    -0.7197610000     0.5737620000
| 20>  H        0.4416830000     0.1310760000    -0.9683260000
| 21>  H        0.5991870000     1.0448180000     0.5431260000
| 22>  H        2.9127470000    -0.0069230000     0.8850690000
| 23>  H        3.9778220000    -1.2287640000    -0.9285570000
| 24>  H        2.7217770000    -1.3864300000    -2.9289430000
| 25>  H        2.4945500000     1.3127620000    -1.8730560000
| 26> *
| 27>
| 28>                          ****END OF INPUT****
 Total Charge           Charge          ....    0
 Multiplicity           Mult            ....    1
 Number of Electrons    NEL             ....   52
 Basis Dimension        Dim             ....  133

MULLIKEN ATOMIC CHARGES
-----------------------
   0 C :    0.076881
   1 C :   -0.123000
   2 C :    0.113859
   3 O :   -0.213501
   4 C :   -0.217665
   5 C :   -0.094701
   6 N :    0.054769
   7 H :    0.038293
   8 H :    0.024847
   9 H :    0.034031
  10 H :    0.042339
  11 H :    0.030311
  12 H :    0.170663
  13 H :    0.062873
Sum of atomic charges:   -0.0000000

LOEWDIN ATOMIC CHARGES
----------------------
   0 C :   -0.049360
   1 C :   -0.022315
   2 C :    0.058952
   3 O :   -0.076467
   4 C :   -0.089678
   5 C :   -0.047583
   6 N :   -0.077272
   7 H :    0.038498
   8 H :    0.031926
   9 H :    0.035814
  10 H :    0.039805
  11 H :    0.020178
  12 H :    0.084686
  13 H :    0.052816

  Mayer bond orders larger than 0.1
B(  0-C ,  1-C ) :   1.1068 B(  0-C ,  7-H ) :   0.9582 B(  0-C ,  8-H ) :   0.9457
B(  0-C ,  9-H ) :   0.9585 B(  1-C ,  2-C ) :   0.9380 B(  1-C ,  4-C ) :   0.9179
B(  1-C , 10-H ) :   0.9301 B(  2-C ,  3-O ) :   1.1700 B(  2-C ,  4-C ) :   0.9041
B(  2-C , 11-H ) :   0.9448 B(  3-O , 12-H ) :   0.9744 B(  4-C ,  5-C ) :   1.1316
B(  4-C , 13-H ) :   0.9109 B(  5-C ,  6-N ) :   3.0135

FINAL SINGLE POINT ENERGY      -324.030791991677

DIPOLE MOMENT
-------------
                                X             Y             Z
Electronic contribution:      5.86493       1.79030      -1.79212
Nuclear contribution   :     -6.86930      -2.61299       1.35765
                        -----------------------------------------
Total Dipole Moment    :     -1.00437      -0.82268      -0.43446
                        -----------------------------------------
Magnitude (a.u.)       :      1.36906
Magnitude (Debye)      :      3.47988

                             ****ORCA TERMINATED NORMALLY****
TOTAL RUN TIME: 0 days 0 hours 0 minutes 6 seconds 430 msec
