                         Program Version 3.0.3 - RELEASE   -
|  1> ! RI PBE def2-SVP def2-SVP/J NBO PAL2
|  2> % maxcore 2000
|  3> % output
|  4>     # printlevel mini
|  5>     print[ P_Basis ] 0
|  6>     print[ P_SCFInfo ] 1
|  7>     print[ P_SCFIterInfo ] 1
|  8>     print[ P_OrbEn ] 0
|  9>     print[ P_Cartesian ] 0
| 10> end
| 11> *xyz 0 1
| 12>  C        0.9370340000     0.0578350000    -0.0138190000
| 13>  C        2.4427030000     0.0118030000    -0.0697730000
| 14>  C        3.2446870000     1.0165620000     0.7670850000
| 15>  O        3.9739600000    -0.0381070000     1.4222700000
| 16>  C        3.1583470000    -1.0364570000     0.8110630000
| 17>  C        3.9239190000    -2.0689250000     0.1211800000
| 18>  N        4.5017240000    -2.8851740000    -0.4459980000
| 19>  H        0.5579650000     0.9426490000    -0.5308870000
| 20>  H        0.5808160000     0.0943540000     1.0191750000
| 21>  H        0.4972030000    -0.8191800000    -0.4947690000
| 22>  H        2.7958720000    -0.0343230000    -1.1006290000
| 23>  H        2.6447530000     1.5892630000     1.4826430000
| 24>  H        3.9111990000     1.6905820000     0.2244140000
| 25>  H        2.4975270000    -1.5240910000     1.5394560000
| 26> *
| 27>
| 28>                          ****END OF INPUT****
 Total Charge           Charge          ....    0
 Multiplicity           Mult            ....    1
 Number of Electrons    NEL             ....   52
 Basis Dimension        Dim             ....  133

MULLIKEN ATOMIC CHARGES
-----------------------
   0 C :    0.054272
   1 C :   -0.230911
   2 C :    0.269328
   3 O :   -0.323979
   4 C :    0.110021
   5 C :   -0.148655
   6 N :    0.061052
   7 H :    0.037261
   8 H :    0.023310
   9 H :    0.041129
  10 H :    0.036993
  11 H :    0.010986
  12 H :    0.024935
  13 H :    0.034257
Sum of atomic charges:    0.0000000

LOEWDIN ATOMIC CHARGES
----------------------
   0 C :   -0.057990
   1 C :   -0.038595
   2 C :    0.096268
   3 O :   -0.154932
   4 C :    0.047253
   5 C :   -0.051629
   6 N :   -0.046156
   7 H :    0.036608
   8 H :    0.028000
   9 H :    0.036823
  10 H :    0.037502
  11 H :    0.012815
  12 H :    0.017986
  13 H :    0.036046

  Mayer bond orders larger than 0.1
B(  0-C ,  1-C ) :   1.0757 B(  0-C ,  7-H ) :   0.9551 B(  0-C ,  8-H ) :   0.9548
B(  0-C ,  9-H ) :   0.9579 B(  1-C ,  2-C ) :   1.0691 B(  1-C ,  4-C ) :   1.0618
B(  1-C , 10-H ) :   0.9142 B(  2-C ,  3-O ) :   1.0090 B(  2-C , 11-H ) :   0.9334
B(  2-C , 12-H ) :   0.9380 B(  3-O ,  4-C ) :   1.1507 B(  4-C ,  5-C ) :   1.0396
B(  4-C , 13-H ) :   0.8743 B(  5-C ,  6-N ) :   3.0629

FINAL SINGLE POINT ENERGY      -324.018849167590

DIPOLE MOMENT
-------------
                                X             Y             Z
Electronic contribution:      6.63335      -4.97732       0.62444
Nuclear contribution   :     -7.94369       6.09796      -0.55667
                        -----------------------------------------
Total Dipole Moment    :     -1.31034       1.12063       0.06777
                        -----------------------------------------
Magnitude (a.u.)       :      1.72551
Magnitude (Debye)      :      4.38590

                             ****ORCA TERMINATED NORMALLY****
TOTAL RUN TIME: 0 days 0 hours 0 minutes 6 seconds 641 msec
