                         Program Version 3.0.3 - RELEASE   -
|  1> ! RI PBE def2-SVP def2-SVP/J NBO PAL2
|  2> % maxcore 2000
|  3> % output
|  4>     # printlevel mini
|  5>     print[ P_Basis ] 0
|  6>     print[ P_SCFInfo ] 1
|  7>     print[ P_SCFIterInfo ] 1
|  8>     print[ P_OrbEn ] 0
|  9>     print[ P_Cartesian ] 0
| 10> end
| 11> *xyz 0 1
| 12>  C        0.9285410000     0.1310610000     0.0038470000
| 13>  C        2.4149290000     0.1072670000    -0.0193630000
| 14>  C        3.2742960000     1.1541090000    -0.0709460000
| 15>  O        4.5549720000     0.7420730000    -0.0613620000
| 16>  C        4.5299230000    -0.6177960000    -0.0123810000
| 17>  C        3.2467190000    -1.0620990000     0.0197160000
| 18>  N        2.7685000000    -2.3635870000     0.1589730000
| 19>  H        0.5527340000     1.1551040000     0.0174020000
| 20>  H        0.5384160000    -0.3831320000     0.8871230000
| 21>  H        0.5000780000    -0.3627400000    -0.8749960000
| 22>  H        3.1148800000     2.2197840000    -0.1134970000
| 23>  H        5.4852340000    -1.1147380000     0.0084770000
| 24>  H        3.4599390000    -3.0712670000    -0.0364750000
| 25>  H        1.9334280000    -2.5387300000    -0.3803250000
| 26> *
| 27>
| 28>                          ****END OF INPUT****
 Total Charge           Charge          ....    0
 Multiplicity           Mult            ....    1
 Number of Electrons    NEL             ....   52
 Basis Dimension        Dim             ....  133

MULLIKEN ATOMIC CHARGES
-----------------------
   0 C :    0.064149
   1 C :   -0.084198
   2 C :    0.027427
   3 O :   -0.167994
   4 C :   -0.002022
   5 C :   -0.011460
   6 N :   -0.069010
   7 H :    0.012972
   8 H :    0.035286
   9 H :    0.025460
  10 H :   -0.009277
  11 H :   -0.027988
  12 H :    0.101523
  13 H :    0.105132
Sum of atomic charges:   -0.0000000

LOEWDIN ATOMIC CHARGES
----------------------
   0 C :   -0.057220
   1 C :   -0.101632
   2 C :   -0.000147
   3 O :    0.026185
   4 C :   -0.048197
   5 C :   -0.049279
   6 N :   -0.037158
   7 H :    0.036605
   8 H :    0.036819
   9 H :    0.031160
  10 H :    0.016462
  11 H :    0.011952
  12 H :    0.068245
  13 H :    0.066206

  Mayer bond orders larger than 0.1
B(  0-C ,  1-C ) :   1.1175 B(  0-C ,  7-H ) :   0.9408 B(  0-C ,  8-H ) :   0.9434
B(  0-C ,  9-H ) :   0.9446 B(  1-C ,  2-C ) :   1.4994 B(  1-C ,  5-C ) :   1.2770
B(  2-C ,  3-O ) :   1.1710 B(  2-C , 10-H ) :   1.0057 B(  3-O ,  4-C ) :   1.1124
B(  4-C ,  5-C ) :   1.4513 B(  4-C , 11-H ) :   1.0210 B(  5-C ,  6-N ) :   1.2002
B(  6-N , 12-H ) :   0.9534 B(  6-N , 13-H ) :   0.9460

FINAL SINGLE POINT ENERGY      -324.064221392159

DIPOLE MOMENT
-------------
                                X             Y             Z
Electronic contribution:      5.24606       1.33792       0.07389
Nuclear contribution   :     -5.66267      -1.88997      -0.44821
                        -----------------------------------------
Total Dipole Moment    :     -0.41661      -0.55205      -0.37432
                        -----------------------------------------
Magnitude (a.u.)       :      0.78641
Magnitude (Debye)      :      1.99890

                             ****ORCA TERMINATED NORMALLY****
TOTAL RUN TIME: 0 days 0 hours 0 minutes 6 seconds 710 msec
