                         Program Version 3.0.3 - RELEASE   -
|  1> ! RI PBE def2-SVP def2-SVP/J NBO PAL2
|  2> % maxcore 2000
|  3> % output
|  4>     # printlevel mini
|  5>     print[ P_Basis ] 0
|  6>     print[ P_SCFInfo ] 1
|  7>     print[ P_SCFIterInfo ] 1
|  8>     print[ P_OrbEn ] 0
|  9>     print[ P_Cartesian ] 0
| 10> end
| 11> *xyz 0 1
| 12>  C        1.0588730000     0.1085400000    -0.2899280000
| 13>  C        2.5449340000     0.1153060000    -0.0065050000
| 14>  C        2.9995270000     1.1498530000     1.0069180000
| 15>  O        4.2432260000     0.6942570000     1.5176650000
| 16>  C        4.4086320000    -0.6797680000     1.2167720000
| 17>  C        3.0894490000    -1.1691420000     0.6327720000
| 18>  N        3.2672830000    -2.3387520000    -0.1966260000
| 19>  H        0.7259920000     1.0523150000    -0.7290860000
| 20>  H        0.4878000000    -0.0515380000     0.6297390000
| 21>  H        0.7940740000    -0.6867870000    -0.9924520000
| 22>  H        3.0982750000     0.2745130000    -0.9423600000
| 23>  H        2.2670110000     1.2336680000     1.8242480000
| 24>  H        3.1410600000     2.1462820000     0.5790500000
| 25>  H        4.6961550000    -1.2222400000     2.1212230000
| 26>  H        5.2134030000    -0.8049820000     0.4777770000
| 27>  H        2.4176230000    -1.4486410000     1.4543980000
| 28>  H        3.8137510000    -2.1137550000    -1.0204450000
| 29>  H        2.3778430000    -2.7045090000    -0.5111520000
| 30> *
| 31>
| 32>                          ****END OF INPUT****
 Total Charge           Charge          ....    0
 Multiplicity           Mult            ....    1
 Number of Electrons    NEL             ....   56
 Basis Dimension        Dim             ....  153

MULLIKEN ATOMIC CHARGES
-----------------------
   0 C :    0.050610
   1 C :   -0.174272
   2 C :    0.260777
   3 O :   -0.366254
   4 C :    0.294594
   5 C :   -0.140959
   6 N :   -0.142857
   7 H :    0.026019
   8 H :    0.014563
   9 H :    0.006746
  10 H :   -0.004516
  11 H :   -0.006355
  12 H :    0.003364
  13 H :    0.006959
  14 H :   -0.014179
  15 H :    0.009187
  16 H :    0.086511
  17 H :    0.090063
Sum of atomic charges:   -0.0000000

LOEWDIN ATOMIC CHARGES
----------------------
   0 C :   -0.059770
   1 C :   -0.078013
   2 C :    0.070502
   3 O :   -0.164300
   4 C :    0.066789
   5 C :   -0.017087
   6 N :   -0.084332
   7 H :    0.029911
   8 H :    0.026003
   9 H :    0.021051
  10 H :    0.021406
  11 H :    0.004397
  12 H :    0.015462
  13 H :    0.016745
  14 H :    0.004920
  15 H :    0.023527
  16 H :    0.050164
  17 H :    0.052626

  Mayer bond orders larger than 0.1
B(  0-C ,  1-C ) :   1.0878 B(  0-C ,  7-H ) :   0.9613 B(  0-C ,  8-H ) :   0.9510
B(  0-C ,  9-H ) :   0.9496 B(  1-C ,  2-C ) :   1.0466 B(  1-C ,  5-C ) :   0.9965
B(  1-C , 10-H ) :   0.8898 B(  2-C ,  3-O ) :   1.0148 B(  2-C , 11-H ) :   0.9321
B(  2-C , 12-H ) :   0.9323 B(  3-O ,  4-C ) :   1.0204 B(  4-C ,  5-C ) :   1.0464
B(  4-C , 13-H ) :   0.9315 B(  4-C , 14-H ) :   0.9253 B(  5-C ,  6-N ) :   1.1312
B(  5-C , 15-H ) :   0.9041 B(  6-N , 16-H ) :   0.9603 B(  6-N , 17-H ) :   0.9650

FINAL SINGLE POINT ENERGY      -326.453121103249

DIPOLE MOMENT
-------------
                                X             Y             Z
Electronic contribution:      3.95240       0.68555       2.25097
Nuclear contribution   :     -4.60585      -0.81824      -2.90833
                        -----------------------------------------
Total Dipole Moment    :     -0.65346      -0.13270      -0.65736
                        -----------------------------------------
Magnitude (a.u.)       :      0.93634
Magnitude (Debye)      :      2.37999

                             ****ORCA TERMINATED NORMALLY****
TOTAL RUN TIME: 0 days 0 hours 0 minutes 8 seconds 116 msec
