                         Program Version 3.0.3 - RELEASE   -
|  1> ! RI PBE def2-SVP def2-SVP/J NBO PAL2
|  2> % maxcore 2000
|  3> % output
|  4>     # printlevel mini
|  5>     print[ P_Basis ] 0
|  6>     print[ P_SCFInfo ] 1
|  7>     print[ P_SCFIterInfo ] 1
|  8>     print[ P_OrbEn ] 0
|  9>     print[ P_Cartesian ] 0
| 10> end
| 11> *xyz 0 1
| 12>  C        1.0777390000    -0.0534150000     0.2107180000
| 13>  C        2.5335290000    -0.0072280000    -0.0743710000
| 14>  C        3.3386690000    -0.9989220000    -0.4449380000
| 15>  O        4.6383840000    -0.6616260000    -0.6625860000
| 16>  C        4.7669890000     0.6888970000    -0.2012130000
| 17>  C        3.3433810000     1.2676510000    -0.1046470000
| 18>  N        2.8857140000     2.1237100000    -1.1895400000
| 19>  H        0.6731380000    -1.0555410000     0.0560750000
| 20>  H        0.5345050000     0.6420820000    -0.4349970000
| 21>  H        0.8638610000     0.2386790000     1.2446530000
| 22>  H        3.1078350000    -2.0431940000    -0.6118300000
| 23>  H        5.4053470000     1.2340410000    -0.8991430000
| 24>  H        5.2475220000     0.6604610000     0.7828710000
| 25>  H        3.2352740000     1.8431420000     0.8208660000
| 26>  H        2.9959740000     1.6524790000    -2.0800040000
| 27>  H        3.4153390000     2.9862030000    -1.2253030000
| 28> *
| 29>
| 30>                          ****END OF INPUT****
 Total Charge           Charge          ....    0
 Multiplicity           Mult            ....    1
 Number of Electrons    NEL             ....   54
 Basis Dimension        Dim             ....  143

MULLIKEN ATOMIC CHARGES
-----------------------
   0 C :    0.106914
   1 C :   -0.187773
   2 C :    0.099563
   3 O :   -0.290135
   4 C :    0.277080
   5 C :   -0.082553
   6 N :   -0.154969
   7 H :    0.007088
   8 H :    0.028885
   9 H :    0.015679
  10 H :   -0.007641
  11 H :   -0.004481
  12 H :    0.013240
  13 H :    0.003224
  14 H :    0.088903
  15 H :    0.086976
Sum of atomic charges:    0.0000000

LOEWDIN ATOMIC CHARGES
----------------------
   0 C :   -0.053805
   1 C :   -0.115005
   2 C :    0.025206
   3 O :   -0.097863
   4 C :    0.065974
   5 C :   -0.008007
   6 N :   -0.091858
   7 H :    0.030653
   8 H :    0.035146
   9 H :    0.031888
  10 H :    0.018919
  11 H :    0.014881
  12 H :    0.018617
  13 H :    0.024717
  14 H :    0.051783
  15 H :    0.048755

  Mayer bond orders larger than 0.1
B(  0-C ,  1-C ) :   1.1230 B(  0-C ,  7-H ) :   0.9501 B(  0-C ,  8-H ) :   0.9380
B(  0-C ,  9-H ) :   0.9382 B(  1-C ,  2-C ) :   1.7135 B(  1-C ,  3-O ) :   0.1129
B(  1-C ,  5-C ) :   1.0366 B(  2-C ,  3-O ) :   1.1104 B(  2-C , 10-H ) :   0.9899
B(  3-O ,  4-C ) :   0.9677 B(  4-C ,  5-C ) :   1.0161 B(  4-C , 11-H ) :   0.9305
B(  4-C , 12-H ) :   0.9245 B(  5-C ,  6-N ) :   1.1033 B(  5-C , 13-H ) :   0.8961
B(  6-N , 14-H ) :   0.9638 B(  6-N , 15-H ) :   0.9636

FINAL SINGLE POINT ENERGY      -325.245235998550

DIPOLE MOMENT
-------------
                                X             Y             Z
Electronic contribution:      3.59733      -2.34509      -0.93817
Nuclear contribution   :     -3.43581       2.69370       0.94167
                        -----------------------------------------
Total Dipole Moment    :      0.16152       0.34861       0.00350
                        -----------------------------------------
Magnitude (a.u.)       :      0.38423
Magnitude (Debye)      :      0.97662

                             ****ORCA TERMINATED NORMALLY****
TOTAL RUN TIME: 0 days 0 hours 0 minutes 7 seconds 726 msec
