                         Program Version 3.0.3 - RELEASE   -
|  1> ! RI PBE def2-SVP def2-SVP/J NBO PAL2
|  2> % maxcore 2000
|  3> % output
|  4>     # printlevel mini
|  5>     print[ P_Basis ] 0
|  6>     print[ P_SCFInfo ] 1
|  7>     print[ P_SCFIterInfo ] 1
|  8>     print[ P_OrbEn ] 0
|  9>     print[ P_Cartesian ] 0
| 10> end
| 11> *xyz 0 1
| 12>  C        1.0539390000     0.0593540000     0.1836250000
| 13>  C        2.5407200000    -0.0585620000    -0.0419110000
| 14>  C        2.8996870000    -0.0303300000    -1.5112500000
| 15>  O        3.2615850000     0.9735290000     0.6768920000
| 16>  C        4.1563230000     0.0168660000     1.2542670000
| 17>  C        3.2840700000    -1.1470610000     0.7949880000
| 18>  N        3.9517360000    -2.2796010000     0.2252840000
| 19>  H        0.6701140000     0.9882920000    -0.2462210000
| 20>  H        0.8276660000     0.0588080000     1.2517530000
| 21>  H        0.5263320000    -0.7757160000    -0.2863480000
| 22>  H        2.5262650000     0.8906770000    -1.9647540000
| 23>  H        2.4576750000    -0.8772230000    -2.0432110000
| 24>  H        3.9820270000    -0.0556940000    -1.6592870000
| 25>  H        4.2873760000     0.1629860000     2.3295970000
| 26>  H        5.1420920000     0.0305640000     0.7698150000
| 27>  H        2.6347220000    -1.5009650000     1.5995320000
| 28>  H        4.4914040000    -2.0281830000    -0.5930990000
| 29>  H        3.3037580000    -3.0101620000    -0.0372920000
| 30> *
| 31>
| 32>                          ****END OF INPUT****
 Total Charge           Charge          ....    0
 Multiplicity           Mult            ....    1
 Number of Electrons    NEL             ....   56
 Basis Dimension        Dim             ....  153

MULLIKEN ATOMIC CHARGES
-----------------------
   0 C :    0.094922
   1 C :   -0.136842
   2 C :    0.088096
   3 O :   -0.341321
   4 C :    0.260534
   5 C :   -0.101730
   6 N :   -0.118845
   7 H :    0.019180
   8 H :    0.010807
   9 H :    0.011516
  10 H :    0.022623
  11 H :    0.005963
  12 H :    0.004529
  13 H :    0.013708
  14 H :   -0.011576
  15 H :   -0.000291
  16 H :    0.084238
  17 H :    0.094489
Sum of atomic charges:    0.0000000

LOEWDIN ATOMIC CHARGES
----------------------
   0 C :   -0.062096
   1 C :    0.009971
   2 C :   -0.066046
   3 O :   -0.177511
   4 C :    0.079833
   5 C :   -0.014234
   6 N :   -0.079488
   7 H :    0.030583
   8 H :    0.025444
   9 H :    0.028782
  10 H :    0.033714
  11 H :    0.024515
  12 H :    0.022642
  13 H :    0.012146
  14 H :    0.002948
  15 H :    0.023330
  16 H :    0.049182
  17 H :    0.056285

  Mayer bond orders larger than 0.1
B(  0-C ,  1-C ) :   1.0687 B(  0-C ,  7-H ) :   0.9489 B(  0-C ,  8-H ) :   0.9434
B(  0-C ,  9-H ) :   0.9499 B(  1-C ,  2-C ) :   1.0540 B(  1-C ,  3-O ) :   1.0255
B(  1-C ,  5-C ) :   0.9536 B(  2-C , 10-H ) :   0.9455 B(  2-C , 11-H ) :   0.9428
B(  2-C , 12-H ) :   0.9399 B(  3-O ,  4-C ) :   1.0324 B(  4-C ,  5-C ) :   1.0738
B(  4-C , 13-H ) :   0.9353 B(  4-C , 14-H ) :   0.9182 B(  5-C ,  6-N ) :   1.1914
B(  5-C , 15-H ) :   0.9045 B(  6-N , 16-H ) :   0.9544 B(  6-N , 17-H ) :   0.9663

FINAL SINGLE POINT ENERGY      -326.437149104085

DIPOLE MOMENT
-------------
                                X             Y             Z
Electronic contribution:      2.01385       1.37128       2.54085
Nuclear contribution   :     -2.26954      -2.01042      -2.98753
                        -----------------------------------------
Total Dipole Moment    :     -0.25569      -0.63914      -0.44668
                        -----------------------------------------
Magnitude (a.u.)       :      0.82061
Magnitude (Debye)      :      2.08582

                             ****ORCA TERMINATED NORMALLY****
TOTAL RUN TIME: 0 days 0 hours 0 minutes 7 seconds 834 msec
