                         Program Version 3.0.3 - RELEASE   -
|  1> ! RI PBE def2-SVP def2-SVP/J NBO PAL2
|  2> % maxcore 2000
|  3> % output
|  4>     # printlevel mini
|  5>     print[ P_Basis ] 0
|  6>     print[ P_SCFInfo ] 1
|  7>     print[ P_SCFIterInfo ] 1
|  8>     print[ P_OrbEn ] 0
|  9>     print[ P_Cartesian ] 0
| 10> end
| 11> *xyz 0 1
| 12>  C        0.8517890000    -0.0931450000    -0.1707850000
| 13>  C        2.3445940000    -0.0517100000     0.0194570000
| 14>  C        2.7512570000     0.0230290000     1.4778730000
| 15>  O        4.0903850000    -0.3326430000     1.7604690000
| 16>  C        3.2069330000    -0.8112160000    -0.9571910000
| 17>  C        3.1718110000     0.6806440000    -1.0101900000
| 18>  N        4.3552090000     1.4303860000    -0.7075020000
| 19>  H        0.4187530000    -1.0096410000     0.2438450000
| 20>  H        0.5898990000    -0.0521590000    -1.2304630000
| 21>  H        0.3656150000     0.7562340000     0.3208670000
| 22>  H        2.0605080000    -0.5936010000     2.0697560000
| 23>  H        2.6415050000     1.0525440000     1.8347110000
| 24>  H        4.1801810000    -1.2798600000     1.6297460000
| 25>  H        2.7186220000    -1.3799350000    -1.7399980000
| 26>  H        4.1313090000    -1.2508220000    -0.5988590000
| 27>  H        2.6113880000     1.1098100000    -1.8362770000
| 28>  H        4.8598050000     0.9921760000     0.0548330000
| 29>  H        4.1107260000     2.3644200000    -0.3998040000
| 30> *
| 31>
| 32>                          ****END OF INPUT****
 Total Charge           Charge          ....    0
 Multiplicity           Mult            ....    1
 Number of Electrons    NEL             ....   56
 Basis Dimension        Dim             ....  153

MULLIKEN ATOMIC CHARGES
-----------------------
   0 C :    0.088321
   1 C :   -0.316957
   2 C :    0.258869
   3 O :   -0.280580
   4 C :    0.006020
   5 C :   -0.049417
   6 N :   -0.116950
   7 H :    0.013163
   8 H :    0.006864
   9 H :    0.017751
  10 H :    0.001281
  11 H :   -0.000207
  12 H :    0.158038
  13 H :    0.025578
  14 H :    0.006455
  15 H :    0.010759
  16 H :    0.079245
  17 H :    0.091768
Sum of atomic charges:    0.0000000

LOEWDIN ATOMIC CHARGES
----------------------
   0 C :   -0.045738
   1 C :   -0.109291
   2 C :    0.064833
   3 O :   -0.108586
   4 C :   -0.050324
   5 C :   -0.000996
   6 N :   -0.084292
   7 H :    0.023737
   8 H :    0.027270
   9 H :    0.027127
  10 H :    0.009722
  11 H :    0.018224
  12 H :    0.067999
  13 H :    0.025428
  14 H :    0.016978
  15 H :    0.018955
  16 H :    0.043941
  17 H :    0.055014

  Mayer bond orders larger than 0.1
B(  0-C ,  1-C ) :   1.0760 B(  0-C ,  7-H ) :   0.9496 B(  0-C ,  8-H ) :   0.9440
B(  0-C ,  9-H ) :   0.9588 B(  1-C ,  2-C ) :   1.0077 B(  1-C ,  4-C ) :   0.9799
B(  1-C ,  5-C ) :   0.8515 B(  2-C ,  3-O ) :   1.0503 B(  2-C , 10-H ) :   0.9439
B(  2-C , 11-H ) :   0.9262 B(  3-O , 12-H ) :   0.9765 B(  4-C ,  5-C ) :   0.9845
B(  4-C , 13-H ) :   0.9375 B(  4-C , 14-H ) :   0.9235 B(  5-C ,  6-N ) :   1.2022
B(  5-C , 15-H ) :   0.9446 B(  6-N , 16-H ) :   0.9445 B(  6-N , 17-H ) :   0.9649

FINAL SINGLE POINT ENERGY      -326.430273091397

DIPOLE MOMENT
-------------
                                X             Y             Z
Electronic contribution:      3.46847       0.26836       1.08212
Nuclear contribution   :     -4.01832      -0.59901      -0.76633
                        -----------------------------------------
Total Dipole Moment    :     -0.54984      -0.33066       0.31579
                        -----------------------------------------
Magnitude (a.u.)       :      0.71511
Magnitude (Debye)      :      1.81767

                             ****ORCA TERMINATED NORMALLY****
TOTAL RUN TIME: 0 days 0 hours 0 minutes 8 seconds 162 msec
