                         Program Version 3.0.3 - RELEASE   -
|  1> ! RI PBE def2-SVP def2-SVP/J NBO PAL2
|  2> % maxcore 2000
|  3> % output
|  4>     # printlevel mini
|  5>     print[ P_Basis ] 0
|  6>     print[ P_SCFInfo ] 1
|  7>     print[ P_SCFIterInfo ] 1
|  8>     print[ P_OrbEn ] 0
|  9>     print[ P_Cartesian ] 0
| 10> end
| 11> *xyz 0 1
| 12>  C        1.0796460000     0.0326490000     0.0458290000
| 13>  C        2.5530660000     0.1365410000     0.0496590000
| 14>  N        3.2817980000     1.2016790000     0.0551700000
| 15>  C        4.5922660000     0.7497120000     0.0568500000
| 16>  C        5.7446110000     1.6904870000     0.0632040000
| 17>  C        4.5685080000    -0.6005040000     0.0516820000
| 18>  O        3.2664920000    -1.0056980000     0.0471340000
| 19>  H        0.6559220000     1.0346120000     0.0481170000
| 20>  H        0.7233290000    -0.5090720000     0.9253790000
| 21>  H        0.7275220000    -0.5032920000    -0.8389320000
| 22>  H        5.3715520000     2.7142400000     0.0656890000
| 23>  H        6.3775600000     1.5608620000    -0.8176240000
| 24>  H        6.3727650000     1.5548460000     0.9465590000
| 25>  H        5.3159840000    -1.3752640000     0.0505730000
| 26> *
| 27>
| 28>                          ****END OF INPUT****
 Total Charge           Charge          ....    0
 Multiplicity           Mult            ....    1
 Number of Electrons    NEL             ....   52
 Basis Dimension        Dim             ....  133

MULLIKEN ATOMIC CHARGES
-----------------------
   0 C :    0.093025
   1 C :   -0.065620
   2 N :   -0.107900
   3 C :   -0.131663
   4 C :    0.083371
   5 C :    0.062411
   6 O :   -0.163928
   7 H :    0.041078
   8 H :    0.043536
   9 H :    0.043409
  10 H :    0.028889
  11 H :    0.035495
  12 H :    0.035370
  13 H :    0.002526
Sum of atomic charges:   -0.0000000

LOEWDIN ATOMIC CHARGES
----------------------
   0 C :   -0.066918
   1 C :    0.007009
   2 N :   -0.111169
   3 C :   -0.057159
   4 C :   -0.065259
   5 C :   -0.013608
   6 O :    0.023663
   7 H :    0.049876
   8 H :    0.046003
   9 H :    0.045982
  10 H :    0.041384
  11 H :    0.039697
  12 H :    0.039698
  13 H :    0.020800

  Mayer bond orders larger than 0.1
B(  0-C ,  1-C ) :   1.1133 B(  0-C ,  7-H ) :   0.9422 B(  0-C ,  8-H ) :   0.9356
B(  0-C ,  9-H ) :   0.9356 B(  1-C ,  2-N ) :   1.7204 B(  1-C ,  6-O ) :   1.1811
B(  2-N ,  3-C ) :   1.3240 B(  3-C ,  4-C ) :   1.0926 B(  3-C ,  5-C ) :   1.5730
B(  4-C , 10-H ) :   0.9401 B(  4-C , 11-H ) :   0.9480 B(  4-C , 12-H ) :   0.9479
B(  5-C ,  6-O ) :   1.1179 B(  5-C , 13-H ) :   0.9925

FINAL SINGLE POINT ENERGY      -324.084381471570

DIPOLE MOMENT
-------------
                                X             Y             Z
Electronic contribution:     -0.42251      -2.59956      -0.01112
Nuclear contribution   :      0.51894       2.19881       0.01004
                        -----------------------------------------
Total Dipole Moment    :      0.09643      -0.40076      -0.00108
                        -----------------------------------------
Magnitude (a.u.)       :      0.41220
Magnitude (Debye)      :      1.04772

                             ****ORCA TERMINATED NORMALLY****
TOTAL RUN TIME: 0 days 0 hours 0 minutes 6 seconds 254 msec
