                         Program Version 3.0.3 - RELEASE   -
|  1> ! RI PBE def2-SVP def2-SVP/J NBO PAL2
|  2> % maxcore 2000
|  3> % output
|  4>     # printlevel mini
|  5>     print[ P_Basis ] 0
|  6>     print[ P_SCFInfo ] 1
|  7>     print[ P_SCFIterInfo ] 1
|  8>     print[ P_OrbEn ] 0
|  9>     print[ P_Cartesian ] 0
| 10> end
| 11> *xyz 0 1
| 12>  C        1.0411160000    -0.0069500000     0.1493880000
| 13>  C        2.5572790000    -0.0027350000    -0.0259450000
| 14>  C        3.0864420000    -1.3689480000    -0.4390360000
| 15>  O        2.7155970000    -1.6998820000    -1.7589470000
| 16>  C        3.2309150000    -0.7551920000    -2.6722070000
| 17>  C        2.7125690000     0.6332480000    -2.3660670000
| 18>  N        3.0597880000     0.9669520000    -0.9956400000
| 19>  H        0.7482180000    -0.6768570000     0.9622960000
| 20>  H        0.5336140000    -0.3445350000    -0.7560080000
| 21>  H        0.6767210000     0.9941260000     0.3963710000
| 22>  H        3.0192200000     0.2403750000     0.9383250000
| 23>  H        2.6805650000    -2.1518590000     0.2050120000
| 24>  H        4.1827200000    -1.3700020000    -0.3502920000
| 25>  H        2.9212740000    -1.0772440000    -3.6683640000
| 26>  H        4.3305760000    -0.7544120000    -2.6249380000
| 27>  H        1.6294210000     0.6584610000    -2.5670670000
| 28>  H        3.1884430000     1.3545850000    -3.0369900000
| 29>  H        2.7355410000     1.8963810000    -0.7620120000
| 30> *
| 31>
| 32>                          ****END OF INPUT****
 Total Charge           Charge          ....    0
 Multiplicity           Mult            ....    1
 Number of Electrons    NEL             ....   56
 Basis Dimension        Dim             ....  153

MULLIKEN ATOMIC CHARGES
-----------------------
   0 C :    0.033714
   1 C :   -0.087817
   2 C :    0.227918
   3 O :   -0.345452
   4 C :    0.177104
   5 C :    0.079967
   6 N :   -0.239309
   7 H :    0.011105
   8 H :    0.027284
   9 H :    0.007809
  10 H :   -0.001218
  11 H :    0.009277
  12 H :   -0.006619
  13 H :    0.010111
  14 H :   -0.006571
  15 H :   -0.002969
  16 H :    0.008716
  17 H :    0.096949
Sum of atomic charges:    0.0000000

LOEWDIN ATOMIC CHARGES
----------------------
   0 C :   -0.075300
   1 C :   -0.019563
   2 C :    0.059988
   3 O :   -0.147175
   4 C :    0.054149
   5 C :   -0.007104
   6 N :   -0.097145
   7 H :    0.027075
   8 H :    0.025092
   9 H :    0.021124
  10 H :    0.023649
  11 H :    0.020996
  12 H :    0.007345
  13 H :    0.021366
  14 H :    0.006840
  15 H :    0.001284
  16 H :    0.025405
  17 H :    0.051976

  Mayer bond orders larger than 0.1
B(  0-C ,  1-C ) :   1.0510 B(  0-C ,  7-H ) :   0.9515 B(  0-C ,  8-H ) :   0.9521
B(  0-C ,  9-H ) :   0.9590 B(  1-C ,  2-C ) :   1.0626 B(  1-C ,  6-N ) :   1.0611
B(  1-C , 10-H ) :   0.9065 B(  2-C ,  3-O ) :   1.0265 B(  2-C , 11-H ) :   0.9429
B(  2-C , 12-H ) :   0.9051 B(  3-O ,  4-C ) :   1.0199 B(  4-C ,  5-C ) :   1.1111
B(  4-C , 13-H ) :   0.9426 B(  4-C , 14-H ) :   0.9059 B(  5-C ,  6-N ) :   1.0487
B(  5-C , 15-H ) :   0.9057 B(  5-C , 16-H ) :   0.9248 B(  6-N , 17-H ) :   0.9450

FINAL SINGLE POINT ENERGY      -326.450637445011

DIPOLE MOMENT
-------------
                                X             Y             Z
Electronic contribution:      1.88666      -1.66626      -1.29945
Nuclear contribution   :     -2.01841       2.19030       1.43815
                        -----------------------------------------
Total Dipole Moment    :     -0.13175       0.52403       0.13870
                        -----------------------------------------
Magnitude (a.u.)       :      0.55786
Magnitude (Debye)      :      1.41796

                             ****ORCA TERMINATED NORMALLY****
TOTAL RUN TIME: 0 days 0 hours 0 minutes 7 seconds 882 msec
