                         Program Version 3.0.3 - RELEASE   -
|  1> ! RI PBE def2-SVP def2-SVP/J NBO PAL2
|  2> % maxcore 2000
|  3> % output
|  4>     # printlevel mini
|  5>     print[ P_Basis ] 0
|  6>     print[ P_SCFInfo ] 1
|  7>     print[ P_SCFIterInfo ] 1
|  8>     print[ P_OrbEn ] 0
|  9>     print[ P_Cartesian ] 0
| 10> end
| 11> *xyz 0 1
| 12>  C        1.1660640000    -0.0555890000     0.3649230000
| 13>  C        2.6065410000     0.1963630000    -0.0275150000
| 14>  C        2.7670370000     0.2607510000    -1.5392900000
| 15>  O        4.1176690000     0.2945790000    -1.9094160000
| 16>  C        3.2875710000     1.3250920000     0.7796860000
| 17>  C        3.9451770000     0.2153630000     1.6105800000
| 18>  N        3.5847480000    -0.7549490000     0.5619730000
| 19>  H        0.5141520000     0.7312010000    -0.0257860000
| 20>  H        1.0489550000    -0.0772410000     1.4514930000
| 21>  H        0.8142490000    -1.0104570000    -0.0373530000
| 22>  H        2.2845640000     1.1639520000    -1.9269880000
| 23>  H        2.2560360000    -0.6069400000    -1.9885650000
| 24>  H        4.5481790000    -0.3113120000    -1.2854080000
| 25>  H        2.6253140000     2.0147860000     1.3022100000
| 26>  H        4.0040660000     1.8809130000     0.1754560000
| 27>  H        3.4373130000     0.0448630000     2.5665100000
| 28>  H        5.0189440000     0.2961550000     1.7959440000
| 29>  H        3.2001910000    -1.6356190000     0.8819360000
| 30> *
| 31>
| 32>                          ****END OF INPUT****
 Total Charge           Charge          ....    0
 Multiplicity           Mult            ....    1
 Number of Electrons    NEL             ....   56
 Basis Dimension        Dim             ....  153

MULLIKEN ATOMIC CHARGES
-----------------------
   0 C :    0.095944
   1 C :   -0.378562
   2 C :    0.305308
   3 O :   -0.281835
   4 C :    0.065847
   5 C :    0.115978
   6 N :   -0.228581
   7 H :    0.023195
   8 H :    0.008557
   9 H :    0.017814
  10 H :    0.000304
  11 H :   -0.018975
  12 H :    0.136424
  13 H :    0.013235
  14 H :    0.010102
  15 H :    0.008973
  16 H :    0.013873
  17 H :    0.092400
Sum of atomic charges:   -0.0000000

LOEWDIN ATOMIC CHARGES
----------------------
   0 C :   -0.061247
   1 C :   -0.033232
   2 C :    0.049707
   3 O :   -0.125017
   4 C :   -0.031218
   5 C :    0.029170
   6 N :   -0.090482
   7 H :    0.033053
   8 H :    0.025398
   9 H :    0.026059
  10 H :    0.018627
  11 H :    0.000648
  12 H :    0.044396
  13 H :    0.020179
  14 H :    0.027086
  15 H :    0.007895
  16 H :    0.013132
  17 H :    0.045848

  Mayer bond orders larger than 0.1
B(  0-C ,  1-C ) :   1.0529 B(  0-C ,  7-H ) :   0.9475 B(  0-C ,  8-H ) :   0.9453
B(  0-C ,  9-H ) :   0.9444 B(  1-C ,  2-C ) :   1.0020 B(  1-C ,  4-C ) :   1.0423
B(  1-C ,  6-N ) :   1.0512 B(  2-C ,  3-O ) :   1.0912 B(  2-C , 10-H ) :   0.9274
B(  2-C , 11-H ) :   0.9137 B(  3-O , 12-H ) :   0.9465 B(  4-C ,  5-C ) :   1.1201
B(  4-C , 13-H ) :   0.9401 B(  4-C , 14-H ) :   0.8895 B(  5-C ,  6-N ) :   1.0362
B(  5-C , 15-H ) :   0.9337 B(  5-C , 16-H ) :   0.9357 B(  6-N , 12-H ) :   0.1089
B(  6-N , 17-H ) :   0.9426

FINAL SINGLE POINT ENERGY      -326.437072428698

DIPOLE MOMENT
-------------
                                X             Y             Z
Electronic contribution:      3.25168      -0.56603      -2.36558
Nuclear contribution   :     -3.85075       0.29467       3.26370
                        -----------------------------------------
Total Dipole Moment    :     -0.59908      -0.27136       0.89812
                        -----------------------------------------
Magnitude (a.u.)       :      1.11317
Magnitude (Debye)      :      2.82945

                             ****ORCA TERMINATED NORMALLY****
TOTAL RUN TIME: 0 days 0 hours 0 minutes 8 seconds 177 msec
