                         Program Version 3.0.3 - RELEASE   -
|  1> ! RI PBE def2-SVP def2-SVP/J NBO PAL2
|  2> % maxcore 2000
|  3> % output
|  4>     # printlevel mini
|  5>     print[ P_Basis ] 0
|  6>     print[ P_SCFInfo ] 1
|  7>     print[ P_SCFIterInfo ] 1
|  8>     print[ P_OrbEn ] 0
|  9>     print[ P_Cartesian ] 0
| 10> end
| 11> *xyz 0 1
| 12>  C        0.9472450000    -0.0999110000    -0.1147050000
| 13>  C        2.4456120000    -0.0015820000    -0.0094150000
| 14>  C        3.1053190000     1.0634990000     0.9005940000
| 15>  O        2.3342540000     1.4865210000     1.9905780000
| 16>  C        4.1241610000    -0.0399990000     1.2240120000
| 17>  N        3.1289680000    -1.0258610000     0.7958020000
| 18>  C        3.5790250000    -2.2283600000     0.1543010000
| 19>  H        0.5470430000     0.7293150000    -0.7030790000
| 20>  H        0.4795650000    -0.0749400000     0.8709810000
| 21>  H        0.6549510000    -1.0315020000    -0.6063200000
| 22>  H        2.8942380000     0.0684370000    -1.0168010000
| 23>  H        3.4771310000     1.9634750000     0.4134340000
| 24>  H        2.0400890000     0.6995440000     2.4605940000
| 25>  H        4.4614320000    -0.1236900000     2.2614670000
| 26>  H        5.0010410000     0.0052600000     0.5578010000
| 27>  H        4.1317430000    -2.8477800000     0.8651970000
| 28>  H        4.2371110000    -2.0267260000    -0.7104540000
| 29>  H        2.7231710000    -2.8104800000    -0.1959870000
| 30> *
| 31>
| 32>                          ****END OF INPUT****
 Total Charge           Charge          ....    0
 Multiplicity           Mult            ....    1
 Number of Electrons    NEL             ....   56
 Basis Dimension        Dim             ....  153

MULLIKEN ATOMIC CHARGES
-----------------------
   0 C :    0.102067
   1 C :   -0.022971
   2 C :    0.033032
   3 O :   -0.243051
   4 C :    0.191038
   5 N :   -0.356465
   6 C :    0.084111
   7 H :    0.023805
   8 H :   -0.007153
   9 H :    0.015211
  10 H :   -0.021524
  11 H :    0.007565
  12 H :    0.156418
  13 H :    0.002887
  14 H :   -0.012494
  15 H :    0.027445
  16 H :   -0.004243
  17 H :    0.024323
Sum of atomic charges:    0.0000000

LOEWDIN ATOMIC CHARGES
----------------------
   0 C :   -0.068089
   1 C :   -0.001033
   2 C :    0.049484
   3 O :   -0.096223
   4 C :    0.014304
   5 N :   -0.121231
   6 C :   -0.008844
   7 H :    0.034445
   8 H :    0.020380
   9 H :    0.029420
  10 H :    0.003326
  11 H :    0.013822
  12 H :    0.067202
  13 H :    0.009962
  14 H :    0.004694
  15 H :    0.025266
  16 H :   -0.000862
  17 H :    0.023979

  Mayer bond orders larger than 0.1
B(  0-C ,  1-C ) :   1.1127 B(  0-C ,  7-H ) :   0.9512 B(  0-C ,  8-H ) :   0.9343
B(  0-C ,  9-H ) :   0.9495 B(  1-C ,  2-C ) :   0.9639 B(  1-C ,  5-N ) :   0.9777
B(  1-C , 10-H ) :   0.8899 B(  2-C ,  3-O ) :   1.1073 B(  2-C ,  4-C ) :   1.0532
B(  2-C , 11-H ) :   0.9292 B(  3-O , 12-H ) :   0.9713 B(  4-C ,  5-N ) :   1.0046
B(  4-C , 13-H ) :   0.9218 B(  4-C , 14-H ) :   0.9072 B(  5-N ,  6-C ) :   1.0458
B(  6-C , 15-H ) :   0.9677 B(  6-C , 16-H ) :   0.9400 B(  6-C , 17-H ) :   0.9660

FINAL SINGLE POINT ENERGY      -326.429382916088

DIPOLE MOMENT
-------------
                                X             Y             Z
Electronic contribution:      0.25148       3.39767       3.21121
Nuclear contribution   :     -0.08897      -3.89268      -3.50223
                        -----------------------------------------
Total Dipole Moment    :      0.16251      -0.49501      -0.29102
                        -----------------------------------------
Magnitude (a.u.)       :      0.59677
Magnitude (Debye)      :      1.51688

                             ****ORCA TERMINATED NORMALLY****
TOTAL RUN TIME: 0 days 0 hours 0 minutes 8 seconds 100 msec
