                         Program Version 3.0.3 - RELEASE   -
|  1> ! RI PBE def2-SVP def2-SVP/J NBO PAL2
|  2> % maxcore 2000
|  3> % output
|  4>     # printlevel mini
|  5>     print[ P_Basis ] 0
|  6>     print[ P_SCFInfo ] 1
|  7>     print[ P_SCFIterInfo ] 1
|  8>     print[ P_OrbEn ] 0
|  9>     print[ P_Cartesian ] 0
| 10> end
| 11> *xyz 0 1
| 12>  C        0.8611790000     0.1484490000    -0.0121730000
| 13>  C        2.3457110000     0.0585230000    -0.0063740000
| 14>  C        3.2241770000     1.0829140000    -0.0041900000
| 15>  O        4.5141450000     0.6042740000     0.0012640000
| 16>  C        4.4305420000    -0.7357430000     0.0025130000
| 17>  N        5.6209700000    -1.3926130000     0.0077070000
| 18>  C        3.1316770000    -1.1434820000    -0.0019270000
| 19>  H        0.5296480000     1.1881000000    -0.0146200000
| 20>  H        0.4311100000    -0.3399030000     0.8670300000
| 21>  H        0.4378620000    -0.3418940000    -0.8935420000
| 22>  H        3.1219130000     2.1544030000    -0.0058260000
| 23>  H        6.4767370000    -0.8740190000     0.0111370000
| 24>  H        5.6493570000    -2.3912560000     0.0096900000
| 25>  H        2.7732930000    -2.1605630000    -0.0020990000
| 26> *
| 27>
| 28>                          ****END OF INPUT****
 Total Charge           Charge          ....    0
 Multiplicity           Mult            ....    1
 Number of Electrons    NEL             ....   52
 Basis Dimension        Dim             ....  133

MULLIKEN ATOMIC CHARGES
-----------------------
   0 C :    0.083766
   1 C :   -0.066123
   2 C :    0.026641
   3 O :   -0.195332
   4 C :    0.128268
   5 N :   -0.051536
   6 C :   -0.144699
   7 H :    0.008962
   8 H :    0.025879
   9 H :    0.025821
  10 H :   -0.020560
  11 H :    0.117941
  12 H :    0.117175
  13 H :   -0.056204
Sum of atomic charges:   -0.0000000

LOEWDIN ATOMIC CHARGES
----------------------
   0 C :   -0.054001
   1 C :   -0.072243
   2 C :   -0.029357
   3 O :   -0.000941
   4 C :    0.041829
   5 N :   -0.009858
   6 C :   -0.159936
   7 H :    0.031682
   8 H :    0.034640
   9 H :    0.034632
  10 H :    0.012925
  11 H :    0.074758
  12 H :    0.077803
  13 H :    0.018068

  Mayer bond orders larger than 0.1
B(  0-C ,  1-C ) :   1.1096 B(  0-C ,  7-H ) :   0.9516 B(  0-C ,  8-H ) :   0.9442
B(  0-C ,  9-H ) :   0.9442 B(  1-C ,  2-C ) :   1.5640 B(  1-C ,  6-C ) :   1.1804
B(  2-C ,  3-O ) :   1.0580 B(  2-C , 10-H ) :   1.0118 B(  3-O ,  4-C ) :   1.1825
B(  4-C ,  5-N ) :   1.2220 B(  4-C ,  6-C ) :   1.4502 B(  5-N , 11-H ) :   0.9417
B(  5-N , 12-H ) :   0.9546 B(  6-C , 13-H ) :   1.0275

FINAL SINGLE POINT ENERGY      -324.068072988524

DIPOLE MOMENT
-------------
                                X             Y             Z
Electronic contribution:      5.17918       0.72730       0.01870
Nuclear contribution   :     -4.65074      -1.25635      -0.01514
                        -----------------------------------------
Total Dipole Moment    :      0.52844      -0.52905       0.00356
                        -----------------------------------------
Magnitude (a.u.)       :      0.74777
Magnitude (Debye)      :      1.90068

                             ****ORCA TERMINATED NORMALLY****
TOTAL RUN TIME: 0 days 0 hours 0 minutes 6 seconds 598 msec
