                         Program Version 3.0.3 - RELEASE   -
|  1> ! RI PBE def2-SVP def2-SVP/J NBO PAL2
|  2> % maxcore 2000
|  3> % output
|  4>     # printlevel mini
|  5>     print[ P_Basis ] 0
|  6>     print[ P_SCFInfo ] 1
|  7>     print[ P_SCFIterInfo ] 1
|  8>     print[ P_OrbEn ] 0
|  9>     print[ P_Cartesian ] 0
| 10> end
| 11> *xyz 0 1
| 12>  C        0.9174120000     0.0410210000     0.1191660000
| 13>  C        2.4231480000     0.1094110000     0.0423890000
| 14>  C        2.8927550000     0.0974640000    -1.4069950000
| 15>  O        4.2879710000     0.1496960000    -1.5711590000
| 16>  C        3.1411780000     1.2094340000     0.8582910000
| 17>  N        4.1793650000     0.2189120000     1.1904310000
| 18>  C        3.2389660000    -0.8789670000     0.9077260000
| 19>  H        0.4588000000     0.8895560000    -0.3967580000
| 20>  H        0.5720320000     0.0523810000     1.1555180000
| 21>  H        0.5413360000    -0.8726570000    -0.3501290000
| 22>  H        2.4357970000     0.9533920000    -1.9249430000
| 23>  H        2.5090250000    -0.8142270000    -1.8874280000
| 24>  H        4.6898210000     0.1960530000    -0.6859500000
| 25>  H        2.5420390000     1.5338160000     1.7188780000
| 26>  H        3.5025140000     2.0879650000     0.3158450000
| 27>  H        4.5727810000     0.2593650000     2.1213420000
| 28>  H        2.6707840000    -1.2165810000     1.7840240000
| 29>  H        3.6821660000    -1.7442250000     0.4063400000
| 30> *
| 31>
| 32>                          ****END OF INPUT****
 Total Charge           Charge          ....    0
 Multiplicity           Mult            ....    1
 Number of Electrons    NEL             ....   56
 Basis Dimension        Dim             ....  153

MULLIKEN ATOMIC CHARGES
-----------------------
   0 C :    0.092495
   1 C :   -0.535093
   2 C :    0.297016
   3 O :   -0.296468
   4 C :    0.210416
   5 N :   -0.290913
   6 C :    0.209758
   7 H :    0.023556
   8 H :    0.007385
   9 H :    0.021869
  10 H :   -0.007495
  11 H :   -0.007868
  12 H :    0.143584
  13 H :   -0.004007
  14 H :    0.019289
  15 H :    0.101213
  16 H :   -0.004139
  17 H :    0.019402
Sum of atomic charges:   -0.0000000

LOEWDIN ATOMIC CHARGES
----------------------
   0 C :   -0.051786
   1 C :   -0.084262
   2 C :    0.067230
   3 O :   -0.134020
   4 C :    0.034448
   5 N :   -0.091901
   6 C :    0.034400
   7 H :    0.030698
   8 H :    0.022487
   9 H :    0.030421
  10 H :    0.006126
  11 H :    0.006328
  12 H :    0.039161
  13 H :    0.007439
  14 H :    0.012023
  15 H :    0.051644
  16 H :    0.007436
  17 H :    0.012127

  Mayer bond orders larger than 0.1
B(  0-C ,  1-C ) :   1.0707 B(  0-C ,  7-H ) :   0.9551 B(  0-C ,  8-H ) :   0.9449
B(  0-C ,  9-H ) :   0.9552 B(  1-C ,  2-C ) :   1.0023 B(  1-C ,  4-C ) :   0.9900
B(  1-C ,  6-C ) :   0.9916 B(  2-C ,  3-O ) :   1.1057 B(  2-C , 10-H ) :   0.9258
B(  2-C , 11-H ) :   0.9261 B(  3-O , 12-H ) :   0.9340 B(  4-C ,  5-N ) :   1.0034
B(  4-C , 13-H ) :   0.9243 B(  4-C , 14-H ) :   0.9385 B(  5-N ,  6-C ) :   1.0033
B(  5-N , 12-H ) :   0.1347 B(  5-N , 15-H ) :   0.9371 B(  6-C , 16-H ) :   0.9244
B(  6-C , 17-H ) :   0.9384

FINAL SINGLE POINT ENERGY      -326.430513939143

DIPOLE MOMENT
-------------
                                X             Y             Z
Electronic contribution:      4.27176       0.16341      -0.98439
Nuclear contribution   :     -4.86715      -0.15861       2.09391
                        -----------------------------------------
Total Dipole Moment    :     -0.59539       0.00480       1.10952
                        -----------------------------------------
Magnitude (a.u.)       :      1.25918
Magnitude (Debye)      :      3.20059

                             ****ORCA TERMINATED NORMALLY****
TOTAL RUN TIME: 0 days 0 hours 0 minutes 8 seconds 290 msec
