                         Program Version 3.0.3 - RELEASE   -
|  1> ! RI PBE def2-SVP def2-SVP/J NBO PAL2
|  2> % maxcore 2000
|  3> % output
|  4>     # printlevel mini
|  5>     print[ P_Basis ] 0
|  6>     print[ P_SCFInfo ] 1
|  7>     print[ P_SCFIterInfo ] 1
|  8>     print[ P_OrbEn ] 0
|  9>     print[ P_Cartesian ] 0
| 10> end
| 11> *xyz 0 1
| 12>  C        0.9921070000    -0.0360640000     0.0929920000
| 13>  C        2.4732290000    -0.0140690000     0.0933340000
| 14>  C        3.3117800000     1.0376980000     0.0907940000
| 15>  O        4.6056860000     0.5481600000     0.0924550000
| 16>  C        4.4430980000    -0.7824570000     0.0958740000
| 17>  N        5.5643780000    -1.5327470000     0.0981000000
| 18>  N        3.2164650000    -1.1899070000     0.0965710000
| 19>  H        0.5843490000     0.9754770000     0.0903520000
| 20>  H        0.6146260000    -0.5612880000     0.9740520000
| 21>  H        0.6150960000    -0.5656840000    -0.7856370000
| 22>  H        3.2017050000     2.1074290000     0.0879630000
| 23>  H        6.4669720000    -1.1016290000     0.0975630000
| 24>  H        5.4766290000    -2.5294190000     0.1008970000
| 25> *
| 26>
| 27>                          ****END OF INPUT****
 Total Charge           Charge          ....    0
 Multiplicity           Mult            ....    1
 Number of Electrons    NEL             ....   52
 Basis Dimension        Dim             ....  128

MULLIKEN ATOMIC CHARGES
-----------------------
   0 C :    0.111116
   1 C :   -0.116242
   2 C :    0.043473
   3 O :   -0.189473
   4 C :    0.041020
   5 N :   -0.040163
   6 N :   -0.169908
   7 H :    0.004295
   8 H :    0.032309
   9 H :    0.032367
  10 H :   -0.006069
  11 H :    0.124863
  12 H :    0.132412
Sum of atomic charges:   -0.0000000

LOEWDIN ATOMIC CHARGES
----------------------
   0 C :   -0.058503
   1 C :   -0.050222
   2 C :   -0.036696
   3 O :   -0.009392
   4 C :    0.025196
   5 N :    0.006766
   6 N :   -0.171237
   7 H :    0.032445
   8 H :    0.039930
   9 H :    0.039941
  10 H :    0.017284
  11 H :    0.079365
  12 H :    0.085123

  Mayer bond orders larger than 0.1
B(  0-C ,  1-C ) :   1.1217 B(  0-C ,  7-H ) :   0.9433 B(  0-C ,  8-H ) :   0.9378
B(  0-C ,  9-H ) :   0.9378 B(  1-C ,  2-C ) :   1.6018 B(  1-C ,  6-N ) :   1.2670
B(  2-C ,  3-O ) :   1.0454 B(  2-C , 10-H ) :   0.9935 B(  3-O ,  4-C ) :   1.2015
B(  4-C ,  5-N ) :   1.2482 B(  4-C ,  6-N ) :   1.6429 B(  5-N , 11-H ) :   0.9379
B(  5-N , 12-H ) :   0.9455

FINAL SINGLE POINT ENERGY      -340.110483738476

DIPOLE MOMENT
-------------
                                X             Y             Z
Electronic contribution:      4.78541      -0.08296       0.00132
Nuclear contribution   :     -4.06285       0.06958      -0.00082
                        -----------------------------------------
Total Dipole Moment    :      0.72257      -0.01338       0.00051
                        -----------------------------------------
Magnitude (a.u.)       :      0.72269
Magnitude (Debye)      :      1.83693

                             ****ORCA TERMINATED NORMALLY****
TOTAL RUN TIME: 0 days 0 hours 0 minutes 6 seconds 76 msec
