                         Program Version 3.0.3 - RELEASE   -
|  1> ! RI PBE def2-SVP def2-SVP/J NBO PAL2
|  2> % maxcore 2000
|  3> % output
|  4>     # printlevel mini
|  5>     print[ P_Basis ] 0
|  6>     print[ P_SCFInfo ] 1
|  7>     print[ P_SCFIterInfo ] 1
|  8>     print[ P_OrbEn ] 0
|  9>     print[ P_Cartesian ] 0
| 10> end
| 11> *xyz 0 1
| 12>  C        1.0442710000    -0.1189130000     0.2895470000
| 13>  C        2.3498790000    -0.0733840000     0.0413440000
| 14>  C        3.2544610000     1.1324800000     0.0734080000
| 15>  O        4.5486570000     0.6388210000    -0.2663190000
| 16>  C        4.4932610000    -0.6986340000    -0.4878270000
| 17>  N        5.4459460000    -1.4566470000    -0.8064630000
| 18>  N        3.1939720000    -1.1016470000    -0.3028840000
| 19>  H        0.5091920000     0.7831510000     0.5512350000
| 20>  H        0.4845160000    -1.0435370000     0.2387120000
| 21>  H        3.2963880000     1.5900590000     1.0647510000
| 22>  H        2.9585460000     1.8892800000    -0.6570600000
| 23>  H        6.3116720000    -0.9342520000    -0.8855720000
| 24>  H        2.9316300000    -2.0635880000    -0.4185900000
| 25> *
| 26>
| 27>                          ****END OF INPUT****
 Total Charge           Charge          ....    0
 Multiplicity           Mult            ....    1
 Number of Electrons    NEL             ....   52
 Basis Dimension        Dim             ....  128

MULLIKEN ATOMIC CHARGES
-----------------------
   0 C :   -0.081157
   1 C :   -0.074922
   2 C :    0.244925
   3 O :   -0.279880
   4 C :    0.034474
   5 N :   -0.100777
   6 N :   -0.087380
   7 H :    0.008536
   8 H :    0.010506
   9 H :    0.048089
  10 H :    0.052036
  11 H :    0.102282
  12 H :    0.123268
Sum of atomic charges:   -0.0000000

LOEWDIN ATOMIC CHARGES
----------------------
   0 C :   -0.150012
   1 C :   -0.010407
   2 C :    0.089248
   3 O :   -0.090334
   4 C :    0.030796
   5 N :   -0.184527
   6 N :    0.039975
   7 H :    0.028837
   8 H :    0.025658
   9 H :    0.034591
  10 H :    0.035145
  11 H :    0.058364
  12 H :    0.092666

  Mayer bond orders larger than 0.1
B(  0-C ,  1-C ) :   1.8967 B(  0-C ,  7-H ) :   0.9222 B(  0-C ,  8-H ) :   0.9315
B(  1-C ,  2-C ) :   1.0024 B(  1-C ,  6-N ) :   1.1507 B(  2-C ,  3-O ) :   0.9790
B(  2-C ,  9-H ) :   0.9267 B(  2-C , 10-H ) :   0.9272 B(  3-O ,  4-C ) :   1.0949
B(  4-C ,  5-N ) :   1.9815 B(  4-C ,  6-N ) :   1.0701 B(  5-N , 11-H ) :   0.9191
B(  6-N , 12-H ) :   0.9297

FINAL SINGLE POINT ENERGY      -340.092779668114

DIPOLE MOMENT
-------------
                                X             Y             Z
Electronic contribution:      3.61573      -1.02475      -0.88920
Nuclear contribution   :     -4.25523       1.49911       1.09529
                        -----------------------------------------
Total Dipole Moment    :     -0.63950       0.47437       0.20609
                        -----------------------------------------
Magnitude (a.u.)       :      0.82247
Magnitude (Debye)      :      2.09056

                             ****ORCA TERMINATED NORMALLY****
TOTAL RUN TIME: 0 days 0 hours 0 minutes 5 seconds 964 msec
