                         Program Version 3.0.3 - RELEASE   -
|  1> ! RI PBE def2-SVP def2-SVP/J NBO PAL2
|  2> % maxcore 2000
|  3> % output
|  4>     # printlevel mini
|  5>     print[ P_Basis ] 0
|  6>     print[ P_SCFInfo ] 1
|  7>     print[ P_SCFIterInfo ] 1
|  8>     print[ P_OrbEn ] 0
|  9>     print[ P_Cartesian ] 0
| 10> end
| 11> *xyz 0 1
| 12>  C        1.0048680000    -0.0403250000    -0.3239710000
| 13>  C        2.4431430000     0.1383320000     0.1476900000
| 14>  C        3.0934080000     1.3785690000    -0.4411240000
| 15>  O        3.2777650000     1.2320630000    -1.8447360000
| 16>  C        3.5975070000    -0.0198610000    -2.2434050000
| 17>  N        3.6217260000    -1.0763990000    -1.5470720000
| 18>  N        3.3254330000    -0.9623440000    -0.2034930000
| 19>  H        0.3907060000     0.8180590000    -0.0398390000
| 20>  H        0.5630290000    -0.9329510000     0.1249250000
| 21>  H        0.9567980000    -0.1479150000    -1.4091410000
| 22>  H        2.4608950000     0.2366870000     1.2384340000
| 23>  H        4.0652010000     1.5486850000     0.0306290000
| 24>  H        2.4705520000     2.2634920000    -0.3048470000
| 25>  H        3.8500080000    -0.0661930000    -3.2955500000
| 26>  H        3.0000720000    -1.8600100000     0.1236990000
| 27> *
| 28>
| 29>                          ****END OF INPUT****
 Total Charge           Charge          ....    0
 Multiplicity           Mult            ....    1
 Number of Electrons    NEL             ....   54
 Basis Dimension        Dim             ....  138

MULLIKEN ATOMIC CHARGES
-----------------------
   0 C :    0.050708
   1 C :   -0.147522
   2 C :    0.240861
   3 O :   -0.277957
   4 C :    0.082375
   5 N :   -0.118131
   6 N :   -0.103844
   7 H :    0.019925
   8 H :    0.020356
   9 H :    0.037100
  10 H :    0.019512
  11 H :    0.029129
  12 H :    0.017033
  13 H :    0.017263
  14 H :    0.113192
Sum of atomic charges:    0.0000000

LOEWDIN ATOMIC CHARGES
----------------------
   0 C :   -0.071541
   1 C :   -0.030662
   2 C :    0.075975
   3 O :   -0.085585
   4 C :   -0.019553
   5 N :   -0.097288
   6 N :   -0.017956
   7 H :    0.029796
   8 H :    0.027210
   9 H :    0.033721
  10 H :    0.031398
  11 H :    0.022399
  12 H :    0.024873
  13 H :    0.018619
  14 H :    0.058595

  Mayer bond orders larger than 0.1
B(  0-C ,  1-C ) :   1.0567 B(  0-C ,  7-H ) :   0.9533 B(  0-C ,  8-H ) :   0.9562
B(  0-C ,  9-H ) :   0.9543 B(  1-C ,  2-C ) :   1.0465 B(  1-C ,  6-N ) :   1.0284
B(  1-C , 10-H ) :   0.9059 B(  2-C ,  3-O ) :   0.9683 B(  2-C , 11-H ) :   0.9400
B(  2-C , 12-H ) :   0.9439 B(  3-O ,  4-C ) :   1.1107 B(  4-C ,  5-N ) :   1.8658
B(  4-C , 13-H ) :   0.9649 B(  5-N ,  6-N ) :   1.0431 B(  6-N , 14-H ) :   0.9440

FINAL SINGLE POINT ENERGY      -341.259349126220

DIPOLE MOMENT
-------------
                                X             Y             Z
Electronic contribution:      4.41895      -0.66138      -2.87340
Nuclear contribution   :     -5.02491       0.96006       3.56671
                        -----------------------------------------
Total Dipole Moment    :     -0.60595       0.29868       0.69330
                        -----------------------------------------
Magnitude (a.u.)       :      0.96802
Magnitude (Debye)      :      2.46051

                             ****ORCA TERMINATED NORMALLY****
TOTAL RUN TIME: 0 days 0 hours 0 minutes 7 seconds 49 msec
