                         Program Version 3.0.3 - RELEASE   -
|  1> ! RI PBE def2-SVP def2-SVP/J NBO PAL2
|  2> % maxcore 2000
|  3> % output
|  4>     # printlevel mini
|  5>     print[ P_Basis ] 0
|  6>     print[ P_SCFInfo ] 1
|  7>     print[ P_SCFIterInfo ] 1
|  8>     print[ P_OrbEn ] 0
|  9>     print[ P_Cartesian ] 0
| 10> end
| 11> *xyz 0 1
| 12>  C        1.0194330000     0.0792580000     0.0315200000
| 13>  C        2.5282490000     0.0474370000     0.1227280000
| 14>  C        3.1298400000     1.1820190000     0.9460840000
| 15>  O        4.3222490000     0.6345080000     1.5009690000
| 16>  C        4.2317390000    -0.7241950000     1.4837240000
| 17>  N        5.0863450000    -1.5316430000     1.9382160000
| 18>  N        3.0412070000    -1.0702610000     0.8875050000
| 19>  H        0.6847920000     0.9857420000    -0.4791840000
| 20>  H        0.5758640000     0.0520980000     1.0290570000
| 21>  H        0.6421000000    -0.7753970000    -0.5342680000
| 22>  H        2.9569930000     0.0647400000    -0.8912160000
| 23>  H        2.4543890000     1.4729480000     1.7585930000
| 24>  H        3.3898710000     2.0604940000     0.3557460000
| 25>  H        5.8566080000    -1.0312010000     2.3687400000
| 26>  H        2.9962320000    -2.0058250000     0.5188670000
| 27> *
| 28>
| 29>                          ****END OF INPUT****
 Total Charge           Charge          ....    0
 Multiplicity           Mult            ....    1
 Number of Electrons    NEL             ....   54
 Basis Dimension        Dim             ....  138

MULLIKEN ATOMIC CHARGES
-----------------------
   0 C :    0.036268
   1 C :   -0.073269
   2 C :    0.236957
   3 O :   -0.283250
   4 C :    0.024999
   5 N :   -0.111854
   6 N :   -0.187984
   7 H :    0.027860
   8 H :    0.026617
   9 H :    0.028748
  10 H :    0.015057
  11 H :    0.015157
  12 H :    0.025508
  13 H :    0.095982
  14 H :    0.123204
Sum of atomic charges:    0.0000000

LOEWDIN ATOMIC CHARGES
----------------------
   0 C :   -0.063815
   1 C :    0.000844
   2 C :    0.080406
   3 O :   -0.096401
   4 C :    0.022353
   5 N :   -0.196225
   6 N :   -0.030936
   7 H :    0.033187
   8 H :    0.029824
   9 H :    0.031797
  10 H :    0.014960
  11 H :    0.017823
  12 H :    0.024340
  13 H :    0.053891
  14 H :    0.077951

  Mayer bond orders larger than 0.1
B(  0-C ,  1-C ) :   1.0969 B(  0-C ,  7-H ) :   0.9560 B(  0-C ,  8-H ) :   0.9480
B(  0-C ,  9-H ) :   0.9576 B(  1-C ,  2-C ) :   1.0607 B(  1-C ,  6-N ) :   0.9903
B(  1-C , 10-H ) :   0.9068 B(  2-C ,  3-O ) :   0.9773 B(  2-C , 11-H ) :   0.9252
B(  2-C , 12-H ) :   0.9433 B(  3-O ,  4-C ) :   1.0854 B(  4-C ,  5-N ) :   1.9763
B(  4-C ,  6-N ) :   1.0998 B(  5-N , 13-H ) :   0.9194 B(  6-N , 14-H ) :   0.9333

FINAL SINGLE POINT ENERGY      -341.303150469675

DIPOLE MOMENT
-------------
                                X             Y             Z
Electronic contribution:      5.71197      -1.48261       2.72032
Nuclear contribution   :     -6.64775       2.15501      -3.52213
                        -----------------------------------------
Total Dipole Moment    :     -0.93578       0.67239      -0.80181
                        -----------------------------------------
Magnitude (a.u.)       :      1.40381
Magnitude (Debye)      :      3.56820

                             ****ORCA TERMINATED NORMALLY****
TOTAL RUN TIME: 0 days 0 hours 0 minutes 7 seconds 141 msec
