                         Program Version 3.0.3 - RELEASE   -
|  1> ! RI PBE def2-SVP def2-SVP/J NBO PAL2
|  2> % maxcore 2000
|  3> % output
|  4>     # printlevel mini
|  5>     print[ P_Basis ] 0
|  6>     print[ P_SCFInfo ] 1
|  7>     print[ P_SCFIterInfo ] 1
|  8>     print[ P_OrbEn ] 0
|  9>     print[ P_Cartesian ] 0
| 10> end
| 11> *xyz 0 1
| 12>  C        0.9906840000     0.0593710000    -0.0780440000
| 13>  C        2.4676090000     0.1162080000    -0.0725330000
| 14>  C        3.3128230000     1.1491230000    -0.0702740000
| 15>  O        4.6164310000     0.6950240000    -0.0649400000
| 16>  C        4.5910440000    -0.6740610000    -0.0638530000
| 17>  N        5.5759560000    -1.4654980000    -0.0594320000
| 18>  N        3.2649260000    -1.0200900000    -0.0685550000
| 19>  H        0.5765880000     1.0671990000    -0.0804270000
| 20>  H        0.6100660000    -0.4635770000     0.8044580000
| 21>  H        0.6167210000    -0.4650210000    -0.9625320000
| 22>  H        3.1631140000     2.2139520000    -0.0717780000
| 23>  H        6.4522270000    -0.9566330000    -0.0565500000
| 24>  H        2.9618230000    -1.9757970000    -0.0688430000
| 25> *
| 26>
| 27>                          ****END OF INPUT****
 Total Charge           Charge          ....    0
 Multiplicity           Mult            ....    1
 Number of Electrons    NEL             ....   52
 Basis Dimension        Dim             ....  128

MULLIKEN ATOMIC CHARGES
-----------------------
   0 C :    0.092658
   1 C :   -0.047720
   2 C :    0.040076
   3 O :   -0.216144
   4 C :    0.036467
   5 N :   -0.121751
   6 N :   -0.109550
   7 H :    0.027032
   8 H :    0.040110
   9 H :    0.040061
  10 H :    0.005148
  11 H :    0.096295
  12 H :    0.117317
Sum of atomic charges:   -0.0000000

LOEWDIN ATOMIC CHARGES
----------------------
   0 C :   -0.056908
   1 C :   -0.038922
   2 C :   -0.015020
   3 O :   -0.037360
   4 C :    0.028717
   5 N :   -0.210458
   6 N :    0.037932
   7 H :    0.045582
   8 H :    0.040677
   9 H :    0.040671
  10 H :    0.023769
  11 H :    0.054343
  12 H :    0.086976

  Mayer bond orders larger than 0.1
B(  0-C ,  1-C ) :   1.1233 B(  0-C ,  7-H ) :   0.9404 B(  0-C ,  8-H ) :   0.9367
B(  0-C ,  9-H ) :   0.9367 B(  1-C ,  2-C ) :   1.6598 B(  1-C ,  6-N ) :   1.1187
B(  2-C ,  3-O ) :   1.0530 B(  2-C , 10-H ) :   1.0004 B(  3-O ,  4-C ) :   1.0695
B(  4-C ,  5-N ) :   1.9567 B(  4-C ,  6-N ) :   1.1008 B(  5-N , 11-H ) :   0.9208
B(  6-N , 12-H ) :   0.9382

FINAL SINGLE POINT ENERGY      -340.098318724829

DIPOLE MOMENT
-------------
                                X             Y             Z
Electronic contribution:      5.15326      -0.01373       0.01942
Nuclear contribution   :     -6.48858       0.40166      -0.02476
                        -----------------------------------------
Total Dipole Moment    :     -1.33533       0.38793      -0.00534
                        -----------------------------------------
Magnitude (a.u.)       :      1.39054
Magnitude (Debye)      :      3.53448

                             ****ORCA TERMINATED NORMALLY****
TOTAL RUN TIME: 0 days 0 hours 0 minutes 6 seconds 118 msec
