                         Program Version 3.0.3 - RELEASE   -
|  1> ! RI PBE def2-SVP def2-SVP/J NBO PAL2
|  2> % maxcore 2000
|  3> % output
|  4>     # printlevel mini
|  5>     print[ P_Basis ] 0
|  6>     print[ P_SCFInfo ] 1
|  7>     print[ P_SCFIterInfo ] 1
|  8>     print[ P_OrbEn ] 0
|  9>     print[ P_Cartesian ] 0
| 10> end
| 11> *xyz 0 1
| 12>  C        0.7889400000     0.0674090000     0.0550170000
| 13>  C        2.2976750000     0.0380830000     0.0046690000
| 14>  C        2.9628150000     0.0044350000     1.3597040000
| 15>  O        2.7302100000    -1.0976260000    -0.7708580000
| 16>  C        3.3748390000    -0.5699080000    -1.8199140000
| 17>  N        3.4480720000     0.6915860000    -1.8810830000
| 18>  O        2.7810630000     1.1632430000    -0.7464330000
| 19>  H        0.4074290000    -0.8101480000     0.5799230000
| 20>  H        0.3854940000     0.0839290000    -0.9579700000
| 21>  H        0.4565640000     0.9642460000     0.5799730000
| 22>  H        2.6416000000    -0.8748460000     1.9208360000
| 23>  H        2.6940880000     0.8994490000     1.9228250000
| 24>  H        4.0462980000    -0.0221620000     1.2391260000
| 25>  H        3.7966030000    -1.2385010000    -2.5552040000
| 26> *
| 27>
| 28>                          ****END OF INPUT****
 Total Charge           Charge          ....    0
 Multiplicity           Mult            ....    1
 Number of Electrons    NEL             ....   54
 Basis Dimension        Dim             ....  133

MULLIKEN ATOMIC CHARGES
-----------------------
   0 C :    0.101628
   1 C :   -0.016420
   2 C :    0.088761
   3 O :   -0.251321
   4 C :    0.118281
   5 N :   -0.000317
   6 O :   -0.271788
   7 H :    0.029666
   8 H :    0.025279
   9 H :    0.034802
  10 H :    0.032438
  11 H :    0.038445
  12 H :    0.030294
  13 H :    0.040253
Sum of atomic charges:   -0.0000000

LOEWDIN ATOMIC CHARGES
----------------------
   0 C :   -0.065038
   1 C :    0.086018
   2 C :   -0.068178
   3 O :   -0.069776
   4 C :   -0.002016
   5 N :   -0.038007
   6 O :   -0.100059
   7 H :    0.036222
   8 H :    0.035830
   9 H :    0.039895
  10 H :    0.036765
  11 H :    0.040548
  12 H :    0.036916
  13 H :    0.030882

  Mayer bond orders larger than 0.1
B(  0-C ,  1-C ) :   1.0684 B(  0-C ,  7-H ) :   0.9477 B(  0-C ,  8-H ) :   0.9386
B(  0-C ,  9-H ) :   0.9498 B(  1-C ,  2-C ) :   1.0723 B(  1-C ,  3-O ) :   0.9583
B(  1-C ,  6-O ) :   0.9834 B(  2-C , 10-H ) :   0.9462 B(  2-C , 11-H ) :   0.9485
B(  2-C , 12-H ) :   0.9377 B(  3-O ,  4-C ) :   1.1115 B(  3-O ,  5-N ) :   0.1103
B(  4-C ,  5-N ) :   1.8425 B(  4-C , 13-H ) :   0.9681 B(  5-N ,  6-O ) :   0.9466

FINAL SINGLE POINT ENERGY      -361.090386194450

DIPOLE MOMENT
-------------
                                X             Y             Z
Electronic contribution:      3.26965       0.48932      -5.43150
Nuclear contribution   :     -3.61679      -1.20621       5.96824
                        -----------------------------------------
Total Dipole Moment    :     -0.34714      -0.71689       0.53674
                        -----------------------------------------
Magnitude (a.u.)       :      0.96048
Magnitude (Debye)      :      2.44136

                             ****ORCA TERMINATED NORMALLY****
TOTAL RUN TIME: 0 days 0 hours 0 minutes 6 seconds 307 msec
