                         Program Version 3.0.3 - RELEASE   -
|  1> ! RI PBE def2-SVP def2-SVP/J NBO PAL2
|  2> % maxcore 2000
|  3> % output
|  4>     # printlevel mini
|  5>     print[ P_Basis ] 0
|  6>     print[ P_SCFInfo ] 1
|  7>     print[ P_SCFIterInfo ] 1
|  8>     print[ P_OrbEn ] 0
|  9>     print[ P_Cartesian ] 0
| 10> end
| 11> *xyz 0 1
| 12>  C        1.1032420000    -0.2475940000    -0.2881220000
| 13>  C        2.5186400000     0.0045100000     0.1928550000
| 14>  C        3.1520230000     1.2358270000    -0.4173320000
| 15>  O        3.3238510000     1.0338150000    -1.8157090000
| 16>  C        3.7058130000    -0.2136010000    -2.1278660000
| 17>  N        3.7652350000    -1.2454400000    -1.3901720000
| 18>  O        3.3660800000    -1.1097170000    -0.0683060000
| 19>  H        0.4498790000     0.5767310000     0.0079630000
| 20>  H        0.7215450000    -1.1691460000     0.1525010000
| 21>  H        1.0603830000    -0.3429850000    -1.3742530000
| 22>  H        2.5315220000     0.0998630000     1.2823280000
| 23>  H        4.1290890000     1.4206910000     0.0386580000
| 24>  H        2.5273190000     2.1221970000    -0.3043840000
| 25>  H        3.9963790000    -0.3268500000    -3.1655700000
| 26> *
| 27>
| 28>                          ****END OF INPUT****
 Total Charge           Charge          ....    0
 Multiplicity           Mult            ....    1
 Number of Electrons    NEL             ....   54
 Basis Dimension        Dim             ....  133

MULLIKEN ATOMIC CHARGES
-----------------------
   0 C :    0.048273
   1 C :   -0.053309
   2 C :    0.223540
   3 O :   -0.261642
   4 C :    0.080588
   5 N :    0.000684
   6 O :   -0.259766
   7 H :    0.022877
   8 H :    0.040802
   9 H :    0.035964
  10 H :    0.029330
  11 H :    0.037369
  12 H :    0.024301
  13 H :    0.030989
Sum of atomic charges:   -0.0000000

LOEWDIN ATOMIC CHARGES
----------------------
   0 C :   -0.070048
   1 C :    0.011225
   2 C :    0.065807
   3 O :   -0.068523
   4 C :   -0.021016
   5 N :   -0.051272
   6 O :   -0.088643
   7 H :    0.033286
   8 H :    0.037778
   9 H :    0.034154
  10 H :    0.034431
  11 H :    0.025500
  12 H :    0.029280
  13 H :    0.028041

  Mayer bond orders larger than 0.1
B(  0-C ,  1-C ) :   1.0688 B(  0-C ,  7-H ) :   0.9521 B(  0-C ,  8-H ) :   0.9510
B(  0-C ,  9-H ) :   0.9535 B(  1-C ,  2-C ) :   1.0443 B(  1-C ,  6-O ) :   0.9824
B(  1-C , 10-H ) :   0.9108 B(  2-C ,  3-O ) :   0.9567 B(  2-C , 11-H ) :   0.9366
B(  2-C , 12-H ) :   0.9405 B(  3-O ,  4-C ) :   1.1343 B(  3-O ,  5-N ) :   0.1002
B(  4-C ,  5-N ) :   1.8601 B(  4-C , 13-H ) :   0.9587 B(  5-N ,  6-O ) :   0.9415

FINAL SINGLE POINT ENERGY      -361.074293865228

DIPOLE MOMENT
-------------
                                X             Y             Z
Electronic contribution:      4.56292      -1.66802      -2.04171
Nuclear contribution   :     -5.08504       2.67602       2.34190
                        -----------------------------------------
Total Dipole Moment    :     -0.52212       1.00800       0.30019
                        -----------------------------------------
Magnitude (a.u.)       :      1.17422
Magnitude (Debye)      :      2.98462

                             ****ORCA TERMINATED NORMALLY****
TOTAL RUN TIME: 0 days 0 hours 0 minutes 6 seconds 810 msec
