                         Program Version 3.0.3 - RELEASE   -
|  1> ! RI PBE def2-SVP def2-SVP/J NBO PAL2
|  2> % maxcore 2000
|  3> % output
|  4>     # printlevel mini
|  5>     print[ P_Basis ] 0
|  6>     print[ P_SCFInfo ] 1
|  7>     print[ P_SCFIterInfo ] 1
|  8>     print[ P_OrbEn ] 0
|  9>     print[ P_Cartesian ] 0
| 10> end
| 11> *xyz 0 1
| 12>  C        1.0431260000     0.0490860000    -0.0007490000
| 13>  C        2.5199160000     0.1099150000     0.0030010000
| 14>  C        3.3670830000     1.1425170000     0.0044510000
| 15>  O        4.6659070000     0.6933980000     0.0081070000
| 16>  C        4.6507800000    -0.6753120000     0.0090240000
| 17>  O        5.6252990000    -1.3711520000     0.0120250000
| 18>  N        3.3261160000    -1.0226560000     0.0058720000
| 19>  H        0.6280740000     1.0566370000    -0.0025140000
| 20>  H        0.6636010000    -0.4733110000     0.8824610000
| 21>  H        0.6681410000    -0.4745380000    -0.8851710000
| 22>  H        3.2141500000     2.2072070000     0.0033120000
| 23>  H        3.0255970000    -1.9800900000     0.0057710000
| 24> *
| 25>
| 26>                          ****END OF INPUT****
 Total Charge           Charge          ....    0
 Multiplicity           Mult            ....    1
 Number of Electrons    NEL             ....   52
 Basis Dimension        Dim             ....  123

MULLIKEN ATOMIC CHARGES
-----------------------
   0 C :    0.094567
   1 C :   -0.051681
   2 C :    0.039426
   3 O :   -0.201879
   4 C :    0.177553
   5 O :   -0.178564
   6 N :   -0.128538
   7 H :    0.029191
   8 H :    0.042055
   9 H :    0.042022
  10 H :    0.013253
  11 H :    0.122595
Sum of atomic charges:   -0.0000000

LOEWDIN ATOMIC CHARGES
----------------------
   0 C :   -0.056779
   1 C :   -0.042384
   2 C :   -0.008725
   3 O :   -0.020218
   4 C :    0.023866
   5 O :   -0.173766
   6 N :    0.033347
   7 H :    0.046779
   8 H :    0.041641
   9 H :    0.041637
  10 H :    0.026405
  11 H :    0.088197

  Mayer bond orders larger than 0.1
B(  0-C ,  1-C ) :   1.1214 B(  0-C ,  7-H ) :   0.9393 B(  0-C ,  8-H ) :   0.9374
B(  0-C ,  9-H ) :   0.9374 B(  1-C ,  2-C ) :   1.6587 B(  1-C ,  6-N ) :   1.1117
B(  2-C ,  3-O ) :   1.0810 B(  2-C , 10-H ) :   1.0006 B(  3-O ,  4-C ) :   1.0634
B(  4-C ,  5-O ) :   2.1586 B(  4-C ,  6-N ) :   1.1040 B(  6-N , 11-H ) :   0.9370

FINAL SINGLE POINT ENERGY      -359.970729065429

DIPOLE MOMENT
-------------
                                X             Y             Z
Electronic contribution:      7.24195      -0.96677       0.01926
Nuclear contribution   :     -9.24004       1.12496      -0.02453
                        -----------------------------------------
Total Dipole Moment    :     -1.99809       0.15820      -0.00527
                        -----------------------------------------
Magnitude (a.u.)       :      2.00435
Magnitude (Debye)      :      5.09465

                             ****ORCA TERMINATED NORMALLY****
TOTAL RUN TIME: 0 days 0 hours 0 minutes 5 seconds 445 msec
