                         Program Version 3.0.3 - RELEASE   -
|  1> ! RI PBE def2-SVP def2-SVP/J NBO PAL2
|  2> % maxcore 2000
|  3> % output
|  4>     # printlevel mini
|  5>     print[ P_Basis ] 0
|  6>     print[ P_SCFInfo ] 1
|  7>     print[ P_SCFIterInfo ] 1
|  8>     print[ P_OrbEn ] 0
|  9>     print[ P_Cartesian ] 0
| 10> end
| 11> *xyz 0 1
| 12>  C        1.0048280000    -0.0658290000     0.1079220000
| 13>  C        2.3149760000    -0.0231010000    -0.1031020000
| 14>  C        3.2290380000     1.1757310000    -0.0515090000
| 15>  O        4.5271450000     0.6723570000    -0.3534780000
| 16>  C        4.4738560000    -0.6623430000    -0.5715890000
| 17>  O        5.4165950000    -1.3406810000    -0.8440250000
| 18>  N        3.1664250000    -1.0591650000    -0.4211590000
| 19>  H        0.4638300000     0.8379690000     0.3517610000
| 20>  H        0.4445940000    -0.9894500000     0.0441980000
| 21>  H        3.2487820000     1.6367170000     0.9384870000
| 22>  H        2.9602110000     1.9312770000    -0.7930420000
| 23>  H        2.9029280000    -2.0207820000    -0.5407860000
| 24> *
| 25>
| 26>                          ****END OF INPUT****
 Total Charge           Charge          ....    0
 Multiplicity           Mult            ....    1
 Number of Electrons    NEL             ....   52
 Basis Dimension        Dim             ....  123

MULLIKEN ATOMIC CHARGES
-----------------------
   0 C :   -0.069373
   1 C :   -0.078422
   2 C :    0.238394
   3 O :   -0.267345
   4 C :    0.186383
   5 O :   -0.160711
   6 N :   -0.117011
   7 H :    0.013953
   8 H :    0.014791
   9 H :    0.053765
  10 H :    0.057656
  11 H :    0.127919
Sum of atomic charges:   -0.0000000

LOEWDIN ATOMIC CHARGES
----------------------
   0 C :   -0.137198
   1 C :   -0.010990
   2 C :    0.087864
   3 O :   -0.074858
   4 C :    0.031637
   5 O :   -0.151956
   6 N :    0.027630
   7 H :    0.031307
   8 H :    0.027776
   9 H :    0.037763
  10 H :    0.038306
  11 H :    0.092720

  Mayer bond orders larger than 0.1
B(  0-C ,  1-C ) :   1.9135 B(  0-C ,  7-H ) :   0.9231 B(  0-C ,  8-H ) :   0.9317
B(  1-C ,  2-C ) :   0.9993 B(  1-C ,  6-N ) :   1.1352 B(  2-C ,  3-O ) :   0.9876
B(  2-C ,  9-H ) :   0.9265 B(  2-C , 10-H ) :   0.9270 B(  3-O ,  4-C ) :   1.0951
B(  4-C ,  5-O ) :   2.1780 B(  4-C ,  6-N ) :   1.0603 B(  6-N , 11-H ) :   0.9307

FINAL SINGLE POINT ENERGY      -359.961997099929

DIPOLE MOMENT
-------------
                                X             Y             Z
Electronic contribution:      5.54527      -1.93028      -1.25253
Nuclear contribution   :     -6.93379       2.20102       1.52983
                        -----------------------------------------
Total Dipole Moment    :     -1.38852       0.27074       0.27730
                        -----------------------------------------
Magnitude (a.u.)       :      1.44159
Magnitude (Debye)      :      3.66423

                             ****ORCA TERMINATED NORMALLY****
TOTAL RUN TIME: 0 days 0 hours 0 minutes 5 seconds 848 msec
