                         Program Version 3.0.3 - RELEASE   -
|  1> ! RI PBE def2-SVP def2-SVP/J NBO PAL2
|  2> % maxcore 2000
|  3> % output
|  4>     # printlevel mini
|  5>     print[ P_Basis ] 0
|  6>     print[ P_SCFInfo ] 1
|  7>     print[ P_SCFIterInfo ] 1
|  8>     print[ P_OrbEn ] 0
|  9>     print[ P_Cartesian ] 0
| 10> end
| 11> *xyz 0 1
| 12>  C        0.9299840000    -0.0819920000    -0.0286850000
| 13>  C        2.4418020000    -0.1033500000     0.0020350000
| 14>  C        3.0629270000     1.0301780000     0.8204230000
| 15>  O        4.2434790000     0.4783770000     1.3915450000
| 16>  C        4.1592700000    -0.8779530000     1.3702100000
| 17>  O        4.9800820000    -1.5996030000     1.8545430000
| 18>  N        3.0002260000    -1.2243650000     0.7251010000
| 19>  H        0.5714320000     0.8333350000    -0.5063760000
| 20>  H        0.5256070000    -0.1304520000     0.9846000000
| 21>  H        0.5346380000    -0.9264130000    -0.5975190000
| 22>  H        2.8284840000    -0.0740010000    -1.0269990000
| 23>  H        2.3893800000     1.3407170000     1.6267240000
| 24>  H        3.3351500000     1.8984520000     0.2211520000
| 25>  H        2.9327190000    -2.1684420000     0.3850460000
| 26> *
| 27>
| 28>                          ****END OF INPUT****
 Total Charge           Charge          ....    0
 Multiplicity           Mult            ....    1
 Number of Electrons    NEL             ....   54
 Basis Dimension        Dim             ....  133

MULLIKEN ATOMIC CHARGES
-----------------------
   0 C :    0.031587
   1 C :   -0.063749
   2 C :    0.223834
   3 O :   -0.274708
   4 C :    0.175350
   5 O :   -0.172326
   6 N :   -0.209686
   7 H :    0.031439
   8 H :    0.027950
   9 H :    0.030470
  10 H :    0.021967
  11 H :    0.019517
  12 H :    0.030810
  13 H :    0.127543
Sum of atomic charges:   -0.0000000

LOEWDIN ATOMIC CHARGES
----------------------
   0 C :   -0.063946
   1 C :    0.001185
   2 C :    0.080095
   3 O :   -0.083516
   4 C :    0.023579
   5 O :   -0.166155
   6 N :   -0.031735
   7 H :    0.034830
   8 H :    0.030188
   9 H :    0.032104
  10 H :    0.018248
  11 H :    0.019756
  12 H :    0.026408
  13 H :    0.078959

  Mayer bond orders larger than 0.1
B(  0-C ,  1-C ) :   1.0984 B(  0-C ,  7-H ) :   0.9564 B(  0-C ,  8-H ) :   0.9484
B(  0-C ,  9-H ) :   0.9583 B(  1-C ,  2-C ) :   1.0567 B(  1-C ,  6-N ) :   0.9876
B(  1-C , 10-H ) :   0.9105 B(  2-C ,  3-O ) :   0.9864 B(  2-C , 11-H ) :   0.9265
B(  2-C , 12-H ) :   0.9438 B(  3-O ,  4-C ) :   1.0783 B(  4-C ,  5-O ) :   2.1764
B(  4-C ,  6-N ) :   1.1074 B(  6-N , 13-H ) :   0.9348

FINAL SINGLE POINT ENERGY      -361.173696570467

DIPOLE MOMENT
-------------
                                X             Y             Z
Electronic contribution:      7.55220      -2.52192       3.60301
Nuclear contribution   :     -9.09398       2.96846      -4.75199
                        -----------------------------------------
Total Dipole Moment    :     -1.54178       0.44654      -1.14898
                        -----------------------------------------
Magnitude (a.u.)       :      1.97399
Magnitude (Debye)      :      5.01750

                             ****ORCA TERMINATED NORMALLY****
TOTAL RUN TIME: 0 days 0 hours 0 minutes 6 seconds 541 msec
