                         Program Version 3.0.3 - RELEASE   -
|  1> ! RI PBE def2-SVP def2-SVP/J NBO PAL2
|  2> % maxcore 2000
|  3> % output
|  4>     # printlevel mini
|  5>     print[ P_Basis ] 0
|  6>     print[ P_SCFInfo ] 1
|  7>     print[ P_SCFIterInfo ] 1
|  8>     print[ P_OrbEn ] 0
|  9>     print[ P_Cartesian ] 0
| 10> end
| 11> *xyz 0 1
| 12>  C        0.9854160000     0.0153780000     0.0245560000
| 13>  C        2.4717500000    -0.0107880000     0.0270730000
| 14>  C        3.3514230000     1.0160990000     0.0318570000
| 15>  O        4.6085500000     0.5671280000     0.0326420000
| 16>  N        4.5874430000    -0.8053060000     0.0282660000
| 17>  C        3.3295370000    -1.1521820000     0.0249660000
| 18>  C        2.9419050000    -2.5856790000     0.0197540000
| 19>  H        0.6100020000     1.0394530000     0.0271070000
| 20>  H        0.5757450000    -0.4919350000     0.9024090000
| 21>  H        0.5788240000    -0.4864220000    -0.8578860000
| 22>  H        3.2297120000     2.0887980000     0.0350340000
| 23>  H        3.8322390000    -3.2134240000     0.0193580000
| 24>  H        2.3436010000    -2.8251250000    -0.8631530000
| 25>  H        2.3404640000    -2.8306840000     0.8989970000
| 26> *
| 27>
| 28>                          ****END OF INPUT****
 Total Charge           Charge          ....    0
 Multiplicity           Mult            ....    1
 Number of Electrons    NEL             ....   52
 Basis Dimension        Dim             ....  133

MULLIKEN ATOMIC CHARGES
-----------------------
   0 C :    0.091370
   1 C :   -0.165489
   2 C :    0.115008
   3 O :   -0.148670
   4 N :   -0.026726
   5 C :   -0.171403
   6 C :    0.100954
   7 H :    0.018438
   8 H :    0.035618
   9 H :    0.035518
  10 H :    0.014179
  11 H :    0.034802
  12 H :    0.033167
  13 H :    0.033235
Sum of atomic charges:    0.0000000

LOEWDIN ATOMIC CHARGES
----------------------
   0 C :   -0.052710
   1 C :   -0.106809
   2 C :    0.016633
   3 O :    0.039665
   4 N :   -0.048447
   5 C :   -0.058102
   6 C :   -0.058091
   7 H :    0.037446
   8 H :    0.039502
   9 H :    0.039484
  10 H :    0.025205
  11 H :    0.044040
  12 H :    0.041090
  13 H :    0.041096

  Mayer bond orders larger than 0.1
B(  0-C ,  1-C ) :   1.1174 B(  0-C ,  7-H ) :   0.9447 B(  0-C ,  8-H ) :   0.9424
B(  0-C ,  9-H ) :   0.9423 B(  1-C ,  2-C ) :   1.5423 B(  1-C ,  5-C ) :   1.2245
B(  2-C ,  3-O ) :   1.1798 B(  2-C ,  4-N ) :   0.1179 B(  2-C , 10-H ) :   0.9803
B(  3-O ,  4-N ) :   1.0096 B(  4-N ,  5-C ) :   1.6815 B(  5-C ,  6-C ) :   1.1314
B(  6-C , 11-H ) :   0.9346 B(  6-C , 12-H ) :   0.9373 B(  6-C , 13-H ) :   0.9374

FINAL SINGLE POINT ENERGY      -324.045133069354

DIPOLE MOMENT
-------------
                                X             Y             Z
Electronic contribution:      6.93358       3.56707       0.02353
Nuclear contribution   :     -8.17143      -3.47716      -0.02530
                        -----------------------------------------
Total Dipole Moment    :     -1.23785       0.08991      -0.00177
                        -----------------------------------------
Magnitude (a.u.)       :      1.24112
Magnitude (Debye)      :      3.15467

                             ****ORCA TERMINATED NORMALLY****
TOTAL RUN TIME: 0 days 0 hours 0 minutes 6 seconds 255 msec
