                         Program Version 3.0.3 - RELEASE   -
|  1> ! RI PBE def2-SVP def2-SVP/J NBO PAL2
|  2> % maxcore 2000
|  3> % output
|  4>     # printlevel mini
|  5>     print[ P_Basis ] 0
|  6>     print[ P_SCFInfo ] 1
|  7>     print[ P_SCFIterInfo ] 1
|  8>     print[ P_OrbEn ] 0
|  9>     print[ P_Cartesian ] 0
| 10> end
| 11> *xyz 0 1
| 12>  C        1.0470840000    -0.0227180000    -0.2098870000
| 13>  C        2.5424370000    -0.1200700000     0.0386390000
| 14>  C        2.9747040000    -1.3422170000     0.8353620000
| 15>  O        4.0189740000    -0.8844110000     1.6998400000
| 16>  N        3.9292100000     0.4932320000     1.8044580000
| 17>  C        3.1250050000     0.9469970000     0.9304700000
| 18>  C        2.8724020000     2.4018600000     0.7940400000
| 19>  H        0.6982230000    -0.8661420000    -0.8101610000
| 20>  H        0.7905510000     0.8916270000    -0.7492330000
| 21>  H        0.4942180000    -0.0292290000     0.7330840000
| 22>  H        3.0666060000    -0.0708690000    -0.9262960000
| 23>  H        3.3698630000    -2.1607420000     0.2330830000
| 24>  H        2.1451540000    -1.7147540000     1.4514170000
| 25>  H        3.4597580000     2.9551500000     1.5257130000
| 26>  H        1.8139730000     2.6343760000     0.9422030000
| 27>  H        3.1396290000     2.7465990000    -0.2101320000
| 28> *
| 29>
| 30>                          ****END OF INPUT****
 Total Charge           Charge          ....    0
 Multiplicity           Mult            ....    1
 Number of Electrons    NEL             ....   54
 Basis Dimension        Dim             ....  143

MULLIKEN ATOMIC CHARGES
-----------------------
   0 C :    0.017040
   1 C :   -0.166537
   2 C :    0.264430
   3 O :   -0.282963
   4 N :    0.030747
   5 C :   -0.213450
   6 C :    0.098883
   7 H :    0.033477
   8 H :    0.030287
   9 H :    0.028797
  10 H :    0.029280
  11 H :    0.021894
  12 H :    0.009489
  13 H :    0.036444
  14 H :    0.032442
  15 H :    0.029740
Sum of atomic charges:   -0.0000000

LOEWDIN ATOMIC CHARGES
----------------------
   0 C :   -0.055083
   1 C :   -0.067217
   2 C :    0.064509
   3 O :   -0.101943
   4 N :   -0.004774
   5 C :   -0.066356
   6 C :   -0.058545
   7 H :    0.032021
   8 H :    0.030117
   9 H :    0.028870
  10 H :    0.037543
  11 H :    0.024673
  12 H :    0.014113
  13 H :    0.044344
  14 H :    0.038216
  15 H :    0.039513

  Mayer bond orders larger than 0.1
B(  0-C ,  1-C ) :   1.0886 B(  0-C ,  7-H ) :   0.9619 B(  0-C ,  8-H ) :   0.9559
B(  0-C ,  9-H ) :   0.9571 B(  1-C ,  2-C ) :   1.0699 B(  1-C ,  5-C ) :   0.9720
B(  1-C , 10-H ) :   0.8724 B(  2-C ,  3-O ) :   0.9584 B(  2-C , 11-H ) :   0.9350
B(  2-C , 12-H ) :   0.9381 B(  3-O ,  4-N ) :   0.9711 B(  3-O ,  5-C ) :   0.1102
B(  4-N ,  5-C ) :   1.9072 B(  5-C ,  6-C ) :   1.1172 B(  6-C , 13-H ) :   0.9385
B(  6-C , 14-H ) :   0.9367 B(  6-C , 15-H ) :   0.9381

FINAL SINGLE POINT ENERGY      -325.223842031246

DIPOLE MOMENT
-------------
                                X             Y             Z
Electronic contribution:      5.86948      -2.31310       4.04073
Nuclear contribution   :     -6.81812       2.43389      -5.02848
                        -----------------------------------------
Total Dipole Moment    :     -0.94864       0.12079      -0.98775
                        -----------------------------------------
Magnitude (a.u.)       :      1.37484
Magnitude (Debye)      :      3.49455

                             ****ORCA TERMINATED NORMALLY****
TOTAL RUN TIME: 0 days 0 hours 0 minutes 7 seconds 357 msec
