                         Program Version 3.0.3 - RELEASE   -
|  1> ! RI PBE def2-SVP def2-SVP/J NBO PAL2
|  2> % maxcore 2000
|  3> % output
|  4>     # printlevel mini
|  5>     print[ P_Basis ] 0
|  6>     print[ P_SCFInfo ] 1
|  7>     print[ P_SCFIterInfo ] 1
|  8>     print[ P_OrbEn ] 0
|  9>     print[ P_Cartesian ] 0
| 10> end
| 11> *xyz 0 1
| 12>  C        0.8352040000     0.0731070000     0.0855480000
| 13>  C        2.3203540000     0.0545770000     0.0679580000
| 14>  C        3.2070990000     1.0734720000     0.0255940000
| 15>  O        4.4622170000     0.6276830000     0.0427360000
| 16>  N        4.4436070000    -0.7529300000     0.0880460000
| 17>  C        3.1798720000    -1.0859700000     0.1120680000
| 18>  N        2.7817940000    -2.3967580000     0.2407600000
| 19>  H        0.4561030000     1.0955300000     0.1011160000
| 20>  H        0.4436130000    -0.4434230000     0.9664960000
| 21>  H        0.4129870000    -0.4188100000    -0.7966480000
| 22>  H        3.0831890000     2.1455440000    -0.0123180000
| 23>  H        3.5239670000    -3.0604340000     0.0790230000
| 24>  H        1.9379840000    -2.6327890000    -0.2560900000
| 25> *
| 26>
| 27>                          ****END OF INPUT****
 Total Charge           Charge          ....    0
 Multiplicity           Mult            ....    1
 Number of Electrons    NEL             ....   52
 Basis Dimension        Dim             ....  128

MULLIKEN ATOMIC CHARGES
-----------------------
   0 C :    0.071419
   1 C :   -0.166254
   2 C :    0.120282
   3 O :   -0.155349
   4 N :   -0.073160
   5 C :   -0.072294
   6 N :   -0.054340
   7 H :    0.018723
   8 H :    0.040336
   9 H :    0.031815
  10 H :    0.009346
  11 H :    0.116648
  12 H :    0.112828
Sum of atomic charges:    0.0000000

LOEWDIN ATOMIC CHARGES
----------------------
   0 C :   -0.055939
   1 C :   -0.125095
   2 C :    0.016830
   3 O :    0.034615
   4 N :   -0.098631
   5 C :   -0.039157
   6 N :   -0.017777
   7 H :    0.039280
   8 H :    0.039416
   9 H :    0.034582
  10 H :    0.024343
  11 H :    0.075570
  12 H :    0.071962

  Mayer bond orders larger than 0.1
B(  0-C ,  1-C ) :   1.1061 B(  0-C ,  7-H ) :   0.9409 B(  0-C ,  8-H ) :   0.9454
B(  0-C ,  9-H ) :   0.9463 B(  1-C ,  2-C ) :   1.5513 B(  1-C ,  3-O ) :   0.1032
B(  1-C ,  5-C ) :   1.2002 B(  2-C ,  3-O ) :   1.1889 B(  2-C ,  4-N ) :   0.1105
B(  2-C , 10-H ) :   0.9781 B(  3-O ,  4-N ) :   0.9776 B(  4-N ,  5-C ) :   1.5886
B(  5-C ,  6-N ) :   1.2491 B(  6-N , 11-H ) :   0.9423 B(  6-N , 12-H ) :   0.9377

FINAL SINGLE POINT ENERGY      -340.068698735505

DIPOLE MOMENT
-------------
                                X             Y             Z
Electronic contribution:      6.47991       0.80308       0.07664
Nuclear contribution   :     -7.77377      -1.04057      -0.43223
                        -----------------------------------------
Total Dipole Moment    :     -1.29387      -0.23749      -0.35558
                        -----------------------------------------
Magnitude (a.u.)       :      1.36269
Magnitude (Debye)      :      3.46369

                             ****ORCA TERMINATED NORMALLY****
TOTAL RUN TIME: 0 days 0 hours 0 minutes 6 seconds 553 msec
