                         Program Version 3.0.3 - RELEASE   -
|  1> ! RI PBE def2-SVP def2-SVP/J NBO PAL2
|  2> % maxcore 2000
|  3> % output
|  4>     # printlevel mini
|  5>     print[ P_Basis ] 0
|  6>     print[ P_SCFInfo ] 1
|  7>     print[ P_SCFIterInfo ] 1
|  8>     print[ P_OrbEn ] 0
|  9>     print[ P_Cartesian ] 0
| 10> end
| 11> *xyz 0 1
| 12>  C        1.0671420000     0.0284650000     0.1586100000
| 13>  C        2.3739880000     0.0834400000    -0.0407630000
| 14>  C        3.2710200000     1.2802810000    -0.1014060000
| 15>  O        4.5930800000     0.7883390000    -0.3441360000
| 16>  N        4.4770450000    -0.6021920000    -0.4133690000
| 17>  C        3.2317050000    -1.1062130000    -0.2517720000
| 18>  N        2.8130810000    -2.3114020000    -0.2644050000
| 19>  H        0.4669480000     0.9180090000     0.3099100000
| 20>  H        0.5776520000    -0.9381690000     0.1715870000
| 21>  H        3.2825270000     1.8403100000     0.8388030000
| 22>  H        3.0052460000     1.9597990000    -0.9169860000
| 23>  H        5.3474770000    -1.0702210000    -0.5804940000
| 24>  H        3.5629900000    -2.9793470000    -0.4250770000
| 25> *
| 26>
| 27>                          ****END OF INPUT****
 Total Charge           Charge          ....    0
 Multiplicity           Mult            ....    1
 Number of Electrons    NEL             ....   52
 Basis Dimension        Dim             ....  128

MULLIKEN ATOMIC CHARGES
-----------------------
   0 C :   -0.029797
   1 C :   -0.247302
   2 C :    0.314162
   3 O :   -0.293071
   4 N :   -0.018653
   5 C :    0.016888
   6 N :   -0.084231
   7 H :    0.013092
   8 H :    0.040918
   9 H :    0.045681
  10 H :    0.047862
  11 H :    0.118677
  12 H :    0.075774
Sum of atomic charges:    0.0000000

LOEWDIN ATOMIC CHARGES
----------------------
   0 C :   -0.027421
   1 C :   -0.063431
   2 C :    0.078893
   3 O :   -0.118554
   4 N :    0.086452
   5 C :   -0.019421
   6 N :   -0.184989
   7 H :    0.026488
   8 H :    0.038792
   9 H :    0.034267
  10 H :    0.034769
  11 H :    0.071771
  12 H :    0.042386

  Mayer bond orders larger than 0.1
B(  0-C ,  1-C ) :   2.0198 B(  0-C ,  7-H ) :   0.9288 B(  0-C ,  8-H ) :   0.9086
B(  1-C ,  2-C ) :   1.0280 B(  1-C ,  5-C ) :   0.9268 B(  2-C ,  3-O ) :   0.9387
B(  2-C ,  9-H ) :   0.9279 B(  2-C , 10-H ) :   0.9280 B(  3-O ,  4-N ) :   0.9359
B(  4-N ,  5-C ) :   1.1032 B(  4-N ,  6-N ) :   0.1337 B(  4-N , 11-H ) :   0.9501
B(  5-C ,  6-N ) :   1.9940 B(  6-N , 12-H ) :   0.9229

FINAL SINGLE POINT ENERGY      -340.008941423032

DIPOLE MOMENT
-------------
                                X             Y             Z
Electronic contribution:      3.19274      -0.64588      -0.54577
Nuclear contribution   :     -2.60300       1.18571       0.48865
                        -----------------------------------------
Total Dipole Moment    :      0.58974       0.53982      -0.05712
                        -----------------------------------------
Magnitude (a.u.)       :      0.80154
Magnitude (Debye)      :      2.03736

                             ****ORCA TERMINATED NORMALLY****
TOTAL RUN TIME: 0 days 0 hours 0 minutes 6 seconds 552 msec
