                         Program Version 3.0.3 - RELEASE   -
|  1> ! RI PBE def2-SVP def2-SVP/J NBO PAL2
|  2> % maxcore 2000
|  3> % output
|  4>     # printlevel mini
|  5>     print[ P_Basis ] 0
|  6>     print[ P_SCFInfo ] 1
|  7>     print[ P_SCFIterInfo ] 1
|  8>     print[ P_OrbEn ] 0
|  9>     print[ P_Cartesian ] 0
| 10> end
| 11> *xyz 0 1
| 12>  C        0.8867390000     0.0212430000     0.0576320000
| 13>  C        2.3983580000     0.0137530000     0.1254630000
| 14>  C        3.0416350000     1.1080320000     0.9633160000
| 15>  O        4.2886800000     0.5642920000     1.3640810000
| 16>  N        3.9573010000    -0.7834300000     1.6663380000
| 17>  C        2.9775820000    -1.2212080000     0.7789260000
| 18>  N        2.5735410000    -2.4022010000     0.5704900000
| 19>  H        0.5213350000     0.9009040000    -0.4771020000
| 20>  H        0.4539670000     0.0232920000     1.0609450000
| 21>  H        0.5325560000    -0.8723090000    -0.4570720000
| 22>  H        2.8171320000     0.0454100000    -0.8876730000
| 23>  H        2.4269920000     1.3294880000     1.8470290000
| 24>  H        3.2559720000     2.0299850000     0.4239600000
| 25>  H        4.8212070000    -1.3084950000     1.6936820000
| 26>  H        3.0996230000    -3.0897550000     1.1077750000
| 27> *
| 28>
| 29>                          ****END OF INPUT****
 Total Charge           Charge          ....    0
 Multiplicity           Mult            ....    1
 Number of Electrons    NEL             ....   54
 Basis Dimension        Dim             ....  138

MULLIKEN ATOMIC CHARGES
-----------------------
   0 C :    0.046142
   1 C :   -0.162874
   2 C :    0.260559
   3 O :   -0.310936
   4 N :    0.013915
   5 C :   -0.121818
   6 N :   -0.080575
   7 H :    0.020068
   8 H :    0.019682
   9 H :    0.042564
  10 H :    0.035893
  11 H :    0.009344
  12 H :    0.021813
  13 H :    0.125092
  14 H :    0.081130
Sum of atomic charges:   -0.0000000

LOEWDIN ATOMIC CHARGES
----------------------
   0 C :   -0.047328
   1 C :   -0.069413
   2 C :    0.064635
   3 O :   -0.125413
   4 N :    0.050683
   5 C :   -0.010272
   6 N :   -0.153507
   7 H :    0.027369
   8 H :    0.028762
   9 H :    0.037647
  10 H :    0.045339
  11 H :    0.009091
  12 H :    0.027081
  13 H :    0.068555
  14 H :    0.046771

  Mayer bond orders larger than 0.1
B(  0-C ,  1-C ) :   1.0985 B(  0-C ,  7-H ) :   0.9614 B(  0-C ,  8-H ) :   0.9591
B(  0-C ,  9-H ) :   0.9497 B(  1-C ,  2-C ) :   1.0647 B(  1-C ,  5-C ) :   0.9477
B(  1-C , 10-H ) :   0.8579 B(  2-C ,  3-O ) :   0.9843 B(  2-C , 11-H ) :   0.9358
B(  2-C , 12-H ) :   0.9336 B(  3-O ,  4-N ) :   0.9281 B(  4-N ,  5-C ) :   1.1202
B(  4-N ,  6-N ) :   0.1074 B(  4-N , 13-H ) :   0.9326 B(  5-C ,  6-N ) :   2.0377
B(  6-N , 14-H ) :   0.9229

FINAL SINGLE POINT ENERGY      -341.235302770342

DIPOLE MOMENT
-------------
                                X             Y             Z
Electronic contribution:      5.22259      -1.62823       1.99941
Nuclear contribution   :     -4.88824       1.92690      -1.98733
                        -----------------------------------------
Total Dipole Moment    :      0.33435       0.29867       0.01208
                        -----------------------------------------
Magnitude (a.u.)       :      0.44849
Magnitude (Debye)      :      1.13996

                             ****ORCA TERMINATED NORMALLY****
TOTAL RUN TIME: 0 days 0 hours 0 minutes 6 seconds 887 msec
