                         Program Version 3.0.3 - RELEASE   -
|  1> ! RI PBE def2-SVP def2-SVP/J NBO PAL2
|  2> % maxcore 2000
|  3> % output
|  4>     # printlevel mini
|  5>     print[ P_Basis ] 0
|  6>     print[ P_SCFInfo ] 1
|  7>     print[ P_SCFIterInfo ] 1
|  8>     print[ P_OrbEn ] 0
|  9>     print[ P_Cartesian ] 0
| 10> end
| 11> *xyz 0 1
| 12>  C        1.0044100000    -0.0048230000     0.0627570000
| 13>  C        2.4857480000    -0.0039800000     0.0666250000
| 14>  C        3.3523020000     1.0165440000     0.0687120000
| 15>  O        4.6481480000     0.6260040000     0.0721070000
| 16>  N        4.5847920000    -0.7431340000     0.0721750000
| 17>  C        3.2999060000    -1.2245090000     0.0689860000
| 18>  O        2.9819450000    -2.3960990000     0.0683590000
| 19>  H        0.6036310000     1.0094920000     0.0615610000
| 20>  H        0.6186690000    -0.5317650000     0.9388630000
| 21>  H        0.6232390000    -0.5320260000    -0.8151910000
| 22>  H        3.2181220000     2.0879420000     0.0681720000
| 23>  H        5.4697890000    -1.2171370000     0.0745840000
| 24> *
| 25>
| 26>                          ****END OF INPUT****
 Total Charge           Charge          ....    0
 Multiplicity           Mult            ....    1
 Number of Electrons    NEL             ....   52
 Basis Dimension        Dim             ....  123

MULLIKEN ATOMIC CHARGES
-----------------------
   0 C :    0.096125
   1 C :   -0.284593
   2 C :    0.144675
   3 O :   -0.167232
   4 N :   -0.010612
   5 C :    0.152640
   6 O :   -0.188497
   7 H :    0.013892
   8 H :    0.045272
   9 H :    0.045231
  10 H :    0.021728
  11 H :    0.131370
Sum of atomic charges:   -0.0000000

LOEWDIN ATOMIC CHARGES
----------------------
   0 C :   -0.046097
   1 C :   -0.120989
   2 C :    0.033025
   3 O :    0.010559
   4 N :    0.098826
   5 C :   -0.003162
   6 O :   -0.204704
   7 H :    0.034273
   8 H :    0.045892
   9 H :    0.045887
  10 H :    0.028135
  11 H :    0.078355

  Mayer bond orders larger than 0.1
B(  0-C ,  1-C ) :   1.1126 B(  0-C ,  7-H ) :   0.9507 B(  0-C ,  8-H ) :   0.9415
B(  0-C ,  9-H ) :   0.9415 B(  1-C ,  2-C ) :   1.6328 B(  1-C ,  3-O ) :   0.1119
B(  1-C ,  5-C ) :   1.0113 B(  2-C ,  3-O ) :   1.0945 B(  2-C , 10-H ) :   0.9889
B(  3-O ,  4-N ) :   0.9633 B(  4-N ,  5-C ) :   1.0614 B(  4-N ,  6-O ) :   0.1052
B(  4-N , 11-H ) :   0.9386 B(  5-C ,  6-O ) :   2.1564

FINAL SINGLE POINT ENERGY      -359.907804793404

DIPOLE MOMENT
-------------
                                X             Y             Z
Electronic contribution:      5.57332      -1.51986       0.01484
Nuclear contribution   :     -5.18127       2.66782      -0.01398
                        -----------------------------------------
Total Dipole Moment    :      0.39205       1.14796       0.00085
                        -----------------------------------------
Magnitude (a.u.)       :      1.21306
Magnitude (Debye)      :      3.08334

                             ****ORCA TERMINATED NORMALLY****
TOTAL RUN TIME: 0 days 0 hours 0 minutes 6 seconds 392 msec
