                         Program Version 3.0.3 - RELEASE   -
|  1> ! RI PBE def2-SVP def2-SVP/J NBO PAL2
|  2> % maxcore 2000
|  3> % output
|  4>     # printlevel mini
|  5>     print[ P_Basis ] 0
|  6>     print[ P_SCFInfo ] 1
|  7>     print[ P_SCFIterInfo ] 1
|  8>     print[ P_OrbEn ] 0
|  9>     print[ P_Cartesian ] 0
| 10> end
| 11> *xyz 0 1
| 12>  C        1.0889610000    -0.0790050000     0.1085910000
| 13>  C        2.3934380000    -0.0061810000    -0.1011410000
| 14>  C        3.3141240000     1.1685760000    -0.0846600000
| 15>  O        4.6259300000     0.6604900000    -0.3837370000
| 16>  N        4.4742220000    -0.7085630000    -0.5561650000
| 17>  C        3.2272670000    -1.2011140000    -0.4166930000
| 18>  O        2.8900170000    -2.3596390000    -0.5283510000
| 19>  H        0.4826660000     0.7895010000     0.3378990000
| 20>  H        0.6032060000    -1.0465170000     0.0493340000
| 21>  H        3.3584820000     1.6569430000     0.8932700000
| 22>  H        3.0622070000     1.9140720000    -0.8445670000
| 23>  H        5.3234910000    -1.1995730000    -0.7722810000
| 24> *
| 25>
| 26>                          ****END OF INPUT****
 Total Charge           Charge          ....    0
 Multiplicity           Mult            ....    1
 Number of Electrons    NEL             ....   52
 Basis Dimension        Dim             ....  123

MULLIKEN ATOMIC CHARGES
-----------------------
   0 C :   -0.014085
   1 C :   -0.319830
   2 C :    0.321461
   3 O :   -0.291694
   4 N :    0.014882
   5 C :    0.169757
   6 O :   -0.179147
   7 H :    0.021576
   8 H :    0.042642
   9 H :    0.049652
  10 H :    0.053061
  11 H :    0.131726
Sum of atomic charges:    0.0000000

LOEWDIN ATOMIC CHARGES
----------------------
   0 C :   -0.019959
   1 C :   -0.090483
   2 C :    0.081256
   3 O :   -0.112005
   4 N :    0.110126
   5 C :   -0.002967
   6 O :   -0.188143
   7 H :    0.029045
   8 H :    0.038923
   9 H :    0.037017
  10 H :    0.037546
  11 H :    0.079643

  Mayer bond orders larger than 0.1
B(  0-C ,  1-C ) :   1.9919 B(  0-C ,  7-H ) :   0.9387 B(  0-C ,  8-H ) :   0.9112
B(  1-C ,  2-C ) :   1.0295 B(  1-C ,  5-C ) :   0.8826 B(  2-C ,  3-O ) :   0.9254
B(  2-C ,  9-H ) :   0.9261 B(  2-C , 10-H ) :   0.9268 B(  3-O ,  4-N ) :   0.9404
B(  4-N ,  5-C ) :   1.1454 B(  4-N ,  6-O ) :   0.1250 B(  4-N , 11-H ) :   0.9343
B(  5-C ,  6-O ) :   2.1465

FINAL SINGLE POINT ENERGY      -359.878437944136

DIPOLE MOMENT
-------------
                                X             Y             Z
Electronic contribution:      3.14704      -2.58113      -0.91266
Nuclear contribution   :     -2.91047       3.69037       1.03453
                        -----------------------------------------
Total Dipole Moment    :      0.23657       1.10924       0.12187
                        -----------------------------------------
Magnitude (a.u.)       :      1.14072
Magnitude (Debye)      :      2.89947

                             ****ORCA TERMINATED NORMALLY****
TOTAL RUN TIME: 0 days 0 hours 0 minutes 5 seconds 841 msec
