                         Program Version 3.0.3 - RELEASE   -
|  1> ! RI PBE def2-SVP def2-SVP/J NBO PAL2
|  2> % maxcore 2000
|  3> % output
|  4>     # printlevel mini
|  5>     print[ P_Basis ] 0
|  6>     print[ P_SCFInfo ] 1
|  7>     print[ P_SCFIterInfo ] 1
|  8>     print[ P_OrbEn ] 0
|  9>     print[ P_Cartesian ] 0
| 10> end
| 11> *xyz 0 1
| 12>  C        1.0468950000     0.0470020000     0.0293980000
| 13>  C        2.5590710000     0.0829870000     0.0723440000
| 14>  C        3.1917190000     1.1676510000     0.9269390000
| 15>  O        4.4470730000     0.6270350000     1.3334600000
| 16>  N        4.1394070000    -0.7261670000     1.5541810000
| 17>  C        3.1736030000    -1.1668390000     0.6886720000
| 18>  O        2.8710550000    -2.3190380000     0.5013900000
| 19>  H        0.6457070000     0.9126270000    -0.5017230000
| 20>  H        0.6285840000     0.0399400000     1.0388450000
| 21>  H        0.7099150000    -0.8570960000    -0.4796540000
| 22>  H        2.9628910000     0.1306700000    -0.9469380000
| 23>  H        2.5739490000     1.3684140000     1.8127610000
| 24>  H        3.4060430000     2.1004790000     0.4072840000
| 25>  H        4.9706670000    -1.2695750000     1.7325300000
| 26> *
| 27>
| 28>                          ****END OF INPUT****
 Total Charge           Charge          ....    0
 Multiplicity           Mult            ....    1
 Number of Electrons    NEL             ....   54
 Basis Dimension        Dim             ....  133

MULLIKEN ATOMIC CHARGES
-----------------------
   0 C :    0.035261
   1 C :   -0.250297
   2 C :    0.270595
   3 O :   -0.299870
   4 N :    0.012368
   5 C :    0.087116
   6 O :   -0.169934
   7 H :    0.027874
   8 H :    0.025727
   9 H :    0.043816
  10 H :    0.042264
  11 H :    0.013761
  12 H :    0.027886
  13 H :    0.133434
Sum of atomic charges:   -0.0000000

LOEWDIN ATOMIC CHARGES
----------------------
   0 C :   -0.048061
   1 C :   -0.091463
   2 C :    0.069522
   3 O :   -0.118202
   4 N :    0.079946
   5 C :    0.012403
   6 O :   -0.164718
   7 H :    0.029937
   8 H :    0.029942
   9 H :    0.038001
  10 H :    0.046967
  11 H :    0.011696
  12 H :    0.027875
  13 H :    0.076157

  Mayer bond orders larger than 0.1
B(  0-C ,  1-C ) :   1.0876 B(  0-C ,  7-H ) :   0.9647 B(  0-C ,  8-H ) :   0.9614
B(  0-C ,  9-H ) :   0.9522 B(  1-C ,  2-C ) :   1.0630 B(  1-C ,  5-C ) :   0.9071
B(  1-C , 10-H ) :   0.8553 B(  2-C ,  3-O ) :   0.9649 B(  2-C , 11-H ) :   0.9378
B(  2-C , 12-H ) :   0.9367 B(  3-O ,  4-N ) :   0.9359 B(  4-N ,  5-C ) :   1.1599
B(  4-N ,  6-O ) :   0.1056 B(  4-N , 13-H ) :   0.9303 B(  5-C ,  6-O ) :   2.1644

FINAL SINGLE POINT ENERGY      -361.101685577720

DIPOLE MOMENT
-------------
                                X             Y             Z
Electronic contribution:      5.35739      -3.52106       1.88417
Nuclear contribution   :     -5.25331       4.41619      -1.97774
                        -----------------------------------------
Total Dipole Moment    :      0.10408       0.89513      -0.09357
                        -----------------------------------------
Magnitude (a.u.)       :      0.90600
Magnitude (Debye)      :      2.30287

                             ****ORCA TERMINATED NORMALLY****
TOTAL RUN TIME: 0 days 0 hours 0 minutes 6 seconds 544 msec
