                         Program Version 3.0.3 - RELEASE   -
|  1> ! RI PBE def2-SVP def2-SVP/J NBO PAL2
|  2> % maxcore 2000
|  3> % output
|  4>     # printlevel mini
|  5>     print[ P_Basis ] 0
|  6>     print[ P_SCFInfo ] 1
|  7>     print[ P_SCFIterInfo ] 1
|  8>     print[ P_OrbEn ] 0
|  9>     print[ P_Cartesian ] 0
| 10> end
| 11> *xyz 0 1
| 12>  C        0.7737030000     0.0153740000    -0.0116450000
| 13>  C        2.0986590000    -0.0379550000    -0.0079840000
| 14>  C        2.9084970000     1.2273980000    -0.0086070000
| 15>  O        4.3358430000     1.1235240000    -0.0035250000
| 16>  N        4.9810690000    -0.0749310000     0.0013480000
| 17>  C        4.3213850000    -1.1581090000     0.0014250000
| 18>  C        2.8464080000    -1.3345840000    -0.0032390000
| 19>  H        0.2409960000     0.9606430000    -0.0150680000
| 20>  H        0.1727610000    -0.8873980000    -0.0113610000
| 21>  H        2.6537050000     1.8247270000     0.8724280000
| 22>  H        2.6596210000     1.8201020000    -0.8944540000
| 23>  H        4.9509800000    -2.0433910000     0.0055010000
| 24>  H        2.5602920000    -1.9336270000     0.8692490000
| 25>  H        2.5661710000    -1.9366620000    -0.8755580000
| 26> *
| 27>
| 28>                          ****END OF INPUT****
 Total Charge           Charge          ....    0
 Multiplicity           Mult            ....    1
 Number of Electrons    NEL             ....   52
 Basis Dimension        Dim             ....  133

MULLIKEN ATOMIC CHARGES
-----------------------
   0 C :   -0.031169
   1 C :   -0.255093
   2 C :    0.259575
   3 O :   -0.276462
   4 N :    0.040696
   5 C :   -0.136684
   6 C :    0.138302
   7 H :    0.017858
   8 H :    0.016098
   9 H :    0.047154
  10 H :    0.047040
  11 H :    0.019833
  12 H :    0.056388
  13 H :    0.056464
Sum of atomic charges:   -0.0000000

LOEWDIN ATOMIC CHARGES
----------------------
   0 C :   -0.063469
   1 C :   -0.048909
   2 C :    0.057252
   3 O :   -0.086599
   4 N :    0.002527
   5 C :   -0.072663
   6 C :   -0.056294
   7 H :    0.025027
   8 H :    0.025357
   9 H :    0.038091
  10 H :    0.038063
  11 H :    0.029653
  12 H :    0.055973
  13 H :    0.055991

  Mayer bond orders larger than 0.1
B(  0-C ,  1-C ) :   2.0104 B(  0-C ,  7-H ) :   0.9412 B(  0-C ,  8-H ) :   0.9367
B(  1-C ,  2-C ) :   1.0188 B(  1-C ,  6-C ) :   1.0364 B(  2-C ,  3-O ) :   0.9381
B(  2-C ,  9-H ) :   0.9308 B(  2-C , 10-H ) :   0.9308 B(  3-O ,  4-N ) :   0.9887
B(  3-O ,  5-C ) :   0.1403 B(  4-N ,  5-C ) :   1.9452 B(  5-C ,  6-C ) :   0.9859
B(  5-C , 11-H ) :   0.9535 B(  6-C , 12-H ) :   0.9009 B(  6-C , 13-H ) :   0.9009

FINAL SINGLE POINT ENERGY      -323.983670187175

DIPOLE MOMENT
-------------
                                X             Y             Z
Electronic contribution:      5.01827       1.50946       0.01293
Nuclear contribution   :     -6.14903      -1.99237      -0.01587
                        -----------------------------------------
Total Dipole Moment    :     -1.13076      -0.48292      -0.00293
                        -----------------------------------------
Magnitude (a.u.)       :      1.22957
Magnitude (Debye)      :      3.12531

                             ****ORCA TERMINATED NORMALLY****
TOTAL RUN TIME: 0 days 0 hours 0 minutes 6 seconds 495 msec
