                         Program Version 3.0.3 - RELEASE   -
|  1> ! RI PBE def2-SVP def2-SVP/J NBO PAL2
|  2> % maxcore 2000
|  3> % output
|  4>     # printlevel mini
|  5>     print[ P_Basis ] 0
|  6>     print[ P_SCFInfo ] 1
|  7>     print[ P_SCFIterInfo ] 1
|  8>     print[ P_OrbEn ] 0
|  9>     print[ P_Cartesian ] 0
| 10> end
| 11> *xyz 0 1
| 12>  C        0.9213160000     0.0605960000     0.3889050000
| 13>  C        2.3647340000    -0.0121690000    -0.0711970000
| 14>  C        2.7427480000     1.1690300000    -0.9394370000
| 15>  O        4.1120110000     1.1514920000    -1.3106250000
| 16>  N        4.5850110000    -0.0172520000    -1.8572680000
| 17>  C        3.9106320000    -1.0817860000    -1.6891170000
| 18>  C        2.6601580000    -1.2579120000    -0.8904330000
| 19>  H        0.7424340000     0.9456460000     1.0045490000
| 20>  H        0.6529940000    -0.8179170000     0.9809460000
| 21>  H        0.2409090000     0.1036730000    -0.4672190000
| 22>  H        3.0258760000    -0.0006560000     0.8027120000
| 23>  H        2.6076700000     2.1209660000    -0.4223790000
| 24>  H        2.1248150000     1.1752990000    -1.8499300000
| 25>  H        4.3590300000    -1.9502490000    -2.1652920000
| 26>  H        2.7719180000    -2.1402990000    -0.2518620000
| 27>  H        1.8240540000    -1.4807720000    -1.5664440000
| 28> *
| 29>
| 30>                          ****END OF INPUT****
 Total Charge           Charge          ....    0
 Multiplicity           Mult            ....    1
 Number of Electrons    NEL             ....   54
 Basis Dimension        Dim             ....  143

MULLIKEN ATOMIC CHARGES
-----------------------
   0 C :    0.021418
   1 C :   -0.193776
   2 C :    0.205350
   3 O :   -0.262551
   4 N :    0.035880
   5 C :   -0.111736
   6 C :    0.088801
   7 H :    0.027034
   8 H :    0.027738
   9 H :    0.019749
  10 H :    0.028082
  11 H :    0.021580
  12 H :    0.011047
  13 H :    0.020432
  14 H :    0.032922
  15 H :    0.028029
Sum of atomic charges:    0.0000000

LOEWDIN ATOMIC CHARGES
----------------------
   0 C :   -0.057454
   1 C :   -0.063402
   2 C :    0.053459
   3 O :   -0.084262
   4 N :   -0.001171
   5 C :   -0.062252
   6 C :   -0.055220
   7 H :    0.030089
   8 H :    0.030988
   9 H :    0.026921
  10 H :    0.033107
  11 H :    0.026871
  12 H :    0.013786
  13 H :    0.028364
  14 H :    0.041547
  15 H :    0.038629

  Mayer bond orders larger than 0.1
B(  0-C ,  1-C ) :   1.0899 B(  0-C ,  7-H ) :   0.9604 B(  0-C ,  8-H ) :   0.9581
B(  0-C ,  9-H ) :   0.9536 B(  1-C ,  2-C ) :   1.0452 B(  1-C ,  6-C ) :   1.0439
B(  1-C , 10-H ) :   0.9068 B(  2-C ,  3-O ) :   0.9771 B(  2-C , 11-H ) :   0.9411
B(  2-C , 12-H ) :   0.9309 B(  3-O ,  4-N ) :   0.9759 B(  3-O ,  5-C ) :   0.1185
B(  4-N ,  5-C ) :   1.9449 B(  5-C ,  6-C ) :   0.9989 B(  5-C , 13-H ) :   0.9555
B(  6-C , 14-H ) :   0.9152 B(  6-C , 15-H ) :   0.9092

FINAL SINGLE POINT ENERGY      -325.215600463294

DIPOLE MOMENT
-------------
                                X             Y             Z
Electronic contribution:      7.15296       1.62098      -3.41073
Nuclear contribution   :     -8.29878      -2.12649       3.91166
                        -----------------------------------------
Total Dipole Moment    :     -1.14583      -0.50551       0.50094
                        -----------------------------------------
Magnitude (a.u.)       :      1.34885
Magnitude (Debye)      :      3.42850

                             ****ORCA TERMINATED NORMALLY****
TOTAL RUN TIME: 0 days 0 hours 0 minutes 7 seconds 581 msec
