                         Program Version 3.0.3 - RELEASE   -
|  1> ! RI PBE def2-SVP def2-SVP/J NBO PAL2
|  2> % maxcore 2000
|  3> % output
|  4>     # printlevel mini
|  5>     print[ P_Basis ] 0
|  6>     print[ P_SCFInfo ] 1
|  7>     print[ P_SCFIterInfo ] 1
|  8>     print[ P_OrbEn ] 0
|  9>     print[ P_Cartesian ] 0
| 10> end
| 11> *xyz 0 1
| 12>  C        0.8579330000    -0.0753890000     0.0881180000
| 13>  C        2.1899910000    -0.0854340000     0.0864120000
| 14>  C        2.9886970000     1.1911830000     0.0677610000
| 15>  O        4.4110860000     1.0789170000     0.0677830000
| 16>  N        5.0443280000    -0.1445720000     0.0836990000
| 17>  C        4.3170740000    -1.1870160000     0.0987700000
| 18>  N        2.9491930000    -1.2286010000     0.1009940000
| 19>  H        0.3183230000     0.8615500000     0.0760320000
| 20>  H        0.2791260000    -0.9911640000     0.1014480000
| 21>  H        2.7181210000     1.7866540000     0.9452010000
| 22>  H        2.7161630000     1.7620220000    -0.8253120000
| 23>  H        4.8374600000    -2.1365150000     0.1110910000
| 24>  H        2.4881150000    -2.1210460000     0.1138120000
| 25> *
| 26>
| 27>                          ****END OF INPUT****
 Total Charge           Charge          ....    0
 Multiplicity           Mult            ....    1
 Number of Electrons    NEL             ....   52
 Basis Dimension        Dim             ....  128

MULLIKEN ATOMIC CHARGES
-----------------------
   0 C :   -0.065372
   1 C :   -0.104899
   2 C :    0.247420
   3 O :   -0.288251
   4 N :   -0.006313
   5 C :    0.022478
   6 N :   -0.054379
   7 H :    0.014685
   8 H :    0.005681
   9 H :    0.044971
  10 H :    0.044556
  11 H :    0.023147
  12 H :    0.116277
Sum of atomic charges:   -0.0000000

LOEWDIN ATOMIC CHARGES
----------------------
   0 C :   -0.133428
   1 C :   -0.013381
   2 C :    0.059480
   3 O :   -0.096313
   4 N :   -0.044260
   5 C :   -0.046422
   6 N :    0.037796
   7 H :    0.029628
   8 H :    0.021749
   9 H :    0.034154
  10 H :    0.034073
  11 H :    0.029557
  12 H :    0.087366

  Mayer bond orders larger than 0.1
B(  0-C ,  1-C ) :   1.8887 B(  0-C ,  7-H ) :   0.9321 B(  0-C ,  8-H ) :   0.9328
B(  1-C ,  2-C ) :   0.9889 B(  1-C ,  6-N ) :   1.1620 B(  2-C ,  3-O ) :   0.9617
B(  2-C ,  9-H ) :   0.9313 B(  2-C , 10-H ) :   0.9312 B(  3-O ,  4-N ) :   0.9577
B(  3-O ,  5-C ) :   0.1028 B(  4-N ,  5-C ) :   1.8502 B(  5-C ,  6-N ) :   1.0918
B(  5-C , 11-H ) :   0.9532 B(  6-N , 12-H ) :   0.9218

FINAL SINGLE POINT ENERGY      -340.021602621170

DIPOLE MOMENT
-------------
                                X             Y             Z
Electronic contribution:      4.69485      -0.31250      -0.00104
Nuclear contribution   :     -5.82511      -0.50740       0.01391
                        -----------------------------------------
Total Dipole Moment    :     -1.13026      -0.81990       0.01287
                        -----------------------------------------
Magnitude (a.u.)       :      1.39638
Magnitude (Debye)      :      3.54932

                             ****ORCA TERMINATED NORMALLY****
TOTAL RUN TIME: 0 days 0 hours 0 minutes 6 seconds 597 msec
