                         Program Version 3.0.3 - RELEASE   -
|  1> ! RI PBE def2-SVP def2-SVP/J NBO PAL2
|  2> % maxcore 2000
|  3> % output
|  4>     # printlevel mini
|  5>     print[ P_Basis ] 0
|  6>     print[ P_SCFInfo ] 1
|  7>     print[ P_SCFIterInfo ] 1
|  8>     print[ P_OrbEn ] 0
|  9>     print[ P_Cartesian ] 0
| 10> end
| 11> *xyz 0 1
| 12>  C        0.9010490000    -0.0986530000     0.3037310000
| 13>  C        2.3893810000    -0.0988210000     0.0276280000
| 14>  C        2.8299010000     1.0918450000    -0.8081220000
| 15>  O        4.1818300000     0.9799980000    -1.1812590000
| 16>  N        4.4533630000    -0.1513470000    -1.9652830000
| 17>  C        3.7250910000    -1.1671050000    -1.6936180000
| 18>  N        2.7835170000    -1.2753750000    -0.7181040000
| 19>  H        0.6197620000     0.7731570000     0.8978820000
| 20>  H        0.6096730000    -0.9889610000     0.8677290000
| 21>  H        0.3309610000    -0.0785050000    -0.6290820000
| 22>  H        2.9358660000    -0.0681720000     0.9782390000
| 23>  H        2.7487330000     2.0220390000    -0.2434940000
| 24>  H        2.1977190000     1.1596850000    -1.7055250000
| 25>  H        3.9108910000    -2.0512660000    -2.2945210000
| 26>  H        2.1503730000    -2.0542210000    -0.7613230000
| 27> *
| 28>
| 29>                          ****END OF INPUT****
 Total Charge           Charge          ....    0
 Multiplicity           Mult            ....    1
 Number of Electrons    NEL             ....   54
 Basis Dimension        Dim             ....  138

MULLIKEN ATOMIC CHARGES
-----------------------
   0 C :   -0.016340
   1 C :    0.002402
   2 C :    0.174181
   3 O :   -0.279104
   4 N :   -0.035301
   5 C :    0.018181
   6 N :   -0.150350
   7 H :    0.036557
   8 H :    0.031926
   9 H :    0.027969
  10 H :    0.023987
  11 H :    0.022847
  12 H :    0.010264
  13 H :    0.019732
  14 H :    0.113047
Sum of atomic charges:   -0.0000000

LOEWDIN ATOMIC CHARGES
----------------------
   0 C :   -0.064886
   1 C :   -0.005145
   2 C :    0.041767
   3 O :   -0.103785
   4 N :   -0.075948
   5 C :   -0.039433
   6 N :   -0.012007
   7 H :    0.037740
   8 H :    0.030256
   9 H :    0.028382
  10 H :    0.024295
  11 H :    0.028363
  12 H :    0.010964
  13 H :    0.027069
  14 H :    0.072366

  Mayer bond orders larger than 0.1
B(  0-C ,  1-C ) :   1.0889 B(  0-C ,  7-H ) :   0.9590 B(  0-C ,  8-H ) :   0.9538
B(  0-C ,  9-H ) :   0.9527 B(  1-C ,  2-C ) :   1.0346 B(  1-C ,  6-N ) :   1.0023
B(  1-C , 10-H ) :   0.9053 B(  2-C ,  3-O ) :   1.0189 B(  2-C , 11-H ) :   0.9412
B(  2-C , 12-H ) :   0.9178 B(  3-O ,  4-N ) :   0.9211 B(  4-N ,  5-C ) :   1.8266
B(  4-N ,  6-N ) :   0.1379 B(  5-C ,  6-N ) :   1.1745 B(  5-C , 13-H ) :   0.9525
B(  6-N , 14-H ) :   0.9319

FINAL SINGLE POINT ENERGY      -341.241366292560

DIPOLE MOMENT
-------------
                                X             Y             Z
Electronic contribution:      6.50275      -0.14580      -3.00958
Nuclear contribution   :     -8.08116      -0.53232       3.68525
                        -----------------------------------------
Total Dipole Moment    :     -1.57841      -0.67812       0.67567
                        -----------------------------------------
Magnitude (a.u.)       :      1.84601
Magnitude (Debye)      :      4.69217

                             ****ORCA TERMINATED NORMALLY****
TOTAL RUN TIME: 0 days 0 hours 0 minutes 7 seconds 159 msec
