                         Program Version 3.0.3 - RELEASE   -
|  1> ! RI PBE def2-SVP def2-SVP/J NBO PAL2
|  2> % maxcore 2000
|  3> % output
|  4>     # printlevel mini
|  5>     print[ P_Basis ] 0
|  6>     print[ P_SCFInfo ] 1
|  7>     print[ P_SCFIterInfo ] 1
|  8>     print[ P_OrbEn ] 0
|  9>     print[ P_Cartesian ] 0
| 10> end
| 11> *xyz 0 1
| 12>  C        0.9530740000    -0.1711180000    -0.0578360000
| 13>  C        2.2752840000    -0.1246950000    -0.0607450000
| 14>  C        3.0575070000     1.1580830000    -0.0841740000
| 15>  O        4.4773020000     1.0432270000    -0.0836260000
| 16>  N        5.0635900000    -0.1933450000    -0.0633140000
| 17>  C        4.3265380000    -1.2181980000    -0.0449010000
| 18>  O        2.9778560000    -1.2932270000    -0.0417990000
| 19>  H        0.3783750000     0.7449660000    -0.0726650000
| 20>  H        0.4289970000    -1.1171630000    -0.0407520000
| 21>  H        2.7870610000     1.7556020000     0.7914140000
| 22>  H        2.7851520000     1.7244640000    -0.9796510000
| 23>  H        4.7986750000    -2.1908050000    -0.0289410000
| 24> *
| 25>
| 26>                          ****END OF INPUT****
 Total Charge           Charge          ....    0
 Multiplicity           Mult            ....    1
 Number of Electrons    NEL             ....   52
 Basis Dimension        Dim             ....  123

MULLIKEN ATOMIC CHARGES
-----------------------
   0 C :   -0.057329
   1 C :   -0.031172
   2 C :    0.237292
   3 O :   -0.278895
   4 N :    0.009716
   5 C :    0.098100
   6 O :   -0.186032
   7 H :    0.024570
   8 H :    0.038110
   9 H :    0.055020
  10 H :    0.054513
  11 H :    0.036108
Sum of atomic charges:   -0.0000000

LOEWDIN ATOMIC CHARGES
----------------------
   0 C :   -0.097355
   1 C :    0.011856
   2 C :    0.047709
   3 O :   -0.083704
   4 N :   -0.032543
   5 C :   -0.015686
   6 O :   -0.010763
   7 H :    0.034899
   8 H :    0.036766
   9 H :    0.038917
  10 H :    0.038809
  11 H :    0.031093

  Mayer bond orders larger than 0.1
B(  0-C ,  1-C ) :   1.9530 B(  0-C ,  7-H ) :   0.9350 B(  0-C ,  8-H ) :   0.9293
B(  1-C ,  2-C ) :   0.9878 B(  1-C ,  6-O ) :   1.0841 B(  2-C ,  3-O ) :   0.9476
B(  2-C ,  9-H ) :   0.9311 B(  2-C , 10-H ) :   0.9310 B(  3-O ,  4-N ) :   0.9672
B(  3-O ,  5-C ) :   0.1078 B(  4-N ,  5-C ) :   1.8771 B(  5-C ,  6-O ) :   1.0754
B(  5-C , 11-H ) :   0.9612

FINAL SINGLE POINT ENERGY      -359.847435042658

DIPOLE MOMENT
-------------
                                X             Y             Z
Electronic contribution:      4.12357      -1.34371       0.01805
Nuclear contribution   :     -5.06292       1.33534      -0.01659
                        -----------------------------------------
Total Dipole Moment    :     -0.93934      -0.00837       0.00146
                        -----------------------------------------
Magnitude (a.u.)       :      0.93938
Magnitude (Debye)      :      2.38771

                             ****ORCA TERMINATED NORMALLY****
TOTAL RUN TIME: 0 days 0 hours 0 minutes 5 seconds 817 msec
