                         Program Version 3.0.3 - RELEASE   -
|  1> ! RI PBE def2-SVP def2-SVP/J NBO PAL2
|  2> % maxcore 2000
|  3> % output
|  4>     # printlevel mini
|  5>     print[ P_Basis ] 0
|  6>     print[ P_SCFInfo ] 1
|  7>     print[ P_SCFIterInfo ] 1
|  8>     print[ P_OrbEn ] 0
|  9>     print[ P_Cartesian ] 0
| 10> end
| 11> *xyz 0 1
| 12>  C        0.9014810000    -0.1021480000     0.2409730000
| 13>  C        2.3652170000    -0.1318620000    -0.1098330000
| 14>  C        2.8526770000     1.1079520000    -0.8214460000
| 15>  O        4.2138600000     0.9769850000    -1.1646820000
| 16>  N        4.4956970000    -0.1792120000    -1.8804210000
| 17>  C        3.6817310000    -1.1457260000    -1.7486450000
| 18>  O        2.5853530000    -1.2448980000    -0.9842510000
| 19>  H        0.7025570000     0.6894290000     0.9664360000
| 20>  H        0.5977950000    -1.0538550000     0.6794390000
| 21>  H        0.2935420000     0.0767920000    -0.6485410000
| 22>  H        2.9766420000    -0.2883980000     0.7862560000
| 23>  H        2.7835350000     1.9878950000    -0.1801000000
| 24>  H        2.2503730000     1.2727220000    -1.7257630000
| 25>  H        3.8826370000    -2.0421750000    -2.3234230000
| 26> *
| 27>
| 28>                          ****END OF INPUT****
 Total Charge           Charge          ....    0
 Multiplicity           Mult            ....    1
 Number of Electrons    NEL             ....   54
 Basis Dimension        Dim             ....  133

MULLIKEN ATOMIC CHARGES
-----------------------
   0 C :    0.008574
   1 C :    0.032167
   2 C :    0.170491
   3 O :   -0.268745
   4 N :   -0.006254
   5 C :    0.083592
   6 O :   -0.251904
   7 H :    0.033615
   8 H :    0.041586
   9 H :    0.033063
  10 H :    0.033386
  11 H :    0.031943
  12 H :    0.025513
  13 H :    0.032973
Sum of atomic charges:    0.0000000

LOEWDIN ATOMIC CHARGES
----------------------
   0 C :   -0.064196
   1 C :    0.039418
   2 C :    0.035327
   3 O :   -0.089675
   4 N :   -0.054009
   5 C :   -0.016708
   6 O :   -0.067196
   7 H :    0.038034
   8 H :    0.038691
   9 H :    0.033616
  10 H :    0.025701
  11 H :    0.033858
  12 H :    0.018501
  13 H :    0.028638

  Mayer bond orders larger than 0.1
B(  0-C ,  1-C ) :   1.0931 B(  0-C ,  7-H ) :   0.9552 B(  0-C ,  8-H ) :   0.9503
B(  0-C ,  9-H ) :   0.9540 B(  1-C ,  2-C ) :   1.0391 B(  1-C ,  6-O ) :   0.9420
B(  1-C , 10-H ) :   0.9183 B(  2-C ,  3-O ) :   1.0007 B(  2-C , 11-H ) :   0.9362
B(  2-C , 12-H ) :   0.9250 B(  3-O ,  4-N ) :   0.9439 B(  4-N ,  5-C ) :   1.8675
B(  4-N ,  6-O ) :   0.1076 B(  5-C ,  6-O ) :   1.1438 B(  5-C , 13-H ) :   0.9579

FINAL SINGLE POINT ENERGY      -361.076932958586

DIPOLE MOMENT
-------------
                                X             Y             Z
Electronic contribution:      5.87739      -1.22249      -3.07642
Nuclear contribution   :     -7.01225       1.21246       3.70242
                        -----------------------------------------
Total Dipole Moment    :     -1.13486      -0.01003       0.62600
                        -----------------------------------------
Magnitude (a.u.)       :      1.29610
Magnitude (Debye)      :      3.29443

                             ****ORCA TERMINATED NORMALLY****
TOTAL RUN TIME: 0 days 0 hours 0 minutes 6 seconds 520 msec
