                         Program Version 3.0.3 - RELEASE   -
|  1> ! RI PBE def2-SVP def2-SVP/J NBO PAL2
|  2> % maxcore 2000
|  3> % output
|  4>     # printlevel mini
|  5>     print[ P_Basis ] 0
|  6>     print[ P_SCFInfo ] 1
|  7>     print[ P_SCFIterInfo ] 1
|  8>     print[ P_OrbEn ] 0
|  9>     print[ P_Cartesian ] 0
| 10> end
| 11> *xyz 0 1
| 12>  C        1.0458670000    -0.1580420000    -0.0186130000
| 13>  C        2.5423750000    -0.0810620000    -0.0528400000
| 14>  N        3.2776570000    -0.4904160000    -1.2447860000
| 15>  C        3.2265240000     0.9275090000    -0.8863970000
| 16>  C        4.5206660000     1.5288950000    -0.4808830000
| 17>  C        5.1163140000     2.6410390000    -1.2132770000
| 18>  O        4.4667520000     2.8526680000     0.0300850000
| 19>  H        0.7091540000    -1.1874520000     0.1323700000
| 20>  H        0.6141010000     0.2067450000    -0.9550690000
| 21>  H        0.6420700000     0.4488650000     0.7956110000
| 22>  H        3.0391530000    -0.3801770000     0.8677390000
| 23>  H        2.6355150000    -0.6836370000    -2.0064190000
| 24>  H        2.5857920000     1.5844460000    -1.4712370000
| 25>  H        5.1838840000     0.8551180000     0.0598430000
| 26>  H        4.5988290000     3.0439730000    -2.0813350000
| 27>  H        6.1949460000     2.7767170000    -1.2055810000
| 28> *
| 29>
| 30>                          ****END OF INPUT****
 Total Charge           Charge          ....    0
 Multiplicity           Mult            ....    1
 Number of Electrons    NEL             ....   54
 Basis Dimension        Dim             ....  143

MULLIKEN ATOMIC CHARGES
-----------------------
   0 C :    0.075441
   1 C :   -0.077571
   2 N :   -0.164416
   3 C :   -0.027131
   4 C :    0.095173
   5 C :    0.155312
   6 O :   -0.289997
   7 H :    0.030373
   8 H :    0.001076
   9 H :    0.036925
  10 H :    0.017195
  11 H :    0.101422
  12 H :   -0.006748
  13 H :    0.004419
  14 H :    0.017384
  15 H :    0.031146
Sum of atomic charges:   -0.0000000

LOEWDIN ATOMIC CHARGES
----------------------
   0 C :   -0.064460
   1 C :   -0.002703
   2 N :   -0.096757
   3 C :   -0.014999
   4 C :    0.041711
   5 C :    0.056312
   6 O :   -0.155906
   7 H :    0.032121
   8 H :    0.025684
   9 H :    0.038154
  10 H :    0.021777
  11 H :    0.052721
  12 H :    0.017349
  13 H :    0.019731
  14 H :    0.012322
  15 H :    0.016942

  Mayer bond orders larger than 0.1
B(  0-C ,  1-C ) :   1.0968 B(  0-C ,  7-H ) :   0.9549 B(  0-C ,  8-H ) :   0.9404
B(  0-C ,  9-H ) :   0.9532 B(  1-C ,  2-N ) :   0.9935 B(  1-C ,  3-C ) :   0.9853
B(  1-C , 10-H ) :   0.9207 B(  2-N ,  3-C ) :   0.9575 B(  2-N , 11-H ) :   0.9397
B(  3-C ,  4-C ) :   1.0329 B(  3-C , 12-H ) :   0.9251 B(  4-C ,  5-C ) :   1.0771
B(  4-C ,  6-O ) :   0.9735 B(  4-C , 13-H ) :   0.9214 B(  5-C ,  6-O ) :   1.0040
B(  5-C , 14-H ) :   0.9295 B(  5-C , 15-H ) :   0.9337

FINAL SINGLE POINT ENERGY      -325.196923802605

DIPOLE MOMENT
-------------
                                X             Y             Z
Electronic contribution:      4.00025       2.36317       0.36976
Nuclear contribution   :     -4.47989      -2.57388      -0.83612
                        -----------------------------------------
Total Dipole Moment    :     -0.47964      -0.21071      -0.46636
                        -----------------------------------------
Magnitude (a.u.)       :      0.70138
Magnitude (Debye)      :      1.78277

                             ****ORCA TERMINATED NORMALLY****
TOTAL RUN TIME: 0 days 0 hours 0 minutes 7 seconds 56 msec
