                         Program Version 3.0.3 - RELEASE   -
|  1> ! RI PBE def2-SVP def2-SVP/J NBO PAL2
|  2> % maxcore 2000
|  3> % output
|  4>     # printlevel mini
|  5>     print[ P_Basis ] 0
|  6>     print[ P_SCFInfo ] 1
|  7>     print[ P_SCFIterInfo ] 1
|  8>     print[ P_OrbEn ] 0
|  9>     print[ P_Cartesian ] 0
| 10> end
| 11> *xyz 0 1
| 12>  C        0.8297370000    -0.0964800000    -0.4805770000
| 13>  C        2.2686990000    -0.2085460000    -0.0779430000
| 14>  N        3.1488040000    -1.1337910000    -0.7909030000
| 15>  C        3.3498620000     0.3211720000    -0.9290000000
| 16>  C        4.6428030000     0.8616540000    -0.3793670000
| 17>  C        5.8569980000     0.2507720000    -1.0634840000
| 18>  O        6.0140210000    -1.1089660000    -0.7415810000
| 19>  H        0.2513550000    -0.9488770000    -0.1138340000
| 20>  H        0.7286940000    -0.0603160000    -1.5690790000
| 21>  H        0.3801250000     0.8120330000    -0.0719650000
| 22>  H        2.4477310000    -0.2054160000     0.9948050000
| 23>  H        2.6737940000    -1.5041150000    -1.6075690000
| 24>  H        3.0358340000     0.7515240000    -1.8782270000
| 25>  H        4.7095920000     0.6491020000     0.6924490000
| 26>  H        4.6554300000     1.9502820000    -0.4972550000
| 27>  H        6.7665180000     0.7676520000    -0.7429240000
| 28>  H        5.7746570000     0.3919390000    -2.1539010000
| 29>  H        5.1215460000    -1.4851520000    -0.6870350000
| 30> *
| 31>
| 32>                          ****END OF INPUT****
 Total Charge           Charge          ....    0
 Multiplicity           Mult            ....    1
 Number of Electrons    NEL             ....   56
 Basis Dimension        Dim             ....  153

MULLIKEN ATOMIC CHARGES
-----------------------
   0 C :    0.064629
   1 C :   -0.093532
   2 N :   -0.191197
   3 C :   -0.097083
   4 C :    0.031330
   5 C :    0.190244
   6 O :   -0.295481
   7 H :    0.037476
   8 H :    0.007857
   9 H :    0.035317
  10 H :    0.031036
  11 H :    0.111828
  12 H :    0.016107
  13 H :    0.009850
  14 H :    0.018737
  15 H :    0.001054
  16 H :   -0.020069
  17 H :    0.141896
Sum of atomic charges:   -0.0000000

LOEWDIN ATOMIC CHARGES
----------------------
   0 C :   -0.066307
   1 C :   -0.003130
   2 N :   -0.093196
   3 C :   -0.001756
   4 C :   -0.066474
   5 C :    0.058925
   6 O :   -0.136386
   7 H :    0.034548
   8 H :    0.027527
   9 H :    0.038150
  10 H :    0.025194
  11 H :    0.055884
  12 H :    0.015775
  13 H :    0.030560
  14 H :    0.034551
  15 H :    0.014115
  16 H :   -0.002924
  17 H :    0.034944

  Mayer bond orders larger than 0.1
B(  0-C ,  1-C ) :   1.0996 B(  0-C ,  7-H ) :   0.9534 B(  0-C ,  8-H ) :   0.9411
B(  0-C ,  9-H ) :   0.9528 B(  1-C ,  2-N ) :   0.9810 B(  1-C ,  3-C ) :   0.9977
B(  1-C , 10-H ) :   0.9252 B(  2-N ,  3-C ) :   0.9517 B(  2-N , 11-H ) :   0.9365
B(  2-N , 17-H ) :   0.1204 B(  3-C ,  4-C ) :   1.0610 B(  3-C , 12-H ) :   0.9377
B(  4-C ,  5-C ) :   1.0751 B(  4-C , 13-H ) :   0.9092 B(  4-C , 14-H ) :   0.9150
B(  5-C ,  6-O ) :   1.0969 B(  5-C , 15-H ) :   0.9370 B(  5-C , 16-H ) :   0.9237
B(  6-O , 17-H ) :   0.9511

FINAL SINGLE POINT ENERGY      -326.432662155893

DIPOLE MOMENT
-------------
                                X             Y             Z
Electronic contribution:      3.22475      -2.34091       0.18592
Nuclear contribution   :     -4.52846       2.96309      -0.44770
                        -----------------------------------------
Total Dipole Moment    :     -1.30371       0.62218      -0.26178
                        -----------------------------------------
Magnitude (a.u.)       :      1.46809
Magnitude (Debye)      :      3.73159

                             ****ORCA TERMINATED NORMALLY****
TOTAL RUN TIME: 0 days 0 hours 0 minutes 7 seconds 906 msec
