                         Program Version 3.0.3 - RELEASE   -
|  1> ! RI PBE def2-SVP def2-SVP/J NBO PAL2
|  2> % maxcore 2000
|  3> % output
|  4>     # printlevel mini
|  5>     print[ P_Basis ] 0
|  6>     print[ P_SCFInfo ] 1
|  7>     print[ P_SCFIterInfo ] 1
|  8>     print[ P_OrbEn ] 0
|  9>     print[ P_Cartesian ] 0
| 10> end
| 11> *xyz 0 1
| 12>  C        0.9997490000    -0.2349450000     0.0017900000
| 13>  C        2.4726440000    -0.4600050000    -0.1625700000
| 14>  N        3.0099250000    -1.0633300000    -1.3903790000
| 15>  C        3.3378990000     0.3295270000    -1.0649760000
| 16>  C        2.8061250000     1.4498730000    -1.9107520000
| 17>  C        4.8036450000     0.4860500000    -0.7022030000
| 18>  O        5.3365690000    -0.6715290000    -0.1232010000
| 19>  H        0.5013660000    -1.1696240000     0.2730550000
| 20>  H        0.5280610000     0.1392530000    -0.9087130000
| 21>  H        0.8054940000     0.4851340000     0.8011440000
| 22>  H        2.9611580000    -0.8540320000     0.7254950000
| 23>  H        2.2935670000    -1.1046760000    -2.1083400000
| 24>  H        1.7488370000     1.3310700000    -2.1485410000
| 25>  H        3.3580860000     1.5093290000    -2.8534060000
| 26>  H        2.9260950000     2.4088530000    -1.3980950000
| 27>  H        4.9260730000     1.3068250000     0.0121140000
| 28>  H        5.3551830000     0.7599160000    -1.6164230000
| 29>  H        4.9273320000    -1.4048990000    -0.6074980000
| 30> *
| 31>
| 32>                          ****END OF INPUT****
 Total Charge           Charge          ....    0
 Multiplicity           Mult            ....    1
 Number of Electrons    NEL             ....   56
 Basis Dimension        Dim             ....  153

MULLIKEN ATOMIC CHARGES
-----------------------
   0 C :    0.084158
   1 C :   -0.065457
   2 N :   -0.175919
   3 C :   -0.335137
   4 C :    0.105993
   5 C :    0.299196
   6 O :   -0.281260
   7 H :    0.031600
   8 H :   -0.002178
   9 H :    0.033899
  10 H :    0.015239
  11 H :    0.099910
  12 H :   -0.003278
  13 H :    0.026687
  14 H :    0.028579
  15 H :    0.006606
  16 H :   -0.016856
  17 H :    0.148219
Sum of atomic charges:    0.0000000

LOEWDIN ATOMIC CHARGES
----------------------
   0 C :   -0.066398
   1 C :   -0.001316
   2 N :   -0.096255
   3 C :   -0.052643
   4 C :   -0.057594
   5 C :    0.058939
   6 O :   -0.119059
   7 H :    0.034699
   8 H :    0.022412
   9 H :    0.037805
  10 H :    0.019714
  11 H :    0.050792
  12 H :    0.024201
  13 H :    0.032532
  14 H :    0.036681
  15 H :    0.019542
  16 H :    0.002814
  17 H :    0.053133

  Mayer bond orders larger than 0.1
B(  0-C ,  1-C ) :   1.1176 B(  0-C ,  7-H ) :   0.9493 B(  0-C ,  8-H ) :   0.9364
B(  0-C ,  9-H ) :   0.9518 B(  1-C ,  2-N ) :   0.9504 B(  1-C ,  3-C ) :   0.9665
B(  1-C , 10-H ) :   0.9102 B(  2-N ,  3-C ) :   1.0041 B(  2-N , 11-H ) :   0.9442
B(  3-C ,  4-C ) :   1.1008 B(  3-C ,  5-C ) :   0.9831 B(  4-C , 12-H ) :   0.9323
B(  4-C , 13-H ) :   0.9437 B(  4-C , 14-H ) :   0.9491 B(  5-C ,  6-O ) :   1.1045
B(  5-C , 15-H ) :   0.9355 B(  5-C , 16-H ) :   0.9150 B(  6-O , 17-H ) :   0.9461

FINAL SINGLE POINT ENERGY      -326.436209165231

DIPOLE MOMENT
-------------
                                X             Y             Z
Electronic contribution:      4.29883      -3.07994       0.86036
Nuclear contribution   :     -5.31783       3.52218      -1.31237
                        -----------------------------------------
Total Dipole Moment    :     -1.01900       0.44224      -0.45201
                        -----------------------------------------
Magnitude (a.u.)       :      1.19927
Magnitude (Debye)      :      3.04831

                             ****ORCA TERMINATED NORMALLY****
TOTAL RUN TIME: 0 days 0 hours 0 minutes 8 seconds 72 msec
