                         Program Version 3.0.3 - RELEASE   -
|  1> ! RI PBE def2-SVP def2-SVP/J NBO PAL2
|  2> % maxcore 2000
|  3> % output
|  4>     # printlevel mini
|  5>     print[ P_Basis ] 0
|  6>     print[ P_SCFInfo ] 1
|  7>     print[ P_SCFIterInfo ] 1
|  8>     print[ P_OrbEn ] 0
|  9>     print[ P_Cartesian ] 0
| 10> end
| 11> *xyz 0 1
| 12>  C        1.0156070000     0.0801590000    -0.3020360000
| 13>  C        2.4583640000     0.1020380000     0.1008120000
| 14>  N        3.3247420000    -1.0238420000    -0.1617650000
| 15>  C        3.5318000000     0.2181790000    -0.9227630000
| 16>  C        4.7696790000     0.9946340000    -0.6014640000
| 17>  C        5.4140610000     1.7129320000    -1.7554260000
| 18>  O        5.2024800000     1.0542960000     0.5218090000
| 19>  H        0.4254090000    -0.5019100000     0.4110620000
| 20>  H        0.8881070000    -0.3671120000    -1.2921320000
| 21>  H        0.6001900000     1.0904170000    -0.3307850000
| 22>  H        2.6854520000     0.5788700000     1.0510620000
| 23>  H        2.8491380000    -1.6946970000    -0.7592240000
| 24>  H        3.2150450000     0.2287340000    -1.9623490000
| 25>  H        4.6892130000     2.3687390000    -2.2472160000
| 26>  H        5.7445340000     0.9875750000    -2.5054890000
| 27>  H        6.2645600000     2.2955880000    -1.4069840000
| 28> *
| 29>
| 30>                          ****END OF INPUT****
 Total Charge           Charge          ....    0
 Multiplicity           Mult            ....    1
 Number of Electrons    NEL             ....   54
 Basis Dimension        Dim             ....  143

MULLIKEN ATOMIC CHARGES
-----------------------
   0 C :    0.072044
   1 C :   -0.066626
   2 N :   -0.133688
   3 C :   -0.091012
   4 C :    0.023711
   5 C :    0.006917
   6 O :   -0.150650
   7 H :    0.041688
   8 H :    0.000278
   9 H :    0.035056
  10 H :    0.035959
  11 H :    0.103248
  12 H :    0.001583
  13 H :    0.041765
  14 H :    0.045306
  15 H :    0.034421
Sum of atomic charges:   -0.0000000

LOEWDIN ATOMIC CHARGES
----------------------
   0 C :   -0.066848
   1 C :    0.012605
   2 N :   -0.068797
   3 C :   -0.044136
   4 C :    0.049794
   5 C :   -0.089393
   6 O :   -0.116626
   7 H :    0.036971
   8 H :    0.025777
   9 H :    0.037434
  10 H :    0.027113
  11 H :    0.054538
  12 H :    0.012959
  13 H :    0.043438
  14 H :    0.046936
  15 H :    0.038234

  Mayer bond orders larger than 0.1
B(  0-C ,  1-C ) :   1.0932 B(  0-C ,  7-H ) :   0.9540 B(  0-C ,  8-H ) :   0.9382
B(  0-C ,  9-H ) :   0.9532 B(  1-C ,  2-N ) :   0.9971 B(  1-C ,  3-C ) :   0.9622
B(  1-C , 10-H ) :   0.9182 B(  2-N ,  3-C ) :   0.9791 B(  2-N , 11-H ) :   0.9398
B(  3-C ,  4-C ) :   0.8989 B(  3-C , 12-H ) :   0.9404 B(  4-C ,  5-C ) :   1.0444
B(  4-C ,  6-O ) :   2.2228 B(  5-C , 13-H ) :   0.9438 B(  5-C , 14-H ) :   0.9391
B(  5-C , 15-H ) :   0.9444

FINAL SINGLE POINT ENERGY      -325.239972717131

DIPOLE MOMENT
-------------
                                X             Y             Z
Electronic contribution:      4.32501      -0.78839       3.43504
Nuclear contribution   :     -5.29969       0.85588      -4.64777
                        -----------------------------------------
Total Dipole Moment    :     -0.97469       0.06749      -1.21272
                        -----------------------------------------
Magnitude (a.u.)       :      1.55733
Magnitude (Debye)      :      3.95841

                             ****ORCA TERMINATED NORMALLY****
TOTAL RUN TIME: 0 days 0 hours 0 minutes 7 seconds 302 msec
