                         Program Version 3.0.3 - RELEASE   -
|  1> ! RI PBE def2-SVP def2-SVP/J NBO PAL2
|  2> % maxcore 2000
|  3> % output
|  4>     # printlevel mini
|  5>     print[ P_Basis ] 0
|  6>     print[ P_SCFInfo ] 1
|  7>     print[ P_SCFIterInfo ] 1
|  8>     print[ P_OrbEn ] 0
|  9>     print[ P_Cartesian ] 0
| 10> end
| 11> *xyz 0 1
| 12>  C        0.8028370000     0.2040230000    -0.3355400000
| 13>  C        2.2697770000     0.2053980000    -0.0310650000
| 14>  N        3.1431970000    -0.8342960000    -0.5734990000
| 15>  C        3.2567990000     0.5360900000    -1.0737250000
| 16>  C        4.5409260000     1.2405460000    -0.7629660000
| 17>  C        4.4704150000     2.7345350000    -0.8547830000
| 18>  O        3.4971940000     3.3604490000    -1.1761630000
| 19>  H        0.2732210000    -0.5293980000     0.2788620000
| 20>  H        0.6229620000    -0.0392610000    -1.3866150000
| 21>  H        0.3658470000     1.1864640000    -0.1407200000
| 22>  H        2.5242060000     0.4720490000     0.9928440000
| 23>  H        2.6281210000    -1.4077280000    -1.2338830000
| 24>  H        2.8454970000     0.7491490000    -2.0570380000
| 25>  H        5.3480740000     0.9120560000    -1.4332000000
| 26>  H        4.8912990000     0.9760360000     0.2424410000
| 27>  H        5.4184480000     3.2594880000    -0.6027400000
| 28> *
| 29>
| 30>                          ****END OF INPUT****
 Total Charge           Charge          ....    0
 Multiplicity           Mult            ....    1
 Number of Electrons    NEL             ....   54
 Basis Dimension        Dim             ....  143

MULLIKEN ATOMIC CHARGES
-----------------------
   0 C :    0.079548
   1 C :   -0.094683
   2 N :   -0.161906
   3 C :   -0.110392
   4 C :    0.114334
   5 C :    0.078227
   6 O :   -0.161220
   7 H :    0.031294
   8 H :   -0.000518
   9 H :    0.037324
  10 H :    0.014480
  11 H :    0.100694
  12 H :    0.018417
  13 H :    0.039221
  14 H :    0.026899
  15 H :   -0.011720
Sum of atomic charges:    0.0000000

LOEWDIN ATOMIC CHARGES
----------------------
   0 C :   -0.064719
   1 C :   -0.003641
   2 N :   -0.102369
   3 C :   -0.003402
   4 C :   -0.082242
   5 C :    0.092546
   6 O :   -0.111861
   7 H :    0.031895
   8 H :    0.026005
   9 H :    0.038851
  10 H :    0.019494
  11 H :    0.051670
  12 H :    0.017344
  13 H :    0.051576
  14 H :    0.051829
  15 H :   -0.012976

  Mayer bond orders larger than 0.1
B(  0-C ,  1-C ) :   1.0964 B(  0-C ,  7-H ) :   0.9544 B(  0-C ,  8-H ) :   0.9393
B(  0-C ,  9-H ) :   0.9527 B(  1-C ,  2-N ) :   0.9989 B(  1-C ,  3-C ) :   1.0083
B(  1-C , 10-H ) :   0.9244 B(  2-N ,  3-C ) :   0.9903 B(  2-N , 11-H ) :   0.9412
B(  3-C ,  4-C ) :   1.0152 B(  3-C , 12-H ) :   0.9392 B(  4-C ,  5-C ) :   0.9672
B(  4-C , 13-H ) :   0.8898 B(  4-C , 14-H ) :   0.8895 B(  5-C ,  6-O ) :   2.1889
B(  5-C , 15-H ) :   0.9254

FINAL SINGLE POINT ENERGY      -325.230886289393

DIPOLE MOMENT
-------------
                                X             Y             Z
Electronic contribution:      3.03783       3.42347      -0.93629
Nuclear contribution   :     -2.96608      -3.83965       0.85760
                        -----------------------------------------
Total Dipole Moment    :      0.07175      -0.41618      -0.07869
                        -----------------------------------------
Magnitude (a.u.)       :      0.42959
Magnitude (Debye)      :      1.09193

                             ****ORCA TERMINATED NORMALLY****
TOTAL RUN TIME: 0 days 0 hours 0 minutes 7 seconds 326 msec
