                         Program Version 3.0.3 - RELEASE   -
|  1> ! RI PBE def2-SVP def2-SVP/J NBO PAL2
|  2> % maxcore 2000
|  3> % output
|  4>     # printlevel mini
|  5>     print[ P_Basis ] 0
|  6>     print[ P_SCFInfo ] 1
|  7>     print[ P_SCFIterInfo ] 1
|  8>     print[ P_OrbEn ] 0
|  9>     print[ P_Cartesian ] 0
| 10> end
| 11> *xyz 0 1
| 12>  C        0.9929730000     0.3176350000    -0.2100040000
| 13>  C        2.4726270000     0.2043210000     0.0019880000
| 14>  N        3.2447080000    -0.8243250000    -0.6731680000
| 15>  C        3.4129810000     0.5766230000    -1.0837190000
| 16>  C        4.7222370000     1.1727960000    -0.7987940000
| 17>  N        5.1809610000     2.0687420000    -1.5671460000
| 18>  O        6.4118490000     2.5318180000    -1.1392590000
| 19>  H        0.4572030000    -0.4390880000     0.3698320000
| 20>  H        0.7375290000     0.1817710000    -1.2646260000
| 21>  H        0.6264790000     1.2989210000     0.1013650000
| 22>  H        2.8049830000     0.3758790000     1.0234890000
| 23>  H        2.6694530000    -1.3144860000    -1.3509100000
| 24>  H        2.9672740000     0.8993320000    -2.0201510000
| 25>  H        5.2775850000     0.8290040000     0.0756530000
| 26>  H        6.6430470000     3.1827580000    -1.8073410000
| 27> *
| 28>
| 29>                          ****END OF INPUT****
 Total Charge           Charge          ....    0
 Multiplicity           Mult            ....    1
 Number of Electrons    NEL             ....   54
 Basis Dimension        Dim             ....  138

MULLIKEN ATOMIC CHARGES
-----------------------
   0 C :    0.074758
   1 C :   -0.089102
   2 N :   -0.163024
   3 C :   -0.045405
   4 C :    0.085747
   5 N :   -0.060226
   6 O :   -0.173077
   7 H :    0.035722
   8 H :    0.002748
   9 H :    0.033422
  10 H :    0.022113
  11 H :    0.105581
  12 H :    0.007843
  13 H :   -0.006082
  14 H :    0.168982
Sum of atomic charges:   -0.0000000

LOEWDIN ATOMIC CHARGES
----------------------
   0 C :   -0.064986
   1 C :   -0.002130
   2 N :   -0.093631
   3 C :   -0.011102
   4 C :   -0.029381
   5 N :   -0.021669
   6 O :   -0.054808
   7 H :    0.033847
   8 H :    0.026520
   9 H :    0.037192
  10 H :    0.021471
  11 H :    0.054510
  12 H :    0.020352
  13 H :    0.010833
  14 H :    0.072983

  Mayer bond orders larger than 0.1
B(  0-C ,  1-C ) :   1.0928 B(  0-C ,  7-H ) :   0.9547 B(  0-C ,  8-H ) :   0.9417
B(  0-C ,  9-H ) :   0.9530 B(  1-C ,  2-N ) :   0.9903 B(  1-C ,  3-C ) :   0.9508
B(  1-C , 10-H ) :   0.9274 B(  2-N ,  3-C ) :   0.9497 B(  2-N , 11-H ) :   0.9403
B(  3-C ,  4-C ) :   1.0445 B(  3-C , 12-H ) :   0.9426 B(  4-C ,  5-N ) :   1.8687
B(  4-C ,  6-O ) :   0.1146 B(  4-C , 13-H ) :   0.9303 B(  5-N ,  6-O ) :   0.9892
B(  6-O , 14-H ) :   0.9762

FINAL SINGLE POINT ENERGY      -341.205722428152

DIPOLE MOMENT
-------------
                                X             Y             Z
Electronic contribution:      7.18082       2.27421      -1.60464
Nuclear contribution   :     -7.80372      -2.04202       1.38909
                        -----------------------------------------
Total Dipole Moment    :     -0.62290       0.23219      -0.21555
                        -----------------------------------------
Magnitude (a.u.)       :      0.69884
Magnitude (Debye)      :      1.77631

                             ****ORCA TERMINATED NORMALLY****
TOTAL RUN TIME: 0 days 0 hours 0 minutes 6 seconds 553 msec
