                         Program Version 3.0.3 - RELEASE   -
|  1> ! RI PBE def2-SVP def2-SVP/J NBO PAL2
|  2> % maxcore 2000
|  3> % output
|  4>     # printlevel mini
|  5>     print[ P_Basis ] 0
|  6>     print[ P_SCFInfo ] 1
|  7>     print[ P_SCFIterInfo ] 1
|  8>     print[ P_OrbEn ] 0
|  9>     print[ P_Cartesian ] 0
| 10> end
| 11> *xyz 0 1
| 12>  C        1.2723330000    -0.1349470000    -0.0076140000
| 13>  C        2.7242230000     0.0866080000    -0.3036270000
| 14>  N        3.2779850000    -0.2613010000    -1.6031760000
| 15>  C        3.1440550000     1.1512400000    -1.2471740000
| 16>  C        4.4046060000     1.9308480000    -1.0262180000
| 17>  N        5.5289090000     1.1844420000    -1.0616540000
| 18>  O        4.3762260000     3.1245330000    -0.8045270000
| 19>  H        1.0786230000    -1.1845760000     0.2294410000
| 20>  H        0.6507410000     0.1431050000    -0.8631800000
| 21>  H        0.9554410000     0.4660540000     0.8478210000
| 22>  H        3.4040660000    -0.1338430000     0.5156690000
| 23>  H        2.5454130000    -0.5390480000    -2.2477100000
| 24>  H        2.3529190000     1.7418220000    -1.6973600000
| 25>  H        5.4658410000     0.2319620000    -1.3827940000
| 26>  H        6.4177290000     1.6393000000    -0.9542070000
| 27> *
| 28>
| 29>                          ****END OF INPUT****
 Total Charge           Charge          ....    0
 Multiplicity           Mult            ....    1
 Number of Electrons    NEL             ....   54
 Basis Dimension        Dim             ....  138

MULLIKEN ATOMIC CHARGES
-----------------------
   0 C :    0.062954
   1 C :   -0.073356
   2 N :   -0.170927
   3 C :   -0.087578
   4 C :    0.055427
   5 N :   -0.057156
   6 O :   -0.206521
   7 H :    0.035544
   8 H :    0.008562
   9 H :    0.043472
  10 H :    0.027485
  11 H :    0.109850
  12 H :    0.019820
  13 H :    0.120604
  14 H :    0.111820
Sum of atomic charges:    0.0000000

LOEWDIN ATOMIC CHARGES
----------------------
   0 C :   -0.065509
   1 C :    0.008817
   2 N :   -0.097142
   3 C :   -0.024210
   4 C :    0.011782
   5 N :    0.016292
   6 O :   -0.197896
   7 H :    0.034262
   8 H :    0.028544
   9 H :    0.041282
  10 H :    0.022873
  11 H :    0.057029
  12 H :    0.026319
  13 H :    0.066803
  14 H :    0.070754

  Mayer bond orders larger than 0.1
B(  0-C ,  1-C ) :   1.1046 B(  0-C ,  7-H ) :   0.9555 B(  0-C ,  8-H ) :   0.9407
B(  0-C ,  9-H ) :   0.9534 B(  1-C ,  2-N ) :   0.9804 B(  1-C ,  3-C ) :   0.9667
B(  1-C , 10-H ) :   0.9251 B(  2-N ,  3-C ) :   0.9708 B(  2-N , 11-H ) :   0.9351
B(  3-C ,  4-C ) :   0.9181 B(  3-C , 12-H ) :   0.9343 B(  4-C ,  5-N ) :   1.2883
B(  4-C ,  6-O ) :   2.1121 B(  5-N ,  6-O ) :   0.1016 B(  5-N , 13-H ) :   0.9116
B(  5-N , 14-H ) :   0.9392

FINAL SINGLE POINT ENERGY      -341.294972147579

DIPOLE MOMENT
-------------
                                X             Y             Z
Electronic contribution:      4.81089       4.12364      -1.46596
Nuclear contribution   :     -5.14074      -5.38327       1.29647
                        -----------------------------------------
Total Dipole Moment    :     -0.32984      -1.25963      -0.16948
                        -----------------------------------------
Magnitude (a.u.)       :      1.31308
Magnitude (Debye)      :      3.33759

                             ****ORCA TERMINATED NORMALLY****
TOTAL RUN TIME: 0 days 0 hours 0 minutes 6 seconds 982 msec
