                         Program Version 3.0.3 - RELEASE   -
|  1> ! RI PBE def2-SVP def2-SVP/J NBO PAL2
|  2> % maxcore 2000
|  3> % output
|  4>     # printlevel mini
|  5>     print[ P_Basis ] 0
|  6>     print[ P_SCFInfo ] 1
|  7>     print[ P_SCFIterInfo ] 1
|  8>     print[ P_OrbEn ] 0
|  9>     print[ P_Cartesian ] 0
| 10> end
| 11> *xyz 0 1
| 12>  C        0.9715430000     0.0605810000    -0.1413570000
| 13>  C        2.4519590000     0.0099410000     0.0828230000
| 14>  N        3.2763540000    -0.9804590000    -0.5732950000
| 15>  C        3.3882090000     0.4193270000    -0.9963120000
| 16>  C        4.6557620000     1.1038940000    -0.6344540000
| 17>  O        5.0044780000     2.0060930000    -1.5715340000
| 18>  O        5.2911380000     0.9215890000     0.3658300000
| 19>  H        0.4664300000    -0.7040650000     0.4548190000
| 20>  H        0.7246290000    -0.1104230000    -1.1929440000
| 21>  H        0.5645890000     1.0322710000     0.1482510000
| 22>  H        2.7898950000     0.2192920000     1.0943150000
| 23>  H        2.7338070000    -1.4865550000    -1.2674540000
| 24>  H        2.9595380000     0.7112630000    -1.9486880000
| 25>  H        5.8164680000     2.4273620000    -1.2563110000
| 26> *
| 27>
| 28>                          ****END OF INPUT****
 Total Charge           Charge          ....    0
 Multiplicity           Mult            ....    1
 Number of Electrons    NEL             ....   54
 Basis Dimension        Dim             ....  133

MULLIKEN ATOMIC CHARGES
-----------------------
   0 C :    0.077972
   1 C :   -0.081714
   2 N :   -0.135646
   3 C :   -0.096967
   4 C :    0.132210
   5 O :   -0.141171
   6 O :   -0.165458
   7 H :    0.040291
   8 H :    0.002798
   9 H :    0.035742
  10 H :    0.039588
  11 H :    0.107350
  12 H :    0.019778
  13 H :    0.165226
Sum of atomic charges:    0.0000000

LOEWDIN ATOMIC CHARGES
----------------------
   0 C :   -0.064839
   1 C :    0.010491
   2 N :   -0.069582
   3 C :   -0.038987
   4 C :    0.036296
   5 O :   -0.018591
   6 O :   -0.147634
   7 H :    0.036752
   8 H :    0.026705
   9 H :    0.038241
  10 H :    0.028658
  11 H :    0.056555
  12 H :    0.020926
  13 H :    0.085010

  Mayer bond orders larger than 0.1
B(  0-C ,  1-C ) :   1.0901 B(  0-C ,  7-H ) :   0.9552 B(  0-C ,  8-H ) :   0.9402
B(  0-C ,  9-H ) :   0.9533 B(  1-C ,  2-N ) :   0.9998 B(  1-C ,  3-C ) :   0.9668
B(  1-C , 10-H ) :   0.9223 B(  2-N ,  3-C ) :   0.9879 B(  2-N , 11-H ) :   0.9402
B(  3-C ,  4-C ) :   0.9206 B(  3-C , 12-H ) :   0.9380 B(  4-C ,  5-O ) :   1.2448
B(  4-C ,  6-O ) :   2.1673 B(  5-O , 13-H ) :   0.9460

FINAL SINGLE POINT ENERGY      -361.131790625191

DIPOLE MOMENT
-------------
                                X             Y             Z
Electronic contribution:      7.70834       1.91501      -0.28588
Nuclear contribution   :     -8.57141      -1.55158      -0.37346
                        -----------------------------------------
Total Dipole Moment    :     -0.86307       0.36343      -0.65934
                        -----------------------------------------
Magnitude (a.u.)       :      1.14529
Magnitude (Debye)      :      2.91109

                             ****ORCA TERMINATED NORMALLY****
TOTAL RUN TIME: 0 days 0 hours 0 minutes 6 seconds 381 msec
