                         Program Version 3.0.3 - RELEASE   -
|  1> ! RI PBE def2-SVP def2-SVP/J NBO PAL2
|  2> % maxcore 2000
|  3> % output
|  4>     # printlevel mini
|  5>     print[ P_Basis ] 0
|  6>     print[ P_SCFInfo ] 1
|  7>     print[ P_SCFIterInfo ] 1
|  8>     print[ P_OrbEn ] 0
|  9>     print[ P_Cartesian ] 0
| 10> end
| 11> *xyz 0 1
| 12>  C        1.0012840000     0.2323240000     0.3753330000
| 13>  C        2.3842360000    -0.1655420000    -0.0920980000
| 14>  N        3.4534910000     0.8174430000     0.1817580000
| 15>  C        3.9270830000     0.0361180000     1.3332410000
| 16>  C        3.1187650000    -1.1700430000     0.8214550000
| 17>  C        3.9523560000    -2.1941770000     0.0866080000
| 18>  O        3.1726710000    -3.1353450000    -0.6222350000
| 19>  H        0.6353960000     1.0975490000    -0.1853430000
| 20>  H        0.9984960000     0.4906990000     1.4389020000
| 21>  H        0.2909120000    -0.5851590000     0.2224710000
| 22>  H        2.3457130000    -0.4650890000    -1.1452390000
| 23>  H        3.1335610000     1.7550350000     0.3893740000
| 24>  H        3.5864370000     0.3958750000     2.3112120000
| 25>  H        5.0144750000    -0.0906570000     1.3728700000
| 26>  H        2.4840560000    -1.6612570000     1.5661000000
| 27>  H        4.6328420000    -2.6950140000     0.7908450000
| 28>  H        4.5703200000    -1.6916020000    -0.6622760000
| 29>  H        2.6537060000    -3.6365350000     0.0120110000
| 30> *
| 31>
| 32>                          ****END OF INPUT****
 Total Charge           Charge          ....    0
 Multiplicity           Mult            ....    1
 Number of Electrons    NEL             ....   56
 Basis Dimension        Dim             ....  153

MULLIKEN ATOMIC CHARGES
-----------------------
   0 C :    0.053573
   1 C :   -0.010731
   2 N :   -0.239008
   3 C :    0.183911
   4 C :   -0.248141
   5 C :    0.254796
   6 O :   -0.285732
   7 H :    0.025020
   8 H :    0.000966
   9 H :    0.023479
  10 H :    0.005841
  11 H :    0.086007
  12 H :   -0.004724
  13 H :    0.002055
  14 H :   -0.008059
  15 H :   -0.001295
  16 H :    0.012161
  17 H :    0.149880
Sum of atomic charges:   -0.0000000

LOEWDIN ATOMIC CHARGES
----------------------
   0 C :   -0.075550
   1 C :    0.018339
   2 N :   -0.107917
   3 C :    0.033266
   4 C :   -0.063572
   5 C :    0.059200
   6 O :   -0.120708
   7 H :    0.028113
   8 H :    0.021765
   9 H :    0.030773
  10 H :    0.011855
  11 H :    0.042704
  12 H :    0.004158
  13 H :    0.009099
  14 H :    0.012177
  15 H :    0.004236
  16 H :    0.026184
  17 H :    0.065878

  Mayer bond orders larger than 0.1
B(  0-C ,  1-C ) :   1.0779 B(  0-C ,  7-H ) :   0.9513 B(  0-C ,  8-H ) :   0.9439
B(  0-C ,  9-H ) :   0.9500 B(  1-C ,  2-N ) :   1.0672 B(  1-C ,  4-C ) :   1.0125
B(  1-C , 10-H ) :   0.9150 B(  2-N ,  3-C ) :   1.0590 B(  2-N , 11-H ) :   0.9442
B(  3-C ,  4-C ) :   1.0336 B(  3-C , 12-H ) :   0.9212 B(  3-C , 13-H ) :   0.9276
B(  4-C ,  5-C ) :   1.0086 B(  4-C , 14-H ) :   0.9194 B(  5-C ,  6-O ) :   1.0614
B(  5-C , 15-H ) :   0.9343 B(  5-C , 16-H ) :   0.9237 B(  6-O , 17-H ) :   0.9859

FINAL SINGLE POINT ENERGY      -326.425062878296

DIPOLE MOMENT
-------------
                                X             Y             Z
Electronic contribution:      1.96627      -1.96293      -1.88976
Nuclear contribution   :     -2.38653       2.00219       2.75288
                        -----------------------------------------
Total Dipole Moment    :     -0.42026       0.03926       0.86312
                        -----------------------------------------
Magnitude (a.u.)       :      0.96080
Magnitude (Debye)      :      2.44216

                             ****ORCA TERMINATED NORMALLY****
TOTAL RUN TIME: 0 days 0 hours 0 minutes 8 seconds 41 msec
