                         Program Version 3.0.3 - RELEASE   -
|  1> ! RI PBE def2-SVP def2-SVP/J NBO PAL2
|  2> % maxcore 2000
|  3> % output
|  4>     # printlevel mini
|  5>     print[ P_Basis ] 0
|  6>     print[ P_SCFInfo ] 1
|  7>     print[ P_SCFIterInfo ] 1
|  8>     print[ P_OrbEn ] 0
|  9>     print[ P_Cartesian ] 0
| 10> end
| 11> *xyz 0 1
| 12>  C        0.8028740000     0.1356740000    -0.2811120000
| 13>  C        2.2937860000     0.0952590000    -0.0586940000
| 14>  N        2.7637590000     0.2474370000     1.2896560000
| 15>  C        3.1209530000    -0.8101160000    -0.9247360000
| 16>  C        3.1791550000     0.6794360000    -1.1226820000
| 17>  C        4.4154440000     1.4465750000    -0.7631040000
| 18>  O        4.1387000000     2.7851990000    -0.3836600000
| 19>  H        0.3049750000    -0.6658350000     0.2743460000
| 20>  H        0.5483470000     0.0165160000    -1.3374600000
| 21>  H        0.3870630000     1.0887500000     0.0606090000
| 22>  H        2.3402900000    -0.4422480000     1.8984300000
| 23>  H        2.5341840000     1.1671190000     1.6481840000
| 24>  H        2.6232670000    -1.4121890000    -1.6753310000
| 25>  H        3.9784580000    -1.2750930000    -0.4531770000
| 26>  H        2.6552110000     1.0559580000    -1.9991160000
| 27>  H        5.1287740000     1.4204070000    -1.5989230000
| 28>  H        4.8924600000     0.9860430000     0.1020940000
| 29>  H        3.7535790000     3.2376370000    -1.1382330000
| 30> *
| 31>
| 32>                          ****END OF INPUT****
 Total Charge           Charge          ....    0
 Multiplicity           Mult            ....    1
 Number of Electrons    NEL             ....   56
 Basis Dimension        Dim             ....  153

MULLIKEN ATOMIC CHARGES
-----------------------
   0 C :    0.119556
   1 C :   -0.228397
   2 N :   -0.131073
   3 C :    0.052531
   4 C :   -0.181622
   5 C :    0.280963
   6 O :   -0.297075
   7 H :    0.009202
   8 H :   -0.005122
   9 H :    0.009644
  10 H :    0.089477
  11 H :    0.095424
  12 H :    0.017865
  13 H :    0.021991
  14 H :    0.001462
  15 H :   -0.003466
  16 H :    0.001326
  17 H :    0.147311
Sum of atomic charges:   -0.0000000

LOEWDIN ATOMIC CHARGES
----------------------
   0 C :   -0.060777
   1 C :   -0.032097
   2 N :   -0.072129
   3 C :   -0.037966
   4 C :   -0.066606
   5 C :    0.058690
   6 O :   -0.128524
   7 H :    0.023113
   8 H :    0.024619
   9 H :    0.023344
  10 H :    0.053079
  11 H :    0.054917
  12 H :    0.022769
  13 H :    0.028510
  14 H :    0.018364
  15 H :    0.005509
  16 H :    0.021911
  17 H :    0.063273

  Mayer bond orders larger than 0.1
B(  0-C ,  1-C ) :   1.0742 B(  0-C ,  7-H ) :   0.9515 B(  0-C ,  8-H ) :   0.9299
B(  0-C ,  9-H ) :   0.9560 B(  1-C ,  2-N ) :   1.1623 B(  1-C ,  3-C ) :   0.9707
B(  1-C ,  4-C ) :   0.9041 B(  2-N , 10-H ) :   0.9659 B(  2-N , 11-H ) :   0.9610
B(  3-C ,  4-C ) :   0.9779 B(  3-C , 12-H ) :   0.9343 B(  3-C , 13-H ) :   0.9283
B(  4-C ,  5-C ) :   1.0698 B(  4-C , 14-H ) :   0.9304 B(  5-C ,  6-O ) :   1.0431
B(  5-C , 15-H ) :   0.9302 B(  5-C , 16-H ) :   0.9062 B(  6-O , 17-H ) :   0.9870

FINAL SINGLE POINT ENERGY      -326.432618526347

DIPOLE MOMENT
-------------
                                X             Y             Z
Electronic contribution:      2.64159       2.30985       0.55394
Nuclear contribution   :     -3.26823      -2.44282      -0.87265
                        -----------------------------------------
Total Dipole Moment    :     -0.62663      -0.13297      -0.31871
                        -----------------------------------------
Magnitude (a.u.)       :      0.71549
Magnitude (Debye)      :      1.81863

                             ****ORCA TERMINATED NORMALLY****
TOTAL RUN TIME: 0 days 0 hours 0 minutes 7 seconds 998 msec
