                         Program Version 3.0.3 - RELEASE   -
|  1> ! RI PBE def2-SVP def2-SVP/J NBO PAL2
|  2> % maxcore 2000
|  3> % output
|  4>     # printlevel mini
|  5>     print[ P_Basis ] 0
|  6>     print[ P_SCFInfo ] 1
|  7>     print[ P_SCFIterInfo ] 1
|  8>     print[ P_OrbEn ] 0
|  9>     print[ P_Cartesian ] 0
| 10> end
| 11> *xyz 0 1
| 12>  C        0.9465450000    -0.1316650000    -0.6717750000
| 13>  C        2.2518540000     0.4341430000    -0.1828440000
| 14>  N        2.2344130000     1.0644150000     1.1150550000
| 15>  C        3.5456950000    -0.2728180000    -0.5105690000
| 16>  C        3.2569840000     1.0735180000    -1.1173790000
| 17>  C        3.0225710000     1.2223940000    -2.5883680000
| 18>  O        3.9432470000     2.1693380000    -0.6075790000
| 19>  H        0.5883840000    -0.9098290000     0.0101520000
| 20>  H        1.0361920000    -0.5776550000    -1.6630920000
| 21>  H        0.1774730000     0.6460250000    -0.7269180000
| 22>  H        2.2291840000     0.3803280000     1.8614750000
| 23>  H        1.4123990000     1.6472640000     1.2219790000
| 24>  H        3.4870800000    -1.1551320000    -1.1379400000
| 25>  H        4.3061610000    -0.3038020000     0.2613000000
| 26>  H        2.5421430000     0.3422800000    -3.0159680000
| 27>  H        3.9803420000     1.3640020000    -3.0950620000
| 28>  H        2.4015160000     2.0982390000    -2.7923870000
| 29>  H        3.6943060000     2.1972340000     0.3322280000
| 30> *
| 31>
| 32>                          ****END OF INPUT****
 Total Charge           Charge          ....    0
 Multiplicity           Mult            ....    1
 Number of Electrons    NEL             ....   56
 Basis Dimension        Dim             ....  153

MULLIKEN ATOMIC CHARGES
-----------------------
   0 C :    0.121580
   1 C :   -0.261655
   2 N :   -0.151203
   3 C :    0.039940
   4 C :   -0.069581
   5 C :    0.127513
   6 O :   -0.224790
   7 H :    0.009517
   8 H :   -0.000582
   9 H :    0.019342
  10 H :    0.104472
  11 H :    0.097616
  12 H :    0.011429
  13 H :    0.012410
  14 H :   -0.006707
  15 H :    0.025737
  16 H :    0.014801
  17 H :    0.130161
Sum of atomic charges:    0.0000000

LOEWDIN ATOMIC CHARGES
----------------------
   0 C :   -0.063689
   1 C :   -0.052272
   2 N :   -0.054549
   3 C :   -0.061581
   4 C :    0.012379
   5 C :   -0.054264
   6 O :   -0.099066
   7 H :    0.024102
   8 H :    0.028533
   9 H :    0.026800
  10 H :    0.058388
  11 H :    0.057964
  12 H :    0.022731
  13 H :    0.026721
  14 H :    0.024098
  15 H :    0.034994
  16 H :    0.028711
  17 H :    0.040001

  Mayer bond orders larger than 0.1
B(  0-C ,  1-C ) :   1.0954 B(  0-C ,  7-H ) :   0.9445 B(  0-C ,  8-H ) :   0.9262
B(  0-C ,  9-H ) :   0.9493 B(  1-C ,  2-N ) :   1.1248 B(  1-C ,  3-C ) :   0.9562
B(  1-C ,  4-C ) :   0.8331 B(  2-N , 10-H ) :   0.9617 B(  2-N , 11-H ) :   0.9644
B(  2-N , 17-H ) :   0.1366 B(  3-C ,  4-C ) :   0.9411 B(  3-C , 12-H ) :   0.9310
B(  3-C , 13-H ) :   0.9148 B(  4-C ,  5-C ) :   1.1075 B(  4-C ,  6-O ) :   1.1742
B(  5-C , 14-H ) :   0.9361 B(  5-C , 15-H ) :   0.9443 B(  5-C , 16-H ) :   0.9481
B(  6-O , 17-H ) :   0.9280

FINAL SINGLE POINT ENERGY      -326.444563802307

DIPOLE MOMENT
-------------
                                X             Y             Z
Electronic contribution:      3.10572       2.58895       2.16803
Nuclear contribution   :     -3.97692      -3.10529      -1.68197
                        -----------------------------------------
Total Dipole Moment    :     -0.87120      -0.51634       0.48606
                        -----------------------------------------
Magnitude (a.u.)       :      1.12332
Magnitude (Debye)      :      2.85525

                             ****ORCA TERMINATED NORMALLY****
TOTAL RUN TIME: 0 days 0 hours 0 minutes 8 seconds 115 msec
