                         Program Version 3.0.3 - RELEASE   -
|  1> ! RI PBE def2-SVP def2-SVP/J NBO PAL2
|  2> % maxcore 2000
|  3> % output
|  4>     # printlevel mini
|  5>     print[ P_Basis ] 0
|  6>     print[ P_SCFInfo ] 1
|  7>     print[ P_SCFIterInfo ] 1
|  8>     print[ P_OrbEn ] 0
|  9>     print[ P_Cartesian ] 0
| 10> end
| 11> *xyz 0 1
| 12>  C        1.0287310000     0.1011570000    -0.0049410000
| 13>  C        2.5307950000     0.0172110000     0.0405810000
| 14>  N        3.2488240000     1.0727310000     0.7975260000
| 15>  C        4.2039170000     0.0565170000     1.2987650000
| 16>  C        3.2671660000    -1.0846430000     0.8499590000
| 17>  C        2.4751550000    -1.6848620000     1.9849100000
| 18>  O        3.8169360000    -2.1583770000     0.1316760000
| 19>  H        0.7148650000     1.0195670000    -0.5079880000
| 20>  H        0.5928720000     0.0982270000     0.9975590000
| 21>  H        0.6100920000    -0.7427730000    -0.5585580000
| 22>  H        2.9206120000     0.0130660000    -0.9880220000
| 23>  H        2.6627980000     1.4010540000     1.5577080000
| 24>  H        4.4522400000     0.1154230000     2.3615060000
| 25>  H        5.1349380000     0.0843190000     0.7211110000
| 26>  H        2.0369140000    -0.9080880000     2.6146640000
| 27>  H        3.1345020000    -2.2975200000     2.6033920000
| 28>  H        1.6729960000    -2.3200470000     1.6038760000
| 29>  H        4.3278860000    -1.8021640000    -0.6010250000
| 30> *
| 31>
| 32>                          ****END OF INPUT****
 Total Charge           Charge          ....    0
 Multiplicity           Mult            ....    1
 Number of Electrons    NEL             ....   56
 Basis Dimension        Dim             ....  153

MULLIKEN ATOMIC CHARGES
-----------------------
   0 C :    0.061603
   1 C :    0.020678
   2 N :   -0.240244
   3 C :    0.218407
   4 C :   -0.240850
   5 C :    0.082902
   6 O :   -0.231287
   7 H :    0.031615
   8 H :    0.001547
   9 H :    0.030411
  10 H :   -0.020518
  11 H :    0.088101
  12 H :    0.001421
  13 H :   -0.013072
  14 H :    0.002943
  15 H :    0.029101
  16 H :    0.026053
  17 H :    0.151189
Sum of atomic charges:    0.0000000

LOEWDIN ATOMIC CHARGES
----------------------
   0 C :   -0.070451
   1 C :   -0.000960
   2 N :   -0.113954
   3 C :    0.017321
   4 C :   -0.001003
   5 C :   -0.057451
   6 O :   -0.096835
   7 H :    0.034078
   8 H :    0.022092
   9 H :    0.036699
  10 H :    0.012757
  11 H :    0.045386
  12 H :    0.011635
  13 H :    0.011284
  14 H :    0.022551
  15 H :    0.033217
  16 H :    0.030381
  17 H :    0.063253

  Mayer bond orders larger than 0.1
B(  0-C ,  1-C ) :   1.1317 B(  0-C ,  7-H ) :   0.9504 B(  0-C ,  8-H ) :   0.9333
B(  0-C ,  9-H ) :   0.9499 B(  1-C ,  2-N ) :   1.0634 B(  1-C ,  4-C ) :   0.9521
B(  1-C , 10-H ) :   0.8809 B(  2-N ,  3-C ) :   1.0695 B(  2-N , 11-H ) :   0.9388
B(  3-C ,  4-C ) :   1.0251 B(  3-C , 12-H ) :   0.9267 B(  3-C , 13-H ) :   0.9072
B(  4-C ,  5-C ) :   1.0423 B(  4-C ,  6-O ) :   1.0970 B(  5-C , 14-H ) :   0.9448
B(  5-C , 15-H ) :   0.9468 B(  5-C , 16-H ) :   0.9420 B(  6-O , 17-H ) :   0.9707

FINAL SINGLE POINT ENERGY      -326.432735674702

DIPOLE MOMENT
-------------
                                X             Y             Z
Electronic contribution:      3.57182      -0.61470      -1.60288
Nuclear contribution   :     -3.80219       0.69517       1.71753
                        -----------------------------------------
Total Dipole Moment    :     -0.23036       0.08046       0.11465
                        -----------------------------------------
Magnitude (a.u.)       :      0.26960
Magnitude (Debye)      :      0.68528

                             ****ORCA TERMINATED NORMALLY****
TOTAL RUN TIME: 0 days 0 hours 0 minutes 8 seconds 213 msec
