                         Program Version 3.0.3 - RELEASE   -
|  1> ! RI PBE def2-SVP def2-SVP/J NBO PAL2
|  2> % maxcore 2000
|  3> % output
|  4>     # printlevel mini
|  5>     print[ P_Basis ] 0
|  6>     print[ P_SCFInfo ] 1
|  7>     print[ P_SCFIterInfo ] 1
|  8>     print[ P_OrbEn ] 0
|  9>     print[ P_Cartesian ] 0
| 10> end
| 11> *xyz 0 1
| 12>  C        1.0460020000     0.1873590000     0.3805410000
| 13>  C        2.4595310000    -0.1442920000    -0.0443140000
| 14>  N        3.4923920000     0.8393490000     0.3200380000
| 15>  C        3.9135990000     0.0292340000     1.4670790000
| 16>  C        3.1663580000    -1.1842400000     0.8706190000
| 17>  C        4.0637910000    -2.1026420000     0.1098460000
| 18>  O        4.0386230000    -3.3013880000     0.1833940000
| 19>  H        0.6803970000     1.0635690000    -0.1626100000
| 20>  H        0.9917200000     0.4008440000     1.4517330000
| 21>  H        0.3703800000    -0.6443910000     0.1644500000
| 22>  H        2.4730110000    -0.3905630000    -1.1128230000
| 23>  H        3.1588240000     1.7724070000     0.5265920000
| 24>  H        3.4920690000     0.3272180000     2.4336430000
| 25>  H        4.9980880000    -0.0690550000     1.5773910000
| 26>  H        2.5249910000    -1.7592630000     1.5374680000
| 27>  H        4.7849250000    -1.5877470000    -0.5638570000
| 28> *
| 29>
| 30>                          ****END OF INPUT****
 Total Charge           Charge          ....    0
 Multiplicity           Mult            ....    1
 Number of Electrons    NEL             ....   54
 Basis Dimension        Dim             ....  143

MULLIKEN ATOMIC CHARGES
-----------------------
   0 C :    0.059060
   1 C :   -0.038710
   2 N :   -0.232150
   3 C :    0.182289
   4 C :   -0.176995
   5 C :    0.144457
   6 O :   -0.151971
   7 H :    0.031321
   8 H :    0.008585
   9 H :    0.033516
  10 H :    0.014892
  11 H :    0.091008
  12 H :    0.011830
  13 H :    0.015698
  14 H :    0.015015
  15 H :   -0.007846
Sum of atomic charges:   -0.0000000

LOEWDIN ATOMIC CHARGES
----------------------
   0 C :   -0.071607
   1 C :    0.027633
   2 N :   -0.103790
   3 C :    0.043023
   4 C :   -0.073944
   5 C :    0.089447
   6 O :   -0.106661
   7 H :    0.031331
   8 H :    0.025551
   9 H :    0.035662
  10 H :    0.012567
  11 H :    0.046362
  12 H :    0.011064
  13 H :    0.013310
  14 H :    0.027520
  15 H :   -0.007470

  Mayer bond orders larger than 0.1
B(  0-C ,  1-C ) :   1.0762 B(  0-C ,  7-H ) :   0.9510 B(  0-C ,  8-H ) :   0.9457
B(  0-C ,  9-H ) :   0.9491 B(  1-C ,  2-N ) :   1.0670 B(  1-C ,  4-C ) :   0.9713
B(  1-C , 10-H ) :   0.9217 B(  2-N ,  3-C ) :   1.0532 B(  2-N , 11-H ) :   0.9437
B(  3-C ,  4-C ) :   1.0151 B(  3-C , 12-H ) :   0.9228 B(  3-C , 13-H ) :   0.9309
B(  4-C ,  5-C ) :   0.9323 B(  4-C , 14-H ) :   0.9242 B(  5-C ,  6-O ) :   2.1837
B(  5-C , 15-H ) :   0.9248

FINAL SINGLE POINT ENERGY      -325.229395292274

DIPOLE MOMENT
-------------
                                X             Y             Z
Electronic contribution:      4.05311      -4.92113      -1.13165
Nuclear contribution   :     -4.63407       6.00235       1.50307
                        -----------------------------------------
Total Dipole Moment    :     -0.58096       1.08122       0.37142
                        -----------------------------------------
Magnitude (a.u.)       :      1.28238
Magnitude (Debye)      :      3.25955

                             ****ORCA TERMINATED NORMALLY****
TOTAL RUN TIME: 0 days 0 hours 0 minutes 6 seconds 985 msec
