                         Program Version 3.0.3 - RELEASE   -
|  1> ! RI PBE def2-SVP def2-SVP/J NBO PAL2
|  2> % maxcore 2000
|  3> % output
|  4>     # printlevel mini
|  5>     print[ P_Basis ] 0
|  6>     print[ P_SCFInfo ] 1
|  7>     print[ P_SCFIterInfo ] 1
|  8>     print[ P_OrbEn ] 0
|  9>     print[ P_Cartesian ] 0
| 10> end
| 11> *xyz 0 1
| 12>  C        1.0250460000     0.2869830000     0.5898360000
| 13>  C        2.2801140000    -0.2447270000    -0.0669540000
| 14>  N        2.1317910000    -1.6496620000    -0.4580050000
| 15>  C        2.9882290000    -1.8770930000    -1.6189320000
| 16>  C        3.1163270000    -0.5339160000    -2.2977310000
| 17>  O        1.8644290000     0.1271110000    -2.4513840000
| 18>  C        2.6850620000     0.4723230000    -1.3400100000
| 19>  H        0.7502490000    -0.3285290000     1.4488630000
| 20>  H        0.1942420000     0.2850470000    -0.1212690000
| 21>  H        1.1699110000     1.3116190000     0.9383660000
| 22>  H        3.1230280000    -0.1575070000     0.6338760000
| 23>  H        1.1704110000    -1.7870810000    -0.7431000000
| 24>  H        2.5648630000    -2.6518500000    -2.2622920000
| 25>  H        3.9856640000    -2.2118730000    -1.3074260000
| 26>  H        3.8533120000    -0.3471250000    -3.0731000000
| 27>  H        3.0667210000     1.4893800000    -1.3259350000
| 28> *
| 29>
| 30>                          ****END OF INPUT****
 Total Charge           Charge          ....    0
 Multiplicity           Mult            ....    1
 Number of Electrons    NEL             ....   54
 Basis Dimension        Dim             ....  143

MULLIKEN ATOMIC CHARGES
-----------------------
   0 C :    0.028381
   1 C :    0.029378
   2 N :   -0.247465
   3 C :    0.193649
   4 C :   -0.021853
   5 O :   -0.279730
   6 C :    0.050406
   7 H :    0.032278
   8 H :    0.026054
   9 H :    0.018080
  10 H :    0.011240
  11 H :    0.101922
  12 H :    0.021535
  13 H :    0.010427
  14 H :    0.016597
  15 H :    0.009101
Sum of atomic charges:    0.0000000

LOEWDIN ATOMIC CHARGES
----------------------
   0 C :   -0.062140
   1 C :   -0.005957
   2 N :   -0.092165
   3 C :    0.008305
   4 C :    0.027295
   5 O :   -0.155256
   6 C :    0.035644
   7 H :    0.031096
   8 H :    0.028359
   9 H :    0.031472
  10 H :    0.022536
  11 H :    0.052987
  12 H :    0.026506
  13 H :    0.021814
  14 H :    0.015240
  15 H :    0.014265

  Mayer bond orders larger than 0.1
B(  0-C ,  1-C ) :   1.1073 B(  0-C ,  7-H ) :   0.9591 B(  0-C ,  8-H ) :   0.9498
B(  0-C ,  9-H ) :   0.9550 B(  1-C ,  2-N ) :   1.0465 B(  1-C ,  6-C ) :   0.9433
B(  1-C , 10-H ) :   0.8980 B(  2-N ,  3-C ) :   1.0676 B(  2-N , 11-H ) :   0.9428
B(  3-C ,  4-C ) :   0.9803 B(  3-C , 12-H ) :   0.9354 B(  3-C , 13-H ) :   0.9160
B(  4-C ,  5-O ) :   0.9871 B(  4-C ,  6-C ) :   1.0391 B(  4-C , 14-H ) :   0.9522
B(  5-O ,  6-C ) :   0.9701 B(  6-C , 15-H ) :   0.9522

FINAL SINGLE POINT ENERGY      -325.233623640091

DIPOLE MOMENT
-------------
                                X             Y             Z
Electronic contribution:      0.84107       0.12888      -3.66945
Nuclear contribution   :     -0.52126      -0.01076       3.75944
                        -----------------------------------------
Total Dipole Moment    :      0.31981       0.11812       0.08999
                        -----------------------------------------
Magnitude (a.u.)       :      0.35260
Magnitude (Debye)      :      0.89624

                             ****ORCA TERMINATED NORMALLY****
TOTAL RUN TIME: 0 days 0 hours 0 minutes 7 seconds 109 msec
