                         Program Version 3.0.3 - RELEASE   -
|  1> ! RI PBE def2-SVP def2-SVP/J NBO PAL2
|  2> % maxcore 2000
|  3> % output
|  4>     # printlevel mini
|  5>     print[ P_Basis ] 0
|  6>     print[ P_SCFInfo ] 1
|  7>     print[ P_SCFIterInfo ] 1
|  8>     print[ P_OrbEn ] 0
|  9>     print[ P_Cartesian ] 0
| 10> end
| 11> *xyz 0 1
| 12>  C        1.1474780000    -0.0239570000    -0.0959910000
| 13>  C        2.6427690000    -0.0586400000     0.1008990000
| 14>  N        3.1330260000     1.0467090000     0.9091870000
| 15>  C        4.4402700000     0.6385620000     1.4462100000
| 16>  C        4.5565040000    -0.8871340000     1.2645120000
| 17>  C        3.1660090000    -1.3177750000     0.8001100000
| 18>  O        3.1245910000    -2.4946470000     0.0298430000
| 19>  H        0.8378200000     0.8791450000    -0.6254070000
| 20>  H        0.6314760000    -0.0490040000     0.8700440000
| 21>  H        0.8219790000    -0.8937770000    -0.6697710000
| 22>  H        3.1336960000    -0.0076470000    -0.8855790000
| 23>  H        2.4833110000     1.2074010000     1.6692050000
| 24>  H        4.5231080000     0.9382180000     2.4927580000
| 25>  H        5.2403370000     1.1540420000     0.9063540000
| 26>  H        4.8768030000    -1.4078800000     2.1678210000
| 27>  H        5.2809270000    -1.1314580000     0.4796010000
| 28>  H        2.5233010000    -1.5213310000     1.6647060000
| 29>  H        3.7276050000    -2.3885970000    -0.7121120000
| 30> *
| 31>
| 32>                          ****END OF INPUT****
 Total Charge           Charge          ....    0
 Multiplicity           Mult            ....    1
 Number of Electrons    NEL             ....   56
 Basis Dimension        Dim             ....  153

MULLIKEN ATOMIC CHARGES
-----------------------
   0 C :    0.051809
   1 C :   -0.040132
   2 N :   -0.238600
   3 C :    0.122832
   4 C :    0.016939
   5 C :    0.055030
   6 O :   -0.255834
   7 H :    0.030539
   8 H :    0.003411
   9 H :    0.024756
  10 H :   -0.017733
  11 H :    0.092600
  12 H :    0.003961
  13 H :    0.002514
  14 H :    0.016850
  15 H :   -0.011961
  16 H :   -0.007659
  17 H :    0.150678
Sum of atomic charges:   -0.0000000

LOEWDIN ATOMIC CHARGES
----------------------
   0 C :   -0.062233
   1 C :   -0.021232
   2 N :   -0.099299
   3 C :    0.016439
   4 C :   -0.069687
   5 C :    0.028776
   6 O :   -0.103182
   7 H :    0.030464
   8 H :    0.021966
   9 H :    0.033080
  10 H :    0.010943
  11 H :    0.049643
  12 H :    0.018889
  13 H :    0.016579
  14 H :    0.027786
  15 H :    0.019733
  16 H :    0.017194
  17 H :    0.064143

  Mayer bond orders larger than 0.1
B(  0-C ,  1-C ) :   1.1084 B(  0-C ,  7-H ) :   0.9595 B(  0-C ,  8-H ) :   0.9442
B(  0-C ,  9-H ) :   0.9504 B(  1-C ,  2-N ) :   1.0584 B(  1-C ,  5-C ) :   0.9613
B(  1-C , 10-H ) :   0.8947 B(  2-N ,  3-C ) :   1.0781 B(  2-N , 11-H ) :   0.9450
B(  3-C ,  4-C ) :   1.0618 B(  3-C , 12-H ) :   0.9465 B(  3-C , 13-H ) :   0.9307
B(  4-C ,  5-C ) :   1.0817 B(  4-C , 14-H ) :   0.9260 B(  4-C , 15-H ) :   0.9098
B(  5-C ,  6-O ) :   1.0773 B(  5-C , 16-H ) :   0.8995 B(  6-O , 17-H ) :   0.9785

FINAL SINGLE POINT ENERGY      -326.456070788154

DIPOLE MOMENT
-------------
                                X             Y             Z
Electronic contribution:      0.88116      -1.78670      -0.35361
Nuclear contribution   :     -0.65962       1.88499       0.48252
                        -----------------------------------------
Total Dipole Moment    :      0.22154       0.09829       0.12891
                        -----------------------------------------
Magnitude (a.u.)       :      0.27451
Magnitude (Debye)      :      0.69775

                             ****ORCA TERMINATED NORMALLY****
TOTAL RUN TIME: 0 days 0 hours 0 minutes 8 seconds 182 msec
