                         Program Version 3.0.3 - RELEASE   -
|  1> ! RI PBE def2-SVP def2-SVP/J NBO PAL2
|  2> % maxcore 2000
|  3> % output
|  4>     # printlevel mini
|  5>     print[ P_Basis ] 0
|  6>     print[ P_SCFInfo ] 1
|  7>     print[ P_SCFIterInfo ] 1
|  8>     print[ P_OrbEn ] 0
|  9>     print[ P_Cartesian ] 0
| 10> end
| 11> *xyz 0 1
| 12>  C        0.9617340000     0.1705390000    -0.0011210000
| 13>  C        2.4351900000     0.1353040000     0.0003300000
| 14>  N        3.2091970000     1.1457520000     0.0017040000
| 15>  C        4.5610190000     0.6337210000     0.0027880000
| 16>  C        4.6496010000    -0.6968770000     0.0021430000
| 17>  C        3.2527770000    -1.1734450000     0.0002450000
| 18>  O        2.8044470000    -2.2874150000    -0.0008250000
| 19>  H        0.6034960000     1.1985970000    -0.0008140000
| 20>  H        0.5710090000    -0.3591900000     0.8727520000
| 21>  H        0.5727570000    -0.3580580000    -0.8764580000
| 22>  H        5.3648500000     1.3576440000     0.0040890000
| 23>  H        5.5280030000    -1.3218520000     0.0027580000
| 24> *
| 25>
| 26>                          ****END OF INPUT****
 Total Charge           Charge          ....    0
 Multiplicity           Mult            ....    1
 Number of Electrons    NEL             ....   50
 Basis Dimension        Dim             ....  123

MULLIKEN ATOMIC CHARGES
-----------------------
   0 C :    0.094519
   1 C :   -0.174474
   2 N :   -0.120465
   3 C :    0.092039
   4 C :   -0.031572
   5 C :    0.077219
   6 O :   -0.091036
   7 H :    0.037485
   8 H :    0.050109
   9 H :    0.050081
  10 H :    0.015609
  11 H :    0.000487
Sum of atomic charges:   -0.0000000

LOEWDIN ATOMIC CHARGES
----------------------
   0 C :   -0.060524
   1 C :   -0.012565
   2 N :   -0.085908
   3 C :    0.064603
   4 C :   -0.097867
   5 C :    0.043027
   6 O :   -0.065509
   7 H :    0.044289
   8 H :    0.054355
   9 H :    0.054351
  10 H :    0.025785
  11 H :    0.035964

  Mayer bond orders larger than 0.1
B(  0-C ,  1-C ) :   1.1143 B(  0-C ,  7-H ) :   0.9404 B(  0-C ,  8-H ) :   0.9292
B(  0-C ,  9-H ) :   0.9292 B(  1-C ,  2-N ) :   1.9208 B(  1-C ,  5-C ) :   0.8412
B(  2-N ,  3-C ) :   1.0816 B(  3-C ,  4-C ) :   1.6553 B(  3-C , 10-H ) :   0.9929
B(  4-C ,  5-C ) :   0.9957 B(  4-C , 11-H ) :   1.0071 B(  5-C ,  6-O ) :   2.1976

FINAL SINGLE POINT ENERGY      -322.843906536429

DIPOLE MOMENT
-------------
                                X             Y             Z
Electronic contribution:      2.72255      -1.80024       0.00136
Nuclear contribution   :     -2.59996       2.00355      -0.00107
                        -----------------------------------------
Total Dipole Moment    :      0.12260       0.20330       0.00028
                        -----------------------------------------
Magnitude (a.u.)       :      0.23741
Magnitude (Debye)      :      0.60344

                             ****ORCA TERMINATED NORMALLY****
TOTAL RUN TIME: 0 days 0 hours 0 minutes 5 seconds 936 msec
