                         Program Version 3.0.3 - RELEASE   -
|  1> ! RI PBE def2-SVP def2-SVP/J NBO PAL2
|  2> % maxcore 2000
|  3> % output
|  4>     # printlevel mini
|  5>     print[ P_Basis ] 0
|  6>     print[ P_SCFInfo ] 1
|  7>     print[ P_SCFIterInfo ] 1
|  8>     print[ P_OrbEn ] 0
|  9>     print[ P_Cartesian ] 0
| 10> end
| 11> *xyz 0 1
| 12>  C        0.8871290000    -0.0723440000     0.1955930000
| 13>  C        2.3979740000    -0.0306240000     0.1311110000
| 14>  N        2.9284510000    -0.0772980000    -1.2273080000
| 15>  C        3.1265830000     1.0657460000     0.9368150000
| 16>  C        4.1745690000     0.0296620000     1.3840300000
| 17>  C        3.1865780000    -1.0778030000     0.9754110000
| 18>  O        3.6621750000    -2.2050640000     0.3111020000
| 19>  H        0.4475560000     0.7839780000    -0.3256890000
| 20>  H        0.5325790000    -0.0575160000     1.2296370000
| 21>  H        0.5066690000    -0.9853850000    -0.2738860000
| 22>  H        2.8877550000     0.8366460000    -1.6610090000
| 23>  H        2.3734040000    -0.7039020000    -1.7988240000
| 24>  H        2.5105920000     1.4224010000     1.7642800000
| 25>  H        3.4829090000     1.9289100000     0.3704340000
| 26>  H        4.5122650000     0.0523340000     2.4206300000
| 27>  H        5.0438230000     0.0271150000     0.7245600000
| 28>  H        2.5926260000    -1.4265600000     1.8240760000
| 29>  H        4.0407740000    -1.8674060000    -0.5122550000
| 30> *
| 31>
| 32>                          ****END OF INPUT****
 Total Charge           Charge          ....    0
 Multiplicity           Mult            ....    1
 Number of Electrons    NEL             ....   56
 Basis Dimension        Dim             ....  153

MULLIKEN ATOMIC CHARGES
-----------------------
   0 C :    0.103432
   1 C :   -0.368580
   2 N :   -0.150874
   3 C :    0.103212
   4 C :    0.070785
   5 C :    0.140834
   6 O :   -0.247455
   7 H :    0.009452
   8 H :    0.003415
   9 H :    0.017600
  10 H :    0.095255
  11 H :    0.093073
  12 H :    0.003472
  13 H :   -0.004162
  14 H :    0.006285
  15 H :   -0.002182
  16 H :   -0.013215
  17 H :    0.139651
Sum of atomic charges:   -0.0000000

LOEWDIN ATOMIC CHARGES
----------------------
   0 C :   -0.071129
   1 C :   -0.044345
   2 N :   -0.078316
   3 C :   -0.028217
   4 C :   -0.047827
   5 C :    0.043664
   6 O :   -0.103683
   7 H :    0.022133
   8 H :    0.024541
   9 H :    0.026299
  10 H :    0.054479
  11 H :    0.052946
  12 H :    0.024712
  13 H :    0.016524
  14 H :    0.016934
  15 H :    0.025204
  16 H :    0.015696
  17 H :    0.050385

  Mayer bond orders larger than 0.1
B(  0-C ,  1-C ) :   1.0696 B(  0-C ,  7-H ) :   0.9560 B(  0-C ,  8-H ) :   0.9357
B(  0-C ,  9-H ) :   0.9501 B(  1-C ,  2-N ) :   1.0782 B(  1-C ,  3-C ) :   1.0701
B(  1-C ,  5-C ) :   0.9517 B(  2-N , 10-H ) :   0.9600 B(  2-N , 11-H ) :   0.9591
B(  3-C ,  4-C ) :   1.1463 B(  3-C , 12-H ) :   0.9175 B(  3-C , 13-H ) :   0.9040
B(  4-C ,  5-C ) :   1.0764 B(  4-C , 14-H ) :   0.9251 B(  4-C , 15-H ) :   0.8909
B(  5-C ,  6-O ) :   1.1425 B(  5-C , 16-H ) :   0.9106 B(  6-O , 17-H ) :   0.9526

FINAL SINGLE POINT ENERGY      -326.445501915481

DIPOLE MOMENT
-------------
                                X             Y             Z
Electronic contribution:      2.43734      -3.07616      -0.38610
Nuclear contribution   :     -2.86257       3.79780      -0.06035
                        -----------------------------------------
Total Dipole Moment    :     -0.42522       0.72164      -0.44644
                        -----------------------------------------
Magnitude (a.u.)       :      0.94915
Magnitude (Debye)      :      2.41254

                             ****ORCA TERMINATED NORMALLY****
TOTAL RUN TIME: 0 days 0 hours 0 minutes 8 seconds 220 msec
