                         Program Version 3.0.3 - RELEASE   -
|  1> ! RI PBE def2-SVP def2-SVP/J NBO PAL2
|  2> % maxcore 2000
|  3> % output
|  4>     # printlevel mini
|  5>     print[ P_Basis ] 0
|  6>     print[ P_SCFInfo ] 1
|  7>     print[ P_SCFIterInfo ] 1
|  8>     print[ P_OrbEn ] 0
|  9>     print[ P_Cartesian ] 0
| 10> end
| 11> *xyz 0 1
| 12>  C        1.0754100000    -0.2776810000     0.3328930000
| 13>  C        2.5387980000     0.0137700000     0.0475120000
| 14>  N        3.2836380000     0.8744590000     0.9964970000
| 15>  C        2.5919180000     1.7989570000     1.8508060000
| 16>  C        3.9924840000    -0.2509530000     1.6103870000
| 17>  C        3.4687580000    -1.1196900000     0.4762570000
| 18>  O        3.6771320000    -2.2265440000     0.0903800000
| 19>  H        0.4638560000     0.6181670000     0.2038680000
| 20>  H        0.9210680000    -0.6552750000     1.3463310000
| 21>  H        0.7169640000    -1.0356460000    -0.3664390000
| 22>  H        2.6619990000     0.3320290000    -0.9942590000
| 23>  H        2.0547930000     2.5357100000     1.2491320000
| 24>  H        3.3200960000     2.3428660000     2.4572930000
| 25>  H        1.8712540000     1.3241030000     2.5377760000
| 26>  H        3.5866350000    -0.5806900000     2.5814900000
| 27>  H        5.0772860000    -0.1414710000     1.7006640000
| 28> *
| 29>
| 30>                          ****END OF INPUT****
 Total Charge           Charge          ....    0
 Multiplicity           Mult            ....    1
 Number of Electrons    NEL             ....   54
 Basis Dimension        Dim             ....  143

MULLIKEN ATOMIC CHARGES
-----------------------
   0 C :    0.045331
   1 C :   -0.021768
   2 N :   -0.358778
   3 C :    0.093285
   4 C :    0.144843
   5 C :   -0.027343
   6 O :   -0.113223
   7 H :    0.035290
   8 H :    0.013594
   9 H :    0.043684
  10 H :    0.031574
  11 H :    0.024565
  12 H :    0.029376
  13 H :   -0.001936
  14 H :    0.015815
  15 H :    0.045692
Sum of atomic charges:    0.0000000

LOEWDIN ATOMIC CHARGES
----------------------
   0 C :   -0.062255
   1 C :   -0.012445
   2 N :   -0.121487
   3 C :   -0.005919
   4 C :    0.000095
   5 C :    0.059152
   6 O :   -0.088464
   7 H :    0.032208
   8 H :    0.027672
   9 H :    0.041395
  10 H :    0.026850
  11 H :    0.025906
  12 H :    0.027396
  13 H :   -0.000522
  14 H :    0.020901
  15 H :    0.029517

  Mayer bond orders larger than 0.1
B(  0-C ,  1-C ) :   1.0804 B(  0-C ,  7-H ) :   0.9544 B(  0-C ,  8-H ) :   0.9472
B(  0-C ,  9-H ) :   0.9494 B(  1-C ,  2-N ) :   0.9986 B(  1-C ,  4-C ) :  -0.1059
B(  1-C ,  5-C ) :   0.9142 B(  1-C , 10-H ) :   0.9024 B(  2-N ,  3-C ) :   1.0412
B(  2-N ,  4-C ) :   1.0211 B(  3-C , 11-H ) :   0.9694 B(  3-C , 12-H ) :   0.9673
B(  3-C , 13-H ) :   0.9383 B(  4-C ,  5-C ) :   0.9625 B(  4-C , 14-H ) :   0.8957
B(  4-C , 15-H ) :   0.9207 B(  5-C ,  6-O ) :   2.2660

FINAL SINGLE POINT ENERGY      -325.233127309980

DIPOLE MOMENT
-------------
                                X             Y             Z
Electronic contribution:      4.76921      -5.11468      -2.96131
Nuclear contribution   :     -5.27650       5.83778       3.39488
                        -----------------------------------------
Total Dipole Moment    :     -0.50728       0.72311       0.43357
                        -----------------------------------------
Magnitude (a.u.)       :      0.98397
Magnitude (Debye)      :      2.50105

                             ****ORCA TERMINATED NORMALLY****
TOTAL RUN TIME: 0 days 0 hours 0 minutes 7 seconds 261 msec
