                         Program Version 3.0.3 - RELEASE   -
|  1> ! RI PBE def2-SVP def2-SVP/J NBO PAL2
|  2> % maxcore 2000
|  3> % output
|  4>     # printlevel mini
|  5>     print[ P_Basis ] 0
|  6>     print[ P_SCFInfo ] 1
|  7>     print[ P_SCFIterInfo ] 1
|  8>     print[ P_OrbEn ] 0
|  9>     print[ P_Cartesian ] 0
| 10> end
| 11> *xyz 0 1
| 12>  C        1.0716790000    -0.0456200000     0.0903460000
| 13>  C        2.5750360000    -0.0635500000     0.0039390000
| 14>  N        3.3011760000     0.9684880000     0.7904630000
| 15>  C        4.2951400000    -0.0529900000     1.2313620000
| 16>  C        5.6120130000     0.0788300000     0.5025560000
| 17>  C        3.3629480000    -1.1680080000     0.7299770000
| 18>  O        3.9758470000    -2.1920960000    -0.0037960000
| 19>  H        0.6687980000     0.8944600000    -0.2958140000
| 20>  H        0.7354620000    -0.1596250000     1.1262030000
| 21>  H        0.6361810000    -0.8579690000    -0.4982750000
| 22>  H        2.8922360000    -0.0031080000    -1.0436550000
| 23>  H        2.7300390000     1.2648740000     1.5746360000
| 24>  H        4.4691710000    -0.0583580000     2.3116640000
| 25>  H        5.4645330000     0.1006380000    -0.5784310000
| 26>  H        6.2708280000    -0.7603180000     0.7363790000
| 27>  H        6.1037560000     1.0078320000     0.7987630000
| 28>  H        2.7688060000    -1.5756420000     1.5601400000
| 29>  H        3.3360520000    -2.8892260000    -0.1640460000
| 30> *
| 31>
| 32>                          ****END OF INPUT****
 Total Charge           Charge          ....    0
 Multiplicity           Mult            ....    1
 Number of Electrons    NEL             ....   56
 Basis Dimension        Dim             ....  153

MULLIKEN ATOMIC CHARGES
-----------------------
   0 C :    0.053819
   1 C :   -0.027986
   2 N :   -0.204708
   3 C :   -0.102091
   4 C :    0.103057
   5 C :    0.091458
   6 O :   -0.224955
   7 H :    0.032673
   8 H :   -0.001718
   9 H :    0.019022
  10 H :    0.000508
  11 H :    0.084320
  12 H :    0.003061
  13 H :    0.012978
  14 H :    0.019134
  15 H :    0.014338
  16 H :   -0.030106
  17 H :    0.157196
Sum of atomic charges:    0.0000000

LOEWDIN ATOMIC CHARGES
----------------------
   0 C :   -0.072037
   1 C :   -0.005356
   2 N :   -0.108252
   3 C :    0.007664
   4 C :   -0.064978
   5 C :    0.032260
   6 O :   -0.103845
   7 H :    0.032970
   8 H :    0.017815
   9 H :    0.031022
  10 H :    0.016644
  11 H :    0.044642
  12 H :    0.010841
  13 H :    0.028916
  14 H :    0.029239
  15 H :    0.027491
  16 H :    0.001982
  17 H :    0.072984

  Mayer bond orders larger than 0.1
B(  0-C ,  1-C ) :   1.1046 B(  0-C ,  7-H ) :   0.9552 B(  0-C ,  8-H ) :   0.9405
B(  0-C ,  9-H ) :   0.9520 B(  1-C ,  2-N ) :   1.0576 B(  1-C ,  5-C ) :   1.0110
B(  1-C , 10-H ) :   0.8870 B(  2-N ,  3-C ) :   1.0710 B(  2-N , 11-H ) :   0.9308
B(  3-C ,  4-C ) :   1.0720 B(  3-C ,  5-C ) :   1.0428 B(  3-C , 12-H ) :   0.9163
B(  4-C , 13-H ) :   0.9458 B(  4-C , 14-H ) :   0.9497 B(  4-C , 15-H ) :   0.9505
B(  5-C ,  6-O ) :   1.1699 B(  5-C , 16-H ) :   0.8822 B(  6-O , 17-H ) :   0.9780

FINAL SINGLE POINT ENERGY      -326.431539308939

DIPOLE MOMENT
-------------
                                X             Y             Z
Electronic contribution:      1.02292      -1.69464      -0.02021
Nuclear contribution   :     -1.79603       1.17204       0.35380
                        -----------------------------------------
Total Dipole Moment    :     -0.77311      -0.52261       0.33358
                        -----------------------------------------
Magnitude (a.u.)       :      0.99101
Magnitude (Debye)      :      2.51895

                             ****ORCA TERMINATED NORMALLY****
TOTAL RUN TIME: 0 days 0 hours 0 minutes 8 seconds 31 msec
