                         Program Version 3.0.3 - RELEASE   -
|  1> ! RI PBE def2-SVP def2-SVP/J NBO PAL2
|  2> % maxcore 2000
|  3> % output
|  4>     # printlevel mini
|  5>     print[ P_Basis ] 0
|  6>     print[ P_SCFInfo ] 1
|  7>     print[ P_SCFIterInfo ] 1
|  8>     print[ P_OrbEn ] 0
|  9>     print[ P_Cartesian ] 0
| 10> end
| 11> *xyz 0 1
| 12>  C        0.9840940000     0.0389020000     0.3322360000
| 13>  C        2.3649880000     0.0013550000    -0.2914890000
| 14>  N        3.3353420000     1.0288680000     0.1553800000
| 15>  C        4.1527170000     0.0560760000     0.9197430000
| 16>  C        5.6357730000     0.0556800000     0.6347590000
| 17>  C        3.3021180000    -1.0496850000     0.2987680000
| 18>  O        3.3569910000    -2.2395870000     0.2726120000
| 19>  H        0.4440900000     0.9335550000     0.0116100000
| 20>  H        1.0404090000     0.0432270000     1.4242510000
| 21>  H        0.4044300000    -0.8340350000     0.0247450000
| 22>  H        2.2846620000    -0.0509590000    -1.3833670000
| 23>  H        2.9203570000     1.7557830000     0.7237250000
| 24>  H        3.9740470000     0.0881340000     2.0047850000
| 25>  H        5.8181920000     0.0127610000    -0.4404680000
| 26>  H        6.1106780000    -0.8075960000     1.1065720000
| 27>  H        6.1038210000     0.9625320000     1.0239390000
| 28> *
| 29>
| 30>                          ****END OF INPUT****
 Total Charge           Charge          ....    0
 Multiplicity           Mult            ....    1
 Number of Electrons    NEL             ....   54
 Basis Dimension        Dim             ....  143

MULLIKEN ATOMIC CHARGES
-----------------------
   0 C :    0.037385
   1 C :   -0.072893
   2 N :   -0.200445
   3 C :   -0.080896
   4 C :    0.087799
   5 C :    0.007367
   6 O :   -0.113085
   7 H :    0.040582
   8 H :    0.016196
   9 H :    0.042728
  10 H :    0.038871
  11 H :    0.090250
  12 H :    0.035154
  13 H :    0.016002
  14 H :    0.030339
  15 H :    0.024644
Sum of atomic charges:    0.0000000

LOEWDIN ATOMIC CHARGES
----------------------
   0 C :   -0.064833
   1 C :   -0.021613
   2 N :   -0.101318
   3 C :   -0.021884
   4 C :   -0.058368
   5 C :    0.056364
   6 O :   -0.089314
   7 H :    0.033135
   8 H :    0.026732
   9 H :    0.040425
  10 H :    0.030380
  11 H :    0.047216
  12 H :    0.027569
  13 H :    0.029840
  14 H :    0.034722
  15 H :    0.030946

  Mayer bond orders larger than 0.1
B(  0-C ,  1-C ) :   1.0808 B(  0-C ,  7-H ) :   0.9574 B(  0-C ,  8-H ) :   0.9501
B(  0-C ,  9-H ) :   0.9493 B(  1-C ,  2-N ) :   1.0622 B(  1-C ,  3-C ) :  -0.1037
B(  1-C ,  5-C ) :   0.9159 B(  1-C , 10-H ) :   0.8982 B(  2-N ,  3-C ) :   1.0476
B(  2-N , 11-H ) :   0.9289 B(  3-C ,  4-C ) :   1.0845 B(  3-C ,  5-C ) :   0.8977
B(  3-C , 12-H ) :   0.8933 B(  4-C , 13-H ) :   0.9513 B(  4-C , 14-H ) :   0.9511
B(  4-C , 15-H ) :   0.9566 B(  5-C ,  6-O ) :   2.2770

FINAL SINGLE POINT ENERGY      -325.244844650445

DIPOLE MOMENT
-------------
                                X             Y             Z
Electronic contribution:      0.22430      -3.71846      -0.92882
Nuclear contribution   :     -0.56791       4.51424       1.33532
                        -----------------------------------------
Total Dipole Moment    :     -0.34361       0.79578       0.40650
                        -----------------------------------------
Magnitude (a.u.)       :      0.95738
Magnitude (Debye)      :      2.43346

                             ****ORCA TERMINATED NORMALLY****
TOTAL RUN TIME: 0 days 0 hours 0 minutes 7 seconds 668 msec
