                         Program Version 3.0.3 - RELEASE   -
|  1> ! RI PBE def2-SVP def2-SVP/J NBO PAL2
|  2> % maxcore 2000
|  3> % output
|  4>     # printlevel mini
|  5>     print[ P_Basis ] 0
|  6>     print[ P_SCFInfo ] 1
|  7>     print[ P_SCFIterInfo ] 1
|  8>     print[ P_OrbEn ] 0
|  9>     print[ P_Cartesian ] 0
| 10> end
| 11> *xyz 0 1
| 12>  C        1.1595380000     0.1306290000     0.4619730000
| 13>  C        2.5851570000    -0.0155460000    -0.0652660000
| 14>  N        3.5159130000     1.0348880000     0.3216670000
| 15>  C        4.1367270000     0.6496750000     1.5867140000
| 16>  C        4.3881320000    -0.8358710000     1.3894780000
| 17>  C        3.2298160000    -1.2694510000     0.5154580000
| 18>  O        2.8549910000    -2.3930190000     0.3234850000
| 19>  H        0.6845290000     1.0153660000     0.0308170000
| 20>  H        1.1446620000     0.2304530000     1.5506800000
| 21>  H        0.5656360000    -0.7448550000     0.1920170000
| 22>  H        2.5523650000    -0.1187210000    -1.1554540000
| 23>  H        3.0803210000     1.9458950000     0.3624610000
| 24>  H        3.4862760000     0.8040780000     2.4623840000
| 25>  H        5.0518930000     1.2218390000     1.7498340000
| 26>  H        4.4417140000    -1.4302150000     2.3010800000
| 27>  H        5.3070200000    -1.0027650000     0.8172600000
| 28> *
| 29>
| 30>                          ****END OF INPUT****
 Total Charge           Charge          ....    0
 Multiplicity           Mult            ....    1
 Number of Electrons    NEL             ....   54
 Basis Dimension        Dim             ....  143

MULLIKEN ATOMIC CHARGES
-----------------------
   0 C :    0.025684
   1 C :   -0.019578
   2 N :   -0.247764
   3 C :    0.111498
   4 C :    0.039066
   5 C :   -0.071648
   6 O :   -0.142714
   7 H :    0.027670
   8 H :    0.017001
   9 H :    0.037694
  10 H :    0.031288
  11 H :    0.095970
  12 H :    0.001582
  13 H :    0.011390
  14 H :    0.034216
  15 H :    0.048645
Sum of atomic charges:   -0.0000000

LOEWDIN ATOMIC CHARGES
----------------------
   0 C :   -0.066725
   1 C :   -0.030131
   2 N :   -0.099902
   3 C :    0.018428
   4 C :   -0.068797
   5 C :    0.064029
   6 O :   -0.110267
   7 H :    0.027513
   8 H :    0.026165
   9 H :    0.035945
  10 H :    0.033825
  11 H :    0.053115
  12 H :    0.000418
  13 H :    0.021032
  14 H :    0.041029
  15 H :    0.054323

  Mayer bond orders larger than 0.1
B(  0-C ,  1-C ) :   1.0677 B(  0-C ,  7-H ) :   0.9581 B(  0-C ,  8-H ) :   0.9543
B(  0-C ,  9-H ) :   0.9456 B(  1-C ,  2-N ) :   1.0713 B(  1-C ,  5-C ) :   0.9072
B(  1-C , 10-H ) :   0.8963 B(  2-N ,  3-C ) :   1.0188 B(  2-N , 11-H ) :   0.9419
B(  3-C ,  4-C ) :   1.0950 B(  3-C , 12-H ) :   0.9195 B(  3-C , 13-H ) :   0.9322
B(  4-C ,  5-C ) :   1.0169 B(  4-C , 14-H ) :   0.9215 B(  4-C , 15-H ) :   0.8923
B(  5-C ,  6-O ) :   2.2262

FINAL SINGLE POINT ENERGY      -325.268358180656

DIPOLE MOMENT
-------------
                                X             Y             Z
Electronic contribution:      1.53053      -4.05042      -1.88327
Nuclear contribution   :     -1.51450       5.01320       2.27452
                        -----------------------------------------
Total Dipole Moment    :      0.01603       0.96278       0.39125
                        -----------------------------------------
Magnitude (a.u.)       :      1.03937
Magnitude (Debye)      :      2.64186

                             ****ORCA TERMINATED NORMALLY****
TOTAL RUN TIME: 0 days 0 hours 0 minutes 7 seconds 813 msec
