                         Program Version 3.0.3 - RELEASE   -
|  1> ! RI PBE def2-SVP def2-SVP/J NBO PAL2
|  2> % maxcore 2000
|  3> % output
|  4>     # printlevel mini
|  5>     print[ P_Basis ] 0
|  6>     print[ P_SCFInfo ] 1
|  7>     print[ P_SCFIterInfo ] 1
|  8>     print[ P_OrbEn ] 0
|  9>     print[ P_Cartesian ] 0
| 10> end
| 11> *xyz 0 1
| 12>  C        0.9897600000    -0.0181980000    -0.0589210000
| 13>  C        2.4679850000     0.0560460000    -0.0801030000
| 14>  N        3.2087430000     1.1344130000     0.0194320000
| 15>  C        4.5099670000     0.7189660000    -0.0591360000
| 16>  C        4.5787230000    -0.6347580000    -0.2099620000
| 17>  N        3.2691060000    -1.0320380000    -0.2079010000
| 18>  O        2.8350150000    -2.3099850000    -0.4183780000
| 19>  H        0.5978080000     0.9969530000    -0.0390230000
| 20>  H        0.6203360000    -0.5489470000     0.8235780000
| 21>  H        0.6028180000    -0.5348090000    -0.9403530000
| 22>  H        5.3286450000     1.4199630000    -0.0071570000
| 23>  H        5.3863650000    -1.3372500000    -0.3253720000
| 24>  H        2.7793260000    -2.7186460000     0.4549950000
| 25> *
| 26>
| 27>                          ****END OF INPUT****
 Total Charge           Charge          ....    0
 Multiplicity           Mult            ....    1
 Number of Electrons    NEL             ....   52
 Basis Dimension        Dim             ....  128

MULLIKEN ATOMIC CHARGES
-----------------------
   0 C :    0.093260
   1 C :   -0.085362
   2 N :   -0.138784
   3 C :    0.009368
   4 C :    0.053127
   5 N :   -0.046993
   6 O :   -0.167685
   7 H :    0.038181
   8 H :    0.025121
   9 H :    0.039632
  10 H :   -0.009233
  11 H :   -0.003179
  12 H :    0.192547
Sum of atomic charges:   -0.0000000

LOEWDIN ATOMIC CHARGES
----------------------
   0 C :   -0.068596
   1 C :   -0.037044
   2 N :   -0.117664
   3 C :   -0.051031
   4 C :   -0.062709
   5 N :    0.121916
   6 O :   -0.040649
   7 H :    0.049926
   8 H :    0.035947
   9 H :    0.041761
  10 H :    0.017500
  11 H :    0.023053
  12 H :    0.087590

  Mayer bond orders larger than 0.1
B(  0-C ,  1-C ) :   1.1230 B(  0-C ,  7-H ) :   0.9331 B(  0-C ,  8-H ) :   0.9367
B(  0-C ,  9-H ) :   0.9362 B(  1-C ,  2-N ) :   1.6465 B(  1-C ,  5-N ) :   1.1900
B(  2-N ,  3-C ) :   1.3897 B(  3-C ,  4-C ) :   1.4828 B(  3-C , 10-H ) :   0.9867
B(  4-C ,  5-N ) :   1.1621 B(  4-C , 11-H ) :   0.9808 B(  5-N ,  6-O ) :   0.9501
B(  6-O , 12-H ) :   0.9660

FINAL SINGLE POINT ENERGY      -340.053592282587

DIPOLE MOMENT
-------------
                                X             Y             Z
Electronic contribution:      2.83744      -0.74286      -0.34059
Nuclear contribution   :     -2.97451      -0.46671       0.78399
                        -----------------------------------------
Total Dipole Moment    :     -0.13707      -1.20957       0.44340
                        -----------------------------------------
Magnitude (a.u.)       :      1.29555
Magnitude (Debye)      :      3.29303

                             ****ORCA TERMINATED NORMALLY****
TOTAL RUN TIME: 0 days 0 hours 0 minutes 6 seconds 148 msec
