                         Program Version 3.0.3 - RELEASE   -
|  1> ! RI PBE def2-SVP def2-SVP/J NBO PAL2
|  2> % maxcore 2000
|  3> % output
|  4>     # printlevel mini
|  5>     print[ P_Basis ] 0
|  6>     print[ P_SCFInfo ] 1
|  7>     print[ P_SCFIterInfo ] 1
|  8>     print[ P_OrbEn ] 0
|  9>     print[ P_Cartesian ] 0
| 10> end
| 11> *xyz 0 1
| 12>  C        1.2139790000     0.1466710000     0.2529460000
| 13>  C        2.6766290000     0.0060720000     0.0624500000
| 14>  N        3.3239170000    -1.0865400000     0.1199650000
| 15>  C        4.7227430000    -0.7627810000    -0.1580700000
| 16>  C        4.8214170000     0.7539400000     0.0098120000
| 17>  N        3.4437130000     1.1347090000    -0.2832920000
| 18>  O        3.0490560000     2.3093040000     0.3781200000
| 19>  H        0.7834210000    -0.8325940000     0.4497760000
| 20>  H        0.7532510000     0.5754990000    -0.6408440000
| 21>  H        0.9990780000     0.8206740000     1.0843610000
| 22>  H        4.9566190000    -1.0585280000    -1.1872800000
| 23>  H        5.3898250000    -1.3179220000     0.5032390000
| 24>  H        5.5244860000     1.2352380000    -0.6706040000
| 25>  H        5.0634060000     1.0375340000     1.0416910000
| 26>  H        2.8983690000     2.9396240000    -0.3324620000
| 27> *
| 28>
| 29>                          ****END OF INPUT****
 Total Charge           Charge          ....    0
 Multiplicity           Mult            ....    1
 Number of Electrons    NEL             ....   54
 Basis Dimension        Dim             ....  138

MULLIKEN ATOMIC CHARGES
-----------------------
   0 C :    0.095089
   1 C :   -0.073332
   2 N :   -0.196898
   3 C :    0.089948
   4 C :    0.139914
   5 N :   -0.201283
   6 O :   -0.198313
   7 H :    0.034425
   8 H :    0.029052
   9 H :    0.041748
  10 H :    0.019872
  11 H :    0.022471
  12 H :    0.013579
  13 H :    0.004353
  14 H :    0.179375
Sum of atomic charges:   -0.0000000

LOEWDIN ATOMIC CHARGES
----------------------
   0 C :   -0.068764
   1 C :   -0.008896
   2 N :   -0.138518
   3 C :    0.006788
   4 C :    0.003411
   5 N :   -0.007264
   6 O :   -0.071811
   7 H :    0.044430
   8 H :    0.041446
   9 H :    0.042903
  10 H :    0.024963
  11 H :    0.025017
  12 H :    0.019021
  13 H :    0.013143
  14 H :    0.074132

  Mayer bond orders larger than 0.1
B(  0-C ,  1-C ) :   1.1049 B(  0-C ,  7-H ) :   0.9388 B(  0-C ,  8-H ) :   0.9357
B(  0-C ,  9-H ) :   0.9306 B(  1-C ,  2-N ) :   1.9159 B(  1-C ,  5-N ) :   1.0483
B(  2-N ,  3-C ) :   1.0541 B(  3-C ,  4-C ) :   1.0754 B(  3-C , 10-H ) :   0.9232
B(  3-C , 11-H ) :   0.9421 B(  4-C ,  5-N ) :   0.9798 B(  4-C , 12-H ) :   0.9402
B(  4-C , 13-H ) :   0.9180 B(  5-N ,  6-O ) :   0.9527 B(  6-O , 14-H ) :   0.9772

FINAL SINGLE POINT ENERGY      -341.240225988298

DIPOLE MOMENT
-------------
                                X             Y             Z
Electronic contribution:      0.24556       0.89617      -0.16133
Nuclear contribution   :     -0.11672       0.00608      -0.21552
                        -----------------------------------------
Total Dipole Moment    :      0.12884       0.90225      -0.37685
                        -----------------------------------------
Magnitude (a.u.)       :      0.98624
Magnitude (Debye)      :      2.50683

                             ****ORCA TERMINATED NORMALLY****
TOTAL RUN TIME: 0 days 0 hours 0 minutes 7 seconds 78 msec
