                         Program Version 3.0.3 - RELEASE   -
|  1> ! RI PBE def2-SVP def2-SVP/J NBO PAL2
|  2> % maxcore 2000
|  3> % output
|  4>     # printlevel mini
|  5>     print[ P_Basis ] 0
|  6>     print[ P_SCFInfo ] 1
|  7>     print[ P_SCFIterInfo ] 1
|  8>     print[ P_OrbEn ] 0
|  9>     print[ P_Cartesian ] 0
| 10> end
| 11> *xyz 0 1
| 12>  C        0.9893890000     0.0236950000    -0.0383410000
| 13>  C        2.4577330000     0.1706550000    -0.0428220000
| 14>  N        3.1733590000     1.2326500000    -0.0459900000
| 15>  C        4.4916860000     0.7986350000    -0.0494440000
| 16>  C        4.4912300000    -0.5575040000    -0.0481140000
| 17>  N        5.4396110000    -1.5297790000    -0.0499850000
| 18>  O        3.2064190000    -0.9804980000    -0.0439020000
| 19>  H        0.5432990000     1.0164240000    -0.0379700000
| 20>  H        0.6456720000    -0.5198010000     0.8460590000
| 21>  H        0.6404520000    -0.5214850000    -0.9196550000
| 22>  H        5.3260450000     1.4797420000    -0.0525790000
| 23>  H        6.4097070000    -1.2896310000    -0.0529250000
| 24>  H        5.1712090000    -2.4935120000    -0.0480400000
| 25> *
| 26>
| 27>                          ****END OF INPUT****
 Total Charge           Charge          ....    0
 Multiplicity           Mult            ....    1
 Number of Electrons    NEL             ....   52
 Basis Dimension        Dim             ....  128

MULLIKEN ATOMIC CHARGES
-----------------------
   0 C :    0.088576
   1 C :   -0.078233
   2 N :   -0.090466
   3 C :   -0.108389
   4 C :    0.119940
   5 N :   -0.057155
   6 O :   -0.200472
   7 H :    0.037844
   8 H :    0.034868
   9 H :    0.034936
  10 H :   -0.027386
  11 H :    0.122409
  12 H :    0.123528
Sum of atomic charges:   -0.0000000

LOEWDIN ATOMIC CHARGES
----------------------
   0 C :   -0.069215
   1 C :   -0.011223
   2 N :   -0.096308
   3 C :   -0.131871
   4 C :    0.025687
   5 N :   -0.008366
   6 O :   -0.010801
   7 H :    0.049581
   8 H :    0.040215
   9 H :    0.040225
  10 H :    0.014111
  11 H :    0.080568
  12 H :    0.077397

  Mayer bond orders larger than 0.1
B(  0-C ,  1-C ) :   1.1277 B(  0-C ,  7-H ) :   0.9397 B(  0-C ,  8-H ) :   0.9356
B(  0-C ,  9-H ) :   0.9356 B(  1-C ,  2-N ) :   1.8036 B(  1-C ,  6-O ) :   1.0797
B(  2-N ,  3-C ) :   1.2799 B(  3-C ,  4-C ) :   1.4865 B(  3-C , 10-H ) :   1.0008
B(  4-C ,  5-N ) :   1.2236 B(  4-C ,  6-O ) :   1.1408 B(  5-N , 11-H ) :   0.9527
B(  5-N , 12-H ) :   0.9426

FINAL SINGLE POINT ENERGY      -340.104484625289

DIPOLE MOMENT
-------------
                                X             Y             Z
Electronic contribution:      2.56624       0.04079      -0.00777
Nuclear contribution   :     -1.93222      -1.22257       0.00721
                        -----------------------------------------
Total Dipole Moment    :      0.63402      -1.18178      -0.00056
                        -----------------------------------------
Magnitude (a.u.)       :      1.34111
Magnitude (Debye)      :      3.40883

                             ****ORCA TERMINATED NORMALLY****
TOTAL RUN TIME: 0 days 0 hours 0 minutes 6 seconds 295 msec
