                         Program Version 3.0.3 - RELEASE   -
|  1> ! RI PBE def2-SVP def2-SVP/J NBO PAL2
|  2> % maxcore 2000
|  3> % output
|  4>     # printlevel mini
|  5>     print[ P_Basis ] 0
|  6>     print[ P_SCFInfo ] 1
|  7>     print[ P_SCFIterInfo ] 1
|  8>     print[ P_OrbEn ] 0
|  9>     print[ P_Cartesian ] 0
| 10> end
| 11> *xyz 0 1
| 12>  C        0.8976410000     0.0286070000     0.0972010000
| 13>  C        2.4199390000     0.0670650000     0.0905460000
| 14>  N        2.9888210000     0.1917280000    -1.2514390000
| 15>  C        3.0104890000     1.1843620000     0.9541180000
| 16>  C        4.3944420000     0.6469280000     1.2598920000
| 17>  O        4.2248460000    -0.7534830000     1.4180000000
| 18>  C        3.0397300000    -1.1628070000     0.7640430000
| 19>  H        0.4889760000     0.9282940000    -0.3716510000
| 20>  H        0.4973220000    -0.0349320000     1.1125270000
| 21>  H        0.5292800000    -0.8342860000    -0.4660590000
| 22>  H        2.6083960000     1.0079790000    -1.7174660000
| 23>  H        2.7401420000    -0.6124780000    -1.8159950000
| 24>  H        2.4270450000     1.2940210000     1.8725650000
| 25>  H        3.0258190000     2.1458520000     0.4358690000
| 26>  H        4.8225280000     1.0452680000     2.1829130000
| 27>  H        5.0813370000     0.8509560000     0.4307120000
| 28>  H        2.3512230000    -1.5880570000     1.5045420000
| 29>  H        3.2726030000    -1.9412250000     0.0275520000
| 30> *
| 31>
| 32>                          ****END OF INPUT****
 Total Charge           Charge          ....    0
 Multiplicity           Mult            ....    1
 Number of Electrons    NEL             ....   56
 Basis Dimension        Dim             ....  153

MULLIKEN ATOMIC CHARGES
-----------------------
   0 C :    0.093206
   1 C :   -0.428786
   2 N :   -0.133478
   3 C :    0.044189
   4 C :    0.243303
   5 O :   -0.371230
   6 C :    0.352647
   7 H :    0.009056
   8 H :    0.009756
   9 H :    0.012568
  10 H :    0.082957
  11 H :    0.086413
  12 H :    0.010011
  13 H :    0.006653
  14 H :    0.003139
  15 H :    0.001854
  16 H :   -0.008375
  17 H :   -0.013882
Sum of atomic charges:    0.0000000

LOEWDIN ATOMIC CHARGES
----------------------
   0 C :   -0.066636
   1 C :   -0.045228
   2 N :   -0.083015
   3 C :   -0.046488
   4 C :    0.070467
   5 O :   -0.162002
   6 C :    0.073523
   7 H :    0.022813
   8 H :    0.024873
   9 H :    0.023362
  10 H :    0.048474
  11 H :    0.048141
  12 H :    0.025594
  13 H :    0.026222
  14 H :    0.014043
  15 H :    0.006709
  16 H :    0.007665
  17 H :    0.011483

  Mayer bond orders larger than 0.1
B(  0-C ,  1-C ) :   1.0574 B(  0-C ,  7-H ) :   0.9527 B(  0-C ,  8-H ) :   0.9374
B(  0-C ,  9-H ) :   0.9561 B(  1-C ,  2-N ) :   1.0208 B(  1-C ,  3-C ) :   1.0483
B(  1-C ,  6-C ) :   1.0113 B(  2-N , 10-H ) :   0.9650 B(  2-N , 11-H ) :   0.9617
B(  3-C ,  4-C ) :   1.0852 B(  3-C , 12-H ) :   0.9229 B(  3-C , 13-H ) :   0.9233
B(  4-C ,  5-O ) :   1.0027 B(  4-C , 14-H ) :   0.9417 B(  4-C , 15-H ) :   0.9286
B(  5-O ,  6-C ) :   1.0297 B(  6-C , 16-H ) :   0.9342 B(  6-C , 17-H ) :   0.9117

FINAL SINGLE POINT ENERGY      -326.453306814697

DIPOLE MOMENT
-------------
                                X             Y             Z
Electronic contribution:      3.90808      -1.52725       1.28223
Nuclear contribution   :     -4.75481       1.89801      -1.73166
                        -----------------------------------------
Total Dipole Moment    :     -0.84673       0.37076      -0.44943
                        -----------------------------------------
Magnitude (a.u.)       :      1.02782
Magnitude (Debye)      :      2.61250

                             ****ORCA TERMINATED NORMALLY****
TOTAL RUN TIME: 0 days 0 hours 0 minutes 7 seconds 947 msec
