                         Program Version 3.0.3 - RELEASE   -
|  1> ! RI PBE def2-SVP def2-SVP/J NBO PAL2
|  2> % maxcore 2000
|  3> % output
|  4>     # printlevel mini
|  5>     print[ P_Basis ] 0
|  6>     print[ P_SCFInfo ] 1
|  7>     print[ P_SCFIterInfo ] 1
|  8>     print[ P_OrbEn ] 0
|  9>     print[ P_Cartesian ] 0
| 10> end
| 11> *xyz 0 1
| 12>  C        0.8083870000     0.0017070000     0.1607500000
| 13>  C        2.3209300000     0.0015950000     0.1133700000
| 14>  N        2.8720730000    -0.0244840000    -1.2432450000
| 15>  C        3.0776930000     1.0872460000     0.9139490000
| 16>  C        4.1412020000     0.0252480000     1.2726590000
| 17>  O        5.2446510000     0.0087290000     0.4097210000
| 18>  C        3.0788520000    -1.0511400000     0.9558300000
| 19>  H        0.4022380000     0.8761120000    -0.3578490000
| 20>  H        0.4425550000     0.0216900000     1.1905140000
| 21>  H        0.4032310000    -0.8927920000    -0.3231980000
| 22>  H        2.5491280000     0.7809650000    -1.7691630000
| 23>  H        2.5508440000    -0.8506950000    -1.7370070000
| 24>  H        2.5074570000     1.4035200000     1.7903940000
| 25>  H        3.4260130000     1.9659500000     0.3665060000
| 26>  H        4.5336410000     0.0454430000     2.2902920000
| 27>  H        4.8671990000    -0.0090450000    -0.4838670000
| 28>  H        2.5090380000    -1.3336620000     1.8439950000
| 29>  H        3.4282760000    -1.9500850000     0.4430510000
| 30> *
| 31>
| 32>                          ****END OF INPUT****
 Total Charge           Charge          ....    0
 Multiplicity           Mult            ....    1
 Number of Electrons    NEL             ....   56
 Basis Dimension        Dim             ....  153

MULLIKEN ATOMIC CHARGES
-----------------------
   0 C :    0.120881
   1 C :   -0.416482
   2 N :   -0.144754
   3 C :    0.170726
   4 C :    0.032462
   5 O :   -0.255971
   6 C :    0.171115
   7 H :    0.009460
   8 H :    0.004816
   9 H :    0.008993
  10 H :    0.095196
  11 H :    0.094910
  12 H :   -0.003972
  13 H :   -0.004477
  14 H :   -0.004379
  15 H :    0.130505
  16 H :   -0.004047
  17 H :   -0.004982
Sum of atomic charges:   -0.0000000

LOEWDIN ATOMIC CHARGES
----------------------
   0 C :   -0.071294
   1 C :   -0.025272
   2 N :   -0.064278
   3 C :   -0.044101
   4 C :    0.058361
   5 O :   -0.114913
   6 C :   -0.044008
   7 H :    0.023527
   8 H :    0.026147
   9 H :    0.023442
  10 H :    0.053061
  11 H :    0.052968
  12 H :    0.024835
  13 H :    0.015815
  14 H :    0.008793
  15 H :    0.036394
  16 H :    0.024769
  17 H :    0.015754

  Mayer bond orders larger than 0.1
B(  0-C ,  1-C ) :   1.0666 B(  0-C ,  7-H ) :   0.9504 B(  0-C ,  8-H ) :   0.9346
B(  0-C ,  9-H ) :   0.9502 B(  1-C ,  2-N ) :   1.0348 B(  1-C ,  3-C ) :   1.0307
B(  1-C ,  6-C ) :   1.0304 B(  2-N , 10-H ) :   0.9610 B(  2-N , 11-H ) :   0.9611
B(  2-N , 15-H ) :   0.1266 B(  3-C ,  4-C ) :   1.0305 B(  3-C , 12-H ) :   0.9098
B(  3-C , 13-H ) :   0.9058 B(  4-C ,  5-O ) :   1.1123 B(  4-C ,  6-C ) :   1.0295
B(  4-C , 14-H ) :   0.9274 B(  5-O , 15-H ) :   0.9454 B(  6-C , 16-H ) :   0.9102
B(  6-C , 17-H ) :   0.9056

FINAL SINGLE POINT ENERGY      -326.445178974548

DIPOLE MOMENT
-------------
                                X             Y             Z
Electronic contribution:      4.85133       0.00170      -0.06224
Nuclear contribution   :     -6.01753      -0.01067      -0.36850
                        -----------------------------------------
Total Dipole Moment    :     -1.16620      -0.00897      -0.43075
                        -----------------------------------------
Magnitude (a.u.)       :      1.24324
Magnitude (Debye)      :      3.16006

                             ****ORCA TERMINATED NORMALLY****
TOTAL RUN TIME: 0 days 0 hours 0 minutes 8 seconds 83 msec
