                         Program Version 3.0.3 - RELEASE   -
|  1> ! RI PBE def2-SVP def2-SVP/J NBO PAL2
|  2> % maxcore 2000
|  3> % output
|  4>     # printlevel mini
|  5>     print[ P_Basis ] 0
|  6>     print[ P_SCFInfo ] 1
|  7>     print[ P_SCFIterInfo ] 1
|  8>     print[ P_OrbEn ] 0
|  9>     print[ P_Cartesian ] 0
| 10> end
| 11> *xyz 0 1
| 12>  C        1.1397360000    -0.0126220000    -0.1040110000
| 13>  C        2.6113630000     0.1423220000     0.1198480000
| 14>  N        3.1713790000     1.2807800000     0.0301250000
| 15>  C        4.6119510000     1.3068820000     0.1594890000
| 16>  C        5.2178480000    -0.0365940000    -0.1669970000
| 17>  O        4.6122390000    -1.0267340000     0.6557180000
| 18>  N        3.2313350000    -1.0384530000     0.4887530000
| 19>  H        0.7309440000     0.9537210000    -0.3901500000
| 20>  H        0.6437470000    -0.3656840000     0.8028400000
| 21>  H        0.9323530000    -0.7340220000    -0.9002030000
| 22>  H        4.8917410000     1.6006020000     1.1779150000
| 23>  H        5.0074510000     2.0762100000    -0.5119430000
| 24>  H        6.2826440000    -0.0888510000     0.0633950000
| 25>  H        5.0657620000    -0.2851950000    -1.2260930000
| 26>  H        2.9560050000    -1.8572530000    -0.0419880000
| 27> *
| 28>
| 29>                          ****END OF INPUT****
 Total Charge           Charge          ....    0
 Multiplicity           Mult            ....    1
 Number of Electrons    NEL             ....   54
 Basis Dimension        Dim             ....  138

MULLIKEN ATOMIC CHARGES
-----------------------
   0 C :    0.052112
   1 C :   -0.155604
   2 N :   -0.174554
   3 C :    0.112817
   4 C :    0.115980
   5 O :   -0.296841
   6 N :    0.029206
   7 H :    0.036147
   8 H :    0.044950
   9 H :    0.028048
  10 H :    0.024368
  11 H :    0.014720
  12 H :    0.030319
  13 H :    0.015856
  14 H :    0.122475
Sum of atomic charges:   -0.0000000

LOEWDIN ATOMIC CHARGES
----------------------
   0 C :   -0.066995
   1 C :   -0.026734
   2 N :   -0.149949
   3 C :   -0.015578
   4 C :    0.036619
   5 O :   -0.112786
   6 N :    0.057527
   7 H :    0.044796
   8 H :    0.041318
   9 H :    0.034160
  10 H :    0.028417
  11 H :    0.027116
  12 H :    0.029130
  13 H :    0.008968
  14 H :    0.063990

  Mayer bond orders larger than 0.1
B(  0-C ,  1-C ) :   1.0496 B(  0-C ,  7-H ) :   0.9399 B(  0-C ,  8-H ) :   0.9489
B(  0-C ,  9-H ) :   0.9514 B(  1-C ,  2-N ) :   1.9210 B(  1-C ,  6-N ) :   1.1167
B(  2-N ,  3-C ) :   1.0562 B(  2-N ,  6-N ) :   0.1119 B(  3-C ,  4-C ) :   1.0756
B(  3-C , 10-H ) :   0.9207 B(  3-C , 11-H ) :   0.9257 B(  4-C ,  5-O ) :   0.9602
B(  4-C , 12-H ) :   0.9367 B(  4-C , 13-H ) :   0.9312 B(  5-O ,  6-N ) :   0.9447
B(  6-N , 14-H ) :   0.9200

FINAL SINGLE POINT ENERGY      -341.234789684171

DIPOLE MOMENT
-------------
                                X             Y             Z
Electronic contribution:      1.64973      -1.38241       1.70768
Nuclear contribution   :     -1.60176       0.82225      -2.21577
                        -----------------------------------------
Total Dipole Moment    :      0.04797      -0.56016      -0.50809
                        -----------------------------------------
Magnitude (a.u.)       :      0.75778
Magnitude (Debye)      :      1.92613

                             ****ORCA TERMINATED NORMALLY****
TOTAL RUN TIME: 0 days 0 hours 0 minutes 7 seconds 79 msec
