                         Program Version 3.0.3 - RELEASE   -
|  1> ! RI PBE def2-SVP def2-SVP/J NBO PAL2
|  2> % maxcore 2000
|  3> % output
|  4>     # printlevel mini
|  5>     print[ P_Basis ] 0
|  6>     print[ P_SCFInfo ] 1
|  7>     print[ P_SCFIterInfo ] 1
|  8>     print[ P_OrbEn ] 0
|  9>     print[ P_Cartesian ] 0
| 10> end
| 11> *xyz 0 1
| 12>  C        1.0697140000    -0.0199840000     0.1392080000
| 13>  C        2.5478110000    -0.0981880000     0.0609240000
| 14>  N        3.2297830000    -1.1749250000     0.0657650000
| 15>  C        4.6226070000    -0.7822810000    -0.0263400000
| 16>  C        4.6478690000     0.7366620000    -0.0875190000
| 17>  O        5.5733970000     1.5006830000    -0.1685360000
| 18>  N        3.3078960000     1.0639380000    -0.0266460000
| 19>  H        0.6626150000    -1.0268310000     0.2011240000
| 20>  H        0.6608820000     0.4805350000    -0.7428690000
| 21>  H        0.7578630000     0.5496580000     1.0189700000
| 22>  H        5.0975710000    -1.2053940000    -0.9165260000
| 23>  H        5.1940590000    -1.1363730000     0.8368580000
| 24>  H        2.9607130000     2.0078000000    -0.0447040000
| 25> *
| 26>
| 27>                          ****END OF INPUT****
 Total Charge           Charge          ....    0
 Multiplicity           Mult            ....    1
 Number of Electrons    NEL             ....   52
 Basis Dimension        Dim             ....  128

MULLIKEN ATOMIC CHARGES
-----------------------
   0 C :    0.087909
   1 C :   -0.095991
   2 N :   -0.182690
   3 C :    0.079747
   4 C :    0.013598
   5 O :   -0.163115
   6 N :   -0.105594
   7 H :    0.043116
   8 H :    0.041404
   9 H :    0.041360
  10 H :    0.063677
  11 H :    0.065011
  12 H :    0.111568
Sum of atomic charges:   -0.0000000

LOEWDIN ATOMIC CHARGES
----------------------
   0 C :   -0.067338
   1 C :    0.014382
   2 N :   -0.137111
   3 C :   -0.018569
   4 C :    0.025344
   5 O :   -0.159269
   6 N :    0.018437
   7 H :    0.049686
   8 H :    0.044025
   9 H :    0.044055
  10 H :    0.052966
  11 H :    0.053126
  12 H :    0.080266

  Mayer bond orders larger than 0.1
B(  0-C ,  1-C ) :   1.0947 B(  0-C ,  7-H ) :   0.9348 B(  0-C ,  8-H ) :   0.9398
B(  0-C ,  9-H ) :   0.9396 B(  1-C ,  2-N ) :   1.8949 B(  1-C ,  6-N ) :   1.0855
B(  2-N ,  3-C ) :   1.0817 B(  3-C ,  4-C ) :   0.9525 B(  3-C , 10-H ) :   0.9098
B(  3-C , 11-H ) :   0.9107 B(  4-C ,  5-O ) :   2.1738 B(  4-C ,  6-N ) :   1.1052
B(  6-N , 12-H ) :   0.9259

FINAL SINGLE POINT ENERGY      -340.130435276791

DIPOLE MOMENT
-------------
                                X             Y             Z
Electronic contribution:      4.60065       1.75717      -0.32238
Nuclear contribution   :     -5.72759      -1.45029       0.37237
                        -----------------------------------------
Total Dipole Moment    :     -1.12694       0.30687       0.04999
                        -----------------------------------------
Magnitude (a.u.)       :      1.16904
Magnitude (Debye)      :      2.97148

                             ****ORCA TERMINATED NORMALLY****
TOTAL RUN TIME: 0 days 0 hours 0 minutes 6 seconds 112 msec
