                         Program Version 3.0.3 - RELEASE   -
|  1> ! RI PBE def2-SVP def2-SVP/J NBO PAL2
|  2> % maxcore 2000
|  3> % output
|  4>     # printlevel mini
|  5>     print[ P_Basis ] 0
|  6>     print[ P_SCFInfo ] 1
|  7>     print[ P_SCFIterInfo ] 1
|  8>     print[ P_OrbEn ] 0
|  9>     print[ P_Cartesian ] 0
| 10> end
| 11> *xyz 0 1
| 12>  C        0.9465050000     0.0874310000    -0.0147690000
| 13>  C        2.4284820000     0.1213490000    -0.0193580000
| 14>  N        3.1763260000     1.1883930000    -0.0233930000
| 15>  C        4.4827060000     0.7547190000    -0.0267060000
| 16>  C        4.5045050000    -0.6079900000    -0.0245390000
| 17>  O        5.4669760000    -1.5531460000    -0.0259330000
| 18>  N        3.2025550000    -1.0102720000    -0.0198770000
| 19>  H        0.5824590000     1.1135470000    -0.0151790000
| 20>  H        0.5509910000    -0.4185070000     0.8712900000
| 21>  H        0.5455740000    -0.4211290000    -0.8968850000
| 22>  H        5.3166820000     1.4393910000    -0.0303870000
| 23>  H        6.3236000000    -1.1185180000    -0.0294140000
| 24>  H        2.8923380000    -1.9663680000    -0.0173390000
| 25> *
| 26>
| 27>                          ****END OF INPUT****
 Total Charge           Charge          ....    0
 Multiplicity           Mult            ....    1
 Number of Electrons    NEL             ....   52
 Basis Dimension        Dim             ....  128

MULLIKEN ATOMIC CHARGES
-----------------------
   0 C :    0.090679
   1 C :   -0.125152
   2 N :   -0.120919
   3 C :   -0.095386
   4 C :    0.121910
   5 O :   -0.161126
   6 N :   -0.062014
   7 H :    0.034670
   8 H :    0.026932
   9 H :    0.027034
  10 H :   -0.029826
  11 H :    0.184153
  12 H :    0.109045
Sum of atomic charges:   -0.0000000

LOEWDIN ATOMIC CHARGES
----------------------
   0 C :   -0.071426
   1 C :   -0.034367
   2 N :   -0.114017
   3 C :   -0.126611
   4 C :   -0.000115
   5 O :   -0.035873
   6 N :    0.071230
   7 H :    0.048535
   8 H :    0.034287
   9 H :    0.034306
  10 H :    0.011768
  11 H :    0.099289
  12 H :    0.082995

  Mayer bond orders larger than 0.1
B(  0-C ,  1-C ) :   1.1094 B(  0-C ,  7-H ) :   0.9346 B(  0-C ,  8-H ) :   0.9414
B(  0-C ,  9-H ) :   0.9414 B(  1-C ,  2-N ) :   1.7132 B(  1-C ,  6-N ) :   1.1697
B(  2-N ,  3-C ) :   1.3391 B(  3-C ,  4-C ) :   1.4323 B(  3-C , 10-H ) :   0.9992
B(  4-C ,  5-O ) :   1.2146 B(  4-C ,  6-N ) :   1.1852 B(  5-O , 11-H ) :   0.9647
B(  6-N , 12-H ) :   0.9282

FINAL SINGLE POINT ENERGY      -340.111889720423

DIPOLE MOMENT
-------------
                                X             Y             Z
Electronic contribution:      4.63083      -0.91281      -0.01274
Nuclear contribution   :     -4.36701      -0.18672       0.01356
                        -----------------------------------------
Total Dipole Moment    :      0.26382      -1.09952       0.00082
                        -----------------------------------------
Magnitude (a.u.)       :      1.13073
Magnitude (Debye)      :      2.87409

                             ****ORCA TERMINATED NORMALLY****
TOTAL RUN TIME: 0 days 0 hours 0 minutes 6 seconds 721 msec
