                         Program Version 3.0.3 - RELEASE   -
|  1> ! RI PBE def2-SVP def2-SVP/J NBO PAL2
|  2> % maxcore 2000
|  3> % output
|  4>     # printlevel mini
|  5>     print[ P_Basis ] 0
|  6>     print[ P_SCFInfo ] 1
|  7>     print[ P_SCFIterInfo ] 1
|  8>     print[ P_OrbEn ] 0
|  9>     print[ P_Cartesian ] 0
| 10> end
| 11> *xyz 0 1
| 12>  C        1.1139380000     0.0388400000    -0.0182510000
| 13>  C        2.5843600000     0.1609390000    -0.0226700000
| 14>  N        3.3126710000     1.2181150000    -0.0256260000
| 15>  C        4.6231970000     0.7628100000    -0.0291260000
| 16>  C        4.5926940000    -0.5876130000    -0.0280210000
| 17>  O        5.4834540000    -1.5806260000    -0.0298930000
| 18>  O        3.3118050000    -0.9966340000    -0.0239410000
| 19>  H        0.6834180000     1.0382860000    -0.0176890000
| 20>  H        0.7650580000    -0.5008160000     0.8658690000
| 21>  H        0.7598560000    -0.5020600000    -0.8995400000
| 22>  H        5.4704650000     1.4287430000    -0.0321200000
| 23>  H        6.3676850000    -1.2035950000    -0.0327820000
| 24> *
| 25>
| 26>                          ****END OF INPUT****
 Total Charge           Charge          ....    0
 Multiplicity           Mult            ....    1
 Number of Electrons    NEL             ....   52
 Basis Dimension        Dim             ....  123

MULLIKEN ATOMIC CHARGES
-----------------------
   0 C :    0.090447
   1 C :   -0.078828
   2 N :   -0.098341
   3 C :   -0.101323
   4 C :    0.187125
   5 O :   -0.128342
   6 O :   -0.170947
   7 H :    0.040610
   8 H :    0.041911
   9 H :    0.041970
  10 H :   -0.011269
  11 H :    0.186988
Sum of atomic charges:   -0.0000000

LOEWDIN ATOMIC CHARGES
----------------------
   0 C :   -0.067281
   1 C :    0.000315
   2 N :   -0.097176
   3 C :   -0.128173
   4 C :    0.024338
   5 O :   -0.007058
   6 O :    0.013164
   7 H :    0.050543
   8 H :    0.044336
   9 H :    0.044344
  10 H :    0.018279
  11 H :    0.104369

  Mayer bond orders larger than 0.1
B(  0-C ,  1-C ) :   1.1235 B(  0-C ,  7-H ) :   0.9406 B(  0-C ,  8-H ) :   0.9357
B(  0-C ,  9-H ) :   0.9358 B(  1-C ,  2-N ) :   1.7908 B(  1-C ,  6-O ) :   1.1082
B(  2-N ,  3-C ) :   1.2708 B(  3-C ,  4-C ) :   1.4932 B(  3-C , 10-H ) :   0.9923
B(  4-C ,  5-O ) :   1.2447 B(  4-C ,  6-O ) :   1.1418 B(  5-O , 11-H ) :   0.9612

FINAL SINGLE POINT ENERGY      -359.942769687329

DIPOLE MOMENT
-------------
                                X             Y             Z
Electronic contribution:      4.20808      -1.46154      -0.01136
Nuclear contribution   :     -3.67119       1.13854       0.00995
                        -----------------------------------------
Total Dipole Moment    :      0.53689      -0.32299      -0.00140
                        -----------------------------------------
Magnitude (a.u.)       :      0.62656
Magnitude (Debye)      :      1.59258

                             ****ORCA TERMINATED NORMALLY****
TOTAL RUN TIME: 0 days 0 hours 0 minutes 5 seconds 731 msec
