                         Program Version 3.0.3 - RELEASE   -
|  1> ! RI PBE def2-SVP def2-SVP/J NBO PAL2
|  2> % maxcore 2000
|  3> % output
|  4>     # printlevel mini
|  5>     print[ P_Basis ] 0
|  6>     print[ P_SCFInfo ] 1
|  7>     print[ P_SCFIterInfo ] 1
|  8>     print[ P_OrbEn ] 0
|  9>     print[ P_Cartesian ] 0
| 10> end
| 11> *xyz 0 1
| 12>  C        1.0926740000    -0.0574970000    -0.0211110000
| 13>  C        2.4068600000    -0.0891450000     0.1833680000
| 14>  N        3.1894490000    -1.2345200000     0.3860550000
| 15>  C        4.3868690000    -0.8016320000     0.5391830000
| 16>  N        4.5337010000     0.5646500000     0.4635690000
| 17>  C        3.2837830000     1.1262150000     0.2310120000
| 18>  O        3.0299610000     2.2961060000     0.1078730000
| 19>  H        0.5113220000    -0.9704300000    -0.0449760000
| 20>  H        0.5969310000     0.8943660000    -0.1657550000
| 21>  H        5.2449930000    -1.4393680000     0.7169820000
| 22>  H        5.3857570000     1.0895760000     0.5568910000
| 23> *
| 24>
| 25>                          ****END OF INPUT****
 Total Charge           Charge          ....    0
 Multiplicity           Mult            ....    1
 Number of Electrons    NEL             ....   50
 Basis Dimension        Dim             ....  118

MULLIKEN ATOMIC CHARGES
-----------------------
   0 C :    0.013337
   1 C :   -0.107762
   2 N :   -0.126583
   3 C :    0.135796
   4 N :   -0.122658
   5 C :    0.121055
   6 O :   -0.138832
   7 H :    0.040623
   8 H :    0.040465
   9 H :    0.022466
  10 H :    0.122094
Sum of atomic charges:   -0.0000000

LOEWDIN ATOMIC CHARGES
----------------------
   0 C :    0.017489
   1 C :   -0.059316
   2 N :   -0.114546
   3 C :    0.055885
   4 N :    0.022808
   5 C :    0.031391
   6 O :   -0.140842
   7 H :    0.039165
   8 H :    0.040472
   9 H :    0.022299
  10 H :    0.085196

  Mayer bond orders larger than 0.1
B(  0-C ,  1-C ) :   1.8890 B(  0-C ,  3-C ) :   0.1086 B(  0-C ,  7-H ) :   0.9257
B(  0-C ,  8-H ) :   0.9139 B(  1-C ,  2-N ) :   1.2268 B(  1-C ,  5-C ) :   0.8795
B(  2-N ,  3-C ) :   1.7554 B(  3-C ,  4-N ) :   1.1288 B(  3-C ,  9-H ) :   0.9637
B(  4-N ,  5-C ) :   1.0799 B(  4-N , 10-H ) :   0.9225 B(  5-C ,  6-O ) :   2.1910

FINAL SINGLE POINT ENERGY      -338.909723872920

DIPOLE MOMENT
-------------
                                X             Y             Z
Electronic contribution:      1.64243       1.24653       0.16351
Nuclear contribution   :     -0.80061      -1.51201      -0.01469
                        -----------------------------------------
Total Dipole Moment    :      0.84182      -0.26547       0.14882
                        -----------------------------------------
Magnitude (a.u.)       :      0.89514
Magnitude (Debye)      :      2.27526

                             ****ORCA TERMINATED NORMALLY****
TOTAL RUN TIME: 0 days 0 hours 0 minutes 5 seconds 943 msec
