                         Program Version 3.0.3 - RELEASE   -
|  1> ! RI PBE def2-SVP def2-SVP/J NBO PAL2
|  2> % maxcore 2000
|  3> % output
|  4>     # printlevel mini
|  5>     print[ P_Basis ] 0
|  6>     print[ P_SCFInfo ] 1
|  7>     print[ P_SCFIterInfo ] 1
|  8>     print[ P_OrbEn ] 0
|  9>     print[ P_Cartesian ] 0
| 10> end
| 11> *xyz 0 1
| 12>  C        1.0657430000    -0.0048900000     0.0175920000
| 13>  C        2.5360580000    -0.0094840000     0.0176670000
| 14>  N        3.3071090000     1.0050090000     0.0194200000
| 15>  C        4.6284420000     0.4281950000     0.0185420000
| 16>  N        4.7467110000    -0.8415960000     0.0163910000
| 17>  C        3.3964590000    -1.2880370000     0.0155460000
| 18>  O        3.0098800000    -2.4153650000     0.0136250000
| 19>  H        0.6792240000     1.0124800000     0.0192780000
| 20>  H        0.6923400000    -0.5487220000     0.8904420000
| 21>  H        0.6924380000    -0.5457890000    -0.8571210000
| 22>  H        5.4767970000     1.1042070000     0.0197180000
| 23> *
| 24>
| 25>                          ****END OF INPUT****
 Total Charge           Charge          ....    0
 Multiplicity           Mult            ....    1
 Number of Electrons    NEL             ....   50
 Basis Dimension        Dim             ....  118

MULLIKEN ATOMIC CHARGES
-----------------------
   0 C :    0.090523
   1 C :   -0.197980
   2 N :   -0.121137
   3 C :    0.124350
   4 N :   -0.119787
   5 C :    0.079037
   6 O :   -0.054910
   7 H :    0.046844
   8 H :    0.059753
   9 H :    0.059713
  10 H :    0.033595
Sum of atomic charges:   -0.0000000

LOEWDIN ATOMIC CHARGES
----------------------
   0 C :   -0.058673
   1 C :   -0.006859
   2 N :   -0.098939
   3 C :    0.092442
   4 N :   -0.116877
   5 C :    0.035241
   6 O :   -0.038717
   7 H :    0.047506
   8 H :    0.060393
   9 H :    0.060386
  10 H :    0.024096

  Mayer bond orders larger than 0.1
B(  0-C ,  1-C ) :   1.1183 B(  0-C ,  7-H ) :   0.9412 B(  0-C ,  8-H ) :   0.9263
B(  0-C ,  9-H ) :   0.9263 B(  1-C ,  2-N ) :   1.9072 B(  1-C ,  5-C ) :   0.8221
B(  2-N ,  3-C ) :   1.0687 B(  3-C ,  4-N ) :   1.8220 B(  3-C ,  6-O ) :   0.1003
B(  3-C , 10-H ) :   0.9685 B(  4-N ,  5-C ) :   1.0944 B(  5-C ,  6-O ) :   2.2452

FINAL SINGLE POINT ENERGY      -338.878786360683

DIPOLE MOMENT
-------------
                                X             Y             Z
Electronic contribution:      4.30870      -2.07478      -0.00325
Nuclear contribution   :     -4.95645       2.72611       0.00433
                        -----------------------------------------
Total Dipole Moment    :     -0.64775       0.65133       0.00108
                        -----------------------------------------
Magnitude (a.u.)       :      0.91859
Magnitude (Debye)      :      2.33487

                             ****ORCA TERMINATED NORMALLY****
TOTAL RUN TIME: 0 days 0 hours 0 minutes 5 seconds 489 msec
