                         Program Version 3.0.3 - RELEASE   -
|  1> ! RI PBE def2-SVP def2-SVP/J NBO PAL2
|  2> % maxcore 2000
|  3> % output
|  4>     # printlevel mini
|  5>     print[ P_Basis ] 0
|  6>     print[ P_SCFInfo ] 1
|  7>     print[ P_SCFIterInfo ] 1
|  8>     print[ P_OrbEn ] 0
|  9>     print[ P_Cartesian ] 0
| 10> end
| 11> *xyz 0 1
| 12>  C        0.8409190000     0.1216980000    -0.1969510000
| 13>  C        2.3374420000     0.0495440000    -0.1008290000
| 14>  N        2.9323560000     0.1393660000     1.2070000000
| 15>  C        3.1272580000    -0.8195890000    -1.0757080000
| 16>  N        2.5207580000    -1.5865150000    -2.1153570000
| 17>  C        3.2078880000     0.6735260000    -1.1610810000
| 18>  O        4.3512790000     1.3442690000    -0.7753430000
| 19>  H        0.3684310000    -0.7002820000     0.3524700000
| 20>  H        0.5017330000     0.0681380000    -1.2333450000
| 21>  H        0.4692920000     1.0614880000     0.2232280000
| 22>  H        2.8662280000    -0.7337060000     1.7151590000
| 23>  H        2.4879090000     0.8603170000     1.7628320000
| 24>  H        4.0090340000    -1.2759850000    -0.6297480000
| 25>  H        2.1959460000    -1.0162200000    -2.8821610000
| 26>  H        1.7574760000    -2.1650840000    -1.7920980000
| 27>  H        2.7129490000     1.1476450000    -2.0049610000
| 28>  H        4.4543230000     1.1274110000     0.1657840000
| 29> *
| 30>
| 31>                          ****END OF INPUT****
 Total Charge           Charge          ....    0
 Multiplicity           Mult            ....    1
 Number of Electrons    NEL             ....   56
 Basis Dimension        Dim             ....  148

MULLIKEN ATOMIC CHARGES
-----------------------
   0 C :    0.131678
   1 C :   -0.231731
   2 N :   -0.147305
   3 C :   -0.068170
   4 N :   -0.107070
   5 C :    0.117382
   6 O :   -0.223265
   7 H :    0.008506
   8 H :   -0.020786
   9 H :    0.013463
  10 H :    0.103521
  11 H :    0.097916
  12 H :    0.008962
  13 H :    0.085553
  14 H :    0.092438
  15 H :    0.003675
  16 H :    0.135234
Sum of atomic charges:   -0.0000000

LOEWDIN ATOMIC CHARGES
----------------------
   0 C :   -0.064075
   1 C :   -0.073394
   2 N :   -0.058485
   3 C :   -0.030793
   4 N :   -0.075470
   5 C :    0.031763
   6 O :   -0.095542
   7 H :    0.021891
   8 H :    0.019331
   9 H :    0.027225
  10 H :    0.058846
  11 H :    0.057525
  12 H :    0.017463
  13 H :    0.051121
  14 H :    0.051996
  15 H :    0.013926
  16 H :    0.046671

  Mayer bond orders larger than 0.1
B(  0-C ,  1-C ) :   1.0784 B(  0-C ,  7-H ) :   0.9485 B(  0-C ,  8-H ) :   0.9221
B(  0-C ,  9-H ) :   0.9483 B(  1-C ,  2-N ) :   1.1375 B(  1-C ,  3-C ) :   0.8383
B(  1-C ,  5-C ) :   0.8717 B(  2-N , 10-H ) :   0.9614 B(  2-N , 11-H ) :   0.9630
B(  2-N , 16-H ) :   0.1226 B(  3-C ,  4-N ) :   1.1849 B(  3-C ,  5-C ) :   0.9074
B(  3-C , 12-H ) :   0.9273 B(  4-N , 13-H ) :   0.9679 B(  4-N , 14-H ) :   0.9667
B(  5-C ,  6-O ) :   1.1796 B(  5-C , 15-H ) :   0.9485 B(  6-O , 16-H ) :   0.9365

FINAL SINGLE POINT ENERGY      -342.453970178097

DIPOLE MOMENT
-------------
                                X             Y             Z
Electronic contribution:      4.27357       1.25924      -0.70885
Nuclear contribution   :     -5.42994      -1.50460       1.44777
                        -----------------------------------------
Total Dipole Moment    :     -1.15637      -0.24536       0.73892
                        -----------------------------------------
Magnitude (a.u.)       :      1.39406
Magnitude (Debye)      :      3.54343

                             ****ORCA TERMINATED NORMALLY****
TOTAL RUN TIME: 0 days 0 hours 0 minutes 7 seconds 677 msec
