                         Program Version 3.0.3 - RELEASE   -
|  1> ! RI PBE def2-SVP def2-SVP/J NBO PAL2
|  2> % maxcore 2000
|  3> % output
|  4>     # printlevel mini
|  5>     print[ P_Basis ] 0
|  6>     print[ P_SCFInfo ] 1
|  7>     print[ P_SCFIterInfo ] 1
|  8>     print[ P_OrbEn ] 0
|  9>     print[ P_Cartesian ] 0
| 10> end
| 11> *xyz 0 1
| 12>  C        0.9863020000    -0.0190710000     0.1397980000
| 13>  C        2.4737600000     0.0360510000    -0.1510110000
| 14>  N        2.8295770000     0.0286530000    -1.5516570000
| 15>  C        3.2684760000     1.0661860000     0.7054060000
| 16>  N        3.8903610000    -0.0693300000     1.3765630000
| 17>  C        3.2976520000    -1.0240640000     0.6156100000
| 18>  O        3.3946830000    -2.2189640000     0.5528060000
| 19>  H        0.4772450000     0.8368940000    -0.3142750000
| 20>  H        0.7820420000    -0.0050320000     1.2133110000
| 21>  H        0.5584360000    -0.9338750000    -0.2765110000
| 22>  H        2.1663170000     0.5623320000    -2.1009480000
| 23>  H        2.8157960000    -0.9235860000    -1.8989700000
| 24>  H        2.6683670000     1.6987410000     1.3644800000
| 25>  H        3.9597600000     1.6667250000     0.1119500000
| 26>  H        4.6345260000    -0.1308600000     2.0535380000
| 27> *
| 28>
| 29>                          ****END OF INPUT****
 Total Charge           Charge          ....    0
 Multiplicity           Mult            ....    1
 Number of Electrons    NEL             ....   54
 Basis Dimension        Dim             ....  138

MULLIKEN ATOMIC CHARGES
-----------------------
   0 C :    0.097926
   1 C :   -0.448648
   2 N :   -0.125158
   3 C :    0.331908
   4 N :   -0.207774
   5 C :    0.162116
   6 O :   -0.168149
   7 H :    0.021645
   8 H :    0.013839
   9 H :    0.026014
  10 H :    0.086851
  11 H :    0.100378
  12 H :    0.002853
  13 H :    0.004495
  14 H :    0.101703
Sum of atomic charges:   -0.0000000

LOEWDIN ATOMIC CHARGES
----------------------
   0 C :   -0.060783
   1 C :   -0.050654
   2 N :   -0.078687
   3 C :    0.044849
   4 N :    0.004456
   5 C :    0.018672
   6 O :   -0.164814
   7 H :    0.025560
   8 H :    0.029923
   9 H :    0.030711
  10 H :    0.051199
  11 H :    0.058757
  12 H :    0.011561
  13 H :    0.017524
  14 H :    0.061725

  Mayer bond orders larger than 0.1
B(  0-C ,  1-C ) :   1.0122 B(  0-C ,  7-H ) :   0.9550 B(  0-C ,  8-H ) :   0.9378
B(  0-C ,  9-H ) :   0.9561 B(  1-C ,  2-N ) :   1.0819 B(  1-C ,  3-C ) :   0.9970
B(  1-C ,  5-C ) :   0.8331 B(  2-N , 10-H ) :   0.9640 B(  2-N , 11-H ) :   0.9569
B(  3-C ,  4-N ) :   1.0301 B(  3-C , 12-H ) :   0.9243 B(  3-C , 13-H ) :   0.9083
B(  4-N ,  5-C ) :   1.2165 B(  4-N ,  6-O ) :   0.1183 B(  4-N , 14-H ) :   0.9388
B(  5-C ,  6-O ) :   2.1909

FINAL SINGLE POINT ENERGY      -341.296108373734

DIPOLE MOMENT
-------------
                                X             Y             Z
Electronic contribution:      4.22511      -3.89056       1.63881
Nuclear contribution   :     -4.56066       5.01673      -1.52540
                        -----------------------------------------
Total Dipole Moment    :     -0.33555       1.12618       0.11341
                        -----------------------------------------
Magnitude (a.u.)       :      1.18057
Magnitude (Debye)      :      3.00076

                             ****ORCA TERMINATED NORMALLY****
TOTAL RUN TIME: 0 days 0 hours 0 minutes 7 seconds 431 msec
