                         Program Version 3.0.3 - RELEASE   -
|  1> ! RI PBE def2-SVP def2-SVP/J NBO PAL2
|  2> % maxcore 2000
|  3> % output
|  4>     # printlevel mini
|  5>     print[ P_Basis ] 0
|  6>     print[ P_SCFInfo ] 1
|  7>     print[ P_SCFIterInfo ] 1
|  8>     print[ P_OrbEn ] 0
|  9>     print[ P_Cartesian ] 0
| 10> end
| 11> *xyz 0 1
| 12>  C        0.9511640000     0.0020650000    -0.1634670000
| 13>  C        2.4634540000    -0.0051620000    -0.0335460000
| 14>  N        3.0710220000    -1.2212080000    -0.5648410000
| 15>  C        3.9152910000    -0.8428990000    -1.4343500000
| 16>  N        4.0170600000     0.5247330000    -1.6192340000
| 17>  C        3.1174960000     1.1545710000    -0.7803620000
| 18>  O        2.9230070000     2.3384590000    -0.6935060000
| 19>  H        0.5225660000    -0.8187840000     0.4119660000
| 20>  H        0.6550200000    -0.1183770000    -1.2073740000
| 21>  H        0.5531300000     0.9488150000     0.2046280000
| 22>  H        2.7351980000     0.0850590000     1.0252480000
| 23>  H        4.5375360000    -1.5157180000    -2.0156400000
| 24>  H        4.6091550000     1.0031550000    -2.2766340000
| 25> *
| 26>
| 27>                          ****END OF INPUT****
 Total Charge           Charge          ....    0
 Multiplicity           Mult            ....    1
 Number of Electrons    NEL             ....   52
 Basis Dimension        Dim             ....  128

MULLIKEN ATOMIC CHARGES
-----------------------
   0 C :    0.054551
   1 C :   -0.091825
   2 N :   -0.177817
   3 C :    0.121921
   4 N :   -0.125953
   5 C :    0.071001
   6 O :   -0.154893
   7 H :    0.038857
   8 H :    0.020302
   9 H :    0.039899
  10 H :    0.059743
  11 H :    0.022322
  12 H :    0.121890
Sum of atomic charges:   -0.0000000

LOEWDIN ATOMIC CHARGES
----------------------
   0 C :   -0.042690
   1 C :   -0.030844
   2 N :   -0.122586
   3 C :    0.039248
   4 N :    0.019918
   5 C :    0.032194
   6 O :   -0.154141
   7 H :    0.035804
   8 H :    0.030112
   9 H :    0.036509
  10 H :    0.053188
  11 H :    0.020358
  12 H :    0.082930

  Mayer bond orders larger than 0.1
B(  0-C ,  1-C ) :   1.0746 B(  0-C ,  7-H ) :   0.9602 B(  0-C ,  8-H ) :   0.9601
B(  0-C ,  9-H ) :   0.9560 B(  1-C ,  2-N ) :   1.0624 B(  1-C ,  5-C ) :   0.8976
B(  1-C , 10-H ) :   0.8742 B(  2-N ,  3-C ) :   1.8637 B(  3-C ,  4-N ) :   1.0942
B(  3-C , 11-H ) :   0.9624 B(  4-N ,  5-C ) :   1.1108 B(  4-N , 12-H ) :   0.9258
B(  5-C ,  6-O ) :   2.1884

FINAL SINGLE POINT ENERGY      -340.122670729913

DIPOLE MOMENT
-------------
                                X             Y             Z
Electronic contribution:      4.14913       1.81247      -1.23983
Nuclear contribution   :     -3.58897      -2.14307       0.65518
                        -----------------------------------------
Total Dipole Moment    :      0.56016      -0.33060      -0.58465
                        -----------------------------------------
Magnitude (a.u.)       :      0.87458
Magnitude (Debye)      :      2.22302

                             ****ORCA TERMINATED NORMALLY****
TOTAL RUN TIME: 0 days 0 hours 0 minutes 6 seconds 7 msec
