                         Program Version 3.0.3 - RELEASE   -
|  1> ! RI PBE def2-SVP def2-SVP/J NBO PAL2
|  2> % maxcore 2000
|  3> % output
|  4>     # printlevel mini
|  5>     print[ P_Basis ] 0
|  6>     print[ P_SCFInfo ] 1
|  7>     print[ P_SCFIterInfo ] 1
|  8>     print[ P_OrbEn ] 0
|  9>     print[ P_Cartesian ] 0
| 10> end
| 11> *xyz 0 1
| 12>  C        1.0868900000    -0.0355930000    -0.0791330000
| 13>  C        2.5620180000     0.0469720000    -0.0757840000
| 14>  N        3.2943530000     1.1134570000    -0.0706700000
| 15>  C        4.5945570000     0.6524240000    -0.0694510000
| 16>  N        5.6222250000     1.5459930000    -0.0643090000
| 17>  C        4.5797060000    -0.7046920000    -0.0741020000
| 18>  O        3.2576930000    -1.0928520000    -0.0781910000
| 19>  H        0.6747160000     0.9712520000    -0.0767570000
| 20>  H        0.7245810000    -0.5732800000     0.8004040000
| 21>  H        0.7282740000    -0.5676150000    -0.9636120000
| 22>  H        5.4062660000     2.5228440000    -0.0609830000
| 23>  H        6.5768060000     1.2512810000    -0.0628100000
| 24>  H        5.3203170000    -1.4832010000    -0.0752100000
| 25> *
| 26>
| 27>                          ****END OF INPUT****
 Total Charge           Charge          ....    0
 Multiplicity           Mult            ....    1
 Number of Electrons    NEL             ....   52
 Basis Dimension        Dim             ....  128

MULLIKEN ATOMIC CHARGES
-----------------------
   0 C :    0.094684
   1 C :   -0.060644
   2 N :   -0.130262
   3 C :   -0.004602
   4 N :   -0.047913
   5 C :   -0.008097
   6 O :   -0.166416
   7 H :    0.036936
   8 H :    0.041390
   9 H :    0.041277
  10 H :    0.114959
  11 H :    0.105439
  12 H :   -0.016751
Sum of atomic charges:   -0.0000000

LOEWDIN ATOMIC CHARGES
----------------------
   0 C :   -0.066946
   1 C :    0.006081
   2 N :   -0.133044
   3 C :   -0.023005
   4 N :   -0.012789
   5 C :   -0.082749
   6 O :    0.018225
   7 H :    0.047739
   8 H :    0.044978
   9 H :    0.044960
  10 H :    0.072767
  11 H :    0.070497
  12 H :    0.013287

  Mayer bond orders larger than 0.1
B(  0-C ,  1-C ) :   1.1159 B(  0-C ,  7-H ) :   0.9432 B(  0-C ,  8-H ) :   0.9355
B(  0-C ,  9-H ) :   0.9354 B(  1-C ,  2-N ) :   1.6934 B(  1-C ,  6-O ) :   1.2177
B(  2-N ,  3-C ) :   1.2988 B(  3-C ,  4-N ) :   1.2308 B(  3-C ,  5-C ) :   1.4754
B(  4-N , 10-H ) :   0.9407 B(  4-N , 11-H ) :   0.9531 B(  5-C ,  6-O ) :   1.0679
B(  5-C , 12-H ) :   1.0000

FINAL SINGLE POINT ENERGY      -340.105993089329

DIPOLE MOMENT
-------------
                                X             Y             Z
Electronic contribution:      2.34743      -0.69673       0.00237
Nuclear contribution   :     -1.88310       0.75432      -0.00050
                        -----------------------------------------
Total Dipole Moment    :      0.46433       0.05759       0.00187
                        -----------------------------------------
Magnitude (a.u.)       :      0.46789
Magnitude (Debye)      :      1.18928

                             ****ORCA TERMINATED NORMALLY****
TOTAL RUN TIME: 0 days 0 hours 0 minutes 6 seconds 280 msec
