                         Program Version 3.0.3 - RELEASE   -
|  1> ! RI PBE def2-SVP def2-SVP/J NBO PAL2
|  2> % maxcore 2000
|  3> % output
|  4>     # printlevel mini
|  5>     print[ P_Basis ] 0
|  6>     print[ P_SCFInfo ] 1
|  7>     print[ P_SCFIterInfo ] 1
|  8>     print[ P_OrbEn ] 0
|  9>     print[ P_Cartesian ] 0
| 10> end
| 11> *xyz 0 1
| 12>  C        1.0538520000    -0.1309550000     0.2410750000
| 13>  C        2.3253830000    -0.0654290000    -0.1423840000
| 14>  N        3.0658020000     1.0644330000    -0.4513400000
| 15>  C        4.3554570000     0.7730760000    -0.8122950000
| 16>  N        5.3243980000     1.5087060000    -1.1583740000
| 17>  C        4.4245590000    -0.7288380000    -0.7149990000
| 18>  O        3.1303190000    -1.1423590000    -0.2973550000
| 19>  H        0.4645980000     0.7676900000     0.3459000000
| 20>  H        0.6037810000    -1.0889660000     0.4501670000
| 21>  H        2.6818900000     1.9912690000    -0.4098690000
| 22>  H        5.0814900000     2.4966400000    -1.1636000000
| 23>  H        5.1706090000    -1.0429380000     0.0188340000
| 24>  H        4.6642730000    -1.1764300000    -1.6824500000
| 25> *
| 26>
| 27>                          ****END OF INPUT****
 Total Charge           Charge          ....    0
 Multiplicity           Mult            ....    1
 Number of Electrons    NEL             ....   52
 Basis Dimension        Dim             ....  128

MULLIKEN ATOMIC CHARGES
-----------------------
   0 C :   -0.129759
   1 C :    0.188499
   2 N :   -0.092201
   3 C :   -0.184961
   4 N :   -0.079775
   5 C :    0.241649
   6 O :   -0.271727
   7 H :    0.002410
   8 H :    0.022206
   9 H :    0.114289
  10 H :    0.084116
  11 H :    0.054034
  12 H :    0.051220
Sum of atomic charges:   -0.0000000

LOEWDIN ATOMIC CHARGES
----------------------
   0 C :   -0.191628
   1 C :    0.061078
   2 N :    0.023649
   3 C :   -0.010675
   4 N :   -0.160969
   5 C :    0.081118
   6 O :   -0.073092
   7 H :    0.026118
   8 H :    0.035225
   9 H :    0.085972
  10 H :    0.047497
  11 H :    0.038051
  12 H :    0.037655

  Mayer bond orders larger than 0.1
B(  0-C ,  1-C ) :   1.8637 B(  0-C ,  7-H ) :   0.9264 B(  0-C ,  8-H ) :   0.9133
B(  1-C ,  2-N ) :   1.0600 B(  1-C ,  6-O ) :   1.1184 B(  2-N ,  3-C ) :   1.1359
B(  2-N ,  9-H ) :   0.9312 B(  3-C ,  4-N ) :   2.0154 B(  3-C ,  5-C ) :   0.9851
B(  4-N , 10-H ) :   0.9240 B(  5-C ,  6-O ) :   0.9867 B(  5-C , 11-H ) :   0.9265
B(  5-C , 12-H ) :   0.9254

FINAL SINGLE POINT ENERGY      -340.082301785569

DIPOLE MOMENT
-------------
                                X             Y             Z
Electronic contribution:      1.23279      -0.14081      -0.35322
Nuclear contribution   :     -1.55844       0.79234       0.40138
                        -----------------------------------------
Total Dipole Moment    :     -0.32565       0.65152       0.04817
                        -----------------------------------------
Magnitude (a.u.)       :      0.72996
Magnitude (Debye)      :      1.85542

                             ****ORCA TERMINATED NORMALLY****
TOTAL RUN TIME: 0 days 0 hours 0 minutes 6 seconds 564 msec
