                         Program Version 3.0.3 - RELEASE   -
|  1> ! RI PBE def2-SVP def2-SVP/J NBO PAL2
|  2> % maxcore 2000
|  3> % output
|  4>     # printlevel mini
|  5>     print[ P_Basis ] 0
|  6>     print[ P_SCFInfo ] 1
|  7>     print[ P_SCFIterInfo ] 1
|  8>     print[ P_OrbEn ] 0
|  9>     print[ P_Cartesian ] 0
| 10> end
| 11> *xyz 0 1
| 12>  C        0.9965490000    -0.2508930000    -0.0365310000
| 13>  C        2.4547900000    -0.0247700000    -0.0368940000
| 14>  C        3.2583110000     1.0659920000    -0.0404580000
| 15>  C        2.9089120000     2.5071780000    -0.0455700000
| 16>  N        4.5813550000     0.6437540000    -0.0386650000
| 17>  C        4.5110030000    -0.6371280000    -0.0341510000
| 18>  O        3.2616350000    -1.1298650000    -0.0328020000
| 19>  H        0.4719480000     0.7043550000    -0.0399390000
| 20>  H        0.6799760000    -0.8104330000     0.8481650000
| 21>  H        0.6804630000    -0.8164670000    -0.9175590000
| 22>  H        1.8284320000     2.6556480000    -0.0465250000
| 23>  H        3.3240190000     3.0021060000    -0.9271010000
| 24>  H        3.3232990000     3.0081890000     0.8328590000
| 25>  H        5.3192070000    -1.3523660000    -0.0314290000
| 26> *
| 27>
| 28>                          ****END OF INPUT****
 Total Charge           Charge          ....    0
 Multiplicity           Mult            ....    1
 Number of Electrons    NEL             ....   52
 Basis Dimension        Dim             ....  133

MULLIKEN ATOMIC CHARGES
-----------------------
   0 C :    0.095559
   1 C :   -0.059535
   2 C :   -0.184679
   3 C :    0.114035
   4 N :   -0.118556
   5 C :    0.125545
   6 O :   -0.170158
   7 H :    0.022552
   8 H :    0.041836
   9 H :    0.041905
  10 H :    0.002525
  11 H :    0.034811
  12 H :    0.034928
  13 H :    0.019233
Sum of atomic charges:   -0.0000000

LOEWDIN ATOMIC CHARGES
----------------------
   0 C :   -0.064014
   1 C :   -0.018540
   2 C :   -0.067947
   3 C :   -0.059580
   4 N :   -0.098731
   5 C :    0.024154
   6 O :    0.021276
   7 H :    0.042608
   8 H :    0.043538
   9 H :    0.043548
  10 H :    0.031160
  11 H :    0.042137
  12 H :    0.042160
  13 H :    0.018232

  Mayer bond orders larger than 0.1
B(  0-C ,  1-C ) :   1.1372 B(  0-C ,  7-H ) :   0.9403 B(  0-C ,  8-H ) :   0.9331
B(  0-C ,  9-H ) :   0.9331 B(  1-C ,  2-C ) :   1.5744 B(  1-C ,  6-O ) :   1.1129
B(  2-C ,  3-C ) :   1.1395 B(  2-C ,  4-N ) :   1.3056 B(  3-C , 10-H ) :   0.9377
B(  3-C , 11-H ) :   0.9352 B(  3-C , 12-H ) :   0.9352 B(  4-N ,  5-C ) :   1.7331
B(  5-C ,  6-O ) :   1.1768 B(  5-C , 13-H ) :   0.9742

FINAL SINGLE POINT ENERGY      -324.083961582886

DIPOLE MOMENT
-------------
                                X             Y             Z
Electronic contribution:      5.01154      -4.13451       0.01584
Nuclear contribution   :     -5.73781       3.99284      -0.01551
                        -----------------------------------------
Total Dipole Moment    :     -0.72627      -0.14167       0.00033
                        -----------------------------------------
Magnitude (a.u.)       :      0.73995
Magnitude (Debye)      :      1.88082

                             ****ORCA TERMINATED NORMALLY****
TOTAL RUN TIME: 0 days 0 hours 0 minutes 6 seconds 457 msec
