                         Program Version 3.0.3 - RELEASE   -
|  1> ! RI PBE def2-SVP def2-SVP/J NBO PAL2
|  2> % maxcore 2000
|  3> % output
|  4>     # printlevel mini
|  5>     print[ P_Basis ] 0
|  6>     print[ P_SCFInfo ] 1
|  7>     print[ P_SCFIterInfo ] 1
|  8>     print[ P_OrbEn ] 0
|  9>     print[ P_Cartesian ] 0
| 10> end
| 11> *xyz 0 1
| 12>  C        0.9613030000     0.1698900000     0.1235480000
| 13>  C        2.4461160000    -0.0125210000    -0.0779090000
| 14>  N        3.3003420000     0.9648030000     0.5959310000
| 15>  C        4.0098830000     0.0546690000     1.3214550000
| 16>  O        4.9421710000     0.1535820000     2.0706910000
| 17>  C        3.1635510000    -1.1016530000     0.7653630000
| 18>  C        3.9216230000    -2.1917310000     0.0452250000
| 19>  H        0.6030480000     1.0787790000    -0.3670140000
| 20>  H        0.7217820000     0.2396230000     1.1873600000
| 21>  H        0.4121630000    -0.6740510000    -0.3016930000
| 22>  H        2.6835310000    -0.1028080000    -1.1443890000
| 23>  H        3.4279300000     1.9567770000     0.4670960000
| 24>  H        2.5064960000    -1.5149750000     1.5357790000
| 25>  H        4.5696770000    -1.7750340000    -0.7299810000
| 26>  H        3.2408380000    -2.9048350000    -0.4260580000
| 27>  H        4.5537550000    -2.7396270000     0.7468750000
| 28> *
| 29>
| 30>                          ****END OF INPUT****
 Total Charge           Charge          ....    0
 Multiplicity           Mult            ....    1
 Number of Electrons    NEL             ....   54
 Basis Dimension        Dim             ....  143

MULLIKEN ATOMIC CHARGES
-----------------------
   0 C :    0.058031
   1 C :    0.028958
   2 N :   -0.178428
   3 C :    0.112461
   4 O :   -0.167613
   5 C :   -0.193645
   6 C :    0.044611
   7 H :    0.023675
   8 H :    0.016983
   9 H :    0.030442
  10 H :    0.009278
  11 H :    0.099062
  12 H :    0.023157
  13 H :    0.023170
  14 H :    0.027942
  15 H :    0.041914
Sum of atomic charges:    0.0000000

LOEWDIN ATOMIC CHARGES
----------------------
   0 C :   -0.068809
   1 C :    0.032557
   2 N :   -0.004510
   3 C :    0.021741
   4 O :   -0.166325
   5 C :   -0.059502
   6 C :   -0.053702
   7 H :    0.029317
   8 H :    0.028319
   9 H :    0.034582
  10 H :    0.015681
  11 H :    0.060018
  12 H :    0.034460
  13 H :    0.028603
  14 H :    0.029323
  15 H :    0.038246

  Mayer bond orders larger than 0.1
B(  0-C ,  1-C ) :   1.0926 B(  0-C ,  7-H ) :   0.9555 B(  0-C ,  8-H ) :   0.9471
B(  0-C ,  9-H ) :   0.9551 B(  1-C ,  2-N ) :   1.0140 B(  1-C ,  5-C ) :   1.0098
B(  1-C , 10-H ) :   0.9150 B(  2-N ,  3-C ) :   1.1836 B(  2-N ,  4-O ) :   0.1139
B(  2-N , 11-H ) :   0.9397 B(  3-C ,  4-O ) :   2.1928 B(  3-C ,  5-C ) :   0.8855
B(  5-C ,  6-C ) :   1.0665 B(  5-C , 12-H ) :   0.8795 B(  6-C , 13-H ) :   0.9599
B(  6-C , 14-H ) :   0.9624 B(  6-C , 15-H ) :   0.9559

FINAL SINGLE POINT ENERGY      -325.283129140281

DIPOLE MOMENT
-------------
                                X             Y             Z
Electronic contribution:      5.05432       3.75817       3.94559
Nuclear contribution   :     -6.11928      -3.68047      -4.91565
                        -----------------------------------------
Total Dipole Moment    :     -1.06496       0.07770      -0.97007
                        -----------------------------------------
Magnitude (a.u.)       :      1.44264
Magnitude (Debye)      :      3.66690

                             ****ORCA TERMINATED NORMALLY****
TOTAL RUN TIME: 0 days 0 hours 0 minutes 7 seconds 360 msec
