                         Program Version 3.0.3 - RELEASE   -
|  1> ! RI PBE def2-SVP def2-SVP/J NBO PAL2
|  2> % maxcore 2000
|  3> % output
|  4>     # printlevel mini
|  5>     print[ P_Basis ] 0
|  6>     print[ P_SCFInfo ] 1
|  7>     print[ P_SCFIterInfo ] 1
|  8>     print[ P_OrbEn ] 0
|  9>     print[ P_Cartesian ] 0
| 10> end
| 11> *xyz 0 1
| 12>  C        0.8370930000    -0.1786610000    -0.0363220000
| 13>  C        2.3138610000    -0.0401040000    -0.0366570000
| 14>  C        3.0855800000     1.0795230000    -0.0396920000
| 15>  N        2.8408800000     2.4174690000    -0.0433050000
| 16>  O        4.3876240000     0.7121380000    -0.0386330000
| 17>  C        4.3504180000    -0.6501090000    -0.0349260000
| 18>  N        3.1684160000    -1.1355660000    -0.0335800000
| 19>  H        0.3458800000     0.7971950000    -0.0387050000
| 20>  H        0.4884400000    -0.7224510000     0.8461360000
| 21>  H        0.4884040000    -0.7267900000    -0.9160810000
| 22>  H        1.9021050000     2.7597540000    -0.0450530000
| 23>  H        3.6007430000     3.0681150000    -0.0456090000
| 24>  H        5.3006460000    -1.1586020000    -0.0334820000
| 25> *
| 26>
| 27>                          ****END OF INPUT****
 Total Charge           Charge          ....    0
 Multiplicity           Mult            ....    1
 Number of Electrons    NEL             ....   52
 Basis Dimension        Dim             ....  128

MULLIKEN ATOMIC CHARGES
-----------------------
   0 C :    0.119273
   1 C :   -0.242083
   2 C :    0.061628
   3 N :   -0.046792
   4 O :   -0.187722
   5 C :    0.112041
   6 N :   -0.108313
   7 H :   -0.016389
   8 H :    0.030531
   9 H :    0.030585
  10 H :    0.114581
  11 H :    0.123534
  12 H :    0.009127
Sum of atomic charges:   -0.0000000

LOEWDIN ATOMIC CHARGES
----------------------
   0 C :   -0.061813
   1 C :   -0.130582
   2 C :    0.018969
   3 N :   -0.009502
   4 O :   -0.000484
   5 C :    0.003848
   6 N :   -0.089290
   7 H :    0.024517
   8 H :    0.037637
   9 H :    0.037635
  10 H :    0.077399
  11 H :    0.077745
  12 H :    0.013921

  Mayer bond orders larger than 0.1
B(  0-C ,  1-C ) :   1.1430 B(  0-C ,  7-H ) :   0.9389 B(  0-C ,  8-H ) :   0.9359
B(  0-C ,  9-H ) :   0.9359 B(  1-C ,  2-C ) :   1.4793 B(  1-C ,  6-N ) :   1.3137
B(  2-C ,  3-N ) :   1.2496 B(  2-C ,  4-O ) :   1.1531 B(  3-N , 10-H ) :   0.9490
B(  3-N , 11-H ) :   0.9394 B(  4-O ,  5-C ) :   1.0975 B(  5-C ,  6-N ) :   1.7652
B(  5-C , 12-H ) :   0.9774

FINAL SINGLE POINT ENERGY      -340.100307884626

DIPOLE MOMENT
-------------
                                X             Y             Z
Electronic contribution:      5.31754      -0.35065       0.00140
Nuclear contribution   :     -5.45767       1.71550      -0.00598
                        -----------------------------------------
Total Dipole Moment    :     -0.14013       1.36484      -0.00459
                        -----------------------------------------
Magnitude (a.u.)       :      1.37202
Magnitude (Debye)      :      3.48741

                             ****ORCA TERMINATED NORMALLY****
TOTAL RUN TIME: 0 days 0 hours 0 minutes 6 seconds 110 msec
