                         Program Version 3.0.3 - RELEASE   -
|  1> ! RI PBE def2-SVP def2-SVP/J NBO PAL2
|  2> % maxcore 2000
|  3> % output
|  4>     # printlevel mini
|  5>     print[ P_Basis ] 0
|  6>     print[ P_SCFInfo ] 1
|  7>     print[ P_SCFIterInfo ] 1
|  8>     print[ P_OrbEn ] 0
|  9>     print[ P_Cartesian ] 0
| 10> end
| 11> *xyz 0 1
| 12>  C        0.9377300000     0.1591820000     0.2288170000
| 13>  C        2.4264380000     0.0373330000     0.0174160000
| 14>  N        3.2544770000     1.0039240000     0.7311800000
| 15>  C        4.0536320000     0.0931550000     1.3581220000
| 16>  O        5.0350120000     0.2000080000     2.0371040000
| 17>  C        3.1993030000    -1.0726110000     0.8121460000
| 18>  N        3.9034650000    -2.1403310000     0.1818360000
| 19>  H        0.5428740000     1.0768970000    -0.2152680000
| 20>  H        0.6987180000     0.1684470000     1.2952850000
| 21>  H        0.4160180000    -0.6816740000    -0.2358650000
| 22>  H        2.6688700000    -0.0083420000    -1.0512450000
| 23>  H        3.3208330000     2.0081300000     0.6754660000
| 24>  H        2.5633920000    -1.4746820000     1.6070990000
| 25>  H        4.5417270000    -1.8167070000    -0.5323930000
| 26>  H        3.2833110000    -2.8314400000    -0.2165900000
| 27> *
| 28>
| 29>                          ****END OF INPUT****
 Total Charge           Charge          ....    0
 Multiplicity           Mult            ....    1
 Number of Electrons    NEL             ....   54
 Basis Dimension        Dim             ....  138

MULLIKEN ATOMIC CHARGES
-----------------------
   0 C :    0.056384
   1 C :    0.049337
   2 N :   -0.179680
   3 C :    0.091469
   4 O :   -0.155973
   5 C :   -0.102992
   6 N :   -0.128693
   7 H :    0.023657
   8 H :    0.017938
   9 H :    0.025815
  10 H :   -0.010137
  11 H :    0.100412
  12 H :    0.022731
  13 H :    0.092428
  14 H :    0.097303
Sum of atomic charges:    0.0000000

LOEWDIN ATOMIC CHARGES
----------------------
   0 C :   -0.071132
   1 C :    0.005844
   2 N :   -0.004402
   3 C :    0.012508
   4 O :   -0.155259
   5 C :   -0.022179
   6 N :   -0.069405
   7 H :    0.029074
   8 H :    0.028061
   9 H :    0.032882
  10 H :    0.008158
  11 H :    0.060325
  12 H :    0.032704
  13 H :    0.055938
  14 H :    0.056883

  Mayer bond orders larger than 0.1
B(  0-C ,  1-C ) :   1.0892 B(  0-C ,  7-H ) :   0.9543 B(  0-C ,  8-H ) :   0.9477
B(  0-C ,  9-H ) :   0.9539 B(  1-C ,  2-N ) :   1.0148 B(  1-C ,  5-C ) :   0.9504
B(  1-C , 10-H ) :   0.9042 B(  2-N ,  3-C ) :   1.1687 B(  2-N ,  4-O ) :   0.1163
B(  2-N , 11-H ) :   0.9386 B(  3-C ,  4-O ) :   2.2109 B(  3-C ,  5-C ) :   0.8620
B(  5-C ,  6-N ) :   1.1562 B(  5-C , 12-H ) :   0.8724 B(  6-N , 13-H ) :   0.9643
B(  6-N , 14-H ) :   0.9670

FINAL SINGLE POINT ENERGY      -341.295566201001

DIPOLE MOMENT
-------------
                                X             Y             Z
Electronic contribution:      6.23147       1.56870       3.16456
Nuclear contribution   :     -7.52650      -1.40872      -4.41776
                        -----------------------------------------
Total Dipole Moment    :     -1.29503       0.15997      -1.25320
                        -----------------------------------------
Magnitude (a.u.)       :      1.80920
Magnitude (Debye)      :      4.59862

                             ****ORCA TERMINATED NORMALLY****
TOTAL RUN TIME: 0 days 0 hours 0 minutes 7 seconds 312 msec
