                         Program Version 3.0.3 - RELEASE   -
|  1> ! RI PBE def2-SVP def2-SVP/J NBO PAL2
|  2> % maxcore 2000
|  3> % output
|  4>     # printlevel mini
|  5>     print[ P_Basis ] 0
|  6>     print[ P_SCFInfo ] 1
|  7>     print[ P_SCFIterInfo ] 1
|  8>     print[ P_OrbEn ] 0
|  9>     print[ P_Cartesian ] 0
| 10> end
| 11> *xyz 0 1
| 12>  C        0.9394330000    -0.1775820000     0.0400090000
| 13>  C        2.4188240000    -0.0740280000     0.0396520000
| 14>  C        3.2173320000     1.0201660000     0.0362830000
| 15>  O        3.0388600000     2.3436380000     0.0322440000
| 16>  O        4.5073420000     0.6370540000     0.0374190000
| 17>  C        4.4421800000    -0.7175510000     0.0415470000
| 18>  N        3.2509120000    -1.1869030000     0.0430580000
| 19>  H        0.4664300000     0.8081640000     0.0371310000
| 20>  H        0.5816190000    -0.7129610000     0.9231200000
| 21>  H        0.5815410000    -0.7181520000    -0.8399040000
| 22>  H        2.0950860000     2.5271840000     0.0316190000
| 23>  H        5.3814390000    -1.2466290000     0.0431400000
| 24> *
| 25>
| 26>                          ****END OF INPUT****
 Total Charge           Charge          ....    0
 Multiplicity           Mult            ....    1
 Number of Electrons    NEL             ....   52
 Basis Dimension        Dim             ....  123

MULLIKEN ATOMIC CHARGES
-----------------------
   0 C :    0.114642
   1 C :   -0.236044
   2 C :    0.134471
   3 O :   -0.122829
   4 O :   -0.159812
   5 C :    0.119424
   6 N :   -0.115106
   7 H :   -0.018071
   8 H :    0.041235
   9 H :    0.041304
  10 H :    0.181410
  11 H :    0.019375
Sum of atomic charges:   -0.0000000

LOEWDIN ATOMIC CHARGES
----------------------
   0 C :   -0.060188
   1 C :   -0.128642
   2 C :    0.018514
   3 O :   -0.007709
   4 O :    0.024014
   5 C :    0.018501
   6 N :   -0.090152
   7 H :    0.023008
   8 H :    0.042276
   9 H :    0.042284
  10 H :    0.099938
  11 H :    0.018156

  Mayer bond orders larger than 0.1
B(  0-C ,  1-C ) :   1.1225 B(  0-C ,  7-H ) :   0.9360 B(  0-C ,  8-H ) :   0.9386
B(  0-C ,  9-H ) :   0.9386 B(  1-C ,  2-C ) :   1.4806 B(  1-C ,  6-N ) :   1.2990
B(  2-C ,  3-O ) :   1.2650 B(  2-C ,  4-O ) :   1.1544 B(  3-O , 10-H ) :   0.9591
B(  4-O ,  5-C ) :   1.1280 B(  5-C ,  6-N ) :   1.7553 B(  5-C , 11-H ) :   0.9771

FINAL SINGLE POINT ENERGY      -359.938948551866

DIPOLE MOMENT
-------------
                                X             Y             Z
Electronic contribution:      5.39811       1.47959      -0.00466
Nuclear contribution   :     -6.00669      -0.88787       0.00279
                        -----------------------------------------
Total Dipole Moment    :     -0.60858       0.59172      -0.00187
                        -----------------------------------------
Magnitude (a.u.)       :      0.84883
Magnitude (Debye)      :      2.15755

                             ****ORCA TERMINATED NORMALLY****
TOTAL RUN TIME: 0 days 0 hours 0 minutes 5 seconds 650 msec
