                         Program Version 3.0.3 - RELEASE   -
|  1> ! RI PBE def2-SVP def2-SVP/J NBO PAL2
|  2> % maxcore 2000
|  3> % output
|  4>     # printlevel mini
|  5>     print[ P_Basis ] 0
|  6>     print[ P_SCFInfo ] 1
|  7>     print[ P_SCFIterInfo ] 1
|  8>     print[ P_OrbEn ] 0
|  9>     print[ P_Cartesian ] 0
| 10> end
| 11> *xyz 0 1
| 12>  C        0.8272980000     0.2708230000     0.0122420000
| 13>  C        2.3216050000     0.1323590000     0.0688070000
| 14>  N        2.9575240000     0.1442730000     1.3608630000
| 15>  C        3.0265010000    -0.7223840000    -0.9511900000
| 16>  O        2.2281830000    -1.3872290000    -1.8759460000
| 17>  C        3.1860960000     0.7689190000    -0.9971340000
| 18>  O        4.3828290000     1.3476570000    -0.6193230000
| 19>  H        0.3398270000    -0.5491190000     0.5484460000
| 20>  H        0.4679170000     0.2518660000    -1.0168440000
| 21>  H        0.5129630000     1.2139660000     0.4700080000
| 22>  H        2.8644580000    -0.7470380000     1.8320980000
| 23>  H        2.5471470000     0.8546050000     1.9555090000
| 24>  H        3.8919560000    -1.2753760000    -0.5857060000
| 25>  H        2.6720590000    -1.3580990000    -2.7278530000
| 26>  H        2.6825530000     1.2992060000    -1.7997210000
| 27>  H        4.4840730000     1.1100620000     0.3173430000
| 28> *
| 29>
| 30>                          ****END OF INPUT****
 Total Charge           Charge          ....    0
 Multiplicity           Mult            ....    1
 Number of Electrons    NEL             ....   56
 Basis Dimension        Dim             ....  143

MULLIKEN ATOMIC CHARGES
-----------------------
   0 C :    0.139893
   1 C :   -0.255753
   2 N :   -0.147798
   3 C :    0.061262
   4 O :   -0.224395
   5 C :    0.105771
   6 O :   -0.226468
   7 H :    0.013377
   8 H :    0.008890
   9 H :    0.008439
  10 H :    0.106755
  11 H :    0.100532
  12 H :    0.001379
  13 H :    0.165452
  14 H :    0.007359
  15 H :    0.135306
Sum of atomic charges:   -0.0000000

LOEWDIN ATOMIC CHARGES
----------------------
   0 C :   -0.057432
   1 C :   -0.063285
   2 N :   -0.058397
   3 C :    0.007099
   4 O :   -0.093520
   5 C :    0.016229
   6 O :   -0.098908
   7 H :    0.026265
   8 H :    0.030434
   9 H :    0.024308
  10 H :    0.060687
  11 H :    0.059122
  12 H :    0.007282
  13 H :    0.077849
  14 H :    0.016120
  15 H :    0.046147

  Mayer bond orders larger than 0.1
B(  0-C ,  1-C ) :   1.0753 B(  0-C ,  7-H ) :   0.9509 B(  0-C ,  8-H ) :   0.9271
B(  0-C ,  9-H ) :   0.9505 B(  1-C ,  2-N ) :   1.1392 B(  1-C ,  3-C ) :   0.8803
B(  1-C ,  5-C ) :   0.8643 B(  2-N , 10-H ) :   0.9609 B(  2-N , 11-H ) :   0.9637
B(  2-N , 15-H ) :   0.1258 B(  3-C ,  4-O ) :   1.1478 B(  3-C ,  5-C ) :   0.8993
B(  3-C , 12-H ) :   0.9307 B(  4-O , 13-H ) :   0.9776 B(  5-C ,  6-O ) :   1.1618
B(  5-C , 14-H ) :   0.9449 B(  6-O , 15-H ) :   0.9352

FINAL SINGLE POINT ENERGY      -362.296106522119

DIPOLE MOMENT
-------------
                                X             Y             Z
Electronic contribution:      3.34991      -0.37088      -2.21173
Nuclear contribution   :     -3.73150       0.12629       2.66871
                        -----------------------------------------
Total Dipole Moment    :     -0.38159      -0.24459       0.45699
                        -----------------------------------------
Magnitude (a.u.)       :      0.64364
Magnitude (Debye)      :      1.63601

                             ****ORCA TERMINATED NORMALLY****
TOTAL RUN TIME: 0 days 0 hours 0 minutes 7 seconds 267 msec
