                         Program Version 3.0.3 - RELEASE   -
|  1> ! RI PBE def2-SVP def2-SVP/J NBO PAL2
|  2> % maxcore 2000
|  3> % output
|  4>     # printlevel mini
|  5>     print[ P_Basis ] 0
|  6>     print[ P_SCFInfo ] 1
|  7>     print[ P_SCFIterInfo ] 1
|  8>     print[ P_OrbEn ] 0
|  9>     print[ P_Cartesian ] 0
| 10> end
| 11> *xyz 0 1
| 12>  C        0.8366240000    -0.0861730000     0.1345290000
| 13>  C        2.3428760000    -0.0217840000    -0.0475850000
| 14>  N        2.8028570000    -0.0264630000    -1.4178540000
| 15>  C        3.0735080000     0.9671830000     0.8769580000
| 16>  O        3.6696930000    -0.1411280000     1.6143400000
| 17>  C        3.1016000000    -1.0536880000     0.7904380000
| 18>  O        3.2232060000    -2.2329620000     0.7983160000
| 19>  H        0.3647620000     0.7759100000    -0.3462120000
| 20>  H        0.5513660000    -0.0851420000     1.1892910000
| 21>  H        0.4434020000    -0.9953110000    -0.3250490000
| 22>  H        2.1920030000     0.5269900000    -2.0069910000
| 23>  H        2.7967530000    -0.9730390000    -1.7797110000
| 24>  H        2.4536490000     1.5738180000     1.5376000000
| 25>  H        3.8444020000     1.5577790000     0.3846300000
| 26> *
| 27>
| 28>                          ****END OF INPUT****
 Total Charge           Charge          ....    0
 Multiplicity           Mult            ....    1
 Number of Electrons    NEL             ....   54
 Basis Dimension        Dim             ....  133

MULLIKEN ATOMIC CHARGES
-----------------------
   0 C :    0.094404
   1 C :   -0.442770
   2 N :   -0.123627
   3 C :    0.339296
   4 O :   -0.254958
   5 C :    0.198935
   6 O :   -0.129417
   7 H :    0.028619
   8 H :    0.020171
   9 H :    0.031794
  10 H :    0.092558
  11 H :    0.105539
  12 H :    0.019560
  13 H :    0.019896
Sum of atomic charges:   -0.0000000

LOEWDIN ATOMIC CHARGES
----------------------
   0 C :   -0.057675
   1 C :   -0.069009
   2 N :   -0.076268
   3 C :    0.096746
   4 O :   -0.071903
   5 C :    0.035295
   6 O :   -0.108089
   7 H :    0.029081
   8 H :    0.032662
   9 H :    0.033042
  10 H :    0.054360
  11 H :    0.061517
  12 H :    0.017231
  13 H :    0.023007

  Mayer bond orders larger than 0.1
B(  0-C ,  1-C ) :   1.0146 B(  0-C ,  7-H ) :   0.9544 B(  0-C ,  8-H ) :   0.9395
B(  0-C ,  9-H ) :   0.9556 B(  1-C ,  2-N ) :   1.0961 B(  1-C ,  3-C ) :   1.0236
B(  1-C ,  5-C ) :   0.8748 B(  2-N , 10-H ) :   0.9640 B(  2-N , 11-H ) :   0.9565
B(  3-C ,  4-O ) :   0.9821 B(  3-C , 12-H ) :   0.9347 B(  3-C , 13-H ) :   0.9180
B(  4-O ,  5-C ) :   1.1576 B(  4-O ,  6-O ) :   0.1171 B(  5-C ,  6-O ) :   2.2283

FINAL SINGLE POINT ENERGY      -361.133277043227

DIPOLE MOMENT
-------------
                                X             Y             Z
Electronic contribution:      4.95325      -3.64688       3.07747
Nuclear contribution   :     -5.95288       4.69890      -3.74646
                        -----------------------------------------
Total Dipole Moment    :     -0.99963       1.05202      -0.66899
                        -----------------------------------------
Magnitude (a.u.)       :      1.59799
Magnitude (Debye)      :      4.06176

                             ****ORCA TERMINATED NORMALLY****
TOTAL RUN TIME: 0 days 0 hours 0 minutes 6 seconds 751 msec
