                         Program Version 3.0.3 - RELEASE   -
|  1> ! RI PBE def2-SVP def2-SVP/J NBO PAL2
|  2> % maxcore 2000
|  3> % output
|  4>     # printlevel mini
|  5>     print[ P_Basis ] 0
|  6>     print[ P_SCFInfo ] 1
|  7>     print[ P_SCFIterInfo ] 1
|  8>     print[ P_OrbEn ] 0
|  9>     print[ P_Cartesian ] 0
| 10> end
| 11> *xyz 0 1
| 12>  C        0.8314370000    -0.0008040000     0.1565030000
| 13>  C        2.3129840000    -0.0329370000    -0.1197960000
| 14>  N        3.1257860000     0.9340440000     0.6296290000
| 15>  C        3.9989420000     0.0205800000     1.1302700000
| 16>  O        5.0340120000     0.0975220000     1.7341990000
| 17>  C        3.1639760000    -1.1364830000     0.5535170000
| 18>  O        3.8280910000    -1.9920860000    -0.3249220000
| 19>  H        0.3808630000     0.9235430000    -0.2135730000
| 20>  H        0.6329070000    -0.0704690000     1.2286420000
| 21>  H        0.3361820000    -0.8356400000    -0.3447110000
| 22>  H        2.5237690000    -0.0047250000    -1.1930710000
| 23>  H        3.1795470000     1.9404860000     0.5856920000
| 24>  H        2.6046470000    -1.6810870000     1.3256330000
| 25>  H        4.6622580000    -2.2440650000     0.0844780000
| 26> *
| 27>
| 28>                          ****END OF INPUT****
 Total Charge           Charge          ....    0
 Multiplicity           Mult            ....    1
 Number of Electrons    NEL             ....   54
 Basis Dimension        Dim             ....  133

MULLIKEN ATOMIC CHARGES
-----------------------
   0 C :    0.057478
   1 C :    0.009824
   2 N :   -0.176942
   3 C :    0.081795
   4 O :   -0.168496
   5 C :    0.057679
   6 O :   -0.246608
   7 H :    0.025759
   8 H :    0.016673
   9 H :    0.038819
  10 H :    0.024382
  11 H :    0.103085
  12 H :    0.007060
  13 H :    0.169491
Sum of atomic charges:   -0.0000000

LOEWDIN ATOMIC CHARGES
----------------------
   0 C :   -0.068956
   1 C :    0.025884
   2 N :    0.003293
   3 C :   -0.001599
   4 O :   -0.163916
   5 C :    0.027690
   6 O :   -0.097476
   7 H :    0.030735
   8 H :    0.028118
   9 H :    0.038690
  10 H :    0.022749
  11 H :    0.061802
  12 H :    0.012649
  13 H :    0.080337

  Mayer bond orders larger than 0.1
B(  0-C ,  1-C ) :   1.0953 B(  0-C ,  7-H ) :   0.9565 B(  0-C ,  8-H ) :   0.9454
B(  0-C ,  9-H ) :   0.9552 B(  1-C ,  2-N ) :   1.0061 B(  1-C ,  5-C ) :   0.9908
B(  1-C , 10-H ) :   0.9058 B(  2-N ,  3-C ) :   1.1956 B(  2-N ,  4-O ) :   0.1195
B(  2-N , 11-H ) :   0.9378 B(  3-C ,  4-O ) :   2.1808 B(  3-C ,  5-C ) :   0.8852
B(  5-C ,  6-O ) :   1.1029 B(  5-C , 12-H ) :   0.8699 B(  6-O , 13-H ) :   0.9706

FINAL SINGLE POINT ENERGY      -361.135644854854

DIPOLE MOMENT
-------------
                                X             Y             Z
Electronic contribution:      6.64015       0.02458       1.71566
Nuclear contribution   :     -7.56179       0.28361      -2.08835
                        -----------------------------------------
Total Dipole Moment    :     -0.92164       0.30818      -0.37269
                        -----------------------------------------
Magnitude (a.u.)       :      1.04081
Magnitude (Debye)      :      2.64554

                             ****ORCA TERMINATED NORMALLY****
TOTAL RUN TIME: 0 days 0 hours 0 minutes 6 seconds 507 msec
