                         Program Version 3.0.3 - RELEASE   -
|  1> ! RI PBE def2-SVP def2-SVP/J NBO PAL2
|  2> % maxcore 2000
|  3> % output
|  4>     # printlevel mini
|  5>     print[ P_Basis ] 0
|  6>     print[ P_SCFInfo ] 1
|  7>     print[ P_SCFIterInfo ] 1
|  8>     print[ P_OrbEn ] 0
|  9>     print[ P_Cartesian ] 0
| 10> end
| 11> *xyz 0 1
| 12>  C        0.9736740000    -0.0766890000    -0.1095530000
| 13>  C        2.2905500000    -0.0342520000     0.1100600000
| 14>  N        3.1512410000    -1.1025870000     0.2845010000
| 15>  C        4.4553670000    -0.6886230000     0.4917910000
| 16>  O        5.4069220000    -1.4097760000     0.6712510000
| 17>  C        4.3921620000     0.7935880000     0.4387060000
| 18>  C        3.1264190000     1.1605440000     0.2165030000
| 19>  H        0.4283140000    -1.0097260000    -0.1746490000
| 20>  H        0.4196150000     0.8440600000    -0.2284170000
| 21>  H        2.8882280000    -2.0719430000     0.2675990000
| 22>  H        5.2647830000     1.4157000000     0.5670570000
| 23>  H        2.7288250000     2.1610240000     0.1215400000
| 24> *
| 25>
| 26>                          ****END OF INPUT****
 Total Charge           Charge          ....    0
 Multiplicity           Mult            ....    1
 Number of Electrons    NEL             ....   50
 Basis Dimension        Dim             ....  123

MULLIKEN ATOMIC CHARGES
-----------------------
   0 C :   -0.048396
   1 C :    0.061876
   2 N :   -0.103195
   3 C :    0.122868
   4 O :   -0.163859
   5 C :   -0.058425
   6 C :    0.037176
   7 H :    0.021050
   8 H :    0.020949
   9 H :    0.111348
  10 H :    0.002164
  11 H :   -0.003555
Sum of atomic charges:   -0.0000000

LOEWDIN ATOMIC CHARGES
----------------------
   0 C :   -0.075154
   1 C :    0.008583
   2 N :    0.028252
   3 C :    0.026915
   4 O :   -0.156916
   5 C :   -0.042592
   6 C :   -0.003764
   7 H :    0.029130
   8 H :    0.034147
   9 H :    0.082033
  10 H :    0.036042
  11 H :    0.033323

  Mayer bond orders larger than 0.1
B(  0-C ,  1-C ) :   1.8105 B(  0-C ,  7-H ) :   0.9324 B(  0-C ,  8-H ) :   0.9184
B(  1-C ,  2-N ) :   1.1237 B(  1-C ,  6-C ) :   1.0361 B(  2-N ,  3-C ) :   1.0784
B(  2-N ,  9-H ) :   0.9287 B(  3-C ,  4-O ) :   2.1336 B(  3-C ,  5-C ) :   0.9714
B(  5-C ,  6-C ) :   1.6588 B(  5-C , 10-H ) :   1.0093 B(  6-C , 11-H ) :   1.0046

FINAL SINGLE POINT ENERGY      -322.884760055916

DIPOLE MOMENT
-------------
                                X             Y             Z
Electronic contribution:      3.86239      -1.91414       0.70051
Nuclear contribution   :     -5.02264       2.35798      -0.90940
                        -----------------------------------------
Total Dipole Moment    :     -1.16025       0.44383      -0.20888
                        -----------------------------------------
Magnitude (a.u.)       :      1.25969
Magnitude (Debye)      :      3.20187

                             ****ORCA TERMINATED NORMALLY****
TOTAL RUN TIME: 0 days 0 hours 0 minutes 5 seconds 865 msec
