                         Program Version 3.0.3 - RELEASE   -
|  1> ! RI PBE def2-SVP def2-SVP/J NBO PAL2
|  2> % maxcore 2000
|  3> % output
|  4>     # printlevel mini
|  5>     print[ P_Basis ] 0
|  6>     print[ P_SCFInfo ] 1
|  7>     print[ P_SCFIterInfo ] 1
|  8>     print[ P_OrbEn ] 0
|  9>     print[ P_Cartesian ] 0
| 10> end
| 11> *xyz 0 1
| 12>  C        0.9764560000     0.0528780000     0.0438370000
| 13>  C        2.4535370000     0.0164200000     0.0447390000
| 14>  N        3.1402200000    -1.0642630000     0.0452940000
| 15>  C        4.5119990000    -0.6495900000     0.0454160000
| 16>  O        5.4462680000    -1.3946560000     0.0469870000
| 17>  C        4.5591390000     0.8580900000     0.0465050000
| 18>  C        3.2960420000     1.2612470000     0.0452420000
| 19>  H        0.5648860000    -0.9542690000     0.0436650000
| 20>  H        0.6157020000     0.5996660000    -0.8335850000
| 21>  H        0.6146740000     0.5997910000     0.9207540000
| 22>  H        5.4739210000     1.4312290000     0.0476370000
| 23>  H        2.9053560000     2.2701580000     0.0450990000
| 24> *
| 25>
| 26>                          ****END OF INPUT****
 Total Charge           Charge          ....    0
 Multiplicity           Mult            ....    1
 Number of Electrons    NEL             ....   50
 Basis Dimension        Dim             ....  123

MULLIKEN ATOMIC CHARGES
-----------------------
   0 C :    0.088259
   1 C :   -0.145237
   2 N :   -0.122235
   3 C :    0.113344
   4 O :   -0.078435
   5 C :   -0.033511
   6 C :    0.032030
   7 H :    0.047181
   8 H :    0.047049
   9 H :    0.047038
  10 H :    0.006685
  11 H :   -0.002168
Sum of atomic charges:   -0.0000000

LOEWDIN ATOMIC CHARGES
----------------------
   0 C :   -0.062517
   1 C :    0.033702
   2 N :   -0.124809
   3 C :    0.050073
   4 O :   -0.055115
   5 C :   -0.035272
   6 C :   -0.022082
   7 H :    0.046520
   8 H :    0.051877
   9 H :    0.051864
  10 H :    0.036267
  11 H :    0.029491

  Mayer bond orders larger than 0.1
B(  0-C ,  1-C ) :   1.1020 B(  0-C ,  7-H ) :   0.9438 B(  0-C ,  8-H ) :   0.9315
B(  0-C ,  9-H ) :   0.9315 B(  1-C ,  2-N ) :   1.8458 B(  1-C ,  6-C ) :   0.9448
B(  2-N ,  3-C ) :   1.0424 B(  3-C ,  4-O ) :   2.2001 B(  3-C ,  5-C ) :   0.9024
B(  5-C ,  6-C ) :   1.7162 B(  5-C , 10-H ) :   1.0020 B(  6-C , 11-H ) :   0.9994

FINAL SINGLE POINT ENERGY      -322.856742659449

DIPOLE MOMENT
-------------
                                X             Y             Z
Electronic contribution:      5.83087      -2.91988       0.00244
Nuclear contribution   :     -6.75968       4.40712      -0.00346
                        -----------------------------------------
Total Dipole Moment    :     -0.92882       1.48724      -0.00102
                        -----------------------------------------
Magnitude (a.u.)       :      1.75345
Magnitude (Debye)      :      4.45691

                             ****ORCA TERMINATED NORMALLY****
TOTAL RUN TIME: 0 days 0 hours 0 minutes 5 seconds 744 msec
