                         Program Version 3.0.3 - RELEASE   -
|  1> ! RI PBE def2-SVP def2-SVP/J NBO PAL2
|  2> % maxcore 2000
|  3> % output
|  4>     # printlevel mini
|  5>     print[ P_Basis ] 0
|  6>     print[ P_SCFInfo ] 1
|  7>     print[ P_SCFIterInfo ] 1
|  8>     print[ P_OrbEn ] 0
|  9>     print[ P_Cartesian ] 0
| 10> end
| 11> *xyz 0 1
| 12>  C        1.0269930000    -0.0667740000    -0.2262850000
| 13>  C        2.5325530000     0.0117370000    -0.0216900000
| 14>  N        3.1449330000     0.3137970000    -1.3132840000
| 15>  C        3.0744670000    -1.2525790000     0.6927610000
| 16>  O        4.0498750000    -0.8201480000     1.6500560000
| 17>  C        3.8395570000     0.5099400000     1.8151470000
| 18>  C        2.9741980000     1.0586570000     0.9715480000
| 19>  H        0.7686400000    -0.8985250000    -0.8905040000
| 20>  H        0.6645600000     0.8537970000    -0.6863250000
| 21>  H        0.5092330000    -0.2158990000     0.7219970000
| 22>  H        2.9142040000    -0.3965240000    -1.9995610000
| 23>  H        4.1533760000     0.3516910000    -1.2273320000
| 24>  H        3.5525660000    -1.9532140000     0.0059340000
| 25>  H        2.2786280000    -1.7676220000     1.2409420000
| 26>  H        4.4150000000     0.9634000000     2.6112480000
| 27>  H        2.7033170000     2.1018770000     0.9174590000
| 28> *
| 29>
| 30>                          ****END OF INPUT****
 Total Charge           Charge          ....    0
 Multiplicity           Mult            ....    1
 Number of Electrons    NEL             ....   54
 Basis Dimension        Dim             ....  143

MULLIKEN ATOMIC CHARGES
-----------------------
   0 C :    0.062511
   1 C :   -0.317084
   2 N :   -0.133160
   3 C :    0.339196
   4 O :   -0.288195
   5 C :    0.129903
   6 C :   -0.024472
   7 H :    0.014003
   8 H :    0.027881
   9 H :    0.018680
  10 H :    0.080616
  11 H :    0.087238
  12 H :   -0.005615
  13 H :    0.005937
  14 H :    0.006758
  15 H :   -0.004198
Sum of atomic charges:   -0.0000000

LOEWDIN ATOMIC CHARGES
----------------------
   0 C :   -0.053398
   1 C :   -0.033336
   2 N :   -0.085601
   3 C :    0.075252
   4 O :   -0.091463
   5 C :    0.038950
   6 C :   -0.109309
   7 H :    0.023159
   8 H :    0.030962
   9 H :    0.026535
  10 H :    0.045406
  11 H :    0.050663
  12 H :    0.015214
  13 H :    0.017529
  14 H :    0.021689
  15 H :    0.027750

  Mayer bond orders larger than 0.1
B(  0-C ,  1-C ) :   1.0472 B(  0-C ,  7-H ) :   0.9572 B(  0-C ,  8-H ) :   0.9559
B(  0-C ,  9-H ) :   0.9541 B(  1-C ,  2-N ) :   1.0479 B(  1-C ,  3-C ) :   0.9857
B(  1-C ,  6-C ) :   1.0114 B(  2-N , 10-H ) :   0.9596 B(  2-N , 11-H ) :   0.9625
B(  3-C ,  4-O ) :   0.9651 B(  3-C , 12-H ) :   0.9250 B(  3-C , 13-H ) :   0.9244
B(  4-O ,  5-C ) :   1.1197 B(  4-O ,  6-C ) :   0.1155 B(  5-C ,  6-C ) :   1.7105
B(  5-C , 14-H ) :   0.9870 B(  6-C , 15-H ) :   0.9926

FINAL SINGLE POINT ENERGY      -325.241436571703

DIPOLE MOMENT
-------------
                                X             Y             Z
Electronic contribution:      4.20449       0.06514       3.19210
Nuclear contribution   :     -4.29438      -0.35190      -3.38881
                        -----------------------------------------
Total Dipole Moment    :     -0.08988      -0.28676      -0.19671
                        -----------------------------------------
Magnitude (a.u.)       :      0.35917
Magnitude (Debye)      :      0.91294

                             ****ORCA TERMINATED NORMALLY****
TOTAL RUN TIME: 0 days 0 hours 0 minutes 7 seconds 609 msec
