                         Program Version 3.0.3 - RELEASE   -
|  1> ! RI PBE def2-SVP def2-SVP/J NBO PAL2
|  2> % maxcore 2000
|  3> % output
|  4>     # printlevel mini
|  5>     print[ P_Basis ] 0
|  6>     print[ P_SCFInfo ] 1
|  7>     print[ P_SCFIterInfo ] 1
|  8>     print[ P_OrbEn ] 0
|  9>     print[ P_Cartesian ] 0
| 10> end
| 11> *xyz 0 1
| 12>  C        0.8933970000     0.0822490000    -0.1267460000
| 13>  C        2.3896080000     0.0261540000     0.1514850000
| 14>  N        2.7935400000    -1.1383410000     0.8940310000
| 15>  C        3.4594870000    -0.8497590000     2.0545390000
| 16>  O        3.9216790000    -1.6472470000     2.8390080000
| 17>  C        3.4781380000     0.6363270000     2.1206530000
| 18>  C        2.8760970000     1.1296510000     1.0436520000
| 19>  H        0.5838840000    -0.7626930000    -0.7459250000
| 20>  H        0.6380130000     1.0000160000    -0.6614100000
| 21>  H        0.3312460000     0.0521690000     0.8084510000
| 22>  H        2.9291530000     0.0790040000    -0.8066190000
| 23>  H        2.6696050000    -2.0838390000     0.5783590000
| 24>  H        3.9272750000     1.1724580000     2.9437090000
| 25>  H        2.7231680000     2.1723310000     0.7962140000
| 26> *
| 27>
| 28>                          ****END OF INPUT****
 Total Charge           Charge          ....    0
 Multiplicity           Mult            ....    1
 Number of Electrons    NEL             ....   52
 Basis Dimension        Dim             ....  133

MULLIKEN ATOMIC CHARGES
-----------------------
   0 C :    0.022772
   1 C :    0.071640
   2 N :   -0.172441
   3 C :    0.111230
   4 O :   -0.190573
   5 C :   -0.047871
   6 C :   -0.037599
   7 H :    0.029412
   8 H :    0.027931
   9 H :    0.034657
  10 H :    0.035070
  11 H :    0.109960
  12 H :   -0.001593
  13 H :    0.007404
Sum of atomic charges:   -0.0000000

LOEWDIN ATOMIC CHARGES
----------------------
   0 C :   -0.058480
   1 C :    0.018751
   2 N :   -0.000680
   3 C :    0.014267
   4 O :   -0.186307
   5 C :   -0.046680
   6 C :   -0.007740
   7 H :    0.029754
   8 H :    0.032521
   9 H :    0.033799
  10 H :    0.036373
  11 H :    0.071733
  12 H :    0.034379
  13 H :    0.028312

  Mayer bond orders larger than 0.1
B(  0-C ,  1-C ) :   1.0670 B(  0-C ,  7-H ) :   0.9594 B(  0-C ,  8-H ) :   0.9560
B(  0-C ,  9-H ) :   0.9556 B(  1-C ,  2-N ) :   1.0143 B(  1-C ,  6-C ) :   0.9939
B(  1-C , 10-H ) :   0.8877 B(  2-N ,  3-C ) :   1.1421 B(  2-N , 11-H ) :   0.9308
B(  3-C ,  4-O ) :   2.1231 B(  3-C ,  5-C ) :   0.9486 B(  5-C ,  6-C ) :   1.7662
B(  5-C , 12-H ) :   1.0096 B(  6-C , 13-H ) :   0.9918

FINAL SINGLE POINT ENERGY      -324.090598847320

DIPOLE MOMENT
-------------
                                X             Y             Z
Electronic contribution:      4.73554      -2.70003       4.32838
Nuclear contribution   :     -5.50149       3.42107      -5.62197
                        -----------------------------------------
Total Dipole Moment    :     -0.76595       0.72104      -1.29360
                        -----------------------------------------
Magnitude (a.u.)       :      1.66733
Magnitude (Debye)      :      4.23801

                             ****ORCA TERMINATED NORMALLY****
TOTAL RUN TIME: 0 days 0 hours 0 minutes 7 seconds 24 msec
