                         Program Version 3.0.3 - RELEASE   -
|  1> ! RI PBE def2-SVP def2-SVP/J NBO PAL2
|  2> % maxcore 2000
|  3> % output
|  4>     # printlevel mini
|  5>     print[ P_Basis ] 0
|  6>     print[ P_SCFInfo ] 1
|  7>     print[ P_SCFIterInfo ] 1
|  8>     print[ P_OrbEn ] 0
|  9>     print[ P_Cartesian ] 0
| 10> end
| 11> *xyz 0 1
| 12>  C        1.0453040000     0.0818080000    -0.0518230000
| 13>  C        2.5104570000    -0.0200990000    -0.0509500000
| 14>  N        3.1923840000    -1.1010390000    -0.0525950000
| 15>  C        4.5401140000    -0.6670840000    -0.0501470000
| 16>  O        5.5193640000    -1.3482500000    -0.0514400000
| 17>  C        4.4702800000     0.8594860000    -0.0484350000
| 18>  N        3.2629160000     1.2387260000    -0.0481690000
| 19>  H        0.5817490000    -0.9014800000    -0.0538910000
| 20>  H        0.7256090000     0.6581030000    -0.9254740000
| 21>  H        0.7243050000     0.6550650000     0.8233450000
| 22>  H        5.3248170000     1.5272460000    -0.0470120000
| 23> *
| 24>
| 25>                          ****END OF INPUT****
 Total Charge           Charge          ....    0
 Multiplicity           Mult            ....    1
 Number of Electrons    NEL             ....   50
 Basis Dimension        Dim             ....  118

MULLIKEN ATOMIC CHARGES
-----------------------
   0 C :    0.114539
   1 C :   -0.128957
   2 N :   -0.093447
   3 C :    0.082816
   4 O :   -0.066025
   5 C :    0.007131
   6 N :   -0.107932
   7 H :    0.047566
   8 H :    0.058091
   9 H :    0.058061
  10 H :    0.028157
Sum of atomic charges:   -0.0000000

LOEWDIN ATOMIC CHARGES
----------------------
   0 C :   -0.059600
   1 C :    0.059160
   2 N :   -0.125346
   3 C :    0.025150
   4 O :   -0.043508
   5 C :    0.017551
   6 N :   -0.074660
   7 H :    0.047893
   8 H :    0.061046
   9 H :    0.061043
  10 H :    0.031271

  Mayer bond orders larger than 0.1
B(  0-C ,  1-C ) :   1.1219 B(  0-C ,  7-H ) :   0.9409 B(  0-C ,  8-H ) :   0.9186
B(  0-C ,  9-H ) :   0.9186 B(  1-C ,  2-N ) :   1.8332 B(  1-C ,  6-N ) :   1.0249
B(  2-N ,  3-C ) :   1.0834 B(  3-C ,  4-O ) :   2.1987 B(  3-C ,  5-C ) :   0.8557
B(  5-C ,  6-N ) :   1.9340 B(  5-C , 10-H ) :   0.9646

FINAL SINGLE POINT ENERGY      -338.880132538122

DIPOLE MOMENT
-------------
                                X             Y             Z
Electronic contribution:      5.58072      -1.59381       0.00209
Nuclear contribution   :     -6.23580       2.37539      -0.00078
                        -----------------------------------------
Total Dipole Moment    :     -0.65507       0.78158       0.00130
                        -----------------------------------------
Magnitude (a.u.)       :      1.01980
Magnitude (Debye)      :      2.59213

                             ****ORCA TERMINATED NORMALLY****
TOTAL RUN TIME: 0 days 0 hours 0 minutes 5 seconds 792 msec
