                         Program Version 3.0.3 - RELEASE   -
|  1> ! RI PBE def2-SVP def2-SVP/J NBO PAL2
|  2> % maxcore 2000
|  3> % output
|  4>     # printlevel mini
|  5>     print[ P_Basis ] 0
|  6>     print[ P_SCFInfo ] 1
|  7>     print[ P_SCFIterInfo ] 1
|  8>     print[ P_OrbEn ] 0
|  9>     print[ P_Cartesian ] 0
| 10> end
| 11> *xyz 0 1
| 12>  C        0.9318910000     0.0594210000    -0.0402320000
| 13>  C        2.4149760000     0.0838300000    -0.0377720000
| 14>  N        3.1644380000     1.1673910000    -0.0337460000
| 15>  C        4.4487240000     0.7294840000    -0.0327540000
| 16>  O        5.4814500000     1.5920650000    -0.0288400000
| 17>  C        4.5108710000    -0.6337780000    -0.0361620000
| 18>  N        3.1851550000    -1.0237730000    -0.0393500000
| 19>  H        0.5671440000     1.0849380000    -0.0386070000
| 20>  H        0.5326640000    -0.4489270000     0.8421460000
| 21>  H        0.5355310000    -0.4451210000    -0.9260770000
| 22>  H        5.0958850000     2.4747540000    -0.0271620000
| 23>  H        5.3319110000    -1.3282940000    -0.0366090000
| 24>  H        2.8547510000    -1.9720910000    -0.0423360000
| 25> *
| 26>
| 27>                          ****END OF INPUT****
 Total Charge           Charge          ....    0
 Multiplicity           Mult            ....    1
 Number of Electrons    NEL             ....   52
 Basis Dimension        Dim             ....  128

MULLIKEN ATOMIC CHARGES
-----------------------
   0 C :    0.092236
   1 C :   -0.119554
   2 N :   -0.167139
   3 C :    0.089314
   4 O :   -0.166920
   5 C :   -0.045070
   6 N :   -0.041144
   7 H :    0.035085
   8 H :    0.031488
   9 H :    0.031382
  10 H :    0.165922
  11 H :   -0.014122
  12 H :    0.108522
Sum of atomic charges:   -0.0000000

LOEWDIN ATOMIC CHARGES
----------------------
   0 C :   -0.070027
   1 C :   -0.023440
   2 N :   -0.156161
   3 C :   -0.012689
   4 O :   -0.038283
   5 C :   -0.101021
   6 N :    0.093139
   7 H :    0.048494
   8 H :    0.037231
   9 H :    0.037209
  10 H :    0.084024
  11 H :    0.019888
  12 H :    0.081635

  Mayer bond orders larger than 0.1
B(  0-C ,  1-C ) :   1.1080 B(  0-C ,  7-H ) :   0.9350 B(  0-C ,  8-H ) :   0.9413
B(  0-C ,  9-H ) :   0.9413 B(  1-C ,  2-N ) :   1.5920 B(  1-C ,  5-C ) :   0.1043
B(  1-C ,  6-N ) :   1.2797 B(  2-N ,  3-C ) :   1.3480 B(  3-C ,  4-O ) :   1.2174
B(  3-C ,  5-C ) :   1.4505 B(  4-O , 10-H ) :   0.9570 B(  5-C ,  6-N ) :   1.1424
B(  5-C , 11-H ) :   0.9859 B(  6-N , 12-H ) :   0.9342

FINAL SINGLE POINT ENERGY      -340.120088775147

DIPOLE MOMENT
-------------
                                X             Y             Z
Electronic contribution:      4.78470       1.37514       0.01133
Nuclear contribution   :     -5.45668      -2.28387      -0.01473
                        -----------------------------------------
Total Dipole Moment    :     -0.67198      -0.90873      -0.00339
                        -----------------------------------------
Magnitude (a.u.)       :      1.13020
Magnitude (Debye)      :      2.87274

                             ****ORCA TERMINATED NORMALLY****
TOTAL RUN TIME: 0 days 0 hours 0 minutes 6 seconds 323 msec
