                         Program Version 3.0.3 - RELEASE   -
|  1> ! RI PBE def2-SVP def2-SVP/J NBO PAL2
|  2> % maxcore 2000
|  3> % output
|  4>     # printlevel mini
|  5>     print[ P_Basis ] 0
|  6>     print[ P_SCFInfo ] 1
|  7>     print[ P_SCFIterInfo ] 1
|  8>     print[ P_OrbEn ] 0
|  9>     print[ P_Cartesian ] 0
| 10> end
| 11> *xyz 0 1
| 12>  C        1.1257670000     0.0300540000     0.0451630000
| 13>  C        2.5992930000     0.1256000000     0.0477610000
| 14>  N        3.3303680000     1.1951740000     0.0523560000
| 15>  C        4.6204640000     0.7322510000     0.0528840000
| 16>  O        5.6649010000     1.5708290000     0.0572060000
| 17>  C        4.6240540000    -0.6183550000     0.0485610000
| 18>  O        3.3081700000    -1.0091790000     0.0452230000
| 19>  H        0.7042780000     1.0329860000     0.0474720000
| 20>  H        0.7692620000    -0.5105630000     0.9251980000
| 21>  H        0.7720350000    -0.5053560000    -0.8391600000
| 22>  H        5.3058120000     2.4646600000     0.0595580000
| 23>  H        5.3769960000    -1.3841900000     0.0472780000
| 24> *
| 25>
| 26>                          ****END OF INPUT****
 Total Charge           Charge          ....    0
 Multiplicity           Mult            ....    1
 Number of Electrons    NEL             ....   52
 Basis Dimension        Dim             ....  123

MULLIKEN ATOMIC CHARGES
-----------------------
   0 C :    0.092677
   1 C :   -0.060080
   2 N :   -0.144979
   3 C :    0.091898
   4 O :   -0.153753
   5 C :    0.023543
   6 O :   -0.163837
   7 H :    0.040990
   8 H :    0.046538
   9 H :    0.046436
  10 H :    0.173879
  11 H :    0.006689
Sum of atomic charges:   -0.0000000

LOEWDIN ATOMIC CHARGES
----------------------
   0 C :   -0.066330
   1 C :    0.011852
   2 N :   -0.137816
   3 C :   -0.014444
   4 O :   -0.024869
   5 C :   -0.053204
   6 O :    0.026863
   7 H :    0.049722
   8 H :    0.047636
   9 H :    0.047621
  10 H :    0.090144
  11 H :    0.022826

  Mayer bond orders larger than 0.1
B(  0-C ,  1-C ) :   1.1142 B(  0-C ,  7-H ) :   0.9433 B(  0-C ,  8-H ) :   0.9348
B(  0-C ,  9-H ) :   0.9348 B(  1-C ,  2-N ) :   1.6891 B(  1-C ,  6-O ) :   1.2169
B(  2-N ,  3-C ) :   1.2699 B(  3-C ,  4-O ) :   1.2285 B(  3-C ,  5-C ) :   1.5124
B(  4-O , 10-H ) :   0.9542 B(  5-C ,  6-O ) :   1.0791 B(  5-C , 11-H ) :   0.9927

FINAL SINGLE POINT ENERGY      -359.947919172443

DIPOLE MOMENT
-------------
                                X             Y             Z
Electronic contribution:      4.41605       0.38646       0.00812
Nuclear contribution   :     -4.84292      -0.38962      -0.00875
                        -----------------------------------------
Total Dipole Moment    :     -0.42687      -0.00316      -0.00063
                        -----------------------------------------
Magnitude (a.u.)       :      0.42688
Magnitude (Debye)      :      1.08504

                             ****ORCA TERMINATED NORMALLY****
TOTAL RUN TIME: 0 days 0 hours 0 minutes 5 seconds 778 msec
