                         Program Version 3.0.3 - RELEASE   -
|  1> ! RI PBE def2-SVP def2-SVP/J NBO PAL2
|  2> % maxcore 2000
|  3> % output
|  4>     # printlevel mini
|  5>     print[ P_Basis ] 0
|  6>     print[ P_SCFInfo ] 1
|  7>     print[ P_SCFIterInfo ] 1
|  8>     print[ P_OrbEn ] 0
|  9>     print[ P_Cartesian ] 0
| 10> end
| 11> *xyz 0 1
| 12>  C        1.1803350000    -0.1111430000     0.1838810000
| 13>  C        2.4658360000    -0.0584760000    -0.1445450000
| 14>  N        3.2556220000     1.0666920000    -0.3276000000
| 15>  C        4.5427610000     0.7641640000    -0.6625620000
| 16>  O        5.4469740000     1.5264060000    -0.8812210000
| 17>  C        4.5614570000    -0.7498000000    -0.6934080000
| 18>  O        3.2424170000    -1.1498590000    -0.3622270000
| 19>  H        0.6165660000     0.7955940000     0.3438650000
| 20>  H        0.6920810000    -1.0673400000     0.2925680000
| 21>  H        2.9192470000     2.0087050000    -0.2252890000
| 22>  H        5.2734220000    -1.1433250000     0.0370040000
| 23>  H        4.8311920000    -1.1136260000    -1.6884660000
| 24> *
| 25>
| 26>                          ****END OF INPUT****
 Total Charge           Charge          ....    0
 Multiplicity           Mult            ....    1
 Number of Electrons    NEL             ....   52
 Basis Dimension        Dim             ....  123

MULLIKEN ATOMIC CHARGES
-----------------------
   0 C :   -0.116911
   1 C :    0.181530
   2 N :   -0.095301
   3 C :    0.004222
   4 O :   -0.165945
   5 C :    0.184413
   6 O :   -0.270605
   7 H :    0.008984
   8 H :    0.026556
   9 H :    0.126856
  10 H :    0.060342
  11 H :    0.055860
Sum of atomic charges:   -0.0000000

LOEWDIN ATOMIC CHARGES
----------------------
   0 C :   -0.178104
   1 C :    0.060614
   2 N :    0.036863
   3 C :    0.014286
   4 O :   -0.157331
   5 C :    0.056922
   6 O :   -0.073016
   7 H :    0.029443
   8 H :    0.037134
   9 H :    0.093146
  10 H :    0.040386
  11 H :    0.039658

  Mayer bond orders larger than 0.1
B(  0-C ,  1-C ) :   1.8752 B(  0-C ,  7-H ) :   0.9268 B(  0-C ,  8-H ) :   0.9140
B(  1-C ,  2-N ) :   1.0649 B(  1-C ,  6-O ) :   1.1121 B(  2-N ,  3-C ) :   1.1442
B(  2-N ,  9-H ) :   0.9238 B(  3-C ,  4-O ) :   2.1612 B(  3-C ,  5-C ) :   0.9649
B(  5-C ,  6-O ) :   0.9884 B(  5-C , 10-H ) :   0.9220 B(  5-C , 11-H ) :   0.9210

FINAL SINGLE POINT ENERGY      -359.948999350131

DIPOLE MOMENT
-------------
                                X             Y             Z
Electronic contribution:      2.80845       1.34678      -0.69101
Nuclear contribution   :     -3.20575      -1.36240       0.79772
                        -----------------------------------------
Total Dipole Moment    :     -0.39730      -0.01561       0.10671
                        -----------------------------------------
Magnitude (a.u.)       :      0.41168
Magnitude (Debye)      :      1.04640

                             ****ORCA TERMINATED NORMALLY****
TOTAL RUN TIME: 0 days 0 hours 0 minutes 5 seconds 846 msec
