                         Program Version 3.0.3 - RELEASE   -
|  1> ! RI PBE def2-SVP def2-SVP/J NBO PAL2
|  2> % maxcore 2000
|  3> % output
|  4>     # printlevel mini
|  5>     print[ P_Basis ] 0
|  6>     print[ P_SCFInfo ] 1
|  7>     print[ P_SCFIterInfo ] 1
|  8>     print[ P_OrbEn ] 0
|  9>     print[ P_Cartesian ] 0
| 10> end
| 11> *xyz 0 1
| 12>  C        0.9704060000    -0.0312490000    -0.0858380000
| 13>  C        2.2865120000    -0.0437720000     0.1343710000
| 14>  N        3.1564750000    -1.0936950000     0.3002600000
| 15>  C        4.4463420000    -0.6239170000     0.5068390000
| 16>  O        5.4239090000    -1.2912930000     0.6829250000
| 17>  N        4.3925810000     0.8086540000     0.4695310000
| 18>  C        3.1719300000     1.1185130000     0.2596060000
| 19>  H        0.3816680000    -0.9360670000    -0.1665400000
| 20>  H        0.4603700000     0.9168800000    -0.1896050000
| 21>  H        2.9305170000    -2.0717870000     0.2815000000
| 22>  H        2.8284900000     2.1452440000     0.1820520000
| 23> *
| 24>
| 25>                          ****END OF INPUT****
 Total Charge           Charge          ....    0
 Multiplicity           Mult            ....    1
 Number of Electrons    NEL             ....   50
 Basis Dimension        Dim             ....  118

MULLIKEN ATOMIC CHARGES
-----------------------
   0 C :   -0.042397
   1 C :    0.040259
   2 N :   -0.106541
   3 C :    0.121454
   4 O :   -0.127668
   5 N :   -0.125690
   6 C :    0.039126
   7 H :    0.031628
   8 H :    0.031655
   9 H :    0.122407
  10 H :    0.015768
Sum of atomic charges:    0.0000000

LOEWDIN ATOMIC CHARGES
----------------------
   0 C :   -0.057384
   1 C :   -0.022115
   2 N :    0.025563
   3 C :    0.025483
   4 O :   -0.123251
   5 N :   -0.079945
   6 C :    0.044131
   7 H :    0.033165
   8 H :    0.038616
   9 H :    0.087675
  10 H :    0.028063

  Mayer bond orders larger than 0.1
B(  0-C ,  1-C ) :   1.7976 B(  0-C ,  7-H ) :   0.9369 B(  0-C ,  8-H ) :   0.9173
B(  1-C ,  2-N ) :   1.1446 B(  1-C ,  6-C ) :   1.0026 B(  2-N ,  3-C ) :   1.0488
B(  2-N ,  9-H ) :   0.9286 B(  3-C ,  4-O ) :   2.1735 B(  3-C ,  5-N ) :   1.0495
B(  5-N ,  6-C ) :   1.8624 B(  6-C , 10-H ) :   0.9795

FINAL SINGLE POINT ENERGY      -338.908780154533

DIPOLE MOMENT
-------------
                                X             Y             Z
Electronic contribution:      4.74968      -0.89720       0.80864
Nuclear contribution   :     -6.65370       0.79932      -1.12772
                        -----------------------------------------
Total Dipole Moment    :     -1.90403      -0.09789      -0.31908
                        -----------------------------------------
Magnitude (a.u.)       :      1.93306
Magnitude (Debye)      :      4.91344

                             ****ORCA TERMINATED NORMALLY****
TOTAL RUN TIME: 0 days 0 hours 0 minutes 5 seconds 586 msec
