                         Program Version 3.0.3 - RELEASE   -
|  1> ! RI PBE def2-SVP def2-SVP/J NBO PAL2
|  2> % maxcore 2000
|  3> % output
|  4>     # printlevel mini
|  5>     print[ P_Basis ] 0
|  6>     print[ P_SCFInfo ] 1
|  7>     print[ P_SCFIterInfo ] 1
|  8>     print[ P_OrbEn ] 0
|  9>     print[ P_Cartesian ] 0
| 10> end
| 11> *xyz 0 1
| 12>  C        1.1221500000    -0.0198010000    -0.0197020000
| 13>  C        2.5961150000    -0.0713030000    -0.0199150000
| 14>  N        3.3063470000    -1.1282370000    -0.0190360000
| 15>  C        4.6680110000    -0.6559920000    -0.0197370000
| 16>  O        5.6288260000    -1.3497210000    -0.0192250000
| 17>  N        4.7180970000     0.8042440000    -0.0211170000
| 18>  C        3.4985000000     1.1436550000    -0.0212280000
| 19>  H        0.6987560000    -1.0221320000    -0.0186610000
| 20>  H        0.7655010000     0.5286970000    -0.8975700000
| 21>  H        0.7658120000     0.5303910000     0.8572310000
| 22>  H        3.1680750000     2.1789890000    -0.0221500000
| 23> *
| 24>
| 25>                          ****END OF INPUT****
 Total Charge           Charge          ....    0
 Multiplicity           Mult            ....    1
 Number of Electrons    NEL             ....   50
 Basis Dimension        Dim             ....  118

MULLIKEN ATOMIC CHARGES
-----------------------
   0 C :    0.088643
   1 C :   -0.173760
   2 N :   -0.110046
   3 C :    0.117484
   4 O :   -0.042855
   5 N :   -0.110965
   6 C :    0.049075
   7 H :    0.054606
   8 H :    0.053920
   9 H :    0.053937
  10 H :    0.019961
Sum of atomic charges:   -0.0000000

LOEWDIN ATOMIC CHARGES
----------------------
   0 C :   -0.061653
   1 C :    0.002283
   2 N :   -0.102459
   3 C :    0.049473
   4 O :   -0.024566
   5 N :   -0.078728
   6 C :    0.028971
   7 H :    0.050199
   8 H :    0.055599
   9 H :    0.055600
  10 H :    0.025282

  Mayer bond orders larger than 0.1
B(  0-C ,  1-C ) :   1.0994 B(  0-C ,  7-H ) :   0.9431 B(  0-C ,  8-H ) :   0.9305
B(  0-C ,  9-H ) :   0.9305 B(  1-C ,  2-N ) :   1.8862 B(  1-C ,  6-C ) :   0.9059
B(  2-N ,  3-C ) :   1.0079 B(  3-C ,  4-O ) :   2.2422 B(  3-C ,  5-N ) :   0.9891
B(  5-N ,  6-C ) :   1.9310 B(  6-C , 10-H ) :   0.9740

FINAL SINGLE POINT ENERGY      -338.882811191025

DIPOLE MOMENT
-------------
                                X             Y             Z
Electronic contribution:      6.87323      -1.80302       0.00047
Nuclear contribution   :     -8.59650       2.80967      -0.00115
                        -----------------------------------------
Total Dipole Moment    :     -1.72328       1.00665      -0.00068
                        -----------------------------------------
Magnitude (a.u.)       :      1.99575
Magnitude (Debye)      :      5.07280

                             ****ORCA TERMINATED NORMALLY****
TOTAL RUN TIME: 0 days 0 hours 0 minutes 5 seconds 652 msec
