                         Program Version 3.0.3 - RELEASE   -
|  1> ! RI PBE def2-SVP def2-SVP/J NBO PAL2
|  2> % maxcore 2000
|  3> % output
|  4>     # printlevel mini
|  5>     print[ P_Basis ] 0
|  6>     print[ P_SCFInfo ] 1
|  7>     print[ P_SCFIterInfo ] 1
|  8>     print[ P_OrbEn ] 0
|  9>     print[ P_Cartesian ] 0
| 10> end
| 11> *xyz 0 1
| 12>  C        0.9518090000    -0.1326850000    -0.2250490000
| 13>  C        2.4625030000    -0.1055090000    -0.0726920000
| 14>  N        3.0551400000     0.2251710000    -1.3616360000
| 15>  C        3.0182130000    -1.3484340000     0.6355380000
| 16>  O        4.0525280000    -0.8714790000     1.5012950000
| 17>  N        3.8496120000     0.4777410000     1.7191830000
| 18>  C        2.9651470000     0.9123100000     0.9211810000
| 19>  H        0.6498220000    -0.9476090000    -0.8901960000
| 20>  H        0.6007290000     0.8039080000    -0.6611480000
| 21>  H        0.4598490000    -0.2817690000     0.7367520000
| 22>  H        2.7256100000    -0.4053060000    -2.0831700000
| 23>  H        4.0653190000     0.1620590000    -1.3243600000
| 24>  H        3.4529850000    -2.0778460000    -0.0495510000
| 25>  H        2.2512400000    -1.8310110000     1.2520550000
| 26>  H        2.7023830000     1.9624480000     0.9275870000
| 27> *
| 28>
| 29>                          ****END OF INPUT****
 Total Charge           Charge          ....    0
 Multiplicity           Mult            ....    1
 Number of Electrons    NEL             ....   54
 Basis Dimension        Dim             ....  138

MULLIKEN ATOMIC CHARGES
-----------------------
   0 C :    0.055797
   1 C :   -0.348375
   2 N :   -0.132635
   3 C :    0.337280
   4 O :   -0.279645
   5 N :    0.029298
   6 C :    0.026706
   7 H :    0.024581
   8 H :    0.035153
   9 H :    0.028090
  10 H :    0.089362
  11 H :    0.096790
  12 H :    0.001642
  13 H :    0.012599
  14 H :    0.023357
Sum of atomic charges:   -0.0000000

LOEWDIN ATOMIC CHARGES
----------------------
   0 C :   -0.049870
   1 C :   -0.057511
   2 N :   -0.077775
   3 C :    0.051115
   4 O :   -0.096229
   5 N :    0.012121
   6 C :   -0.052099
   7 H :    0.028035
   8 H :    0.033774
   9 H :    0.031021
  10 H :    0.051610
  11 H :    0.056595
  12 H :    0.020475
  13 H :    0.018542
  14 H :    0.030197

  Mayer bond orders larger than 0.1
B(  0-C ,  1-C ) :   1.0515 B(  0-C ,  7-H ) :   0.9580 B(  0-C ,  8-H ) :   0.9569
B(  0-C ,  9-H ) :   0.9535 B(  1-C ,  2-N ) :   1.0554 B(  1-C ,  3-C ) :   0.9901
B(  1-C ,  6-C ) :   0.9509 B(  2-N , 10-H ) :   0.9593 B(  2-N , 11-H ) :   0.9588
B(  3-C ,  4-O ) :   0.9489 B(  3-C , 12-H ) :   0.9210 B(  3-C , 13-H ) :   0.9299
B(  4-O ,  5-N ) :   0.9880 B(  4-O ,  6-C ) :   0.1106 B(  5-N ,  6-C ) :   1.8888
B(  6-C , 14-H ) :   0.9722

FINAL SINGLE POINT ENERGY      -341.232334981411

DIPOLE MOMENT
-------------
                                X             Y             Z
Electronic contribution:      5.18797       0.86694       4.14836
Nuclear contribution   :     -5.96411      -1.34676      -5.10083
                        -----------------------------------------
Total Dipole Moment    :     -0.77614      -0.47982      -0.95247
                        -----------------------------------------
Magnitude (a.u.)       :      1.31902
Magnitude (Debye)      :      3.35269

                             ****ORCA TERMINATED NORMALLY****
TOTAL RUN TIME: 0 days 0 hours 0 minutes 6 seconds 957 msec
