                         Program Version 3.0.3 - RELEASE   -
|  1> ! RI PBE def2-SVP def2-SVP/J NBO PAL2
|  2> % maxcore 2000
|  3> % output
|  4>     # printlevel mini
|  5>     print[ P_Basis ] 0
|  6>     print[ P_SCFInfo ] 1
|  7>     print[ P_SCFIterInfo ] 1
|  8>     print[ P_OrbEn ] 0
|  9>     print[ P_Cartesian ] 0
| 10> end
| 11> *xyz 0 1
| 12>  C        0.9433260000     0.0067270000    -0.0792850000
| 13>  C        2.4234810000     0.1041590000    -0.0835800000
| 14>  C        3.2632270000     1.1947030000    -0.0835330000
| 15>  O        2.9325780000     2.5147430000    -0.0793780000
| 16>  C        4.6013870000     0.7369490000    -0.0887610000
| 17>  C        4.5469380000    -0.6328500000    -0.0918920000
| 18>  N        3.2389570000    -1.0037950000    -0.0887430000
| 19>  H        0.4903800000     1.0010870000    -0.0761570000
| 20>  H        0.5612800000    -0.5142110000     0.8054330000
| 21>  H        0.5560050000    -0.5109870000    -0.9635980000
| 22>  H        1.9760200000     2.5993990000    -0.0756080000
| 23>  H        5.4879900000     1.3501640000    -0.0900170000
| 24>  H        5.3384370000    -1.3643870000    -0.0960840000
| 25>  H        2.9089060000    -1.9507900000    -0.0899880000
| 26> *
| 27>
| 28>                          ****END OF INPUT****
 Total Charge           Charge          ....    0
 Multiplicity           Mult            ....    1
 Number of Electrons    NEL             ....   52
 Basis Dimension        Dim             ....  133

MULLIKEN ATOMIC CHARGES
-----------------------
   0 C :    0.091419
   1 C :   -0.159308
   2 C :    0.057012
   3 O :   -0.170711
   4 C :   -0.062389
   5 C :    0.045373
   6 N :   -0.061146
   7 H :   -0.009258
   8 H :    0.030048
   9 H :    0.030037
  10 H :    0.155007
  11 H :   -0.036464
  12 H :   -0.011298
  13 H :    0.101677
Sum of atomic charges:   -0.0000000

LOEWDIN ATOMIC CHARGES
----------------------
   0 C :   -0.066836
   1 C :   -0.106378
   2 C :   -0.020663
   3 O :   -0.046049
   4 C :   -0.108365
   5 C :   -0.036814
   6 N :    0.091566
   7 H :    0.030068
   8 H :    0.033270
   9 H :    0.033279
  10 H :    0.077542
  11 H :    0.025043
  12 H :    0.016483
  13 H :    0.077854

  Mayer bond orders larger than 0.1
B(  0-C ,  1-C ) :   1.1292 B(  0-C ,  7-H ) :   0.9303 B(  0-C ,  8-H ) :   0.9382
B(  0-C ,  9-H ) :   0.9382 B(  1-C ,  2-C ) :   1.4196 B(  1-C ,  5-C ) :   0.1138
B(  1-C ,  6-N ) :   1.1764 B(  2-C ,  3-O ) :   1.2056 B(  2-C ,  4-C ) :   1.3055
B(  3-O , 10-H ) :   0.9721 B(  4-C ,  5-C ) :   1.4385 B(  4-C , 11-H ) :   1.0135
B(  5-C ,  6-N ) :   1.2286 B(  5-C , 12-H ) :   0.9851 B(  6-N , 13-H ) :   0.9439

FINAL SINGLE POINT ENERGY      -324.075789237061

DIPOLE MOMENT
-------------
                                X             Y             Z
Electronic contribution:      3.15678       1.51236      -0.00617
Nuclear contribution   :     -3.98942      -2.36137       0.00700
                        -----------------------------------------
Total Dipole Moment    :     -0.83263      -0.84901       0.00083
                        -----------------------------------------
Magnitude (a.u.)       :      1.18916
Magnitude (Debye)      :      3.02260

                             ****ORCA TERMINATED NORMALLY****
TOTAL RUN TIME: 0 days 0 hours 0 minutes 6 seconds 515 msec
