                         Program Version 3.0.3 - RELEASE   -
|  1> ! RI PBE def2-SVP def2-SVP/J NBO PAL2
|  2> % maxcore 2000
|  3> % output
|  4>     # printlevel mini
|  5>     print[ P_Basis ] 0
|  6>     print[ P_SCFInfo ] 1
|  7>     print[ P_SCFIterInfo ] 1
|  8>     print[ P_OrbEn ] 0
|  9>     print[ P_Cartesian ] 0
| 10> end
| 11> *xyz 0 1
| 12>  C        0.9852280000    -0.1495660000    -0.0118130000
| 13>  C        2.4629870000    -0.0373580000    -0.0121330000
| 14>  C        3.3213930000     1.0344100000    -0.0151660000
| 15>  O        3.0439820000     2.3566830000    -0.0188840000
| 16>  N        4.6179700000     0.6435360000    -0.0140500000
| 17>  C        4.5794750000    -0.6649670000    -0.0103780000
| 18>  N        3.3117070000    -1.1272300000    -0.0090600000
| 19>  H        0.5272640000     0.8420580000    -0.0141260000
| 20>  H        0.6058720000    -0.6698690000     0.8740980000
| 21>  H        0.6057650000    -0.6740840000    -0.8951920000
| 22>  H        2.0913140000     2.4772420000    -0.0195230000
| 23>  H        5.4386720000    -1.3185240000    -0.0085340000
| 24>  H        3.0298510000    -2.0914320000    -0.0063300000
| 25> *
| 26>
| 27>                          ****END OF INPUT****
 Total Charge           Charge          ....    0
 Multiplicity           Mult            ....    1
 Number of Electrons    NEL             ....   52
 Basis Dimension        Dim             ....  128

MULLIKEN ATOMIC CHARGES
-----------------------
   0 C :    0.095122
   1 C :   -0.165716
   2 C :   -0.006808
   3 O :   -0.139329
   4 N :   -0.133204
   5 C :    0.075508
   6 N :   -0.058955
   7 H :   -0.002910
   8 H :    0.033922
   9 H :    0.034002
  10 H :    0.156949
  11 H :    0.004691
  12 H :    0.106726
Sum of atomic charges:   -0.0000000

LOEWDIN ATOMIC CHARGES
----------------------
   0 C :   -0.066684
   1 C :   -0.120478
   2 C :   -0.021846
   3 O :   -0.029208
   4 N :   -0.117935
   5 C :   -0.011751
   6 N :    0.088653
   7 H :    0.032981
   8 H :    0.035145
   9 H :    0.035151
  10 H :    0.081181
  11 H :    0.013825
  12 H :    0.080966

  Mayer bond orders larger than 0.1
B(  0-C ,  1-C ) :   1.1255 B(  0-C ,  7-H ) :   0.9300 B(  0-C ,  8-H ) :   0.9388
B(  0-C ,  9-H ) :   0.9388 B(  1-C ,  2-C ) :   1.4075 B(  1-C ,  5-C ) :   0.1130
B(  1-C ,  6-N ) :   1.1729 B(  2-C ,  3-O ) :   1.2390 B(  2-C ,  4-N ) :   1.4208
B(  3-O , 10-H ) :   0.9673 B(  4-N ,  5-C ) :   1.5983 B(  5-C ,  6-N ) :   1.2444
B(  5-C , 11-H ) :   0.9727 B(  6-N , 12-H ) :   0.9348

FINAL SINGLE POINT ENERGY      -340.110917667836

DIPOLE MOMENT
-------------
                                X             Y             Z
Electronic contribution:      4.76391       1.87693      -0.00525
Nuclear contribution   :     -6.15415      -3.13954       0.00867
                        -----------------------------------------
Total Dipole Moment    :     -1.39024      -1.26261       0.00342
                        -----------------------------------------
Magnitude (a.u.)       :      1.87802
Magnitude (Debye)      :      4.77354

                             ****ORCA TERMINATED NORMALLY****
TOTAL RUN TIME: 0 days 0 hours 0 minutes 6 seconds 353 msec
