                         Program Version 3.0.3 - RELEASE   -
|  1> ! RI PBE def2-SVP def2-SVP/J NBO PAL2
|  2> % maxcore 2000
|  3> % output
|  4>     # printlevel mini
|  5>     print[ P_Basis ] 0
|  6>     print[ P_SCFInfo ] 1
|  7>     print[ P_SCFIterInfo ] 1
|  8>     print[ P_OrbEn ] 0
|  9>     print[ P_Cartesian ] 0
| 10> end
| 11> *xyz 0 1
| 12>  C        1.0145560000    -0.0954920000    -0.0061940000
| 13>  C        2.4938250000     0.0181100000    -0.0106230000
| 14>  C        3.3319960000     1.1132220000    -0.0101950000
| 15>  O        3.0285470000     2.4354940000    -0.0054870000
| 16>  C        4.6376020000     0.5940280000    -0.0158780000
| 17>  N        4.6196500000    -0.7289170000    -0.0196150000
| 18>  N        3.3313870000    -1.0517680000    -0.0163800000
| 19>  H        0.5526300000     0.8944840000    -0.0026100000
| 20>  H        0.6448290000    -0.6223400000     0.8785190000
| 21>  H        0.6392940000    -0.6184620000    -0.8908740000
| 22>  H        2.0743790000     2.5454300000    -0.0014960000
| 23>  H        5.5715380000     1.1346790000    -0.0173500000
| 24>  H        3.0709660000    -2.0217680000    -0.0183070000
| 25> *
| 26>
| 27>                          ****END OF INPUT****
 Total Charge           Charge          ....    0
 Multiplicity           Mult            ....    1
 Number of Electrons    NEL             ....   52
 Basis Dimension        Dim             ....  128

MULLIKEN ATOMIC CHARGES
-----------------------
   0 C :    0.089645
   1 C :   -0.091841
   2 C :   -0.022721
   3 O :   -0.163539
   4 C :   -0.001911
   5 N :   -0.105941
   6 N :   -0.040466
   7 H :   -0.003496
   8 H :    0.040771
   9 H :    0.040750
  10 H :    0.159866
  11 H :   -0.016115
  12 H :    0.114998
Sum of atomic charges:   -0.0000000

LOEWDIN ATOMIC CHARGES
----------------------
   0 C :   -0.065291
   1 C :   -0.094837
   2 C :   -0.040767
   3 O :   -0.039005
   4 C :   -0.078311
   5 N :   -0.093570
   6 N :    0.121882
   7 H :    0.032570
   8 H :    0.039756
   9 H :    0.039760
  10 H :    0.081081
  11 H :    0.020034
  12 H :    0.076699

  Mayer bond orders larger than 0.1
B(  0-C ,  1-C ) :   1.1304 B(  0-C ,  7-H ) :   0.9282 B(  0-C ,  8-H ) :   0.9396
B(  0-C ,  9-H ) :   0.9396 B(  1-C ,  2-C ) :   1.3768 B(  1-C ,  5-N ) :   0.1376
B(  1-C ,  6-N ) :   1.1573 B(  2-C ,  3-O ) :   1.2089 B(  2-C ,  4-C ) :   1.2957
B(  3-O , 10-H ) :   0.9687 B(  4-C ,  5-N ) :   1.5731 B(  4-C , 11-H ) :   0.9933
B(  5-N ,  6-N ) :   1.1934 B(  6-N , 12-H ) :   0.9504

FINAL SINGLE POINT ENERGY      -340.089401916003

DIPOLE MOMENT
-------------
                                X             Y             Z
Electronic contribution:      4.50393       0.50116      -0.01317
Nuclear contribution   :     -6.02218      -0.75583       0.01767
                        -----------------------------------------
Total Dipole Moment    :     -1.51825      -0.25467       0.00450
                        -----------------------------------------
Magnitude (a.u.)       :      1.53946
Magnitude (Debye)      :      3.91301

                             ****ORCA TERMINATED NORMALLY****
TOTAL RUN TIME: 0 days 0 hours 0 minutes 5 seconds 965 msec
