                         Program Version 3.0.3 - RELEASE   -
|  1> ! RI PBE def2-SVP def2-SVP/J NBO PAL2
|  2> % maxcore 2000
|  3> % output
|  4>     # printlevel mini
|  5>     print[ P_Basis ] 0
|  6>     print[ P_SCFInfo ] 1
|  7>     print[ P_SCFIterInfo ] 1
|  8>     print[ P_OrbEn ] 0
|  9>     print[ P_Cartesian ] 0
| 10> end
| 11> *xyz 0 1
| 12>  C        1.1222100000    -0.1255210000    -0.0060450000
| 13>  C        2.6032660000    -0.0620580000    -0.0199110000
| 14>  N        3.3486830000    -1.0978230000     0.0024730000
| 15>  N        4.6718260000    -0.7166560000     0.1207830000
| 16>  C        4.7974770000     0.6851530000    -0.2650420000
| 17>  C        3.3947150000     1.2265550000     0.0179150000
| 18>  O        2.9560420000     2.2332490000    -0.8620260000
| 19>  H        0.7888600000    -1.1584820000    -0.0998870000
| 20>  H        0.6923910000     0.4687420000    -0.8164320000
| 21>  H        0.7269940000     0.2883070000     0.9281380000
| 22>  H        5.2641010000    -1.3678270000    -0.3735590000
| 23>  H        5.0035660000     0.8016640000    -1.3410790000
| 24>  H        5.5855680000     1.1875630000     0.2954640000
| 25>  H        3.3294420000     1.6784940000     1.0146880000
| 26>  H        2.9643480000     1.8736310000    -1.7547800000
| 27> *
| 28>
| 29>                          ****END OF INPUT****
 Total Charge           Charge          ....    0
 Multiplicity           Mult            ....    1
 Number of Electrons    NEL             ....   54
 Basis Dimension        Dim             ....  138

MULLIKEN ATOMIC CHARGES
-----------------------
   0 C :    0.116831
   1 C :   -0.259042
   2 N :   -0.082980
   3 N :   -0.145554
   4 C :    0.173732
   5 C :    0.085559
   6 O :   -0.259508
   7 H :    0.026509
   8 H :    0.017432
   9 H :    0.027048
  10 H :    0.114895
  11 H :   -0.004248
  12 H :    0.020115
  13 H :    0.020516
  14 H :    0.148694
Sum of atomic charges:    0.0000000

LOEWDIN ATOMIC CHARGES
----------------------
   0 C :   -0.061999
   1 C :   -0.094551
   2 N :   -0.049956
   3 N :   -0.021674
   4 C :   -0.001302
   5 C :    0.029289
   6 O :   -0.100572
   7 H :    0.038919
   8 H :    0.033061
   9 H :    0.039602
  10 H :    0.058228
  11 H :    0.011700
  12 H :    0.026742
  13 H :    0.029813
  14 H :    0.062701

  Mayer bond orders larger than 0.1
B(  0-C ,  1-C ) :   1.1175 B(  0-C ,  7-H ) :   0.9436 B(  0-C ,  8-H ) :   0.9368
B(  0-C ,  9-H ) :   0.9362 B(  1-C ,  2-N ) :   1.8740 B(  1-C ,  3-N ) :   0.1032
B(  1-C ,  5-C ) :   0.9734 B(  2-N ,  3-N ) :   1.0740 B(  3-N ,  4-C ) :   0.9954
B(  3-N , 10-H ) :   0.9374 B(  4-C ,  5-C ) :   1.0487 B(  4-C , 11-H ) :   0.9184
B(  4-C , 12-H ) :   0.9244 B(  5-C ,  6-O ) :   1.0779 B(  5-C , 13-H ) :   0.8728
B(  6-O , 14-H ) :   0.9755

FINAL SINGLE POINT ENERGY      -341.260679086004

DIPOLE MOMENT
-------------
                                X             Y             Z
Electronic contribution:      2.03531      -0.80571       0.17717
Nuclear contribution   :     -1.68472       0.94234      -0.70965
                        -----------------------------------------
Total Dipole Moment    :      0.35058       0.13663      -0.53248
                        -----------------------------------------
Magnitude (a.u.)       :      0.65201
Magnitude (Debye)      :      1.65728

                             ****ORCA TERMINATED NORMALLY****
TOTAL RUN TIME: 0 days 0 hours 0 minutes 7 seconds 333 msec
