                         Program Version 3.0.3 - RELEASE   -
|  1> ! RI PBE def2-SVP def2-SVP/J NBO PAL2
|  2> % maxcore 2000
|  3> % output
|  4>     # printlevel mini
|  5>     print[ P_Basis ] 0
|  6>     print[ P_SCFInfo ] 1
|  7>     print[ P_SCFIterInfo ] 1
|  8>     print[ P_OrbEn ] 0
|  9>     print[ P_Cartesian ] 0
| 10> end
| 11> *xyz 0 1
| 12>  C        1.0400050000     0.0381260000     0.0386000000
| 13>  C        2.5172740000    -0.0318770000     0.0728790000
| 14>  N        3.2736600000     0.9840670000     0.2325590000
| 15>  N        4.6488910000     0.5569100000     0.2007200000
| 16>  C        4.6835870000    -0.7010650000     0.0196880000
| 17>  C        3.3153210000    -1.3078800000    -0.0458950000
| 18>  O        3.0181300000    -2.1619310000    -1.1178300000
| 19>  H        0.7112190000     1.0761000000     0.0512690000
| 20>  H        0.6085800000    -0.4837710000     0.8980420000
| 21>  H        0.6559460000    -0.4600210000    -0.8561780000
| 22>  H        5.6205460000    -1.2443100000    -0.0355440000
| 23>  H        3.1549990000    -1.8968830000     0.8686580000
| 24>  H        3.2118410000    -1.6975540000    -1.9378780000
| 25> *
| 26>
| 27>                          ****END OF INPUT****
 Total Charge           Charge          ....    0
 Multiplicity           Mult            ....    1
 Number of Electrons    NEL             ....   52
 Basis Dimension        Dim             ....  128

MULLIKEN ATOMIC CHARGES
-----------------------
   0 C :    0.117464
   1 C :   -0.214734
   2 N :   -0.085619
   3 N :   -0.075592
   4 C :    0.005181
   5 C :    0.139819
   6 O :   -0.248291
   7 H :    0.040387
   8 H :    0.041874
   9 H :    0.029797
  10 H :    0.019795
  11 H :    0.059695
  12 H :    0.170226
Sum of atomic charges:    0.0000000

LOEWDIN ATOMIC CHARGES
----------------------
   0 C :   -0.058922
   1 C :   -0.038995
   2 N :   -0.064865
   3 N :   -0.038400
   4 C :   -0.029127
   5 C :    0.009922
   6 O :   -0.084042
   7 H :    0.044659
   8 H :    0.048954
   9 H :    0.042701
  10 H :    0.025879
  11 H :    0.060587
  12 H :    0.081651

  Mayer bond orders larger than 0.1
B(  0-C ,  1-C ) :   1.1121 B(  0-C ,  7-H ) :   0.9423 B(  0-C ,  8-H ) :   0.9343
B(  0-C ,  9-H ) :   0.9294 B(  1-C ,  2-N ) :   1.8930 B(  1-C ,  5-C ) :   0.9396
B(  2-N ,  3-N ) :   0.9893 B(  3-N ,  4-C ) :   1.9117 B(  4-C ,  5-C ) :   0.9683
B(  4-C , 10-H ) :   0.9691 B(  5-C ,  6-O ) :   1.0821 B(  5-C , 11-H ) :   0.8638
B(  6-O , 12-H ) :   0.9780

FINAL SINGLE POINT ENERGY      -340.038171609817

DIPOLE MOMENT
-------------
                                X             Y             Z
Electronic contribution:      4.24887       1.01749      -0.06017
Nuclear contribution   :     -4.80357      -2.02941      -0.28245
                        -----------------------------------------
Total Dipole Moment    :     -0.55470      -1.01192      -0.34262
                        -----------------------------------------
Magnitude (a.u.)       :      1.20377
Magnitude (Debye)      :      3.05973

                             ****ORCA TERMINATED NORMALLY****
TOTAL RUN TIME: 0 days 0 hours 0 minutes 6 seconds 138 msec
