                         Program Version 3.0.3 - RELEASE   -
|  1> ! RI PBE def2-SVP def2-SVP/J NBO PAL2
|  2> % maxcore 2000
|  3> % output
|  4>     # printlevel mini
|  5>     print[ P_Basis ] 0
|  6>     print[ P_SCFInfo ] 1
|  7>     print[ P_SCFIterInfo ] 1
|  8>     print[ P_OrbEn ] 0
|  9>     print[ P_Cartesian ] 0
| 10> end
| 11> *xyz 0 1
| 12>  C        0.8688570000     0.0636740000    -0.0159310000
| 13>  C        2.3437310000     0.0074340000    -0.0136570000
| 14>  N        3.1194880000     1.0111720000    -0.0106960000
| 15>  N        4.5252290000     0.5440750000    -0.0092300000
| 16>  C        4.5474990000    -0.7205750000    -0.0113520000
| 17>  C        3.1532530000    -1.2742610000    -0.0145530000
| 18>  O        2.7699220000    -2.4064600000    -0.0171030000
| 19>  H        0.5273310000     1.0974840000    -0.0147250000
| 20>  H        0.4700400000    -0.4559820000     0.8597820000
| 21>  H        0.4728570000    -0.4530070000    -0.8946760000
| 22>  H        5.4659840000    -1.2940430000    -0.0108490000
| 23> *
| 24>
| 25>                          ****END OF INPUT****
 Total Charge           Charge          ....    0
 Multiplicity           Mult            ....    1
 Number of Electrons    NEL             ....   50
 Basis Dimension        Dim             ....  118

MULLIKEN ATOMIC CHARGES
-----------------------
   0 C :    0.100447
   1 C :   -0.162689
   2 N :   -0.072759
   3 N :   -0.050912
   4 C :    0.043543
   5 C :    0.026012
   6 O :   -0.064806
   7 H :    0.045280
   8 H :    0.052554
   9 H :    0.052488
  10 H :    0.030843
Sum of atomic charges:   -0.0000000

LOEWDIN ATOMIC CHARGES
----------------------
   0 C :   -0.054326
   1 C :   -0.054799
   2 N :   -0.037479
   3 N :   -0.002847
   4 C :   -0.035920
   5 C :    0.030753
   6 O :   -0.037075
   7 H :    0.048205
   8 H :    0.054221
   9 H :    0.054210
  10 H :    0.035056

  Mayer bond orders larger than 0.1
B(  0-C ,  1-C ) :   1.1144 B(  0-C ,  7-H ) :   0.9411 B(  0-C ,  8-H ) :   0.9322
B(  0-C ,  9-H ) :   0.9322 B(  1-C ,  2-N ) :   1.9102 B(  1-C ,  5-C ) :   0.8625
B(  2-N ,  3-N ) :   0.9350 B(  3-N ,  4-C ) :   1.9232 B(  4-C ,  5-C ) :   0.9105
B(  4-C , 10-H ) :   0.9712 B(  5-C ,  6-O ) :   2.2255

FINAL SINGLE POINT ENERGY      -338.837532632685

DIPOLE MOMENT
-------------
                                X             Y             Z
Electronic contribution:      4.27659      -1.12346       0.00495
Nuclear contribution   :     -4.79227       0.54554      -0.00675
                        -----------------------------------------
Total Dipole Moment    :     -0.51569      -0.57793      -0.00180
                        -----------------------------------------
Magnitude (a.u.)       :      0.77456
Magnitude (Debye)      :      1.96877

                             ****ORCA TERMINATED NORMALLY****
TOTAL RUN TIME: 0 days 0 hours 0 minutes 5 seconds 992 msec
