                         Program Version 3.0.3 - RELEASE   -
|  1> ! RI PBE def2-SVP def2-SVP/J NBO PAL2
|  2> % maxcore 2000
|  3> % output
|  4>     # printlevel mini
|  5>     print[ P_Basis ] 0
|  6>     print[ P_SCFInfo ] 1
|  7>     print[ P_SCFIterInfo ] 1
|  8>     print[ P_OrbEn ] 0
|  9>     print[ P_Cartesian ] 0
| 10> end
| 11> *xyz 0 1
| 12>  C        1.0724300000    -0.0197640000     0.3859880000
| 13>  C        2.4715990000    -0.1615190000    -0.1637020000
| 14>  N        2.5899990000    -1.2034070000    -1.1870160000
| 15>  N        3.5639920000    -0.8622840000    -2.0892110000
| 16>  C        3.8040550000     0.3870570000    -1.9940920000
| 17>  C        3.0167300000     1.0675610000    -0.9104190000
| 18>  O        3.7343470000     1.9732150000    -0.1079430000
| 19>  H        0.7497570000    -0.9289100000     0.8990040000
| 20>  H        0.3658840000     0.1825140000    -0.4217140000
| 21>  H        1.0323970000     0.8034720000     1.1031360000
| 22>  H        3.1759280000    -0.3645750000     0.6617000000
| 23>  H        2.7178550000    -2.1508710000    -0.8624080000
| 24>  H        4.4805740000     0.8784000000    -2.6823000000
| 25>  H        2.1971720000     1.6584140000    -1.3381270000
| 26>  H        4.5359710000     1.5337070000     0.1926030000
| 27> *
| 28>
| 29>                          ****END OF INPUT****
 Total Charge           Charge          ....    0
 Multiplicity           Mult            ....    1
 Number of Electrons    NEL             ....   54
 Basis Dimension        Dim             ....  138

MULLIKEN ATOMIC CHARGES
-----------------------
   0 C :    0.037382
   1 C :    0.001740
   2 N :   -0.132316
   3 N :   -0.077596
   4 C :   -0.065284
   5 C :    0.130692
   6 O :   -0.260485
   7 H :    0.020475
   8 H :    0.025353
   9 H :    0.034502
  10 H :   -0.004160
  11 H :    0.116603
  12 H :    0.010395
  13 H :    0.015307
  14 H :    0.147391
Sum of atomic charges:   -0.0000000

LOEWDIN ATOMIC CHARGES
----------------------
   0 C :   -0.063810
   1 C :   -0.011089
   2 N :   -0.010311
   3 N :   -0.030794
   4 C :   -0.086639
   5 C :    0.026731
   6 O :   -0.100093
   7 H :    0.027795
   8 H :    0.030044
   9 H :    0.034457
  10 H :    0.013645
  11 H :    0.060228
  12 H :    0.019198
  13 H :    0.028837
  14 H :    0.061802

  Mayer bond orders larger than 0.1
B(  0-C ,  1-C ) :   1.1031 B(  0-C ,  7-H ) :   0.9572 B(  0-C ,  8-H ) :   0.9491
B(  0-C ,  9-H ) :   0.9508 B(  1-C ,  2-N ) :   0.9417 B(  1-C ,  5-C ) :   0.9841
B(  1-C , 10-H ) :   0.9023 B(  2-N ,  3-N ) :   1.1107 B(  2-N ,  4-C ) :   0.1195
B(  2-N , 11-H ) :   0.9360 B(  3-N ,  4-C ) :   1.8486 B(  4-C ,  5-C ) :   0.9809
B(  4-C , 12-H ) :   0.9789 B(  5-C ,  6-O ) :   1.0757 B(  5-C , 13-H ) :   0.8772
B(  6-O , 14-H ) :   0.9764

FINAL SINGLE POINT ENERGY      -341.256179627796

DIPOLE MOMENT
-------------
                                X             Y             Z
Electronic contribution:      3.66108      -0.33238      -3.18003
Nuclear contribution   :     -3.64834       0.05938       3.87438
                        -----------------------------------------
Total Dipole Moment    :      0.01274      -0.27299       0.69435
                        -----------------------------------------
Magnitude (a.u.)       :      0.74620
Magnitude (Debye)      :      1.89669

                             ****ORCA TERMINATED NORMALLY****
TOTAL RUN TIME: 0 days 0 hours 0 minutes 7 seconds 150 msec
