                         Program Version 3.0.3 - RELEASE   -
|  1> ! RI PBE def2-SVP def2-SVP/J NBO PAL2
|  2> % maxcore 2000
|  3> % output
|  4>     # printlevel mini
|  5>     print[ P_Basis ] 0
|  6>     print[ P_SCFInfo ] 1
|  7>     print[ P_SCFIterInfo ] 1
|  8>     print[ P_OrbEn ] 0
|  9>     print[ P_Cartesian ] 0
| 10> end
| 11> *xyz 0 1
| 12>  C        1.1238180000     0.1277600000     0.0156180000
| 13>  C        2.5974640000     0.1155760000     0.0104250000
| 14>  N        3.4107800000     1.1102460000     0.0092160000
| 15>  N        4.6876530000     0.5761800000     0.0038870000
| 16>  C        4.5505990000    -0.7013430000     0.0021930000
| 17>  C        5.5940850000    -1.7419760000    -0.0032200000
| 18>  O        3.2472650000    -1.0741320000     0.0061270000
| 19>  H        0.7831840000     1.1612850000     0.0185170000
| 20>  H        0.7329880000    -0.3817640000     0.8993450000
| 21>  H        0.7267890000    -0.3788540000    -0.8670170000
| 22>  H        6.5691200000    -1.2587440000    -0.0058300000
| 23>  H        5.5058760000    -2.3777300000    -0.8871720000
| 24>  H        5.5120780000    -2.3806950000     0.8791900000
| 25> *
| 26>
| 27>                          ****END OF INPUT****
 Total Charge           Charge          ....    0
 Multiplicity           Mult            ....    1
 Number of Electrons    NEL             ....   52
 Basis Dimension        Dim             ....  128

MULLIKEN ATOMIC CHARGES
-----------------------
   0 C :    0.094936
   1 C :   -0.054220
   2 N :   -0.096526
   3 N :   -0.095707
   4 C :   -0.055631
   5 C :    0.092519
   6 O :   -0.175552
   7 H :    0.047540
   8 H :    0.048237
   9 H :    0.048248
  10 H :    0.047538
  11 H :    0.049262
  12 H :    0.049355
Sum of atomic charges:   -0.0000000

LOEWDIN ATOMIC CHARGES
----------------------
   0 C :   -0.063763
   1 C :   -0.005163
   2 N :   -0.088872
   3 N :   -0.088685
   4 C :   -0.005338
   5 C :   -0.064379
   6 O :    0.011181
   7 H :    0.054052
   8 H :    0.049198
   9 H :    0.049198
  10 H :    0.053980
  11 H :    0.049294
  12 H :    0.049296

  Mayer bond orders larger than 0.1
B(  0-C ,  1-C ) :   1.1322 B(  0-C ,  7-H ) :   0.9371 B(  0-C ,  8-H ) :   0.9332
B(  0-C ,  9-H ) :   0.9332 B(  1-C ,  2-N ) :   1.7691 B(  1-C ,  6-O ) :   1.1258
B(  2-N ,  3-N ) :   1.1329 B(  3-N ,  4-C ) :   1.7699 B(  4-C ,  5-C ) :   1.1294
B(  4-C ,  6-O ) :   1.1267 B(  5-C , 10-H ) :   0.9375 B(  5-C , 11-H ) :   0.9336
B(  5-C , 12-H ) :   0.9337

FINAL SINGLE POINT ENERGY      -340.096460740292

DIPOLE MOMENT
-------------
                                X             Y             Z
Electronic contribution:      1.05169       2.52586       0.00057
Nuclear contribution   :     -1.58833      -3.79745      -0.00079
                        -----------------------------------------
Total Dipole Moment    :     -0.53664      -1.27159      -0.00023
                        -----------------------------------------
Magnitude (a.u.)       :      1.38019
Magnitude (Debye)      :      3.50817

                             ****ORCA TERMINATED NORMALLY****
TOTAL RUN TIME: 0 days 0 hours 0 minutes 6 seconds 24 msec
