                         Program Version 3.0.3 - RELEASE   -
|  1> ! RI PBE def2-SVP def2-SVP/J NBO PAL2
|  2> % maxcore 2000
|  3> % output
|  4>     # printlevel mini
|  5>     print[ P_Basis ] 0
|  6>     print[ P_SCFInfo ] 1
|  7>     print[ P_SCFIterInfo ] 1
|  8>     print[ P_OrbEn ] 0
|  9>     print[ P_Cartesian ] 0
| 10> end
| 11> *xyz 0 1
| 12>  C        1.1886590000    -0.0471850000    -0.1253630000
| 13>  C        2.6618990000    -0.0121910000     0.0607890000
| 14>  N        3.2661840000     1.0731390000     0.3260870000
| 15>  N        4.6367030000     1.0140920000     0.5243970000
| 16>  C        5.2919740000    -0.0298910000    -0.2281950000
| 17>  C        4.6232330000    -1.3255530000     0.1621490000
| 18>  O        3.2228590000    -1.2426450000    -0.0696750000
| 19>  H        0.7870130000     0.9590700000    -0.0307200000
| 20>  H        0.7256990000    -0.6967650000     0.6224130000
| 21>  H        0.9375950000    -0.4511410000    -1.1093990000
| 22>  H        5.0113530000     1.9325420000     0.3398520000
| 23>  H        6.3530040000    -0.0585750000     0.0301290000
| 24>  H        5.1991790000     0.1103730000    -1.3167130000
| 25>  H        4.7985760000    -1.5359670000     1.2211470000
| 26>  H        4.9859790000    -2.1652920000    -0.4333000000
| 27> *
| 28>
| 29>                          ****END OF INPUT****
 Total Charge           Charge          ....    0
 Multiplicity           Mult            ....    1
 Number of Electrons    NEL             ....   54
 Basis Dimension        Dim             ....  138

MULLIKEN ATOMIC CHARGES
-----------------------
   0 C :    0.084723
   1 C :   -0.096818
   2 N :   -0.102178
   3 N :   -0.135414
   4 C :    0.031924
   5 C :    0.204592
   6 O :   -0.283688
   7 H :    0.029537
   8 H :    0.033289
   9 H :    0.029017
  10 H :    0.112961
  11 H :    0.023102
  12 H :    0.024395
  13 H :    0.024073
  14 H :    0.020483
Sum of atomic charges:   -0.0000000

LOEWDIN ATOMIC CHARGES
----------------------
   0 C :   -0.064203
   1 C :   -0.025090
   2 N :   -0.111131
   3 N :   -0.029777
   4 C :   -0.016941
   5 C :    0.068679
   6 O :   -0.089032
   7 H :    0.040927
   8 H :    0.038568
   9 H :    0.037625
  10 H :    0.059514
  11 H :    0.031721
  12 H :    0.013359
  13 H :    0.020991
  14 H :    0.024792

  Mayer bond orders larger than 0.1
B(  0-C ,  1-C ) :   1.0875 B(  0-C ,  7-H ) :   0.9523 B(  0-C ,  8-H ) :   0.9374
B(  0-C ,  9-H ) :   0.9427 B(  1-C ,  2-N ) :   1.8803 B(  1-C ,  6-O ) :   1.1258
B(  2-N ,  3-N ) :   1.0279 B(  3-N ,  4-C ) :   1.0371 B(  3-N , 10-H ) :   0.9424
B(  4-C ,  5-C ) :   1.0846 B(  4-C , 11-H ) :   0.9273 B(  4-C , 12-H ) :   0.9218
B(  5-C ,  6-O ) :   0.9675 B(  5-C , 13-H ) :   0.9409 B(  5-C , 14-H ) :   0.9414

FINAL SINGLE POINT ENERGY      -341.266692032012

DIPOLE MOMENT
-------------
                                X             Y             Z
Electronic contribution:      0.41404       0.80954       0.95099
Nuclear contribution   :      0.28323      -1.07573      -1.27403
                        -----------------------------------------
Total Dipole Moment    :      0.69727      -0.26619      -0.32305
                        -----------------------------------------
Magnitude (a.u.)       :      0.81327
Magnitude (Debye)      :      2.06716

                             ****ORCA TERMINATED NORMALLY****
TOTAL RUN TIME: 0 days 0 hours 0 minutes 6 seconds 589 msec
