                         Program Version 3.0.3 - RELEASE   -
|  1> ! RI PBE def2-SVP def2-SVP/J NBO PAL2
|  2> % maxcore 2000
|  3> % output
|  4>     # printlevel mini
|  5>     print[ P_Basis ] 0
|  6>     print[ P_SCFInfo ] 1
|  7>     print[ P_SCFIterInfo ] 1
|  8>     print[ P_OrbEn ] 0
|  9>     print[ P_Cartesian ] 0
| 10> end
| 11> *xyz 0 1
| 12>  C        1.0880870000     0.0063450000     0.0948110000
| 13>  C        2.5711840000     0.0611920000     0.0859530000
| 14>  N        3.1812820000     1.1787080000     0.0985030000
| 15>  N        4.5892400000     1.1748020000     0.0897700000
| 16>  C        5.1898520000     0.0618290000     0.0691510000
| 17>  C        4.5343600000    -1.2754770000     0.0529610000
| 18>  O        3.1150640000    -1.1694400000     0.0643820000
| 19>  H        0.6891600000     1.0171700000     0.1119640000
| 20>  H        0.7394520000    -0.5473940000     0.9699960000
| 21>  H        0.7279530000    -0.5221150000    -0.7912700000
| 22>  H        6.2787310000     0.0860620000     0.0627930000
| 23>  H        4.8407600000    -1.8667510000     0.9244240000
| 24>  H        4.8286950000    -1.8395410000    -0.8404390000
| 25> *
| 26>
| 27>                          ****END OF INPUT****
 Total Charge           Charge          ....    0
 Multiplicity           Mult            ....    1
 Number of Electrons    NEL             ....   52
 Basis Dimension        Dim             ....  128

MULLIKEN ATOMIC CHARGES
-----------------------
   0 C :    0.074788
   1 C :   -0.046841
   2 N :   -0.096094
   3 N :   -0.061769
   4 C :   -0.084890
   5 C :    0.216766
   6 O :   -0.261444
   7 H :    0.045762
   8 H :    0.045936
   9 H :    0.045583
  10 H :    0.030518
  11 H :    0.046122
  12 H :    0.045564
Sum of atomic charges:   -0.0000000

LOEWDIN ATOMIC CHARGES
----------------------
   0 C :   -0.060378
   1 C :    0.028496
   2 N :   -0.124763
   3 N :   -0.036062
   4 C :   -0.031994
   5 C :    0.054611
   6 O :   -0.063551
   7 H :    0.047025
   8 H :    0.046993
   9 H :    0.046916
  10 H :    0.028934
  11 H :    0.031961
  12 H :    0.031813

  Mayer bond orders larger than 0.1
B(  0-C ,  1-C ) :   1.0722 B(  0-C ,  7-H ) :   0.9521 B(  0-C ,  8-H ) :   0.9385
B(  0-C ,  9-H ) :   0.9384 B(  1-C ,  2-N ) :   1.8669 B(  1-C ,  6-O ) :   1.1620
B(  2-N ,  3-N ) :   1.0056 B(  3-N ,  4-C ) :   1.9725 B(  4-C ,  5-C ) :   1.0088
B(  4-C , 10-H ) :   0.9523 B(  5-C ,  6-O ) :   0.9520 B(  5-C , 11-H ) :   0.9305
B(  5-C , 12-H ) :   0.9305

FINAL SINGLE POINT ENERGY      -340.044732091906

DIPOLE MOMENT
-------------
                                X             Y             Z
Electronic contribution:      2.45499       1.87941       0.01279
Nuclear contribution   :     -2.38977      -3.26470      -0.03408
                        -----------------------------------------
Total Dipole Moment    :      0.06522      -1.38529      -0.02129
                        -----------------------------------------
Magnitude (a.u.)       :      1.38699
Magnitude (Debye)      :      3.52545

                             ****ORCA TERMINATED NORMALLY****
TOTAL RUN TIME: 0 days 0 hours 0 minutes 5 seconds 701 msec
