                         Program Version 3.0.3 - RELEASE   -
|  1> ! RI PBE def2-SVP def2-SVP/J NBO PAL2
|  2> % maxcore 2000
|  3> % output
|  4>     # printlevel mini
|  5>     print[ P_Basis ] 0
|  6>     print[ P_SCFInfo ] 1
|  7>     print[ P_SCFIterInfo ] 1
|  8>     print[ P_OrbEn ] 0
|  9>     print[ P_Cartesian ] 0
| 10> end
| 11> *xyz 0 1
| 12>  C        0.9726590000    -0.0101870000    -0.0347150000
| 13>  C        2.4596560000    -0.0064780000    -0.0386850000
| 14>  N        3.0799390000     1.1019840000    -0.0267880000
| 15>  N        4.4898090000     1.0909570000    -0.0307350000
| 16>  C        5.0755150000    -0.0303170000    -0.0459580000
| 17>  O        4.5468810000    -1.2592380000    -0.0595220000
| 18>  C        3.1269410000    -1.3482160000    -0.0569310000
| 19>  H        0.6035990000     1.0138370000    -0.0212990000
| 20>  H        0.5881980000    -0.5457890000     0.8398080000
| 21>  H        0.5834330000    -0.5244640000    -0.9198660000
| 22>  H        6.1604660000    -0.0672350000    -0.0493050000
| 23>  H        2.8225000000    -1.9337820000     0.8192530000
| 24>  H        2.8179020000    -1.9120740000    -0.9456560000
| 25> *
| 26>
| 27>                          ****END OF INPUT****
 Total Charge           Charge          ....    0
 Multiplicity           Mult            ....    1
 Number of Electrons    NEL             ....   52
 Basis Dimension        Dim             ....  128

MULLIKEN ATOMIC CHARGES
-----------------------
   0 C :    0.071414
   1 C :   -0.264563
   2 N :   -0.060983
   3 N :   -0.111560
   4 C :    0.132612
   5 O :   -0.249782
   6 C :    0.250818
   7 H :    0.042914
   8 H :    0.035799
   9 H :    0.035592
  10 H :    0.037022
  11 H :    0.040557
  12 H :    0.040160
Sum of atomic charges:    0.0000000

LOEWDIN ATOMIC CHARGES
----------------------
   0 C :   -0.058309
   1 C :   -0.039034
   2 N :   -0.052364
   3 N :   -0.109443
   4 C :    0.038716
   5 O :   -0.056925
   6 C :    0.060477
   7 H :    0.044417
   8 H :    0.041379
   9 H :    0.041333
  10 H :    0.027307
  11 H :    0.031266
  12 H :    0.031179

  Mayer bond orders larger than 0.1
B(  0-C ,  1-C ) :   1.0767 B(  0-C ,  7-H ) :   0.9442 B(  0-C ,  8-H ) :   0.9410
B(  0-C ,  9-H ) :   0.9410 B(  1-C ,  2-N ) :   1.9618 B(  1-C ,  6-C ) :   0.9892
B(  2-N ,  3-N ) :   1.0024 B(  3-N ,  4-C ) :   1.8790 B(  3-N ,  5-O ) :   0.1050
B(  4-C ,  5-O ) :   1.1648 B(  4-C , 10-H ) :   0.9590 B(  5-O ,  6-C ) :   0.9540
B(  6-C , 11-H ) :   0.9278 B(  6-C , 12-H ) :   0.9278

FINAL SINGLE POINT ENERGY      -340.044483764504

DIPOLE MOMENT
-------------
                                X             Y             Z
Electronic contribution:      5.70450       1.79852       0.00685
Nuclear contribution   :     -6.30289      -3.14334      -0.02165
                        -----------------------------------------
Total Dipole Moment    :     -0.59839      -1.34482      -0.01480
                        -----------------------------------------
Magnitude (a.u.)       :      1.47202
Magnitude (Debye)      :      3.74158

                             ****ORCA TERMINATED NORMALLY****
TOTAL RUN TIME: 0 days 0 hours 0 minutes 5 seconds 709 msec
