                         Program Version 3.0.3 - RELEASE   -
|  1> ! RI PBE def2-SVP def2-SVP/J NBO PAL2
|  2> % maxcore 2000
|  3> % output
|  4>     # printlevel mini
|  5>     print[ P_Basis ] 0
|  6>     print[ P_SCFInfo ] 1
|  7>     print[ P_SCFIterInfo ] 1
|  8>     print[ P_OrbEn ] 0
|  9>     print[ P_Cartesian ] 0
| 10> end
| 11> *xyz 0 1
| 12>  C        1.0291780000    -0.1053910000     0.0023460000
| 13>  C        2.5045480000    -0.0297520000    -0.1026870000
| 14>  N        3.2351270000    -1.0776900000    -0.1953160000
| 15>  N        4.5457250000    -0.6726360000    -0.2759020000
| 16>  C        4.7341790000     0.6803340000    -0.2391030000
| 17>  O        5.7845250000     1.2702490000    -0.2937760000
| 18>  C        3.3184880000     1.2242720000    -0.1152150000
| 19>  H        0.7066360000    -1.1461700000    -0.0131870000
| 20>  H        0.5499440000     0.4271290000    -0.8249010000
| 21>  H        0.6781050000     0.3612370000     0.9278680000
| 22>  H        5.2700660000    -1.3645930000    -0.3547920000
| 23>  H        3.0853100000     1.8836950000    -0.9557300000
| 24>  H        3.2134590000     1.8180070000     0.7969960000
| 25> *
| 26>
| 27>                          ****END OF INPUT****
 Total Charge           Charge          ....    0
 Multiplicity           Mult            ....    1
 Number of Electrons    NEL             ....   52
 Basis Dimension        Dim             ....  128

MULLIKEN ATOMIC CHARGES
-----------------------
   0 C :    0.103117
   1 C :   -0.233538
   2 N :   -0.048382
   3 N :   -0.088739
   4 C :    0.074710
   5 O :   -0.163199
   6 C :   -0.007616
   7 H :    0.031870
   8 H :    0.035368
   9 H :    0.033069
  10 H :    0.123010
  11 H :    0.070762
  12 H :    0.069568
Sum of atomic charges:   -0.0000000

LOEWDIN ATOMIC CHARGES
----------------------
   0 C :   -0.062446
   1 C :   -0.042092
   2 N :   -0.050292
   3 N :    0.052803
   4 C :    0.018256
   5 O :   -0.168273
   6 C :   -0.076516
   7 H :    0.042052
   8 H :    0.041531
   9 H :    0.041129
  10 H :    0.076747
  11 H :    0.063649
  12 H :    0.063451

  Mayer bond orders larger than 0.1
B(  0-C ,  1-C ) :   1.1169 B(  0-C ,  7-H ) :   0.9400 B(  0-C ,  8-H ) :   0.9393
B(  0-C ,  9-H ) :   0.9388 B(  1-C ,  2-N ) :   1.8699 B(  1-C ,  6-C ) :   1.0336
B(  2-N ,  3-N ) :   1.0300 B(  3-N ,  4-C ) :   1.1174 B(  3-N , 10-H ) :   0.9383
B(  4-C ,  5-O ) :   2.1829 B(  4-C ,  6-C ) :   0.9428 B(  6-C , 11-H ) :   0.8948
B(  6-C , 12-H ) :   0.8949

FINAL SINGLE POINT ENERGY      -340.104707533037

DIPOLE MOMENT
-------------
                                X             Y             Z
Electronic contribution:      6.64564      -0.85378      -0.51853
Nuclear contribution   :     -7.62560       0.76779       0.58627
                        -----------------------------------------
Total Dipole Moment    :     -0.97996      -0.08599       0.06775
                        -----------------------------------------
Magnitude (a.u.)       :      0.98605
Magnitude (Debye)      :      2.50634

                             ****ORCA TERMINATED NORMALLY****
TOTAL RUN TIME: 0 days 0 hours 0 minutes 6 seconds 131 msec
