                         Program Version 3.0.3 - RELEASE   -
|  1> ! RI PBE def2-SVP def2-SVP/J NBO PAL2
|  2> % maxcore 2000
|  3> % output
|  4>     # printlevel mini
|  5>     print[ P_Basis ] 0
|  6>     print[ P_SCFInfo ] 1
|  7>     print[ P_SCFIterInfo ] 1
|  8>     print[ P_OrbEn ] 0
|  9>     print[ P_Cartesian ] 0
| 10> end
| 11> *xyz 0 1
| 12>  C        1.2224130000     0.0885520000    -0.0563480000
| 13>  C        2.6965860000     0.1715010000    -0.0585030000
| 14>  C        3.5850750000     1.1981340000    -0.0591380000
| 15>  C        3.3947970000     2.6676820000    -0.0578470000
| 16>  N        4.8310300000     0.6194470000    -0.0613110000
| 17>  N        4.7458130000    -0.6254860000    -0.0621800000
| 18>  O        3.3889670000    -0.9679410000    -0.0602780000
| 19>  H        0.7864320000     1.0869000000    -0.0550410000
| 20>  H        0.8656710000    -0.4478400000     0.8260630000
| 21>  H        0.8630290000    -0.4466820000    -0.9383910000
| 22>  H        2.3349200000     2.9238800000    -0.0561030000
| 23>  H        3.8532240000     3.1212720000    -0.9393440000
| 24>  H        3.8558320000     3.1200610000     0.8229120000
| 25> *
| 26>
| 27>                          ****END OF INPUT****
 Total Charge           Charge          ....    0
 Multiplicity           Mult            ....    1
 Number of Electrons    NEL             ....   52
 Basis Dimension        Dim             ....  128

MULLIKEN ATOMIC CHARGES
-----------------------
   0 C :    0.089170
   1 C :   -0.028075
   2 C :   -0.173948
   3 C :    0.115682
   4 N :   -0.098990
   5 N :    0.019563
   6 O :   -0.160838
   7 H :    0.029027
   8 H :    0.055237
   9 H :    0.055243
  10 H :    0.007762
  11 H :    0.045079
  12 H :    0.045089
Sum of atomic charges:   -0.0000000

LOEWDIN ATOMIC CHARGES
----------------------
   0 C :   -0.058550
   1 C :   -0.009187
   2 C :   -0.096984
   3 C :   -0.056193
   4 N :   -0.060831
   5 N :   -0.009967
   6 O :    0.016446
   7 H :    0.043338
   8 H :    0.051921
   9 H :    0.051919
  10 H :    0.034998
  11 H :    0.046543
  12 H :    0.046546

  Mayer bond orders larger than 0.1
B(  0-C ,  1-C ) :   1.1439 B(  0-C ,  7-H ) :   0.9444 B(  0-C ,  8-H ) :   0.9307
B(  0-C ,  9-H ) :   0.9308 B(  1-C ,  2-C ) :   1.5039 B(  1-C ,  5-N ) :   0.1061
B(  1-C ,  6-O ) :   1.1713 B(  2-C ,  3-C ) :   1.1399 B(  2-C ,  4-N ) :   1.2794
B(  3-C , 10-H ) :   0.9365 B(  3-C , 11-H ) :   0.9366 B(  3-C , 12-H ) :   0.9366
B(  4-N ,  5-N ) :   1.5724 B(  4-N ,  6-O ) :   0.1032 B(  5-N ,  6-O ) :   0.9721

FINAL SINGLE POINT ENERGY      -340.062350983109

DIPOLE MOMENT
-------------
                                X             Y             Z
Electronic contribution:      5.78969      -5.49053      -0.01234
Nuclear contribution   :     -7.24716       6.26209       0.01509
                        -----------------------------------------
Total Dipole Moment    :     -1.45747       0.77156       0.00275
                        -----------------------------------------
Magnitude (a.u.)       :      1.64910
Magnitude (Debye)      :      4.19169

                             ****ORCA TERMINATED NORMALLY****
TOTAL RUN TIME: 0 days 0 hours 0 minutes 6 seconds 511 msec
