                         Program Version 3.0.3 - RELEASE   -
|  1> ! RI PBE def2-SVP def2-SVP/J NBO PAL2
|  2> % maxcore 2000
|  3> % output
|  4>     # printlevel mini
|  5>     print[ P_Basis ] 0
|  6>     print[ P_SCFInfo ] 1
|  7>     print[ P_SCFIterInfo ] 1
|  8>     print[ P_OrbEn ] 0
|  9>     print[ P_Cartesian ] 0
| 10> end
| 11> *xyz 0 1
| 12>  C        1.1784970000    -0.0317060000    -0.0574930000
| 13>  C        2.6500250000     0.1240930000     0.0423210000
| 14>  N        3.2311300000     1.1943430000    -0.3481690000
| 15>  O        4.5906740000     1.1135230000    -0.0833550000
| 16>  C        4.8837060000    -0.1540000000     0.4409310000
| 17>  C        4.6252650000    -1.3293420000    -0.4295430000
| 18>  C        3.5808200000    -0.8880270000     0.5759170000
| 19>  H        0.7298620000     0.8735670000    -0.4643910000
| 20>  H        0.7479550000    -0.2276050000     0.9291050000
| 21>  H        0.9189480000    -0.8800330000    -0.6971170000
| 22>  H        5.6796520000    -0.1410560000     1.1739690000
| 23>  H        5.1706190000    -2.2333390000    -0.1910020000
| 24>  H        4.4234380000    -1.1625130000    -1.4805060000
| 25>  H        3.2989110000    -1.5285950000     1.4020240000
| 26> *
| 27>
| 28>                          ****END OF INPUT****
 Total Charge           Charge          ....    0
 Multiplicity           Mult            ....    1
 Number of Electrons    NEL             ....   52
 Basis Dimension        Dim             ....  133

MULLIKEN ATOMIC CHARGES
-----------------------
   0 C :    0.099418
   1 C :   -0.150388
   2 N :    0.013722
   3 O :   -0.231612
   4 C :    0.131799
   5 C :    0.009726
   6 C :   -0.130299
   7 H :    0.036708
   8 H :    0.032839
   9 H :    0.036439
  10 H :    0.032945
  11 H :    0.042578
  12 H :    0.053082
  13 H :    0.023044
Sum of atomic charges:   -0.0000000

LOEWDIN ATOMIC CHARGES
----------------------
   0 C :   -0.056052
   1 C :   -0.056077
   2 N :   -0.014355
   3 O :   -0.066891
   4 C :    0.044946
   5 C :   -0.045622
   6 C :   -0.059250
   7 H :    0.043416
   8 H :    0.041422
   9 H :    0.040939
  10 H :    0.025222
  11 H :    0.036278
  12 H :    0.035897
  13 H :    0.030128

  Mayer bond orders larger than 0.1
B(  0-C ,  1-C ) :   1.1197 B(  0-C ,  7-H ) :   0.9404 B(  0-C ,  8-H ) :   0.9380
B(  0-C ,  9-H ) :   0.9381 B(  1-C ,  2-N ) :   1.8433 B(  1-C ,  3-O ) :   0.1022
B(  1-C ,  6-C ) :   1.0076 B(  2-N ,  3-O ) :   0.9716 B(  3-O ,  4-C ) :   1.0060
B(  4-C ,  5-C ) :   1.0019 B(  4-C ,  6-C ) :   0.9058 B(  4-C , 10-H ) :   0.9512
B(  5-C ,  6-C ) :   0.9510 B(  5-C , 11-H ) :   0.9403 B(  5-C , 12-H ) :   0.9239
B(  6-C , 13-H ) :   0.9534

FINAL SINGLE POINT ENERGY      -323.998990214525

DIPOLE MOMENT
-------------
                                X             Y             Z
Electronic contribution:      3.29430       3.88009      -0.07465
Nuclear contribution   :     -3.51055      -5.07299       0.53656
                        -----------------------------------------
Total Dipole Moment    :     -0.21625      -1.19290       0.46191
                        -----------------------------------------
Magnitude (a.u.)       :      1.29736
Magnitude (Debye)      :      3.29763

                             ****ORCA TERMINATED NORMALLY****
TOTAL RUN TIME: 0 days 0 hours 0 minutes 6 seconds 752 msec
