                         Program Version 3.0.3 - RELEASE   -
|  1> ! RI PBE def2-SVP def2-SVP/J NBO PAL2
|  2> % maxcore 2000
|  3> % output
|  4>     # printlevel mini
|  5>     print[ P_Basis ] 0
|  6>     print[ P_SCFInfo ] 1
|  7>     print[ P_SCFIterInfo ] 1
|  8>     print[ P_OrbEn ] 0
|  9>     print[ P_Cartesian ] 0
| 10> end
| 11> *xyz 0 1
| 12>  C        0.9825760000     0.0376690000     0.1173980000
| 13>  C        2.4498370000     0.1145290000    -0.0782330000
| 14>  N        3.1449520000    -0.9266330000    -0.3509840000
| 15>  O        4.4709000000    -0.6014590000    -0.4850200000
| 16>  C        4.6452610000     0.8061040000    -0.2747560000
| 17>  C        3.2690550000     1.3172780000     0.0063940000
| 18>  C        2.8621140000     2.5563910000     0.2714450000
| 19>  H        0.6428860000    -0.9896780000    -0.0057800000
| 20>  H        0.4619630000     0.6724280000    -0.6050240000
| 21>  H        0.7066070000     0.3850880000     1.1168930000
| 22>  H        5.0872060000     1.2390080000    -1.1769550000
| 23>  H        5.3347650000     0.9485120000     0.5624850000
| 24>  H        3.5519910000     3.3907960000     0.3129210000
| 25>  H        1.8164950000     2.7713650000     0.4560060000
| 26> *
| 27>
| 28>                          ****END OF INPUT****
 Total Charge           Charge          ....    0
 Multiplicity           Mult            ....    1
 Number of Electrons    NEL             ....   52
 Basis Dimension        Dim             ....  133

MULLIKEN ATOMIC CHARGES
-----------------------
   0 C :    0.091466
   1 C :   -0.154177
   2 N :    0.032780
   3 O :   -0.267704
   4 C :    0.282718
   5 C :   -0.167056
   6 C :   -0.061162
   7 H :    0.033937
   8 H :    0.039814
   9 H :    0.035212
  10 H :    0.049048
  11 H :    0.052265
  12 H :    0.016516
  13 H :    0.016344
Sum of atomic charges:   -0.0000000

LOEWDIN ATOMIC CHARGES
----------------------
   0 C :   -0.056189
   1 C :   -0.067374
   2 N :    0.007860
   3 O :   -0.081337
   4 C :    0.067695
   5 C :   -0.063202
   6 C :   -0.066339
   7 H :    0.044299
   8 H :    0.042412
   9 H :    0.041596
  10 H :    0.038035
  11 H :    0.038633
  12 H :    0.026896
  13 H :    0.027014

  Mayer bond orders larger than 0.1
B(  0-C ,  1-C ) :   1.1313 B(  0-C ,  7-H ) :   0.9377 B(  0-C ,  8-H ) :   0.9354
B(  0-C ,  9-H ) :   0.9335 B(  1-C ,  2-N ) :   1.7973 B(  1-C ,  5-C ) :   1.0584
B(  2-N ,  3-O ) :   0.9985 B(  3-O ,  4-C ) :   0.9375 B(  4-C ,  5-C ) :   1.0224
B(  4-C , 10-H ) :   0.9236 B(  4-C , 11-H ) :   0.9232 B(  5-C ,  6-C ) :   1.9107
B(  6-C , 12-H ) :   0.9353 B(  6-C , 13-H ) :   0.9233

FINAL SINGLE POINT ENERGY      -324.010739325067

DIPOLE MOMENT
-------------
                                X             Y             Z
Electronic contribution:      3.80578      -3.85321      -1.18331
Nuclear contribution   :     -4.02252       4.90402       1.39085
                        -----------------------------------------
Total Dipole Moment    :     -0.21674       1.05081       0.20754
                        -----------------------------------------
Magnitude (a.u.)       :      1.09281
Magnitude (Debye)      :      2.77771

                             ****ORCA TERMINATED NORMALLY****
TOTAL RUN TIME: 0 days 0 hours 0 minutes 6 seconds 910 msec
