                         Program Version 3.0.3 - RELEASE   -
|  1> ! RI PBE def2-SVP def2-SVP/J NBO PAL2
|  2> % maxcore 2000
|  3> % output
|  4>     # printlevel mini
|  5>     print[ P_Basis ] 0
|  6>     print[ P_SCFInfo ] 1
|  7>     print[ P_SCFIterInfo ] 1
|  8>     print[ P_OrbEn ] 0
|  9>     print[ P_Cartesian ] 0
| 10> end
| 11> *xyz 0 1
| 12>  C        0.9270520000    -0.0293420000    -0.0220260000
| 13>  C        2.4095530000    -0.0947750000    -0.0217580000
| 14>  N        3.1376790000     0.9892840000    -0.0226310000
| 15>  O        4.4370640000     0.5904800000    -0.0220930000
| 16>  C        4.4865780000    -0.7569580000    -0.0208670000
| 17>  C        3.2278830000    -1.2638970000    -0.0205860000
| 18>  N        2.7787340000    -2.5580000000    -0.0194730000
| 19>  H        0.6029770000     1.0107360000    -0.0230130000
| 20>  H        0.5096330000    -0.5203680000     0.8621380000
| 21>  H        0.5098810000    -0.5219670000    -0.9054180000
| 22>  H        5.4686150000    -1.2008350000    -0.0203280000
| 23>  H        3.4134700000    -3.3301870000    -0.0187390000
| 24>  H        1.7984810000    -2.7531700000    -0.0194950000
| 25> *
| 26>
| 27>                          ****END OF INPUT****
 Total Charge           Charge          ....    0
 Multiplicity           Mult            ....    1
 Number of Electrons    NEL             ....   52
 Basis Dimension        Dim             ....  128

MULLIKEN ATOMIC CHARGES
-----------------------
   0 C :    0.069150
   1 C :   -0.161870
   2 N :   -0.027472
   3 O :   -0.155628
   4 C :    0.067263
   5 C :   -0.039862
   6 N :   -0.061917
   7 H :    0.033343
   8 H :    0.033576
   9 H :    0.033591
  10 H :   -0.005640
  11 H :    0.109628
  12 H :    0.105839
Sum of atomic charges:   -0.0000000

LOEWDIN ATOMIC CHARGES
----------------------
   0 C :   -0.063246
   1 C :   -0.081973
   2 N :   -0.050270
   3 O :    0.032556
   4 C :   -0.040043
   5 C :   -0.060890
   6 N :   -0.015647
   7 H :    0.046354
   8 H :    0.037052
   9 H :    0.037055
  10 H :    0.017882
  11 H :    0.071848
  12 H :    0.069320

  Mayer bond orders larger than 0.1
B(  0-C ,  1-C ) :   1.1197 B(  0-C ,  7-H ) :   0.9300 B(  0-C ,  8-H ) :   0.9439
B(  0-C ,  9-H ) :   0.9439 B(  1-C ,  2-N ) :   1.6706 B(  1-C ,  5-C ) :   1.2027
B(  2-N ,  3-O ) :   1.0371 B(  2-N ,  4-C ) :   0.1332 B(  3-O ,  4-C ) :   1.1145
B(  4-C ,  5-C ) :   1.4626 B(  4-C , 10-H ) :   0.9923 B(  5-C ,  6-N ) :   1.2346
B(  6-N , 11-H ) :   0.9539 B(  6-N , 12-H ) :   0.9475

FINAL SINGLE POINT ENERGY      -340.060408741698

DIPOLE MOMENT
-------------
                                X             Y             Z
Electronic contribution:      5.08862       2.55465      -0.00156
Nuclear contribution   :     -5.59374      -4.23132       0.00294
                        -----------------------------------------
Total Dipole Moment    :     -0.50512      -1.67668       0.00138
                        -----------------------------------------
Magnitude (a.u.)       :      1.75111
Magnitude (Debye)      :      4.45097

                             ****ORCA TERMINATED NORMALLY****
TOTAL RUN TIME: 0 days 0 hours 0 minutes 6 seconds 512 msec
