                         Program Version 3.0.3 - RELEASE   -
|  1> ! RI PBE def2-SVP def2-SVP/J NBO PAL2
|  2> % maxcore 2000
|  3> % output
|  4>     # printlevel mini
|  5>     print[ P_Basis ] 0
|  6>     print[ P_SCFInfo ] 1
|  7>     print[ P_SCFIterInfo ] 1
|  8>     print[ P_OrbEn ] 0
|  9>     print[ P_Cartesian ] 0
| 10> end
| 11> *xyz 0 1
| 12>  C        1.0093400000    -0.0329830000     0.1516930000
| 13>  C        2.4538080000     0.0722410000    -0.1615200000
| 14>  N        3.1344110000    -0.9212860000    -0.5721310000
| 15>  O        4.4438510000    -0.5419150000    -0.8140980000
| 16>  C        4.6395900000     0.7635310000    -0.2643150000
| 17>  C        3.2417860000     1.3621390000    -0.1498070000
| 18>  N        2.7615760000     2.2216410000    -1.2176580000
| 19>  H        0.6426840000    -1.0335870000    -0.0741680000
| 20>  H        0.4481260000     0.7028650000    -0.4291920000
| 21>  H        0.8262710000     0.1798890000     1.2093050000
| 22>  H        5.3035860000     1.3214880000    -0.9266480000
| 23>  H        5.1075330000     0.6569670000     0.7216400000
| 24>  H        3.1155250000     1.9009660000     0.7925600000
| 25>  H        2.9325890000     1.7979350000    -2.1220310000
| 26>  H        3.2280340000     3.1193870000    -1.2012410000
| 27> *
| 28>
| 29>                          ****END OF INPUT****
 Total Charge           Charge          ....    0
 Multiplicity           Mult            ....    1
 Number of Electrons    NEL             ....   54
 Basis Dimension        Dim             ....  138

MULLIKEN ATOMIC CHARGES
-----------------------
   0 C :    0.118607
   1 C :   -0.219022
   2 N :    0.033218
   3 O :   -0.280822
   4 C :    0.286719
   5 C :   -0.105523
   6 N :   -0.153947
   7 H :    0.030475
   8 H :    0.035902
   9 H :    0.025836
  10 H :    0.000375
  11 H :    0.017997
  12 H :    0.016252
  13 H :    0.097057
  14 H :    0.096878
Sum of atomic charges:   -0.0000000

LOEWDIN ATOMIC CHARGES
----------------------
   0 C :   -0.057292
   1 C :   -0.070948
   2 N :   -0.004136
   3 O :   -0.102128
   4 C :    0.041174
   5 C :   -0.027639
   6 N :   -0.084836
   7 H :    0.040502
   8 H :    0.042368
   9 H :    0.039747
  10 H :    0.019902
  11 H :    0.019392
  12 H :    0.031849
  13 H :    0.057228
  14 H :    0.054817

  Mayer bond orders larger than 0.1
B(  0-C ,  1-C ) :   1.1152 B(  0-C ,  7-H ) :   0.9439 B(  0-C ,  8-H ) :   0.9326
B(  0-C ,  9-H ) :   0.9339 B(  1-C ,  2-N ) :   1.8836 B(  1-C ,  3-O ) :   0.1136
B(  1-C ,  5-C ) :   0.9628 B(  2-N ,  3-O ) :   0.9670 B(  3-O ,  4-C ) :   0.9562
B(  4-C ,  5-C ) :   1.0227 B(  4-C , 10-H ) :   0.9234 B(  4-C , 11-H ) :   0.9267
B(  5-C ,  6-N ) :   1.1088 B(  5-C , 12-H ) :   0.9075 B(  6-N , 13-H ) :   0.9611
B(  6-N , 14-H ) :   0.9637

FINAL SINGLE POINT ENERGY      -341.239806471659

DIPOLE MOMENT
-------------
                                X             Y             Z
Electronic contribution:      3.14175      -3.53191      -1.22034
Nuclear contribution   :     -3.08094       4.78110       1.47625
                        -----------------------------------------
Total Dipole Moment    :      0.06081       1.24919       0.25591
                        -----------------------------------------
Magnitude (a.u.)       :      1.27658
Magnitude (Debye)      :      3.24482

                             ****ORCA TERMINATED NORMALLY****
TOTAL RUN TIME: 0 days 0 hours 0 minutes 7 seconds 333 msec
