                         Program Version 3.0.3 - RELEASE   -
|  1> ! RI PBE def2-SVP def2-SVP/J NBO PAL2
|  2> % maxcore 2000
|  3> % output
|  4>     # printlevel mini
|  5>     print[ P_Basis ] 0
|  6>     print[ P_SCFInfo ] 1
|  7>     print[ P_SCFIterInfo ] 1
|  8>     print[ P_OrbEn ] 0
|  9>     print[ P_Cartesian ] 0
| 10> end
| 11> *xyz 0 1
| 12>  C        1.0511630000     0.0361900000    -0.0564370000
| 13>  C        2.5325370000    -0.0260920000    -0.0561120000
| 14>  N        3.2672920000     1.0525020000    -0.0568340000
| 15>  O        4.5729690000     0.6448080000    -0.0562630000
| 16>  C        4.6178440000    -0.6973060000    -0.0551900000
| 17>  C        3.3560040000    -1.1855140000    -0.0550360000
| 18>  O        2.8648360000    -2.4439010000    -0.0541260000
| 19>  H        0.7247060000     1.0754760000    -0.0573330000
| 20>  H        0.6425340000    -0.4652660000     0.8239890000
| 21>  H        0.6428610000    -0.4666830000    -0.9362060000
| 22>  H        5.5967820000    -1.1498320000    -0.0546470000
| 23>  H        3.5863830000    -3.0779720000    -0.0534960000
| 24> *
| 25>
| 26>                          ****END OF INPUT****
 Total Charge           Charge          ....    0
 Multiplicity           Mult            ....    1
 Number of Electrons    NEL             ....   52
 Basis Dimension        Dim             ....  123

MULLIKEN ATOMIC CHARGES
-----------------------
   0 C :    0.099646
   1 C :   -0.164537
   2 N :   -0.028389
   3 O :   -0.154295
   4 C :    0.078369
   5 C :    0.031421
   6 O :   -0.157470
   7 H :    0.031187
   8 H :    0.040079
   9 H :    0.040093
  10 H :    0.006870
  11 H :    0.177027
Sum of atomic charges:   -0.0000000

LOEWDIN ATOMIC CHARGES
----------------------
   0 C :   -0.054395
   1 C :   -0.073830
   2 N :   -0.043510
   3 O :    0.036006
   4 C :   -0.039600
   5 C :   -0.045262
   6 O :   -0.027284
   7 H :    0.043475
   8 H :    0.044089
   9 H :    0.044091
  10 H :    0.022122
  11 H :    0.094097

  Mayer bond orders larger than 0.1
B(  0-C ,  1-C ) :   1.1071 B(  0-C ,  7-H ) :   0.9361 B(  0-C ,  8-H ) :   0.9428
B(  0-C ,  9-H ) :   0.9428 B(  1-C ,  2-N ) :   1.6727 B(  1-C ,  5-C ) :   1.2166
B(  2-N ,  3-O ) :   1.0242 B(  2-N ,  4-C ) :   0.1287 B(  3-O ,  4-C ) :   1.1285
B(  4-C ,  5-C ) :   1.4600 B(  4-C , 10-H ) :   0.9875 B(  5-C ,  6-O ) :   1.2344
B(  6-O , 11-H ) :   0.9653

FINAL SINGLE POINT ENERGY      -359.898293311654

DIPOLE MOMENT
-------------
                                X             Y             Z
Electronic contribution:      4.55427       0.56882       0.00040
Nuclear contribution   :     -4.38787      -1.91374       0.00070
                        -----------------------------------------
Total Dipole Moment    :      0.16639      -1.34492       0.00110
                        -----------------------------------------
Magnitude (a.u.)       :      1.35518
Magnitude (Debye)      :      3.44459

                             ****ORCA TERMINATED NORMALLY****
TOTAL RUN TIME: 0 days 0 hours 0 minutes 5 seconds 964 msec
