                         Program Version 3.0.3 - RELEASE   -
|  1> ! RI PBE def2-SVP def2-SVP/J NBO PAL2
|  2> % maxcore 2000
|  3> % output
|  4>     # printlevel mini
|  5>     print[ P_Basis ] 0
|  6>     print[ P_SCFInfo ] 1
|  7>     print[ P_SCFIterInfo ] 1
|  8>     print[ P_OrbEn ] 0
|  9>     print[ P_Cartesian ] 0
| 10> end
| 11> *xyz 0 1
| 12>  C        1.1293220000    -0.1021640000     0.2656680000
| 13>  C        2.5747320000     0.0030710000    -0.0455830000
| 14>  N        3.2644650000    -0.9979580000    -0.4279800000
| 15>  O        4.5707010000    -0.6217540000    -0.6706970000
| 16>  C        4.7533280000     0.7109610000    -0.1811910000
| 17>  C        3.3576480000     1.2939190000    -0.0863110000
| 18>  O        2.9547470000     2.1035890000    -1.1730050000
| 19>  H        0.7700430000    -1.1118960000     0.0705770000
| 20>  H        0.5588410000     0.6078850000    -0.3387070000
| 21>  H        0.9408890000     0.1430510000     1.3150760000
| 22>  H        5.4019980000     1.2556710000    -0.8679240000
| 23>  H        5.2220840000     0.6543220000     0.8072570000
| 24>  H        3.2238600000     1.9125410000     0.8017850000
| 25>  H        3.0071530000     1.5773620000    -1.9774660000
| 26> *
| 27>
| 28>                          ****END OF INPUT****
 Total Charge           Charge          ....    0
 Multiplicity           Mult            ....    1
 Number of Electrons    NEL             ....   54
 Basis Dimension        Dim             ....  133

MULLIKEN ATOMIC CHARGES
-----------------------
   0 C :    0.116461
   1 C :   -0.261847
   2 N :    0.035341
   3 O :   -0.275844
   4 C :    0.246776
   5 C :    0.058026
   6 O :   -0.253926
   7 H :    0.034427
   8 H :    0.033325
   9 H :    0.032494
  10 H :    0.025328
  11 H :    0.028874
  12 H :    0.016692
  13 H :    0.163873
Sum of atomic charges:    0.0000000

LOEWDIN ATOMIC CHARGES
----------------------
   0 C :   -0.057348
   1 C :   -0.093798
   2 N :   -0.001557
   3 O :   -0.097982
   4 C :    0.041346
   5 C :    0.021161
   6 O :   -0.098886
   7 H :    0.042080
   8 H :    0.041406
   9 H :    0.041783
  10 H :    0.029412
  11 H :    0.026688
  12 H :    0.031091
  13 H :    0.074606

  Mayer bond orders larger than 0.1
B(  0-C ,  1-C ) :   1.1115 B(  0-C ,  7-H ) :   0.9451 B(  0-C ,  8-H ) :   0.9343
B(  0-C ,  9-H ) :   0.9362 B(  1-C ,  2-N ) :   1.8602 B(  1-C ,  3-O ) :   0.1163
B(  1-C ,  5-C ) :   0.9623 B(  2-N ,  3-O ) :   0.9760 B(  3-O ,  4-C ) :   0.9539
B(  4-C ,  5-C ) :   1.0423 B(  4-C , 10-H ) :   0.9218 B(  4-C , 11-H ) :   0.9265
B(  5-C ,  6-O ) :   1.0556 B(  5-C , 12-H ) :   0.9105 B(  6-O , 13-H ) :   0.9763

FINAL SINGLE POINT ENERGY      -361.080983306525

DIPOLE MOMENT
-------------
                                X             Y             Z
Electronic contribution:      3.10591      -1.63723      -1.90146
Nuclear contribution   :     -3.30231       2.28202       2.16003
                        -----------------------------------------
Total Dipole Moment    :     -0.19640       0.64479       0.25858
                        -----------------------------------------
Magnitude (a.u.)       :      0.72193
Magnitude (Debye)      :      1.83501

                             ****ORCA TERMINATED NORMALLY****
TOTAL RUN TIME: 0 days 0 hours 0 minutes 6 seconds 722 msec
