                         Program Version 3.0.3 - RELEASE   -
|  1> ! RI PBE def2-SVP def2-SVP/J NBO PAL2
|  2> % maxcore 2000
|  3> % output
|  4>     # printlevel mini
|  5>     print[ P_Basis ] 0
|  6>     print[ P_SCFInfo ] 1
|  7>     print[ P_SCFIterInfo ] 1
|  8>     print[ P_OrbEn ] 0
|  9>     print[ P_Cartesian ] 0
| 10> end
| 11> *xyz 0 1
| 12>  C        1.0436360000     0.1418500000     0.0654490000
| 13>  C        2.5326420000     0.0592100000     0.1424950000
| 14>  N        3.1368800000     1.1461140000     0.4259120000
| 15>  O        4.5136550000     1.1531310000     0.5012850000
| 16>  C        5.1901740000     0.0812520000    -0.1322780000
| 17>  C        4.6410200000    -1.2524050000     0.3110800000
| 18>  C        3.1732020000    -1.2807800000    -0.0721660000
| 19>  H        0.7138750000     1.1659320000     0.2340310000
| 20>  H        0.5810440000    -0.5111300000     0.8122270000
| 21>  H        0.6885950000    -0.1903470000    -0.9153850000
| 22>  H        6.2381260000     0.2166900000     0.1387090000
| 23>  H        5.0929770000     0.1908160000    -1.2220390000
| 24>  H        4.7573420000    -1.3429590000     1.3944910000
| 25>  H        5.1931800000    -2.0737710000    -0.1512610000
| 26>  H        2.6177080000    -2.0247050000     0.5077510000
| 27>  H        3.0462340000    -1.5677090000    -1.1230020000
| 28> *
| 29>
| 30>                          ****END OF INPUT****
 Total Charge           Charge          ....    0
 Multiplicity           Mult            ....    1
 Number of Electrons    NEL             ....   54
 Basis Dimension        Dim             ....  143

MULLIKEN ATOMIC CHARGES
-----------------------
   0 C :    0.080348
   1 C :   -0.289012
   2 N :    0.048933
   3 O :   -0.267782
   4 C :    0.150323
   5 C :   -0.019391
   6 C :    0.061341
   7 H :    0.030250
   8 H :    0.028202
   9 H :    0.023938
  10 H :    0.028608
  11 H :    0.021198
  12 H :    0.033089
  13 H :    0.014855
  14 H :    0.025409
  15 H :    0.029690
Sum of atomic charges:   -0.0000000

LOEWDIN ATOMIC CHARGES
----------------------
   0 C :   -0.057079
   1 C :   -0.070188
   2 N :   -0.014598
   3 O :   -0.090287
   4 C :    0.047643
   5 C :   -0.058137
   6 C :   -0.051348
   7 H :    0.037917
   8 H :    0.035345
   9 H :    0.034882
  10 H :    0.028222
  11 H :    0.014238
  12 H :    0.032940
  13 H :    0.032319
  14 H :    0.039563
  15 H :    0.038569

  Mayer bond orders larger than 0.1
B(  0-C ,  1-C ) :   1.0794 B(  0-C ,  7-H ) :   0.9476 B(  0-C ,  8-H ) :   0.9425
B(  0-C ,  9-H ) :   0.9480 B(  1-C ,  2-N ) :   1.9397 B(  1-C ,  3-O ) :   0.1174
B(  1-C ,  6-C ) :   1.0000 B(  2-N ,  3-O ) :   0.9596 B(  3-O ,  4-C ) :   0.9766
B(  4-C ,  5-C ) :   1.0823 B(  4-C , 10-H ) :   0.9399 B(  4-C , 11-H ) :   0.9400
B(  5-C ,  6-C ) :   1.0907 B(  5-C , 12-H ) :   0.9318 B(  5-C , 13-H ) :   0.9212
B(  6-C , 14-H ) :   0.9137 B(  6-C , 15-H ) :   0.9138

FINAL SINGLE POINT ENERGY      -325.221519704160

DIPOLE MOMENT
-------------
                                X             Y             Z
Electronic contribution:      2.20353       4.61395       1.39116
Nuclear contribution   :     -2.18534      -5.84377      -1.78343
                        -----------------------------------------
Total Dipole Moment    :      0.01819      -1.22982      -0.39226
                        -----------------------------------------
Magnitude (a.u.)       :      1.29099
Magnitude (Debye)      :      3.28144

                             ****ORCA TERMINATED NORMALLY****
TOTAL RUN TIME: 0 days 0 hours 0 minutes 7 seconds 245 msec
