                         Program Version 3.0.3 - RELEASE   -
|  1> ! RI PBE def2-SVP def2-SVP/J NBO PAL2
|  2> % maxcore 2000
|  3> % output
|  4>     # printlevel mini
|  5>     print[ P_Basis ] 0
|  6>     print[ P_SCFInfo ] 1
|  7>     print[ P_SCFIterInfo ] 1
|  8>     print[ P_OrbEn ] 0
|  9>     print[ P_Cartesian ] 0
| 10> end
| 11> *xyz 0 1
| 12>  C        0.9352590000    -0.0458550000    -0.0521380000
| 13>  C        2.4267240000    -0.0582170000    -0.0616390000
| 14>  N        3.0097950000     1.0772420000    -0.0696950000
| 15>  O        4.3816550000     1.1371090000    -0.0786630000
| 16>  C        5.2104600000    -0.0356100000    -0.0801970000
| 17>  C        4.4690110000    -1.3213460000    -0.0700930000
| 18>  C        3.1443470000    -1.3297460000    -0.0612980000
| 19>  H        0.5693810000     0.9797010000    -0.0536890000
| 20>  H        0.5501850000    -0.5610990000     0.8333620000
| 21>  H        0.5388950000    -0.5677900000    -0.9286920000
| 22>  H        5.8682570000     0.0328770000     0.7970890000
| 23>  H        5.8558190000     0.0262030000    -0.9671810000
| 24>  H        5.0537950000    -2.2353610000    -0.0703220000
| 25>  H        2.5751860000    -2.2519170000    -0.0538450000
| 26> *
| 27>
| 28>                          ****END OF INPUT****
 Total Charge           Charge          ....    0
 Multiplicity           Mult            ....    1
 Number of Electrons    NEL             ....   52
 Basis Dimension        Dim             ....  133

MULLIKEN ATOMIC CHARGES
-----------------------
   0 C :    0.066282
   1 C :   -0.226575
   2 N :    0.065015
   3 O :   -0.286725
   4 C :    0.272771
   5 C :   -0.119692
   6 C :    0.068198
   7 H :    0.033612
   8 H :    0.032438
   9 H :    0.032626
  10 H :    0.032577
  11 H :    0.032245
  12 H :    0.013612
  13 H :   -0.016385
Sum of atomic charges:   -0.0000000

LOEWDIN ATOMIC CHARGES
----------------------
   0 C :   -0.056412
   1 C :   -0.075418
   2 N :    0.005231
   3 O :   -0.092677
   4 C :    0.059770
   5 C :   -0.020030
   6 C :   -0.052690
   7 H :    0.039585
   8 H :    0.037300
   9 H :    0.037330
  10 H :    0.025348
  11 H :    0.025268
  12 H :    0.034558
  13 H :    0.032837

  Mayer bond orders larger than 0.1
B(  0-C ,  1-C ) :   1.0701 B(  0-C ,  7-H ) :   0.9494 B(  0-C ,  8-H ) :   0.9460
B(  0-C ,  9-H ) :   0.9460 B(  1-C ,  2-N ) :   1.8982 B(  1-C ,  3-O ) :   0.1259
B(  1-C ,  6-C ) :   1.0129 B(  2-N ,  3-O ) :   0.9704 B(  3-O ,  4-C ) :   0.9380
B(  4-C ,  5-C ) :   1.0464 B(  4-C , 10-H ) :   0.9258 B(  4-C , 11-H ) :   0.9257
B(  5-C ,  6-C ) :   1.8270 B(  5-C , 12-H ) :   0.9533 B(  6-C , 13-H ) :   0.9746

FINAL SINGLE POINT ENERGY      -323.998188455950

DIPOLE MOMENT
-------------
                                X             Y             Z
Electronic contribution:      2.58060       2.72043      -0.02590
Nuclear contribution   :     -2.44430      -3.94250       0.02955
                        -----------------------------------------
Total Dipole Moment    :      0.13630      -1.22207       0.00366
                        -----------------------------------------
Magnitude (a.u.)       :      1.22965
Magnitude (Debye)      :      3.12552

                             ****ORCA TERMINATED NORMALLY****
TOTAL RUN TIME: 0 days 0 hours 0 minutes 6 seconds 642 msec
