                         Program Version 3.0.3 - RELEASE   -
|  1> ! RI PBE def2-SVP def2-SVP/J NBO PAL2
|  2> % maxcore 2000
|  3> % output
|  4>     # printlevel mini
|  5>     print[ P_Basis ] 0
|  6>     print[ P_SCFInfo ] 1
|  7>     print[ P_SCFIterInfo ] 1
|  8>     print[ P_OrbEn ] 0
|  9>     print[ P_Cartesian ] 0
| 10> end
| 11> *xyz 0 1
| 12>  C        1.4023270000     0.0910020000     0.0050680000
| 13>  C        2.8771620000     0.0153270000     0.0022950000
| 14>  N        3.7361750000     0.9826250000    -0.0001420000
| 15>  C        4.9343290000     0.3131640000    -0.0018950000
| 16>  C        6.2506000000     1.0007070000    -0.0049950000
| 17>  N        4.8159990000    -0.9818080000    -0.0006020000
| 18>  O        3.4473570000    -1.1866360000     0.0022040000
| 19>  H        1.0976290000     1.1349730000     0.0047710000
| 20>  H        0.9954840000    -0.4058110000     0.8882930000
| 21>  H        0.9920900000    -0.4073050000    -0.8757410000
| 22>  H        6.0959850000     2.0780340000    -0.0054100000
| 23>  H        6.8293710000     0.7236300000    -0.8874620000
| 24>  H        6.8329110000     0.7248060000     0.8755070000
| 25> *
| 26>
| 27>                          ****END OF INPUT****
 Total Charge           Charge          ....    0
 Multiplicity           Mult            ....    1
 Number of Electrons    NEL             ....   52
 Basis Dimension        Dim             ....  128

MULLIKEN ATOMIC CHARGES
-----------------------
   0 C :    0.092961
   1 C :   -0.012041
   2 N :   -0.128526
   3 C :   -0.167674
   4 C :    0.096964
   5 N :   -0.023648
   6 O :   -0.152191
   7 H :    0.047237
   8 H :    0.054600
   9 H :    0.054645
  10 H :    0.036635
  11 H :    0.050478
  12 H :    0.050560
Sum of atomic charges:   -0.0000000

LOEWDIN ATOMIC CHARGES
----------------------
   0 C :   -0.063086
   1 C :    0.016445
   2 N :   -0.122899
   3 C :   -0.045739
   4 C :   -0.064907
   5 N :   -0.057810
   6 O :    0.034215
   7 H :    0.052413
   8 H :    0.053171
   9 H :    0.053178
  10 H :    0.045409
  11 H :    0.049800
  12 H :    0.049811

  Mayer bond orders larger than 0.1
B(  0-C ,  1-C ) :   1.1173 B(  0-C ,  7-H ) :   0.9423 B(  0-C ,  8-H ) :   0.9326
B(  0-C ,  9-H ) :   0.9326 B(  1-C ,  2-N ) :   1.6784 B(  1-C ,  6-O ) :   1.2025
B(  2-N ,  3-C ) :   1.3229 B(  3-C ,  4-C ) :   1.1105 B(  3-C ,  5-N ) :   1.6721
B(  4-C , 10-H ) :   0.9346 B(  4-C , 11-H ) :   0.9394 B(  4-C , 12-H ) :   0.9395
B(  5-N ,  6-O ) :   0.9890

FINAL SINGLE POINT ENERGY      -340.086009415514

DIPOLE MOMENT
-------------
                                X             Y             Z
Electronic contribution:      0.12190      -3.13056       0.00236
Nuclear contribution   :     -0.58833       3.47968      -0.00177
                        -----------------------------------------
Total Dipole Moment    :     -0.46644       0.34912       0.00059
                        -----------------------------------------
Magnitude (a.u.)       :      0.58262
Magnitude (Debye)      :      1.48091

                             ****ORCA TERMINATED NORMALLY****
TOTAL RUN TIME: 0 days 0 hours 0 minutes 6 seconds 90 msec
