                         Program Version 3.0.3 - RELEASE   -
|  1> ! RI PBE def2-SVP def2-SVP/J NBO PAL2
|  2> % maxcore 2000
|  3> % output
|  4>     # printlevel mini
|  5>     print[ P_Basis ] 0
|  6>     print[ P_SCFInfo ] 1
|  7>     print[ P_SCFIterInfo ] 1
|  8>     print[ P_OrbEn ] 0
|  9>     print[ P_Cartesian ] 0
| 10> end
| 11> *xyz 0 1
| 12>  C        1.1671500000    -0.0669180000    -0.0940470000
| 13>  C        2.6396680000    -0.0709530000     0.0981340000
| 14>  N        3.2225450000     1.0078760000     0.4495290000
| 15>  O        4.6076230000     0.9703770000     0.5965820000
| 16>  C        5.2258550000    -0.0452870000    -0.1581510000
| 17>  C        4.5844370000    -1.3666000000     0.1635260000
| 18>  O        3.1956820000    -1.2780470000    -0.1280070000
| 19>  H        0.7773950000     0.9297820000     0.0990590000
| 20>  H        0.6977480000    -0.7842300000     0.5833520000
| 21>  H        0.9201890000    -0.3649330000    -1.1158580000
| 22>  H        6.2819640000    -0.0332110000     0.1154160000
| 23>  H        5.1282940000     0.1699160000    -1.2306690000
| 24>  H        4.7162690000    -1.6077780000     1.2226660000
| 25>  H        4.9820700000    -2.1813830000    -0.4437210000
| 26> *
| 27>
| 28>                          ****END OF INPUT****
 Total Charge           Charge          ....    0
 Multiplicity           Mult            ....    1
 Number of Electrons    NEL             ....   54
 Basis Dimension        Dim             ....  133

MULLIKEN ATOMIC CHARGES
-----------------------
   0 C :    0.085753
   1 C :   -0.108827
   2 N :    0.018413
   3 O :   -0.276124
   4 C :    0.121880
   5 C :    0.178022
   6 O :   -0.265378
   7 H :    0.039109
   8 H :    0.039228
   9 H :    0.036383
  10 H :    0.035688
  11 H :    0.034636
  12 H :    0.033583
  13 H :    0.027633
Sum of atomic charges:   -0.0000000

LOEWDIN ATOMIC CHARGES
----------------------
   0 C :   -0.058435
   1 C :   -0.030317
   2 N :   -0.065848
   3 O :   -0.094765
   4 C :    0.029170
   5 C :    0.056215
   6 O :   -0.072188
   7 H :    0.045300
   8 H :    0.042180
   9 H :    0.041904
  10 H :    0.034380
  11 H :    0.018975
  12 H :    0.024141
  13 H :    0.029289

  Mayer bond orders larger than 0.1
B(  0-C ,  1-C ) :   1.0808 B(  0-C ,  7-H ) :   0.9503 B(  0-C ,  8-H ) :   0.9372
B(  0-C ,  9-H ) :   0.9411 B(  1-C ,  2-N ) :   1.8652 B(  1-C ,  6-O ) :   1.1517
B(  2-N ,  3-O ) :   0.9254 B(  3-O ,  4-C ) :   0.9952 B(  4-C ,  5-C ) :   1.0766
B(  4-C , 10-H ) :   0.9362 B(  4-C , 11-H ) :   0.9317 B(  5-C ,  6-O ) :   0.9553
B(  5-C , 12-H ) :   0.9388 B(  5-C , 13-H ) :   0.9371

FINAL SINGLE POINT ENERGY      -361.080468872294

DIPOLE MOMENT
-------------
                                X             Y             Z
Electronic contribution:      1.45573       1.76427       1.20145
Nuclear contribution   :     -1.14374      -2.76152      -1.57024
                        -----------------------------------------
Total Dipole Moment    :      0.31199      -0.99725      -0.36879
                        -----------------------------------------
Magnitude (a.u.)       :      1.10808
Magnitude (Debye)      :      2.81652

                             ****ORCA TERMINATED NORMALLY****
TOTAL RUN TIME: 0 days 0 hours 0 minutes 6 seconds 419 msec
