                         Program Version 3.0.3 - RELEASE   -
|  1> ! RI PBE def2-SVP def2-SVP/J NBO PAL2
|  2> % maxcore 2000
|  3> % output
|  4>     # printlevel mini
|  5>     print[ P_Basis ] 0
|  6>     print[ P_SCFInfo ] 1
|  7>     print[ P_SCFIterInfo ] 1
|  8>     print[ P_OrbEn ] 0
|  9>     print[ P_Cartesian ] 0
| 10> end
| 11> *xyz 0 1
| 12>  C        1.1923860000     0.0318280000    -0.1706540000
| 13>  C        2.6654220000     0.0215420000     0.0553090000
| 14>  N        3.2352290000     1.1459200000     0.2448260000
| 15>  O        4.6101940000     1.1231440000     0.4298040000
| 16>  C        5.2234530000    -0.0134190000    -0.1049850000
| 17>  O        4.7159530000    -1.1894690000     0.4396030000
| 18>  C        3.3584870000    -1.3059850000     0.0971720000
| 19>  H        0.8241930000     1.0566380000    -0.1596670000
| 20>  H        0.6762680000    -0.5419450000     0.6049840000
| 21>  H        0.9430430000    -0.4248430000    -1.1333180000
| 22>  H        6.2778330000     0.0555720000     0.1573170000
| 23>  H        5.0851500000    -0.0103880000    -1.1986680000
| 24>  H        2.8829770000    -1.9273080000     0.8622440000
| 25>  H        3.2328130000    -1.8248760000    -0.8667660000
| 26> *
| 27>
| 28>                          ****END OF INPUT****
 Total Charge           Charge          ....    0
 Multiplicity           Mult            ....    1
 Number of Electrons    NEL             ....   54
 Basis Dimension        Dim             ....  133

MULLIKEN ATOMIC CHARGES
-----------------------
   0 C :    0.073773
   1 C :   -0.321963
   2 N :    0.039295
   3 O :   -0.253071
   4 C :    0.289156
   5 O :   -0.318196
   6 C :    0.268632
   7 H :    0.038649
   8 H :    0.035468
   9 H :    0.033496
  10 H :    0.041106
  11 H :    0.009839
  12 H :    0.041433
  13 H :    0.022384
Sum of atomic charges:    0.0000000

LOEWDIN ATOMIC CHARGES
----------------------
   0 C :   -0.054643
   1 C :   -0.082949
   2 N :   -0.008487
   3 O :   -0.084516
   4 C :    0.108097
   5 O :   -0.131861
   6 C :    0.047248
   7 H :    0.042523
   8 H :    0.039415
   9 H :    0.038947
  10 H :    0.026293
  11 H :   -0.003084
  12 H :    0.040980
  13 H :    0.022037

  Mayer bond orders larger than 0.1
B(  0-C ,  1-C ) :   1.0713 B(  0-C ,  7-H ) :   0.9452 B(  0-C ,  8-H ) :   0.9411
B(  0-C ,  9-H ) :   0.9480 B(  1-C ,  2-N ) :   1.9287 B(  1-C ,  3-O ) :   0.1057
B(  1-C ,  6-C ) :   0.9738 B(  2-N ,  3-O ) :   0.9572 B(  3-O ,  4-C ) :   1.0266
B(  4-C ,  5-O ) :   1.0564 B(  4-C , 10-H ) :   0.9521 B(  4-C , 11-H ) :   0.9285
B(  5-O ,  6-C ) :   1.0192 B(  6-C , 12-H ) :   0.9191 B(  6-C , 13-H ) :   0.9181

FINAL SINGLE POINT ENERGY      -361.071610385296

DIPOLE MOMENT
-------------
                                X             Y             Z
Electronic contribution:      4.50806       2.26999       2.01767
Nuclear contribution   :     -4.92477      -3.13596      -2.53401
                        -----------------------------------------
Total Dipole Moment    :     -0.41671      -0.86597      -0.51634
                        -----------------------------------------
Magnitude (a.u.)       :      1.09094
Magnitude (Debye)      :      2.77296

                             ****ORCA TERMINATED NORMALLY****
TOTAL RUN TIME: 0 days 0 hours 0 minutes 5 seconds 817 msec
