                         Program Version 3.0.3 - RELEASE   -
|  1> ! RI PBE def2-SVP def2-SVP/J NBO PAL2
|  2> % maxcore 2000
|  3> % output
|  4>     # printlevel mini
|  5>     print[ P_Basis ] 0
|  6>     print[ P_SCFInfo ] 1
|  7>     print[ P_SCFIterInfo ] 1
|  8>     print[ P_OrbEn ] 0
|  9>     print[ P_Cartesian ] 0
| 10> end
| 11> *xyz 0 1
| 12>  C        1.1211590000    -0.0643400000     0.0424950000
| 13>  C        2.5916340000     0.0283540000    -0.1085700000
| 14>  N        3.2996330000    -1.0165200000    -0.2896750000
| 15>  O        4.6513890000    -0.6472020000    -0.4002540000
| 16>  C        4.7905810000     0.7053730000    -0.2809810000
| 17>  O        5.8459420000     1.2502550000    -0.3416200000
| 18>  C        3.4069650000     1.2684900000    -0.0739990000
| 19>  H        0.8028210000    -1.1039190000    -0.0262320000
| 20>  H        0.6173220000     0.5167100000    -0.7349300000
| 21>  H        0.8072390000     0.3433690000     1.0074240000
| 22>  H        3.1563800000     1.9797470000    -0.8653870000
| 23>  H        3.3462360000     1.8063820000     0.8757190000
| 24> *
| 25>
| 26>                          ****END OF INPUT****
 Total Charge           Charge          ....    0
 Multiplicity           Mult            ....    1
 Number of Electrons    NEL             ....   52
 Basis Dimension        Dim             ....  123

MULLIKEN ATOMIC CHARGES
-----------------------
   0 C :    0.104617
   1 C :   -0.246717
   2 N :    0.025598
   3 O :   -0.188193
   4 C :    0.133453
   5 O :   -0.125295
   6 C :    0.002120
   7 H :    0.043297
   8 H :    0.044676
   9 H :    0.041071
  10 H :    0.083884
  11 H :    0.081487
Sum of atomic charges:   -0.0000000

LOEWDIN ATOMIC CHARGES
----------------------
   0 C :   -0.055621
   1 C :   -0.044059
   2 N :    0.001760
   3 O :   -0.028951
   4 C :    0.037733
   5 O :   -0.108285
   6 C :   -0.081307
   7 H :    0.046947
   8 H :    0.046791
   9 H :    0.046150
  10 H :    0.069592
  11 H :    0.069250

  Mayer bond orders larger than 0.1
B(  0-C ,  1-C ) :   1.1076 B(  0-C ,  7-H ) :   0.9404 B(  0-C ,  8-H ) :   0.9380
B(  0-C ,  9-H ) :   0.9373 B(  1-C ,  2-N ) :   1.8979 B(  1-C ,  6-C ) :   1.0158
B(  2-N ,  3-O ) :   0.9263 B(  3-O ,  4-C ) :   1.0806 B(  4-C ,  5-O ) :   2.2203
B(  4-C ,  6-C ) :   0.9657 B(  6-C , 10-H ) :   0.8957 B(  6-C , 11-H ) :   0.8955

FINAL SINGLE POINT ENERGY      -359.919132917768

DIPOLE MOMENT
-------------
                                X             Y             Z
Electronic contribution:      7.41636      -1.49630      -0.95810
Nuclear contribution   :     -9.09331       2.26512       1.21664
                        -----------------------------------------
Total Dipole Moment    :     -1.67695       0.76882       0.25854
                        -----------------------------------------
Magnitude (a.u.)       :      1.86281
Magnitude (Debye)      :      4.73490

                             ****ORCA TERMINATED NORMALLY****
TOTAL RUN TIME: 0 days 0 hours 0 minutes 6 seconds 154 msec
