                         Program Version 3.0.3 - RELEASE   -
|  1> ! RI PBE def2-SVP def2-SVP/J NBO PAL2
|  2> % maxcore 2000
|  3> % output
|  4>     # printlevel mini
|  5>     print[ P_Basis ] 0
|  6>     print[ P_SCFInfo ] 1
|  7>     print[ P_SCFIterInfo ] 1
|  8>     print[ P_OrbEn ] 0
|  9>     print[ P_Cartesian ] 0
| 10> end
| 11> *xyz 0 1
| 12>  C        1.0126110000     0.1856460000    -0.0522190000
| 13>  C        2.4899790000     0.0607370000    -0.0542990000
| 14>  N        3.2822370000     1.0897380000    -0.0614630000
| 15>  O        4.5402960000     0.5996430000    -0.0611140000
| 16>  N        4.5419940000    -0.7504840000    -0.0536710000
| 17>  C        3.2960360000    -1.1167320000    -0.0493160000
| 18>  C        2.8779360000    -2.5391730000    -0.0406850000
| 19>  H        0.7257960000     1.2362580000    -0.0574590000
| 20>  H        0.5819890000    -0.2899610000     0.8324150000
| 21>  H        0.5786880000    -0.2996500000    -0.9299510000
| 22>  H        3.7536050000    -3.1866890000    -0.0387740000
| 23>  H        2.2719530000    -2.7731680000    -0.9194600000
| 24>  H        2.2752910000    -2.7634550000     0.8429060000
| 25> *
| 26>
| 27>                          ****END OF INPUT****
 Total Charge           Charge          ....    0
 Multiplicity           Mult            ....    1
 Number of Electrons    NEL             ....   52
 Basis Dimension        Dim             ....  128

MULLIKEN ATOMIC CHARGES
-----------------------
   0 C :    0.099072
   1 C :   -0.181456
   2 N :    0.019805
   3 O :   -0.117040
   4 N :    0.019266
   5 C :   -0.188011
   6 C :    0.101383
   7 H :    0.039920
   8 H :    0.041397
   9 H :    0.041529
  10 H :    0.042201
  11 H :    0.041015
  12 H :    0.040919
Sum of atomic charges:   -0.0000000

LOEWDIN ATOMIC CHARGES
----------------------
   0 C :   -0.055816
   1 C :   -0.079209
   2 N :   -0.026602
   3 O :    0.049327
   4 N :   -0.026766
   5 C :   -0.079380
   6 C :   -0.056745
   7 H :    0.047249
   8 H :    0.045001
   9 H :    0.045027
  10 H :    0.047812
  11 H :    0.045053
  12 H :    0.045047

  Mayer bond orders larger than 0.1
B(  0-C ,  1-C ) :   1.1342 B(  0-C ,  7-H ) :   0.9342 B(  0-C ,  8-H ) :   0.9392
B(  0-C ,  9-H ) :   0.9393 B(  1-C ,  2-N ) :   1.6938 B(  1-C ,  5-C ) :   1.1544
B(  2-N ,  3-O ) :   1.0385 B(  2-N ,  4-N ) :   0.1641 B(  3-O ,  4-N ) :   1.0394
B(  4-N ,  5-C ) :   1.6930 B(  5-C ,  6-C ) :   1.1386 B(  6-C , 10-H ) :   0.9334
B(  6-C , 11-H ) :   0.9374 B(  6-C , 12-H ) :   0.9373

FINAL SINGLE POINT ENERGY      -340.045060187946

DIPOLE MOMENT
-------------
                                X             Y             Z
Electronic contribution:      6.84604       4.69100      -0.03875
Nuclear contribution   :     -8.12764      -5.56373       0.04593
                        -----------------------------------------
Total Dipole Moment    :     -1.28159      -0.87273       0.00718
                        -----------------------------------------
Magnitude (a.u.)       :      1.55054
Magnitude (Debye)      :      3.94116

                             ****ORCA TERMINATED NORMALLY****
TOTAL RUN TIME: 0 days 0 hours 0 minutes 6 seconds 535 msec
