                         Program Version 3.0.3 - RELEASE   -
|  1> ! RI PBE def2-SVP def2-SVP/J NBO PAL2
|  2> % maxcore 2000
|  3> % output
|  4>     # printlevel mini
|  5>     print[ P_Basis ] 0
|  6>     print[ P_SCFInfo ] 1
|  7>     print[ P_SCFIterInfo ] 1
|  8>     print[ P_OrbEn ] 0
|  9>     print[ P_Cartesian ] 0
| 10> end
| 11> *xyz 0 1
| 12>  C        1.0184110000    -0.0989130000    -0.0052610000
| 13>  C        2.5063460000     0.0032430000    -0.1144650000
| 14>  O        3.0617290000    -0.0908680000    -1.4221070000
| 15>  C        3.1774060000     1.1449040000    -0.7326010000
| 16>  C        4.5449960000     1.5721320000    -0.3481500000
| 17>  C        5.1822100000     2.6915260000    -1.0676830000
| 18>  N        4.7263040000     2.8627700000     0.3076740000
| 19>  H        0.6949530000    -1.1363420000    -0.1205530000
| 20>  H        0.5322910000     0.4986820000    -0.7785770000
| 21>  H        0.6817910000     0.2524210000     0.9735890000
| 22>  H        3.0745240000    -0.5493290000     0.6345110000
| 23>  H        2.5475690000     1.9428190000    -1.1353780000
| 24>  H        5.1733060000     0.7773280000     0.0442810000
| 25>  H        4.6161460000     3.1583870000    -1.8684510000
| 26>  H        6.2583220000     2.7058910000    -1.1996580000
| 27>  H        3.8481140000     3.3724400000     0.3289210000
| 28> *
| 29>
| 30>                          ****END OF INPUT****
 Total Charge           Charge          ....    0
 Multiplicity           Mult            ....    1
 Number of Electrons    NEL             ....   54
 Basis Dimension        Dim             ....  143

MULLIKEN ATOMIC CHARGES
-----------------------
   0 C :    0.074212
   1 C :    0.009100
   2 O :   -0.276278
   3 C :    0.097107
   4 C :   -0.035287
   5 C :    0.048547
   6 N :   -0.182719
   7 H :    0.032645
   8 H :    0.018307
   9 H :    0.028357
  10 H :    0.014827
  11 H :   -0.017284
  12 H :    0.011382
  13 H :    0.029540
  14 H :    0.041564
  15 H :    0.105979
Sum of atomic charges:   -0.0000000

LOEWDIN ATOMIC CHARGES
----------------------
   0 C :   -0.067234
   1 C :    0.040416
   2 O :   -0.150525
   3 C :    0.027771
   4 C :   -0.013213
   5 C :    0.005582
   6 N :   -0.094713
   7 H :    0.036245
   8 H :    0.033694
   9 H :    0.036301
  10 H :    0.015985
  11 H :    0.010270
  12 H :    0.027033
  13 H :    0.015847
  14 H :    0.024863
  15 H :    0.051678

  Mayer bond orders larger than 0.1
B(  0-C ,  1-C ) :   1.0853 B(  0-C ,  7-H ) :   0.9497 B(  0-C ,  8-H ) :   0.9458
B(  0-C ,  9-H ) :   0.9521 B(  1-C ,  2-O ) :   0.9865 B(  1-C ,  3-C ) :   1.0283
B(  1-C , 10-H ) :   0.9256 B(  2-O ,  3-C ) :   0.9745 B(  3-C ,  4-C ) :   1.0470
B(  3-C , 11-H ) :   0.9039 B(  4-C ,  5-C ) :   1.0272 B(  4-C ,  6-N ) :   0.9838
B(  4-C , 12-H ) :   0.9199 B(  5-C ,  6-N ) :   1.0114 B(  5-C , 13-H ) :   0.9420
B(  5-C , 14-H ) :   0.9368 B(  6-N , 15-H ) :   0.9492

FINAL SINGLE POINT ENERGY      -325.198664878163

DIPOLE MOMENT
-------------
                                X             Y             Z
Electronic contribution:      2.66220      -0.41122      -1.09748
Nuclear contribution   :     -3.24033       0.65889       1.22154
                        -----------------------------------------
Total Dipole Moment    :     -0.57813       0.24767       0.12406
                        -----------------------------------------
Magnitude (a.u.)       :      0.64107
Magnitude (Debye)      :      1.62946

                             ****ORCA TERMINATED NORMALLY****
TOTAL RUN TIME: 0 days 0 hours 0 minutes 7 seconds 33 msec
