                         Program Version 3.0.3 - RELEASE   -
|  1> ! RI PBE def2-SVP def2-SVP/J NBO PAL2
|  2> % maxcore 2000
|  3> % output
|  4>     # printlevel mini
|  5>     print[ P_Basis ] 0
|  6>     print[ P_SCFInfo ] 1
|  7>     print[ P_SCFIterInfo ] 1
|  8>     print[ P_OrbEn ] 0
|  9>     print[ P_Cartesian ] 0
| 10> end
| 11> *xyz 0 1
| 12>  C        0.5660610000     0.1076630000    -0.4348600000
| 13>  C        1.9453450000     0.1771380000     0.1402570000
| 14>  O        2.7422550000    -0.9962840000     0.0328260000
| 15>  C        3.1487810000     0.1651580000    -0.6861460000
| 16>  C        4.4377890000     0.7991530000    -0.2617260000
| 17>  C        5.6504930000     0.0056010000    -0.7185800000
| 18>  N        6.8764720000     0.6466760000    -0.2706810000
| 19>  H       -0.0965680000    -0.4622060000     0.2213500000
| 20>  H        0.5805690000    -0.3782320000    -1.4119960000
| 21>  H        0.1464750000     1.1108950000    -0.5480380000
| 22>  H        2.0250280000     0.6638600000     1.1130090000
| 23>  H        3.0021430000     0.0741670000    -1.7641980000
| 24>  H        4.4636880000     0.8955240000     0.8269770000
| 25>  H        4.4837320000     1.8135860000    -0.6787180000
| 26>  H        5.5961510000    -0.1361080000    -1.8107650000
| 27>  H        5.6028570000    -0.9908800000    -0.2704540000
| 28>  H        7.0018660000     1.5370650000    -0.7375740000
| 29>  H        7.6820840000     0.0789150000    -0.5001810000
| 30> *
| 31>
| 32>                          ****END OF INPUT****
 Total Charge           Charge          ....    0
 Multiplicity           Mult            ....    1
 Number of Electrons    NEL             ....   56
 Basis Dimension        Dim             ....  153

MULLIKEN ATOMIC CHARGES
-----------------------
   0 C :    0.064792
   1 C :    0.007297
   2 O :   -0.287470
   3 C :    0.006816
   4 C :    0.095100
   5 C :    0.035983
   6 N :   -0.204797
   7 H :    0.034887
   8 H :    0.014199
   9 H :    0.027672
  10 H :    0.007153
  11 H :    0.004237
  12 H :    0.005881
  13 H :    0.001856
  14 H :   -0.007571
  15 H :    0.019407
  16 H :    0.085850
  17 H :    0.088707
Sum of atomic charges:   -0.0000000

LOEWDIN ATOMIC CHARGES
----------------------
   0 C :   -0.070381
   1 C :    0.039956
   2 O :   -0.161869
   3 C :    0.040200
   4 C :   -0.053332
   5 C :    0.007130
   6 N :   -0.113071
   7 H :    0.035604
   8 H :    0.032966
   9 H :    0.035035
  10 H :    0.013545
  11 H :    0.010359
  12 H :    0.032770
  13 H :    0.026727
  14 H :   -0.002312
  15 H :    0.025023
  16 H :    0.048618
  17 H :    0.053029

  Mayer bond orders larger than 0.1
B(  0-C ,  1-C ) :   1.0902 B(  0-C ,  7-H ) :   0.9490 B(  0-C ,  8-H ) :   0.9408
B(  0-C ,  9-H ) :   0.9518 B(  1-C ,  2-O ) :   0.9942 B(  1-C ,  3-C ) :   1.0497
B(  1-C , 10-H ) :   0.9226 B(  2-O ,  3-C ) :   0.9711 B(  3-C ,  4-C ) :   1.0406
B(  3-C , 11-H ) :   0.9227 B(  4-C ,  5-C ) :   1.0808 B(  4-C , 12-H ) :   0.9054
B(  4-C , 13-H ) :   0.9187 B(  5-C ,  6-N ) :   1.0998 B(  5-C , 14-H ) :   0.9324
B(  5-C , 15-H ) :   0.9347 B(  6-N , 16-H ) :   0.9682 B(  6-N , 17-H ) :   0.9660

FINAL SINGLE POINT ENERGY      -326.428972730753

DIPOLE MOMENT
-------------
                                X             Y             Z
Electronic contribution:     -0.19148      -2.06774       1.29520
Nuclear contribution   :      0.22282       2.66475      -1.90303
                        -----------------------------------------
Total Dipole Moment    :      0.03133       0.59701      -0.60783
                        -----------------------------------------
Magnitude (a.u.)       :      0.85256
Magnitude (Debye)      :      2.16704

                             ****ORCA TERMINATED NORMALLY****
TOTAL RUN TIME: 0 days 0 hours 0 minutes 7 seconds 411 msec
