                         Program Version 3.0.3 - RELEASE   -
|  1> ! RI PBE def2-SVP def2-SVP/J NBO PAL2
|  2> % maxcore 2000
|  3> % output
|  4>     # printlevel mini
|  5>     print[ P_Basis ] 0
|  6>     print[ P_SCFInfo ] 1
|  7>     print[ P_SCFIterInfo ] 1
|  8>     print[ P_OrbEn ] 0
|  9>     print[ P_Cartesian ] 0
| 10> end
| 11> *xyz 0 1
| 12>  C        1.1788780000     0.0323000000     0.2066200000
| 13>  C        2.5527830000    -0.1792210000    -0.3460590000
| 14>  O        2.6626090000    -0.7695890000    -1.6406080000
| 15>  C        3.1465660000     0.5615850000    -1.4607530000
| 16>  C        2.4037930000     1.6355550000    -2.2014560000
| 17>  C        4.6522580000     0.6560370000    -1.5331170000
| 18>  N        5.1375320000     1.8904140000    -0.9312240000
| 19>  H        0.7614910000    -0.9186760000     0.5475730000
| 20>  H        0.4984180000     0.4508600000    -0.5340820000
| 21>  H        1.2195130000     0.7070940000     1.0657670000
| 22>  H        3.2613510000    -0.5927620000     0.3733200000
| 23>  H        1.3299120000     1.4575470000    -2.1975710000
| 24>  H        2.7338080000     1.6665320000    -3.2443310000
| 25>  H        2.5917250000     2.6140600000    -1.7519110000
| 26>  H        4.9508670000     0.5239100000    -2.5859120000
| 27>  H        5.0686470000    -0.1880950000    -0.9789590000
| 28>  H        4.9617760000     2.6804090000    -1.5394430000
| 29>  H        6.1395850000     1.8454300000    -0.7999530000
| 30> *
| 31>
| 32>                          ****END OF INPUT****
 Total Charge           Charge          ....    0
 Multiplicity           Mult            ....    1
 Number of Electrons    NEL             ....   56
 Basis Dimension        Dim             ....  153

MULLIKEN ATOMIC CHARGES
-----------------------
   0 C :    0.071815
   1 C :    0.023614
   2 O :   -0.288069
   3 C :   -0.149338
   4 C :    0.098000
   5 C :    0.169612
   6 N :   -0.218366
   7 H :    0.027618
   8 H :    0.009920
   9 H :    0.032055
  10 H :    0.003241
  11 H :    0.014932
  12 H :    0.016478
  13 H :    0.022645
  14 H :   -0.007802
  15 H :   -0.009651
  16 H :    0.088772
  17 H :    0.094525
Sum of atomic charges:   -0.0000000

LOEWDIN ATOMIC CHARGES
----------------------
   0 C :   -0.071264
   1 C :    0.045772
   2 O :   -0.159333
   3 C :    0.005883
   4 C :   -0.063150
   5 C :    0.008692
   6 N :   -0.110433
   7 H :    0.035912
   8 H :    0.029603
   9 H :    0.037620
  10 H :    0.013205
  11 H :    0.031676
  12 H :    0.032035
  13 H :    0.032813
  14 H :    0.002771
  15 H :    0.024266
  16 H :    0.048687
  17 H :    0.055245

  Mayer bond orders larger than 0.1
B(  0-C ,  1-C ) :   1.1113 B(  0-C ,  7-H ) :   0.9418 B(  0-C ,  8-H ) :   0.9385
B(  0-C ,  9-H ) :   0.9488 B(  1-C ,  2-O ) :   0.9844 B(  1-C ,  3-C ) :   1.0438
B(  1-C , 10-H ) :   0.9116 B(  2-O ,  3-C ) :   0.9686 B(  3-C ,  4-C ) :   1.0851
B(  3-C ,  5-C ) :   1.0227 B(  4-C , 11-H ) :   0.9334 B(  4-C , 12-H ) :   0.9402
B(  4-C , 13-H ) :   0.9442 B(  5-C ,  6-N ) :   1.0964 B(  5-C , 14-H ) :   0.9099
B(  5-C , 15-H ) :   0.9076 B(  6-N , 16-H ) :   0.9655 B(  6-N , 17-H ) :   0.9641

FINAL SINGLE POINT ENERGY      -326.432252730959

DIPOLE MOMENT
-------------
                                X             Y             Z
Electronic contribution:      1.11055      -3.16211      -0.77033
Nuclear contribution   :     -0.76175       3.78494       0.81213
                        -----------------------------------------
Total Dipole Moment    :      0.34880       0.62284       0.04180
                        -----------------------------------------
Magnitude (a.u.)       :      0.71508
Magnitude (Debye)      :      1.81758

                             ****ORCA TERMINATED NORMALLY****
TOTAL RUN TIME: 0 days 0 hours 0 minutes 7 seconds 943 msec
