                         Program Version 3.0.3 - RELEASE   -
|  1> ! RI PBE def2-SVP def2-SVP/J NBO PAL2
|  2> % maxcore 2000
|  3> % output
|  4>     # printlevel mini
|  5>     print[ P_Basis ] 0
|  6>     print[ P_SCFInfo ] 1
|  7>     print[ P_SCFIterInfo ] 1
|  8>     print[ P_OrbEn ] 0
|  9>     print[ P_Cartesian ] 0
| 10> end
| 11> *xyz 0 1
| 12>  C        0.8542900000     0.0431140000    -0.0356200000
| 13>  C        2.3220800000     0.2713180000     0.1239850000
| 14>  O        3.1942530000    -0.6185230000    -0.5738460000
| 15>  C        3.1682430000     0.7369550000    -0.9688940000
| 16>  C        4.4474390000     1.5007850000    -0.7182260000
| 17>  C        4.2428820000     2.9387540000    -0.7926890000
| 18>  N        4.0591510000     4.0714480000    -0.8571770000
| 19>  H        0.5306310000    -0.8065120000     0.5699990000
| 20>  H        0.6060870000    -0.1631580000    -1.0779170000
| 21>  H        0.2960260000     0.9240310000     0.2905040000
| 22>  H        2.6603750000     0.4966260000     1.1356040000
| 23>  H        2.7029470000     0.9242910000    -1.9357570000
| 24>  H        5.2027010000     1.2146310000    -1.4568990000
| 25>  H        4.8426950000     1.2426380000     0.2676330000
| 26> *
| 27>
| 28>                          ****END OF INPUT****
 Total Charge           Charge          ....    0
 Multiplicity           Mult            ....    1
 Number of Electrons    NEL             ....   52
 Basis Dimension        Dim             ....  133

MULLIKEN ATOMIC CHARGES
-----------------------
   0 C :    0.075970
   1 C :   -0.000339
   2 O :   -0.269677
   3 C :    0.001734
   4 C :    0.163560
   5 C :   -0.282237
   6 N :    0.049819
   7 H :    0.037683
   8 H :    0.020469
   9 H :    0.041188
  10 H :    0.019821
  11 H :    0.029258
  12 H :    0.065426
  13 H :    0.047327
Sum of atomic charges:    0.0000000

LOEWDIN ATOMIC CHARGES
----------------------
   0 C :   -0.065187
   1 C :    0.045198
   2 O :   -0.146279
   3 C :    0.047145
   4 C :   -0.059414
   5 C :   -0.045887
   6 N :   -0.060257
   7 H :    0.039028
   8 H :    0.036072
   9 H :    0.041753
  10 H :    0.017811
  11 H :    0.021522
  12 H :    0.065709
  13 H :    0.062787

  Mayer bond orders larger than 0.1
B(  0-C ,  1-C ) :   1.0887 B(  0-C ,  7-H ) :   0.9484 B(  0-C ,  8-H ) :   0.9453
B(  0-C ,  9-H ) :   0.9514 B(  1-C ,  2-O ) :   0.9899 B(  1-C ,  3-C ) :   1.0516
B(  1-C , 10-H ) :   0.9219 B(  2-O ,  3-C ) :   0.9988 B(  3-C ,  4-C ) :   1.0256
B(  3-C , 11-H ) :   0.9267 B(  4-C ,  5-C ) :   1.0754 B(  4-C , 12-H ) :   0.8824
B(  4-C , 13-H ) :   0.8801 B(  5-C ,  6-N ) :   3.0586

FINAL SINGLE POINT ENERGY      -324.027085769008

DIPOLE MOMENT
-------------
                                X             Y             Z
Electronic contribution:      4.60828       3.46369      -1.24403
Nuclear contribution   :     -4.85398      -4.32379       1.45280
                        -----------------------------------------
Total Dipole Moment    :     -0.24570      -0.86010       0.20877
                        -----------------------------------------
Magnitude (a.u.)       :      0.91854
Magnitude (Debye)      :      2.33475

                             ****ORCA TERMINATED NORMALLY****
TOTAL RUN TIME: 0 days 0 hours 0 minutes 6 seconds 102 msec
