                         Program Version 3.0.3 - RELEASE   -
|  1> ! RI PBE def2-SVP def2-SVP/J NBO PAL2
|  2> % maxcore 2000
|  3> % output
|  4>     # printlevel mini
|  5>     print[ P_Basis ] 0
|  6>     print[ P_SCFInfo ] 1
|  7>     print[ P_SCFIterInfo ] 1
|  8>     print[ P_OrbEn ] 0
|  9>     print[ P_Cartesian ] 0
| 10> end
| 11> *xyz 0 1
| 12>  C        1.0505570000     0.1253470000    -0.1082950000
| 13>  C        2.5442090000     0.1797920000    -0.0497860000
| 14>  O        3.2561740000    -0.7415840000    -0.8586970000
| 15>  C        3.3530090000     0.6490790000    -1.1781550000
| 16>  C        4.6710320000     1.2650910000    -0.9870160000
| 17>  N        5.0993450000     2.1152960000    -1.8265330000
| 18>  N        6.2796220000     2.7307900000    -1.5876670000
| 19>  H        0.6749410000    -0.7267080000     0.4639890000
| 20>  H        0.7093580000     0.0233850000    -1.1397770000
| 21>  H        0.6182790000     1.0350360000     0.3161700000
| 22>  H        2.9716710000     0.3013330000     0.9466240000
| 23>  H        2.8416240000     0.9493470000    -2.0902350000
| 24>  H        5.2508690000     0.9591190000    -0.1069950000
| 25>  H        6.9307450000     2.2236570000    -0.9952870000
| 26>  H        6.6994660000     3.0527410000    -2.4445500000
| 27> *
| 28>
| 29>                          ****END OF INPUT****
 Total Charge           Charge          ....    0
 Multiplicity           Mult            ....    1
 Number of Electrons    NEL             ....   54
 Basis Dimension        Dim             ....  138

MULLIKEN ATOMIC CHARGES
-----------------------
   0 C :    0.076549
   1 C :   -0.002645
   2 O :   -0.284451
   3 C :    0.089259
   4 C :    0.022636
   5 N :   -0.118399
   6 N :   -0.045801
   7 H :    0.031968
   8 H :    0.015847
   9 H :    0.029665
  10 H :    0.009138
  11 H :    0.004023
  12 H :   -0.035731
  13 H :    0.088920
  14 H :    0.119022
Sum of atomic charges:    0.0000000

LOEWDIN ATOMIC CHARGES
----------------------
   0 C :   -0.066257
   1 C :    0.039455
   2 O :   -0.154201
   3 C :    0.034169
   4 C :   -0.061525
   5 N :   -0.039336
   6 N :    0.011085
   7 H :    0.035127
   8 H :    0.033712
   9 H :    0.036452
  10 H :    0.011717
  11 H :    0.020362
  12 H :   -0.004865
  13 H :    0.042206
  14 H :    0.061896

  Mayer bond orders larger than 0.1
B(  0-C ,  1-C ) :   1.0847 B(  0-C ,  7-H ) :   0.9505 B(  0-C ,  8-H ) :   0.9457
B(  0-C ,  9-H ) :   0.9521 B(  1-C ,  2-O ) :   0.9867 B(  1-C ,  3-C ) :   0.9929
B(  1-C , 10-H ) :   0.9270 B(  2-O ,  3-C ) :   0.9476 B(  3-C ,  4-C ) :   1.0601
B(  3-C , 11-H ) :   0.9363 B(  4-C ,  5-N ) :   1.8292 B(  4-C ,  6-N ) :   0.1313
B(  4-C , 12-H ) :   0.9149 B(  5-N ,  6-N ) :   1.1206 B(  6-N , 13-H ) :   0.9414
B(  6-N , 14-H ) :   0.9611

FINAL SINGLE POINT ENERGY      -341.226350626090

DIPOLE MOMENT
-------------
                                X             Y             Z
Electronic contribution:      3.72076      -0.14402      -2.05225
Nuclear contribution   :     -3.27216       0.53894       2.34326
                        -----------------------------------------
Total Dipole Moment    :      0.44860       0.39492       0.29101
                        -----------------------------------------
Magnitude (a.u.)       :      0.66475
Magnitude (Debye)      :      1.68967

                             ****ORCA TERMINATED NORMALLY****
TOTAL RUN TIME: 0 days 0 hours 0 minutes 6 seconds 723 msec
