                         Program Version 3.0.3 - RELEASE   -
|  1> ! RI PBE def2-SVP def2-SVP/J NBO PAL2
|  2> % maxcore 2000
|  3> % output
|  4>     # printlevel mini
|  5>     print[ P_Basis ] 0
|  6>     print[ P_SCFInfo ] 1
|  7>     print[ P_SCFIterInfo ] 1
|  8>     print[ P_OrbEn ] 0
|  9>     print[ P_Cartesian ] 0
| 10> end
| 11> *xyz 0 1
| 12>  C        1.0958270000    -0.3628060000    -0.0322320000
| 13>  C        2.5297360000    -0.0547980000    -0.3178130000
| 14>  O        2.8921860000     0.1159110000    -1.6827050000
| 15>  C        2.9614290000     1.2505080000    -0.8286060000
| 16>  C        4.3172130000     1.7993690000    -0.5243230000
| 17>  N        5.3378340000     0.9446330000    -0.8096740000
| 18>  N        4.5220750000     2.9375160000     0.0106180000
| 19>  H        0.8796980000    -1.4120120000    -0.2476490000
| 20>  H        0.4368740000     0.2567790000    -0.6427160000
| 21>  H        0.8722170000    -0.1821790000     1.0220840000
| 22>  H        3.2675060000    -0.6141040000     0.2558330000
| 23>  H        2.1994400000     2.0059560000    -1.0105350000
| 24>  H        5.1615190000     0.2497860000    -1.5160630000
| 25>  H        6.2652170000     1.3302230000    -0.7538190000
| 26>  H        3.6417490000     3.4132190000     0.1869090000
| 27> *
| 28>
| 29>                          ****END OF INPUT****
 Total Charge           Charge          ....    0
 Multiplicity           Mult            ....    1
 Number of Electrons    NEL             ....   54
 Basis Dimension        Dim             ....  138

MULLIKEN ATOMIC CHARGES
-----------------------
   0 C :    0.066180
   1 C :    0.015685
   2 O :   -0.276276
   3 C :    0.057152
   4 C :   -0.149816
   5 N :   -0.053477
   6 N :   -0.089941
   7 H :    0.038399
   8 H :    0.019371
   9 H :    0.037603
  10 H :    0.027068
  11 H :    0.006833
  12 H :    0.114220
  13 H :    0.111805
  14 H :    0.075194
Sum of atomic charges:   -0.0000000

LOEWDIN ATOMIC CHARGES
----------------------
   0 C :   -0.067187
   1 C :    0.049905
   2 O :   -0.147426
   3 C :    0.022198
   4 C :   -0.019921
   5 N :    0.005689
   6 N :   -0.176013
   7 H :    0.038313
   8 H :    0.035310
   9 H :    0.040037
  10 H :    0.018252
  11 H :    0.020852
  12 H :    0.065740
  13 H :    0.071901
  14 H :    0.042350

  Mayer bond orders larger than 0.1
B(  0-C ,  1-C ) :   1.0984 B(  0-C ,  7-H ) :   0.9505 B(  0-C ,  8-H ) :   0.9431
B(  0-C ,  9-H ) :   0.9529 B(  1-C ,  2-O ) :   0.9572 B(  1-C ,  3-C ) :   1.0069
B(  1-C , 10-H ) :   0.9223 B(  2-O ,  3-C ) :   0.9956 B(  3-C ,  4-C ) :   0.9551
B(  3-C , 11-H ) :   0.9281 B(  4-C ,  5-N ) :   1.2766 B(  4-C ,  6-N ) :   1.9506
B(  5-N , 12-H ) :   0.9214 B(  5-N , 13-H ) :   0.9403 B(  6-N , 14-H ) :   0.9262

FINAL SINGLE POINT ENERGY      -341.269600295673

DIPOLE MOMENT
-------------
                                X             Y             Z
Electronic contribution:      3.51722       1.61964      -2.02601
Nuclear contribution   :     -4.02762      -2.23206       2.04280
                        -----------------------------------------
Total Dipole Moment    :     -0.51040      -0.61242       0.01679
                        -----------------------------------------
Magnitude (a.u.)       :      0.79740
Magnitude (Debye)      :      2.02682

                             ****ORCA TERMINATED NORMALLY****
TOTAL RUN TIME: 0 days 0 hours 0 minutes 7 seconds 359 msec
