                         Program Version 3.0.3 - RELEASE   -
|  1> ! RI PBE def2-SVP def2-SVP/J NBO PAL2
|  2> % maxcore 2000
|  3> % output
|  4>     # printlevel mini
|  5>     print[ P_Basis ] 0
|  6>     print[ P_SCFInfo ] 1
|  7>     print[ P_SCFIterInfo ] 1
|  8>     print[ P_OrbEn ] 0
|  9>     print[ P_Cartesian ] 0
| 10> end
| 11> *xyz 0 1
| 12>  C        0.9374890000     0.3940350000    -0.1659380000
| 13>  C        2.4156430000     0.5628150000    -0.0148190000
| 14>  O        3.1901640000    -0.6290630000     0.0824710000
| 15>  C        3.3509740000     0.1962390000    -1.0708140000
| 16>  C        4.6678040000     0.8487780000    -1.2299790000
| 17>  N        4.8288920000     2.0450400000    -0.8492220000
| 18>  O        6.1168090000     2.4843670000    -1.0609580000
| 19>  H        0.4836400000     0.1322640000     0.7928740000
| 20>  H        0.7066150000    -0.3966310000    -0.8819350000
| 21>  H        0.4822220000     1.3255620000    -0.5115890000
| 22>  H        2.7407690000     1.3455770000     0.6670440000
| 23>  H        2.9501880000    -0.2504180000    -1.9809580000
| 24>  H        5.4902480000     0.2860240000    -1.6754650000
| 25>  H        6.0981440000     3.3882130000    -0.7336010000
| 26> *
| 27>
| 28>                          ****END OF INPUT****
 Total Charge           Charge          ....    0
 Multiplicity           Mult            ....    1
 Number of Electrons    NEL             ....   54
 Basis Dimension        Dim             ....  133

MULLIKEN ATOMIC CHARGES
-----------------------
   0 C :    0.068796
   1 C :   -0.018356
   2 O :   -0.282410
   3 C :    0.104688
   4 C :    0.018881
   5 N :   -0.039694
   6 O :   -0.167588
   7 H :    0.033867
   8 H :    0.016679
   9 H :    0.033347
  10 H :    0.025569
  11 H :    0.020850
  12 H :    0.010364
  13 H :    0.175007
Sum of atomic charges:   -0.0000000

LOEWDIN ATOMIC CHARGES
----------------------
   0 C :   -0.067902
   1 C :    0.045389
   2 O :   -0.151374
   3 C :    0.028056
   4 C :   -0.041631
   5 N :   -0.000795
   6 O :   -0.044492
   7 H :    0.036665
   8 H :    0.033104
   9 H :    0.037945
  10 H :    0.018102
  11 H :    0.019640
  12 H :    0.010679
  13 H :    0.076613

  Mayer bond orders larger than 0.1
B(  0-C ,  1-C ) :   1.0846 B(  0-C ,  7-H ) :   0.9499 B(  0-C ,  8-H ) :   0.9445
B(  0-C ,  9-H ) :   0.9524 B(  1-C ,  2-O ) :   0.9869 B(  1-C ,  3-C ) :   1.0608
B(  1-C , 10-H ) :   0.9275 B(  2-O ,  3-C ) :   0.9538 B(  3-C ,  4-C ) :   1.0085
B(  3-C , 11-H ) :   0.9076 B(  4-C ,  5-N ) :   1.9031 B(  4-C ,  6-O ) :   0.1186
B(  4-C , 12-H ) :   0.9400 B(  5-N ,  6-O ) :   1.0009 B(  6-O , 13-H ) :   0.9744

FINAL SINGLE POINT ENERGY      -361.044796776750

DIPOLE MOMENT
-------------
                                X             Y             Z
Electronic contribution:      6.14927       0.90297      -0.23971
Nuclear contribution   :     -6.36296      -0.25402      -0.04545
                        -----------------------------------------
Total Dipole Moment    :     -0.21369       0.64896      -0.28516
                        -----------------------------------------
Magnitude (a.u.)       :      0.74036
Magnitude (Debye)      :      1.88184

                             ****ORCA TERMINATED NORMALLY****
TOTAL RUN TIME: 0 days 0 hours 0 minutes 6 seconds 40 msec
