                         Program Version 3.0.3 - RELEASE   -
|  1> ! RI PBE def2-SVP def2-SVP/J NBO PAL2
|  2> % maxcore 2000
|  3> % output
|  4>     # printlevel mini
|  5>     print[ P_Basis ] 0
|  6>     print[ P_SCFInfo ] 1
|  7>     print[ P_SCFIterInfo ] 1
|  8>     print[ P_OrbEn ] 0
|  9>     print[ P_Cartesian ] 0
| 10> end
| 11> *xyz 0 1
| 12>  C        1.0965210000    -0.1187190000     0.0507950000
| 13>  C        2.5395550000     0.1473830000    -0.2289620000
| 14>  O        2.9942950000    -0.0809620000    -1.5578330000
| 15>  C        2.9760120000     1.2574850000    -1.0805950000
| 16>  C        4.2964060000     1.9316460000    -0.8473660000
| 17>  N        5.3661160000     1.1228260000    -1.0018570000
| 18>  O        4.3500370000     3.0986100000    -0.5218680000
| 19>  H        0.9187000000    -1.1916280000     0.1561180000
| 20>  H        0.4699100000     0.2582180000    -0.7588240000
| 21>  H        0.7972000000     0.3672190000     0.9824750000
| 22>  H        3.2446440000    -0.1881480000     0.5309740000
| 23>  H        2.2222020000     1.9089430000    -1.5145580000
| 24>  H        5.2393510000     0.2063770000    -1.3961380000
| 25>  H        6.2867600000     1.5120290000    -0.9008420000
| 26> *
| 27>
| 28>                          ****END OF INPUT****
 Total Charge           Charge          ....    0
 Multiplicity           Mult            ....    1
 Number of Electrons    NEL             ....   54
 Basis Dimension        Dim             ....  133

MULLIKEN ATOMIC CHARGES
-----------------------
   0 C :    0.063288
   1 C :    0.003688
   2 O :   -0.279746
   3 C :    0.040986
   4 C :    0.036419
   5 N :   -0.058777
   6 O :   -0.200007
   7 H :    0.038583
   8 H :    0.024915
   9 H :    0.039294
  10 H :    0.024957
  11 H :    0.026408
  12 H :    0.122337
  13 H :    0.117654
Sum of atomic charges:   -0.0000000

LOEWDIN ATOMIC CHARGES
----------------------
   0 C :   -0.066491
   1 C :    0.053541
   2 O :   -0.151306
   3 C :    0.021768
   4 C :    0.005075
   5 N :    0.019083
   6 O :   -0.187707
   7 H :    0.038163
   8 H :    0.037201
   9 H :    0.041668
  10 H :    0.016799
  11 H :    0.027652
  12 H :    0.070296
  13 H :    0.074259

  Mayer bond orders larger than 0.1
B(  0-C ,  1-C ) :   1.1004 B(  0-C ,  7-H ) :   0.9510 B(  0-C ,  8-H ) :   0.9444
B(  0-C ,  9-H ) :   0.9514 B(  1-C ,  2-O ) :   0.9647 B(  1-C ,  3-C ) :   1.0155
B(  1-C , 10-H ) :   0.9271 B(  2-O ,  3-C ) :   0.9867 B(  3-C ,  4-C ) :   0.9221
B(  3-C , 11-H ) :   0.9240 B(  4-C ,  5-N ) :   1.2751 B(  4-C ,  6-O ) :   2.1058
B(  5-N ,  6-O ) :   0.1017 B(  5-N , 12-H ) :   0.9214 B(  5-N , 13-H ) :   0.9386

FINAL SINGLE POINT ENERGY      -361.135873694830

DIPOLE MOMENT
-------------
                                X             Y             Z
Electronic contribution:      4.30616       3.12373      -2.03151
Nuclear contribution   :     -4.26848      -4.14649       2.17429
                        -----------------------------------------
Total Dipole Moment    :      0.03768      -1.02277       0.14279
                        -----------------------------------------
Magnitude (a.u.)       :      1.03337
Magnitude (Debye)      :      2.62662

                             ****ORCA TERMINATED NORMALLY****
TOTAL RUN TIME: 0 days 0 hours 0 minutes 6 seconds 345 msec
