                         Program Version 3.0.3 - RELEASE   -
|  1> ! RI PBE def2-SVP def2-SVP/J NBO PAL2
|  2> % maxcore 2000
|  3> % output
|  4>     # printlevel mini
|  5>     print[ P_Basis ] 0
|  6>     print[ P_SCFInfo ] 1
|  7>     print[ P_SCFIterInfo ] 1
|  8>     print[ P_OrbEn ] 0
|  9>     print[ P_Cartesian ] 0
| 10> end
| 11> *xyz 0 1
| 12>  C        0.9285780000     0.0034880000     0.1365360000
| 13>  C        2.4022360000    -0.2107380000    -0.0597370000
| 14>  O        3.1987790000     0.8861900000     0.4397360000
| 15>  C        4.0425870000    -0.0080830000     1.1720870000
| 16>  C        3.1432970000    -1.2030120000     0.8480350000
| 17>  C        3.7743410000    -2.4107560000     0.2015740000
| 18>  N        2.7452070000    -3.3156500000    -0.2877950000
| 19>  H        0.5918070000     0.8802150000    -0.4219890000
| 20>  H        0.6971320000     0.1602530000     1.1929210000
| 21>  H        0.3760100000    -0.8680190000    -0.2236330000
| 22>  H        2.6219880000    -0.3886320000    -1.1211680000
| 23>  H        4.1331930000     0.2804770000     2.2234570000
| 24>  H        5.0469770000    -0.0729880000     0.7331250000
| 25>  H        2.5287560000    -1.5075290000     1.7016780000
| 26>  H        4.4786770000    -2.8746180000     0.9118560000
| 27>  H        4.3693870000    -2.0800010000    -0.6567220000
| 28>  H        2.2258670000    -3.7131860000     0.4859640000
| 29>  H        3.1546890000    -4.0886120000    -0.7965260000
| 30> *
| 31>
| 32>                          ****END OF INPUT****
 Total Charge           Charge          ....    0
 Multiplicity           Mult            ....    1
 Number of Electrons    NEL             ....   56
 Basis Dimension        Dim             ....  153

MULLIKEN ATOMIC CHARGES
-----------------------
   0 C :    0.060226
   1 C :    0.102397
   2 O :   -0.356521
   3 C :    0.269537
   4 C :   -0.227474
   5 C :    0.142496
   6 N :   -0.211473
   7 H :    0.026615
   8 H :    0.004165
   9 H :    0.023476
  10 H :   -0.005062
  11 H :    0.008171
  12 H :   -0.009849
  13 H :   -0.003246
  14 H :   -0.001489
  15 H :   -0.002406
  16 H :    0.088568
  17 H :    0.091867
Sum of atomic charges:   -0.0000000

LOEWDIN ATOMIC CHARGES
----------------------
   0 C :   -0.071344
   1 C :    0.072586
   2 O :   -0.185220
   3 C :    0.088104
   4 C :   -0.060109
   5 C :    0.006938
   6 N :   -0.110763
   7 H :    0.032983
   8 H :    0.023021
   9 H :    0.033801
  10 H :    0.010206
  11 H :    0.008708
  12 H :    0.004590
  13 H :    0.020964
  14 H :    0.000886
  15 H :    0.018984
  16 H :    0.051017
  17 H :    0.054648

  Mayer bond orders larger than 0.1
B(  0-C ,  1-C ) :   1.0984 B(  0-C ,  7-H ) :   0.9494 B(  0-C ,  8-H ) :   0.9451
B(  0-C ,  9-H ) :   0.9487 B(  1-C ,  2-O ) :   1.0324 B(  1-C ,  4-C ) :   1.0458
B(  1-C , 10-H ) :   0.9066 B(  2-O ,  3-C ) :   1.0384 B(  3-C ,  4-C ) :   1.0830
B(  3-C , 11-H ) :   0.9335 B(  3-C , 12-H ) :   0.9220 B(  4-C ,  5-C ) :   1.0466
B(  4-C , 13-H ) :   0.9025 B(  5-C ,  6-N ) :   1.0920 B(  5-C , 14-H ) :   0.9224
B(  5-C , 15-H ) :   0.9139 B(  6-N , 16-H ) :   0.9679 B(  6-N , 17-H ) :   0.9642

FINAL SINGLE POINT ENERGY      -326.428275964860

DIPOLE MOMENT
-------------
                                X             Y             Z
Electronic contribution:      1.55912       2.83998       0.05223
Nuclear contribution   :     -1.40615      -3.92479       0.24029
                        -----------------------------------------
Total Dipole Moment    :      0.15297      -1.08481       0.29252
                        -----------------------------------------
Magnitude (a.u.)       :      1.13392
Magnitude (Debye)      :      2.88220

                             ****ORCA TERMINATED NORMALLY****
TOTAL RUN TIME: 0 days 0 hours 0 minutes 7 seconds 689 msec
