                         Program Version 3.0.3 - RELEASE   -
|  1> ! RI PBE def2-SVP def2-SVP/J NBO PAL2
|  2> % maxcore 2000
|  3> % output
|  4>     # printlevel mini
|  5>     print[ P_Basis ] 0
|  6>     print[ P_SCFInfo ] 1
|  7>     print[ P_SCFIterInfo ] 1
|  8>     print[ P_OrbEn ] 0
|  9>     print[ P_Cartesian ] 0
| 10> end
| 11> *xyz 0 1
| 12>  C        0.9765050000     0.1546980000    -0.1150570000
| 13>  C        2.4698720000     0.0910180000     0.0202410000
| 14>  O        2.9307610000     0.2562320000     1.3306050000
| 15>  C        3.2733810000    -0.8081420000    -0.8758120000
| 16>  C        3.3367040000     0.6898650000    -1.0374330000
| 17>  C        4.5954450000     1.4363240000    -0.6991830000
| 18>  N        4.3322270000     2.8659470000    -0.5993830000
| 19>  H        0.4967500000    -0.6538230000     0.4466790000
| 20>  H        0.6723750000     0.0602310000    -1.1596010000
| 21>  H        0.6055710000     1.1070430000     0.2708690000
| 22>  H        2.7170210000    -0.5429750000     1.8202320000
| 23>  H        2.7652130000    -1.3996430000    -1.6283680000
| 24>  H        4.1408880000    -1.2811300000    -0.4286110000
| 25>  H        2.7992800000     1.0907180000    -1.8936070000
| 26>  H        5.3684460000     1.1817180000    -1.4424880000
| 27>  H        4.9549750000     1.0895390000     0.2719760000
| 28>  H        4.1436400000     3.2557130000    -1.5152470000
| 29>  H        5.1426470000     3.3511690000    -0.2362240000
| 30> *
| 31>
| 32>                          ****END OF INPUT****
 Total Charge           Charge          ....    0
 Multiplicity           Mult            ....    1
 Number of Electrons    NEL             ....   56
 Basis Dimension        Dim             ....  153

MULLIKEN ATOMIC CHARGES
-----------------------
   0 C :    0.106550
   1 C :   -0.099562
   2 O :   -0.231328
   3 C :    0.025226
   4 C :   -0.137433
   5 C :    0.170756
   6 N :   -0.207195
   7 H :    0.003875
   8 H :   -0.002327
   9 H :    0.030021
  10 H :    0.155652
  11 H :    0.016708
  12 H :    0.014409
  13 H :    0.005516
  14 H :   -0.011030
  15 H :   -0.006839
  16 H :    0.081040
  17 H :    0.085960
Sum of atomic charges:   -0.0000000

LOEWDIN ATOMIC CHARGES
----------------------
   0 C :   -0.059802
   1 C :    0.010024
   2 O :   -0.085249
   3 C :   -0.060911
   4 C :   -0.048711
   5 C :    0.012127
   6 N :   -0.110113
   7 H :    0.022206
   8 H :    0.027685
   9 H :    0.033048
  10 H :    0.071502
  11 H :    0.022478
  12 H :    0.025922
  13 H :    0.022682
  14 H :   -0.000820
  15 H :    0.020559
  16 H :    0.046251
  17 H :    0.051122

  Mayer bond orders larger than 0.1
B(  0-C ,  1-C ) :   1.0827 B(  0-C ,  7-H ) :   0.9472 B(  0-C ,  8-H ) :   0.9344
B(  0-C ,  9-H ) :   0.9548 B(  1-C ,  2-O ) :   1.0887 B(  1-C ,  3-C ) :   0.9803
B(  1-C ,  4-C ) :   0.9254 B(  2-O , 10-H ) :   0.9792 B(  3-C ,  4-C ) :   0.9637
B(  3-C , 11-H ) :   0.9300 B(  3-C , 12-H ) :   0.9248 B(  4-C ,  5-C ) :   1.0671
B(  4-C , 13-H ) :   0.9315 B(  5-C ,  6-N ) :   1.0930 B(  5-C , 14-H ) :   0.9208
B(  5-C , 15-H ) :   0.9068 B(  6-N , 16-H ) :   0.9693 B(  6-N , 17-H ) :   0.9642

FINAL SINGLE POINT ENERGY      -326.429476063694

DIPOLE MOMENT
-------------
                                X             Y             Z
Electronic contribution:      0.78311      -0.02003       2.25622
Nuclear contribution   :     -0.68687      -0.36150      -2.56605
                        -----------------------------------------
Total Dipole Moment    :      0.09624      -0.38153      -0.30983
                        -----------------------------------------
Magnitude (a.u.)       :      0.50082
Magnitude (Debye)      :      1.27299

                             ****ORCA TERMINATED NORMALLY****
TOTAL RUN TIME: 0 days 0 hours 0 minutes 7 seconds 963 msec
