                         Program Version 3.0.3 - RELEASE   -
|  1> ! RI PBE def2-SVP def2-SVP/J NBO PAL2
|  2> % maxcore 2000
|  3> % output
|  4>     # printlevel mini
|  5>     print[ P_Basis ] 0
|  6>     print[ P_SCFInfo ] 1
|  7>     print[ P_SCFIterInfo ] 1
|  8>     print[ P_OrbEn ] 0
|  9>     print[ P_Cartesian ] 0
| 10> end
| 11> *xyz 0 1
| 12>  C        0.9988420000     0.1559440000     0.0006490000
| 13>  C        2.4921680000    -0.0022140000    -0.0120610000
| 14>  O        3.1816070000     1.0064240000     0.7437560000
| 15>  C        4.1344600000     0.0438590000     1.2100950000
| 16>  C        3.2293050000    -1.1203360000     0.7834160000
| 17>  C        2.4333240000    -1.6936310000     1.9352240000
| 18>  N        3.8895740000    -2.1882030000     0.0775540000
| 19>  H        0.7180830000     1.0978540000    -0.4770180000
| 20>  H        0.6049460000     0.1602670000     1.0178810000
| 21>  H        0.5246570000    -0.6560770000    -0.5577650000
| 22>  H        2.8571650000     0.0001790000    -1.0527730000
| 23>  H        4.3515430000     0.1541790000     2.2762670000
| 24>  H        5.0712940000     0.0880570000     0.6390290000
| 25>  H        1.9927540000    -0.9014140000     2.5421210000
| 26>  H        3.0894070000    -2.2932110000     2.5698480000
| 27>  H        1.6232110000    -2.3364910000     1.5772160000
| 28>  H        4.3217480000    -1.8569100000    -0.7764260000
| 29>  H        3.2400210000    -2.9250670000    -0.1684220000
| 30> *
| 31>
| 32>                          ****END OF INPUT****
 Total Charge           Charge          ....    0
 Multiplicity           Mult            ....    1
 Number of Electrons    NEL             ....   56
 Basis Dimension        Dim             ....  153

MULLIKEN ATOMIC CHARGES
-----------------------
   0 C :    0.075587
   1 C :    0.132985
   2 O :   -0.346488
   3 C :    0.318837
   4 C :   -0.379607
   5 C :    0.068911
   6 N :   -0.111853
   7 H :    0.029517
   8 H :    0.008698
   9 H :    0.016182
  10 H :   -0.036572
  11 H :    0.002651
  12 H :   -0.017913
  13 H :    0.023940
  14 H :    0.032469
  15 H :    0.015417
  16 H :    0.081803
  17 H :    0.085435
Sum of atomic charges:   -0.0000000

LOEWDIN ATOMIC CHARGES
----------------------
   0 C :   -0.072418
   1 C :    0.047895
   2 O :   -0.177430
   3 C :    0.088220
   4 C :   -0.043606
   5 C :   -0.054033
   6 N :   -0.081529
   7 H :    0.035891
   8 H :    0.026584
   9 H :    0.032183
  10 H :   -0.001163
  11 H :    0.009670
  12 H :    0.003790
  13 H :    0.030429
  14 H :    0.032285
  15 H :    0.023984
  16 H :    0.047350
  17 H :    0.051898

  Mayer bond orders larger than 0.1
B(  0-C ,  1-C ) :   1.1214 B(  0-C ,  7-H ) :   0.9440 B(  0-C ,  8-H ) :   0.9352
B(  0-C ,  9-H ) :   0.9462 B(  1-C ,  2-O ) :   1.0366 B(  1-C ,  4-C ) :   0.9601
B(  1-C , 10-H ) :   0.8890 B(  2-O ,  3-C ) :   1.0282 B(  3-C ,  4-C ) :   1.0328
B(  3-C , 11-H ) :   0.9307 B(  3-C , 12-H ) :   0.9150 B(  4-C ,  5-C ) :   1.0598
B(  4-C ,  6-N ) :   1.1113 B(  5-C , 13-H ) :   0.9449 B(  5-C , 14-H ) :   0.9504
B(  5-C , 15-H ) :   0.9448 B(  6-N , 16-H ) :   0.9485 B(  6-N , 17-H ) :   0.9632

FINAL SINGLE POINT ENERGY      -326.434682270891

DIPOLE MOMENT
-------------
                                X             Y             Z
Electronic contribution:      2.98887       2.59952      -0.57529
Nuclear contribution   :     -3.30718      -3.20492       0.21263
                        -----------------------------------------
Total Dipole Moment    :     -0.31830      -0.60540      -0.36266
                        -----------------------------------------
Magnitude (a.u.)       :      0.77418
Magnitude (Debye)      :      1.96781

                             ****ORCA TERMINATED NORMALLY****
TOTAL RUN TIME: 0 days 0 hours 0 minutes 7 seconds 856 msec
