                         Program Version 3.0.3 - RELEASE   -
|  1> ! RI PBE def2-SVP def2-SVP/J NBO PAL2
|  2> % maxcore 2000
|  3> % output
|  4>     # printlevel mini
|  5>     print[ P_Basis ] 0
|  6>     print[ P_SCFInfo ] 1
|  7>     print[ P_SCFIterInfo ] 1
|  8>     print[ P_OrbEn ] 0
|  9>     print[ P_Cartesian ] 0
| 10> end
| 11> *xyz 0 1
| 12>  C        1.0408430000    -0.0220800000     0.0175980000
| 13>  C        2.5306340000    -0.1601390000    -0.0770710000
| 14>  O        3.2471650000     0.8802580000     0.6086380000
| 15>  C        4.1423450000    -0.0624210000     1.1998230000
| 16>  C        3.2329060000    -1.2333910000     0.7889220000
| 17>  C        3.8250240000    -2.3707390000     0.1253170000
| 18>  N        4.3010390000    -3.2662330000    -0.4175630000
| 19>  H        0.7176980000     0.8934520000    -0.4824920000
| 20>  H        0.7198810000     0.0225430000     1.0604050000
| 21>  H        0.5510520000    -0.8683440000    -0.4707850000
| 22>  H        2.8555420000    -0.2205420000    -1.1234000000
| 23>  H        4.2718660000     0.0998050000     2.2714720000
| 24>  H        5.1178130000    -0.0756000000     0.7027930000
| 25>  H        2.5951020000    -1.5732880000     1.6072360000
| 26> *
| 27>
| 28>                          ****END OF INPUT****
 Total Charge           Charge          ....    0
 Multiplicity           Mult            ....    1
 Number of Electrons    NEL             ....   52
 Basis Dimension        Dim             ....  133

MULLIKEN ATOMIC CHARGES
-----------------------
   0 C :    0.060082
   1 C :    0.101569
   2 O :   -0.341704
   3 C :    0.278113
   4 C :   -0.266182
   5 C :   -0.127905
   6 N :    0.073806
   7 H :    0.043975
   8 H :    0.016810
   9 H :    0.037169
  10 H :    0.017008
  11 H :    0.033549
  12 H :    0.020168
  13 H :    0.053541
Sum of atomic charges:    0.0000000

LOEWDIN ATOMIC CHARGES
----------------------
   0 C :   -0.066836
   1 C :    0.085667
   2 O :   -0.169572
   3 C :    0.108332
   4 C :   -0.076611
   5 C :   -0.048455
   6 N :   -0.056964
   7 H :    0.041733
   8 H :    0.029098
   9 H :    0.040668
  10 H :    0.019078
  11 H :    0.019999
  12 H :    0.017762
  13 H :    0.056100

  Mayer bond orders larger than 0.1
B(  0-C ,  1-C ) :   1.1053 B(  0-C ,  7-H ) :   0.9492 B(  0-C ,  8-H ) :   0.9452
B(  0-C ,  9-H ) :   0.9478 B(  1-C ,  2-O ) :   1.0268 B(  1-C ,  4-C ) :   1.0396
B(  1-C , 10-H ) :   0.9148 B(  2-O ,  3-C ) :   1.0269 B(  3-C ,  4-C ) :   1.0857
B(  3-C , 11-H ) :   0.9387 B(  3-C , 12-H ) :   0.9300 B(  4-C ,  5-C ) :   1.0488
B(  4-C , 13-H ) :   0.8655 B(  5-C ,  6-N ) :   3.0594

FINAL SINGLE POINT ENERGY      -324.025266873739

DIPOLE MOMENT
-------------
                                X             Y             Z
Electronic contribution:      4.26390      -3.17275      -0.60021
Nuclear contribution   :     -4.93557       3.78090       1.17006
                        -----------------------------------------
Total Dipole Moment    :     -0.67167       0.60815       0.56985
                        -----------------------------------------
Magnitude (a.u.)       :      1.07038
Magnitude (Debye)      :      2.72070

                             ****ORCA TERMINATED NORMALLY****
TOTAL RUN TIME: 0 days 0 hours 0 minutes 5 seconds 777 msec
