                         Program Version 3.0.3 - RELEASE   -
|  1> ! RI PBE def2-SVP def2-SVP/J NBO PAL2
|  2> % maxcore 2000
|  3> % output
|  4>     # printlevel mini
|  5>     print[ P_Basis ] 0
|  6>     print[ P_SCFInfo ] 1
|  7>     print[ P_SCFIterInfo ] 1
|  8>     print[ P_OrbEn ] 0
|  9>     print[ P_Cartesian ] 0
| 10> end
| 11> *xyz 0 1
| 12>  C        1.0222570000     0.4253830000     0.4325080000
| 13>  C        2.2529090000    -0.1707400000    -0.2054960000
| 14>  O        1.9028220000    -1.4117560000    -0.8088730000
| 15>  C        2.8513250000    -1.6953960000    -1.8203820000
| 16>  C        3.2617540000    -0.3502470000    -2.3634000000
| 17>  N        2.1866020000     0.5979790000    -2.6106220000
| 18>  C        2.8768480000     0.6273600000    -1.3300310000
| 19>  H        0.5978530000    -0.2673840000     1.1611390000
| 20>  H        0.2611120000     0.6420580000    -0.3203120000
| 21>  H        1.2747830000     1.3549640000     0.9470700000
| 22>  H        3.0263540000    -0.3352690000     0.5628360000
| 23>  H        2.3690730000    -2.3487160000    -2.5529000000
| 24>  H        3.7303030000    -2.2168150000    -1.4127890000
| 25>  H        4.1475580000    -0.2608420000    -2.9817740000
| 26>  H        1.2857980000     0.1354210000    -2.5119200000
| 27>  H        3.4477500000     1.5205010000    -1.1019450000
| 28> *
| 29>
| 30>                          ****END OF INPUT****
 Total Charge           Charge          ....    0
 Multiplicity           Mult            ....    1
 Number of Electrons    NEL             ....   54
 Basis Dimension        Dim             ....  143

MULLIKEN ATOMIC CHARGES
-----------------------
   0 C :    0.057032
   1 C :    0.109258
   2 O :   -0.349556
   3 C :    0.287169
   4 C :   -0.145864
   5 N :   -0.124362
   6 C :   -0.081576
   7 H :    0.035448
   8 H :    0.014979
   9 H :    0.020133
  10 H :   -0.000405
  11 H :    0.025253
  12 H :    0.003104
  13 H :    0.026400
  14 H :    0.104170
  15 H :    0.018818
Sum of atomic charges:    0.0000000

LOEWDIN ATOMIC CHARGES
----------------------
   0 C :   -0.065253
   1 C :    0.042963
   2 O :   -0.151564
   3 C :    0.060122
   4 C :   -0.023426
   5 N :   -0.080838
   6 C :   -0.014541
   7 H :    0.034364
   8 H :    0.027808
   9 H :    0.033705
  10 H :    0.012541
  11 H :    0.022321
  12 H :    0.011644
  13 H :    0.021983
  14 H :    0.046636
  15 H :    0.021535

  Mayer bond orders larger than 0.1
B(  0-C ,  1-C ) :   1.0899 B(  0-C ,  7-H ) :   0.9535 B(  0-C ,  8-H ) :   0.9500
B(  0-C ,  9-H ) :   0.9510 B(  1-C ,  2-O ) :   0.9993 B(  1-C ,  6-C ) :   1.0025
B(  1-C , 10-H ) :   0.8953 B(  2-O ,  3-C ) :   1.0135 B(  3-C ,  4-C ) :   1.0290
B(  3-C , 11-H ) :   0.9301 B(  3-C , 12-H ) :   0.9127 B(  4-C ,  5-N ) :   1.0094
B(  4-C ,  6-C ) :   0.9925 B(  4-C , 13-H ) :   0.9416 B(  5-N ,  6-C ) :   1.0147
B(  5-N , 14-H ) :   0.9365 B(  6-C , 15-H ) :   0.9481

FINAL SINGLE POINT ENERGY      -325.231963575392

DIPOLE MOMENT
-------------
                                X             Y             Z
Electronic contribution:      0.89589      -0.99586      -2.31560
Nuclear contribution   :     -0.58963       0.87559       2.62581
                        -----------------------------------------
Total Dipole Moment    :      0.30626      -0.12027       0.31021
                        -----------------------------------------
Magnitude (a.u.)       :      0.45221
Magnitude (Debye)      :      1.14942

                             ****ORCA TERMINATED NORMALLY****
TOTAL RUN TIME: 0 days 0 hours 0 minutes 7 seconds 372 msec
