                         Program Version 3.0.3 - RELEASE   -
|  1> ! RI PBE def2-SVP def2-SVP/J NBO PAL2
|  2> % maxcore 2000
|  3> % output
|  4>     # printlevel mini
|  5>     print[ P_Basis ] 0
|  6>     print[ P_SCFInfo ] 1
|  7>     print[ P_SCFIterInfo ] 1
|  8>     print[ P_OrbEn ] 0
|  9>     print[ P_Cartesian ] 0
| 10> end
| 11> *xyz 0 1
| 12>  C        1.1714010000     0.0518690000     0.1882180000
| 13>  C        2.3543790000    -0.0539140000    -0.4041760000
| 14>  O        2.7038780000    -1.1342020000    -1.1669360000
| 15>  C        4.1244560000    -1.2101040000    -1.2700080000
| 16>  C        4.6300750000     0.1733340000    -0.9659180000
| 17>  N        4.0239630000     1.2635440000    -1.6985070000
| 18>  C        3.4776590000     0.9043910000    -0.3880180000
| 19>  H        0.4450330000    -0.7478480000     0.1371690000
| 20>  H        0.9170960000     0.9570970000     0.7211200000
| 21>  H        4.3666500000    -1.5600950000    -2.2770810000
| 22>  H        4.5133070000    -1.9314100000    -0.5416300000
| 23>  H        5.6520380000     0.3125910000    -0.6336200000
| 24>  H        3.4201900000     0.9173070000    -2.4396890000
| 25>  H        3.5492740000     1.6496310000     0.3931740000
| 26> *
| 27>
| 28>                          ****END OF INPUT****
 Total Charge           Charge          ....    0
 Multiplicity           Mult            ....    1
 Number of Electrons    NEL             ....   52
 Basis Dimension        Dim             ....  133

MULLIKEN ATOMIC CHARGES
-----------------------
   0 C :   -0.104528
   1 C :    0.141435
   2 O :   -0.285613
   3 C :    0.292213
   4 C :   -0.124608
   5 N :   -0.112382
   6 C :   -0.054281
   7 H :    0.021056
   8 H :    0.011767
   9 H :    0.027106
  10 H :    0.025831
  11 H :    0.030349
  12 H :    0.109203
  13 H :    0.022451
Sum of atomic charges:   -0.0000000

LOEWDIN ATOMIC CHARGES
----------------------
   0 C :   -0.130507
   1 C :    0.015057
   2 O :   -0.089013
   3 C :    0.072899
   4 C :   -0.015525
   5 N :   -0.068786
   6 C :   -0.003047
   7 H :    0.030604
   8 H :    0.030487
   9 H :    0.024651
  10 H :    0.022922
  11 H :    0.026687
  12 H :    0.054247
  13 H :    0.029324

  Mayer bond orders larger than 0.1
B(  0-C ,  1-C ) :   1.9220 B(  0-C ,  7-H ) :   0.9186 B(  0-C ,  8-H ) :   0.9289
B(  1-C ,  2-O ) :   1.0971 B(  1-C ,  6-C ) :   0.9647 B(  2-O ,  3-C ) :   0.9821
B(  3-C ,  4-C ) :   1.0453 B(  3-C ,  9-H ) :   0.9269 B(  3-C , 10-H ) :   0.9207
B(  4-C ,  5-N ) :   1.0116 B(  4-C ,  6-C ) :   0.9578 B(  4-C , 11-H ) :   0.9317
B(  5-N ,  6-C ) :   0.9857 B(  5-N , 12-H ) :   0.9407 B(  6-C , 13-H ) :   0.9603

FINAL SINGLE POINT ENERGY      -324.017987326309

DIPOLE MOMENT
-------------
                                X             Y             Z
Electronic contribution:      0.10722      -0.06226      -1.04346
Nuclear contribution   :      0.35317      -0.22023       1.13089
                        -----------------------------------------
Total Dipole Moment    :      0.46038      -0.28249       0.08742
                        -----------------------------------------
Magnitude (a.u.)       :      0.54717
Magnitude (Debye)      :      1.39080

                             ****ORCA TERMINATED NORMALLY****
TOTAL RUN TIME: 0 days 0 hours 0 minutes 6 seconds 586 msec
