                         Program Version 3.0.3 - RELEASE   -
|  1> ! RI PBE def2-SVP def2-SVP/J NBO PAL2
|  2> % maxcore 2000
|  3> % output
|  4>     # printlevel mini
|  5>     print[ P_Basis ] 0
|  6>     print[ P_SCFInfo ] 1
|  7>     print[ P_SCFIterInfo ] 1
|  8>     print[ P_OrbEn ] 0
|  9>     print[ P_Cartesian ] 0
| 10> end
| 11> *xyz 0 1
| 12>  C        1.0122160000    -0.0462480000     0.0597960000
| 13>  C        2.4772820000     0.1383140000     0.0561660000
| 14>  C        3.2847140000     1.2372070000     0.0581830000
| 15>  N        2.9235500000     2.5634540000     0.0645080000
| 16>  C        4.6293020000     0.7451230000     0.0521600000
| 17>  C        4.5346360000    -0.6040920000     0.0469860000
| 18>  O        3.2498700000    -0.9934960000     0.0492690000
| 19>  H        0.5098620000     0.9229350000     0.0648670000
| 20>  H        0.6712500000    -0.5978910000     0.9420360000
| 21>  H        0.6660910000    -0.5912920000    -0.8245300000
| 22>  H        1.9634760000     2.8409710000     0.0697740000
| 23>  H        3.6208260000     3.2785760000     0.0664410000
| 24>  H        5.5376210000     1.3278110000     0.0517690000
| 25>  H        5.2737230000    -1.3882720000     0.0415870000
| 26> *
| 27>
| 28>                          ****END OF INPUT****
 Total Charge           Charge          ....    0
 Multiplicity           Mult            ....    1
 Number of Electrons    NEL             ....   52
 Basis Dimension        Dim             ....  133

MULLIKEN ATOMIC CHARGES
-----------------------
   0 C :    0.099814
   1 C :   -0.118403
   2 C :    0.002366
   3 N :   -0.064095
   4 C :   -0.060054
   5 C :    0.114632
   6 O :   -0.183731
   7 H :   -0.001795
   8 H :    0.030472
   9 H :    0.030436
  10 H :    0.093540
  11 H :    0.103278
  12 H :   -0.042486
  13 H :   -0.003975
Sum of atomic charges:   -0.0000000

LOEWDIN ATOMIC CHARGES
----------------------
   0 C :   -0.067217
   1 C :   -0.062335
   2 C :   -0.041745
   3 N :   -0.024303
   4 C :   -0.109600
   5 C :    0.008735
   6 O :    0.018891
   7 H :    0.033497
   8 H :    0.036287
   9 H :    0.036294
  10 H :    0.063200
  11 H :    0.067612
  12 H :    0.023678
  13 H :    0.017007

  Mayer bond orders larger than 0.1
B(  0-C ,  1-C ) :   1.1567 B(  0-C ,  7-H ) :   0.9410 B(  0-C ,  8-H ) :   0.9306
B(  0-C ,  9-H ) :   0.9306 B(  1-C ,  2-C ) :   1.4960 B(  1-C ,  6-O ) :   1.0909
B(  2-C ,  3-N ) :   1.2284 B(  2-C ,  4-C ) :   1.1957 B(  3-N , 10-H ) :   0.9536
B(  3-N , 11-H ) :   0.9520 B(  4-C ,  5-C ) :   1.4887 B(  4-C , 12-H ) :   1.0083
B(  5-C ,  6-O ) :   1.1723 B(  5-C , 13-H ) :   0.9996

FINAL SINGLE POINT ENERGY      -324.063889577607

DIPOLE MOMENT
-------------
                                X             Y             Z
Electronic contribution:      3.20684      -1.67833      -0.01691
Nuclear contribution   :     -3.35776       2.48278       0.02198
                        -----------------------------------------
Total Dipole Moment    :     -0.15092       0.80445       0.00507
                        -----------------------------------------
Magnitude (a.u.)       :      0.81850
Magnitude (Debye)      :      2.08046

                             ****ORCA TERMINATED NORMALLY****
TOTAL RUN TIME: 0 days 0 hours 0 minutes 6 seconds 427 msec
