                         Program Version 3.0.3 - RELEASE   -
|  1> ! RI PBE def2-SVP def2-SVP/J NBO PAL2
|  2> % maxcore 2000
|  3> % output
|  4>     # printlevel mini
|  5>     print[ P_Basis ] 0
|  6>     print[ P_SCFInfo ] 1
|  7>     print[ P_SCFIterInfo ] 1
|  8>     print[ P_OrbEn ] 0
|  9>     print[ P_Cartesian ] 0
| 10> end
| 11> *xyz 0 1
| 12>  C        1.0160870000     0.1265700000     0.3532920000
| 13>  C        2.4009800000    -0.1345460000    -0.2001260000
| 14>  O        3.2648380000     0.9450090000     0.1569990000
| 15>  C        4.3741380000     0.4625200000     0.8921420000
| 16>  C        3.9270700000    -0.8687370000     1.4671350000
| 17>  C        3.0623010000    -1.4204500000     0.3376680000
| 18>  N        3.8838390000    -2.1557460000    -0.6120550000
| 19>  H        0.6656010000     1.1125370000     0.0428660000
| 20>  H        1.0218030000     0.0985180000     1.4461360000
| 21>  H        0.3059300000    -0.6213120000    -0.0096890000
| 22>  H        2.3526880000    -0.1837630000    -1.2962310000
| 23>  H        4.6325460000     1.2034170000     1.6522030000
| 24>  H        5.2483920000     0.3422790000     0.2343170000
| 25>  H        3.3244770000    -0.7044840000     2.3634550000
| 26>  H        4.7471530000    -1.5429350000     1.7153930000
| 27>  H        2.3017480000    -2.1089890000     0.7147220000
| 28>  H        4.6149670000    -1.5611570000    -0.9860460000
| 29>  H        3.3268420000    -2.4585220000    -1.4023000000
| 30> *
| 31>
| 32>                          ****END OF INPUT****
 Total Charge           Charge          ....    0
 Multiplicity           Mult            ....    1
 Number of Electrons    NEL             ....   56
 Basis Dimension        Dim             ....  153

MULLIKEN ATOMIC CHARGES
-----------------------
   0 C :    0.056799
   1 C :    0.115894
   2 O :   -0.356743
   3 C :    0.195493
   4 C :    0.009408
   5 C :   -0.128160
   6 N :   -0.139757
   7 H :    0.025141
   8 H :    0.011273
   9 H :    0.009530
  10 H :   -0.022512
  11 H :    0.013438
  12 H :   -0.004573
  13 H :    0.021571
  14 H :    0.020595
  15 H :    0.003455
  16 H :    0.079281
  17 H :    0.089868
Sum of atomic charges:   -0.0000000

LOEWDIN ATOMIC CHARGES
----------------------
   0 C :   -0.072666
   1 C :    0.036226
   2 O :   -0.160241
   3 C :    0.062125
   4 C :   -0.053318
   5 C :   -0.009802
   6 N :   -0.089885
   7 H :    0.031257
   8 H :    0.025048
   9 H :    0.026247
  10 H :    0.005684
  11 H :    0.018543
  12 H :   -0.000600
  13 H :    0.029673
  14 H :    0.030646
  15 H :    0.022465
  16 H :    0.047737
  17 H :    0.050860

  Mayer bond orders larger than 0.1
B(  0-C ,  1-C ) :   1.0785 B(  0-C ,  7-H ) :   0.9477 B(  0-C ,  8-H ) :   0.9494
B(  0-C ,  9-H ) :   0.9465 B(  1-C ,  2-O ) :   1.0031 B(  1-C ,  5-C ) :   0.9739
B(  1-C , 10-H ) :   0.9079 B(  2-O ,  3-C ) :   1.0110 B(  3-C ,  4-C ) :   1.0814
B(  3-C , 11-H ) :   0.9407 B(  3-C , 12-H ) :   0.9315 B(  4-C ,  5-C ) :   1.0546
B(  4-C , 13-H ) :   0.9260 B(  4-C , 14-H ) :   0.9239 B(  5-C ,  6-N ) :   1.1142
B(  5-C , 15-H ) :   0.9213 B(  6-N , 16-H ) :   0.9681 B(  6-N , 17-H ) :   0.9658

FINAL SINGLE POINT ENERGY      -326.455183693940

DIPOLE MOMENT
-------------
                                X             Y             Z
Electronic contribution:      1.70874       1.33991      -0.94789
Nuclear contribution   :     -1.80289      -1.56922       0.85611
                        -----------------------------------------
Total Dipole Moment    :     -0.09415      -0.22931      -0.09178
                        -----------------------------------------
Magnitude (a.u.)       :      0.26433
Magnitude (Debye)      :      0.67188

                             ****ORCA TERMINATED NORMALLY****
TOTAL RUN TIME: 0 days 0 hours 0 minutes 7 seconds 858 msec
