                         Program Version 3.0.3 - RELEASE   -
|  1> ! RI PBE def2-SVP def2-SVP/J NBO PAL2
|  2> % maxcore 2000
|  3> % output
|  4>     # printlevel mini
|  5>     print[ P_Basis ] 0
|  6>     print[ P_SCFInfo ] 1
|  7>     print[ P_SCFIterInfo ] 1
|  8>     print[ P_OrbEn ] 0
|  9>     print[ P_Cartesian ] 0
| 10> end
| 11> *xyz 0 1
| 12>  C        0.8378890000     0.0170020000    -0.0207460000
| 13>  C        2.3449220000     0.0650920000    -0.0033200000
| 14>  O        2.8708700000     0.0471780000    -1.3210880000
| 15>  C        3.0578740000     1.1201610000     0.8689630000
| 16>  C        4.1253970000     0.0658120000     1.2176840000
| 17>  C        3.1292170000    -1.0243930000     0.7936900000
| 18>  N        3.6501670000    -2.1945230000     0.1505610000
| 19>  H        0.4187440000     0.8962610000    -0.5221810000
| 20>  H        0.4334500000    -0.0101880000     0.9938710000
| 21>  H        0.4933490000    -0.8709460000    -0.5576550000
| 22>  H        2.5960190000     0.8540510000    -1.7650600000
| 23>  H        2.4536750000     1.4013330000     1.7346310000
| 24>  H        3.3874800000     2.0270720000     0.3577490000
| 25>  H        4.5080840000     0.0321230000     2.2381220000
| 26>  H        4.9658270000     0.1044710000     0.5227620000
| 27>  H        2.5238300000    -1.3282290000     1.6531700000
| 28>  H        4.0294600000    -1.9390500000    -0.7543460000
| 29>  H        2.9221460000    -2.8787180000    -0.0135170000
| 30> *
| 31>
| 32>                          ****END OF INPUT****
 Total Charge           Charge          ....    0
 Multiplicity           Mult            ....    1
 Number of Electrons    NEL             ....   56
 Basis Dimension        Dim             ....  153

MULLIKEN ATOMIC CHARGES
-----------------------
   0 C :    0.098831
   1 C :   -0.196729
   2 O :   -0.255689
   3 C :    0.100856
   4 C :    0.083038
   5 C :   -0.053025
   6 N :   -0.118147
   7 H :    0.005807
   8 H :    0.003504
   9 H :    0.016563
  10 H :    0.154763
  11 H :   -0.001636
  12 H :   -0.009739
  13 H :    0.003767
  14 H :    0.001358
  15 H :   -0.008466
  16 H :    0.088933
  17 H :    0.086012
Sum of atomic charges:    0.0000000

LOEWDIN ATOMIC CHARGES
----------------------
   0 C :   -0.075877
   1 C :   -0.002103
   2 O :   -0.106472
   3 C :   -0.043811
   4 C :   -0.032461
   5 C :   -0.002028
   6 N :   -0.084444
   7 H :    0.022656
   8 H :    0.026342
   9 H :    0.026853
  10 H :    0.067660
  11 H :    0.022834
  12 H :    0.014532
  13 H :    0.016366
  14 H :    0.025490
  15 H :    0.020401
  16 H :    0.050218
  17 H :    0.053842

  Mayer bond orders larger than 0.1
B(  0-C ,  1-C ) :   1.0758 B(  0-C ,  7-H ) :   0.9496 B(  0-C ,  8-H ) :   0.9364
B(  0-C ,  9-H ) :   0.9496 B(  1-C ,  2-O ) :   1.0431 B(  1-C ,  3-C ) :   1.0582
B(  1-C ,  5-C ) :   0.9399 B(  2-O , 10-H ) :   0.9775 B(  3-C ,  4-C ) :   1.1287
B(  3-C , 11-H ) :   0.9120 B(  3-C , 12-H ) :   0.9055 B(  4-C ,  5-C ) :   1.0841
B(  4-C , 13-H ) :   0.9255 B(  4-C , 14-H ) :   0.9012 B(  5-C ,  6-N ) :   1.2012
B(  5-C , 15-H ) :   0.9051 B(  6-N , 16-H ) :   0.9496 B(  6-N , 17-H ) :   0.9659

FINAL SINGLE POINT ENERGY      -326.443789552428

DIPOLE MOMENT
-------------
                                X             Y             Z
Electronic contribution:      1.83129      -0.88308      -1.90052
Nuclear contribution   :     -2.43484       1.32501       1.66591
                        -----------------------------------------
Total Dipole Moment    :     -0.60355       0.44193      -0.23461
                        -----------------------------------------
Magnitude (a.u.)       :      0.78397
Magnitude (Debye)      :      1.99270

                             ****ORCA TERMINATED NORMALLY****
TOTAL RUN TIME: 0 days 0 hours 0 minutes 7 seconds 294 msec
