                         Program Version 3.0.3 - RELEASE   -
|  1> ! RI PBE def2-SVP def2-SVP/J NBO PAL2
|  2> % maxcore 2000
|  3> % output
|  4>     # printlevel mini
|  5>     print[ P_Basis ] 0
|  6>     print[ P_SCFInfo ] 1
|  7>     print[ P_SCFIterInfo ] 1
|  8>     print[ P_OrbEn ] 0
|  9>     print[ P_Cartesian ] 0
| 10> end
| 11> *xyz 0 1
| 12>  C        1.0091580000    -0.0017250000     0.1337500000
| 13>  C        2.5105710000    -0.0579980000    -0.0150670000
| 14>  O        2.8469380000    -1.1879790000    -0.8513310000
| 15>  C        3.2846580000    -0.6806400000    -2.0261660000
| 16>  C        3.4226010000     0.6399370000    -2.0657430000
| 17>  C        3.1142170000     1.1950690000    -0.7067080000
| 18>  N        4.2998490000     1.7868300000    -0.1099500000
| 19>  H        0.6224130000    -0.9379860000     0.5395370000
| 20>  H        0.5398560000     0.1756650000    -0.8372680000
| 21>  H        0.7259690000     0.8115120000     0.8072360000
| 22>  H        2.9914840000    -0.2301620000     0.9525830000
| 23>  H        3.4737010000    -1.4175070000    -2.7957890000
| 24>  H        3.7724860000     1.2226170000    -2.9034140000
| 25>  H        2.3533790000     1.9834270000    -0.7465720000
| 26>  H        5.0484150000     1.1058750000    -0.0615620000
| 27>  H        4.1134960000     2.1175660000     0.8294870000
| 28> *
| 29>
| 30>                          ****END OF INPUT****
 Total Charge           Charge          ....    0
 Multiplicity           Mult            ....    1
 Number of Electrons    NEL             ....   54
 Basis Dimension        Dim             ....  143

MULLIKEN ATOMIC CHARGES
-----------------------
   0 C :    0.046989
   1 C :    0.107352
   2 O :   -0.275692
   3 C :    0.143468
   4 C :   -0.086971
   5 C :   -0.028495
   6 N :   -0.150541
   7 H :    0.029882
   8 H :    0.025396
   9 H :    0.020011
  10 H :   -0.013604
  11 H :    0.007615
  12 H :   -0.002729
  13 H :    0.008461
  14 H :    0.085818
  15 H :    0.083041
Sum of atomic charges:   -0.0000000

LOEWDIN ATOMIC CHARGES
----------------------
   0 C :   -0.066422
   1 C :    0.051451
   2 O :   -0.086665
   3 C :    0.039301
   4 C :   -0.118146
   5 C :   -0.007469
   6 N :   -0.090203
   7 H :    0.031582
   8 H :    0.032715
   9 H :    0.030066
  10 H :    0.013855
  11 H :    0.021719
  12 H :    0.027188
  13 H :    0.025085
  14 H :    0.049377
  15 H :    0.046565

  Mayer bond orders larger than 0.1
B(  0-C ,  1-C ) :   1.0765 B(  0-C ,  7-H ) :   0.9509 B(  0-C ,  8-H ) :   0.9507
B(  0-C ,  9-H ) :   0.9523 B(  1-C ,  2-O ) :   0.9399 B(  1-C ,  5-C ) :   0.9685
B(  1-C , 10-H ) :   0.9094 B(  2-O ,  3-C ) :   1.1237 B(  2-O ,  4-C ) :   0.1188
B(  3-C ,  4-C ) :   1.7024 B(  3-C , 11-H ) :   0.9867 B(  4-C ,  5-C ) :   1.0333
B(  4-C , 12-H ) :   0.9880 B(  5-C ,  6-N ) :   1.1100 B(  5-C , 13-H ) :   0.9023
B(  6-N , 14-H ) :   0.9656 B(  6-N , 15-H ) :   0.9653

FINAL SINGLE POINT ENERGY      -325.245374893827

DIPOLE MOMENT
-------------
                                X             Y             Z
Electronic contribution:      2.36253      -2.45551      -2.10008
Nuclear contribution   :     -2.50153       2.47217       2.48810
                        -----------------------------------------
Total Dipole Moment    :     -0.13900       0.01666       0.38802
                        -----------------------------------------
Magnitude (a.u.)       :      0.41251
Magnitude (Debye)      :      1.04851

                             ****ORCA TERMINATED NORMALLY****
TOTAL RUN TIME: 0 days 0 hours 0 minutes 7 seconds 771 msec
