                         Program Version 3.0.3 - RELEASE   -
|  1> ! RI PBE def2-SVP def2-SVP/J NBO PAL2
|  2> % maxcore 2000
|  3> % output
|  4>     # printlevel mini
|  5>     print[ P_Basis ] 0
|  6>     print[ P_SCFInfo ] 1
|  7>     print[ P_SCFIterInfo ] 1
|  8>     print[ P_OrbEn ] 0
|  9>     print[ P_Cartesian ] 0
| 10> end
| 11> *xyz 0 1
| 12>  C        0.8997530000     0.1547640000     0.1351480000
| 13>  C        2.3806840000    -0.0072320000    -0.0627040000
| 14>  O        3.1532610000     1.0227070000     0.5778870000
| 15>  C        4.0867060000     0.0623090000     1.1119300000
| 16>  C        5.4284620000     0.1144060000     0.4257420000
| 17>  C        3.1446710000    -1.0926270000     0.7219120000
| 18>  N        3.7147620000    -2.2533380000     0.0994910000
| 19>  H        0.5466580000     1.0830940000    -0.3202300000
| 20>  H        0.6544430000     0.1805850000     1.1995290000
| 21>  H        0.3607750000    -0.6756900000    -0.3303050000
| 22>  H        2.6187410000    -0.0504890000    -1.1375250000
| 23>  H        4.2120100000     0.2090430000     2.1901370000
| 24>  H        5.3301400000     0.0214810000    -0.6588880000
| 25>  H        6.0732380000    -0.6905220000     0.7862990000
| 26>  H        5.9145910000     1.0697010000     0.6342300000
| 27>  H        2.5605910000    -1.4195100000     1.5859740000
| 28>  H        4.1299860000    -2.0339410000    -0.7968150000
| 29>  H        3.0226470000    -2.9754510000    -0.0474020000
| 30> *
| 31>
| 32>                          ****END OF INPUT****
 Total Charge           Charge          ....    0
 Multiplicity           Mult            ....    1
 Number of Electrons    NEL             ....   56
 Basis Dimension        Dim             ....  153

MULLIKEN ATOMIC CHARGES
-----------------------
   0 C :    0.060765
   1 C :    0.094771
   2 O :   -0.339236
   3 C :    0.073459
   4 C :    0.047569
   5 C :   -0.090135
   6 N :   -0.120071
   7 H :    0.029271
   8 H :    0.011908
   9 H :    0.014768
  10 H :   -0.025188
  11 H :    0.004130
  12 H :    0.004052
  13 H :    0.028746
  14 H :    0.029257
  15 H :   -0.003033
  16 H :    0.083543
  17 H :    0.095422
Sum of atomic charges:   -0.0000000

LOEWDIN ATOMIC CHARGES
----------------------
   0 C :   -0.072196
   1 C :    0.042915
   2 O :   -0.177304
   3 C :    0.060616
   4 C :   -0.075932
   5 C :   -0.016330
   6 N :   -0.083596
   7 H :    0.033674
   8 H :    0.025738
   9 H :    0.030400
  10 H :   -0.000506
  11 H :    0.010657
  12 H :    0.023372
  13 H :    0.034278
  14 H :    0.033904
  15 H :    0.023962
  16 H :    0.049248
  17 H :    0.057100

  Mayer bond orders larger than 0.1
B(  0-C ,  1-C ) :   1.0985 B(  0-C ,  7-H ) :   0.9498 B(  0-C ,  8-H ) :   0.9470
B(  0-C ,  9-H ) :   0.9477 B(  1-C ,  2-O ) :   1.0412 B(  1-C ,  5-C ) :   1.0126
B(  1-C , 10-H ) :   0.8931 B(  2-O ,  3-C ) :   1.0273 B(  3-C ,  4-C ) :   1.1005
B(  3-C ,  5-C ) :   1.0305 B(  3-C , 11-H ) :   0.9168 B(  4-C , 12-H ) :   0.9430
B(  4-C , 13-H ) :   0.9416 B(  4-C , 14-H ) :   0.9490 B(  5-C ,  6-N ) :   1.1798
B(  5-C , 15-H ) :   0.8964 B(  6-N , 16-H ) :   0.9518 B(  6-N , 17-H ) :   0.9636

FINAL SINGLE POINT ENERGY      -326.438000613140

DIPOLE MOMENT
-------------
                                X             Y             Z
Electronic contribution:      0.14165       1.26389       0.99538
Nuclear contribution   :     -0.39825      -1.91085      -1.34884
                        -----------------------------------------
Total Dipole Moment    :     -0.25660      -0.64695      -0.35346
                        -----------------------------------------
Magnitude (a.u.)       :      0.78059
Magnitude (Debye)      :      1.98411

                             ****ORCA TERMINATED NORMALLY****
TOTAL RUN TIME: 0 days 0 hours 0 minutes 7 seconds 988 msec
