                         Program Version 3.0.3 - RELEASE   -
|  1> ! RI PBE def2-SVP def2-SVP/J NBO PAL2
|  2> % maxcore 2000
|  3> % output
|  4>     # printlevel mini
|  5>     print[ P_Basis ] 0
|  6>     print[ P_SCFInfo ] 1
|  7>     print[ P_SCFIterInfo ] 1
|  8>     print[ P_OrbEn ] 0
|  9>     print[ P_Cartesian ] 0
| 10> end
| 11> *xyz 0 1
| 12>  C        1.0311420000    -0.0923840000     0.0692170000
| 13>  C        2.5452040000    -0.0459150000    -0.0230170000
| 14>  O        2.9473980000     0.0209910000    -1.3899810000
| 15>  C        3.1757490000     1.0993670000     0.7840930000
| 16>  C        4.5039360000     0.5069800000     1.2441210000
| 17>  N        4.2019440000    -0.8819040000     1.5713750000
| 18>  C        3.2394920000    -1.3058950000     0.5581900000
| 19>  H        0.5838330000     0.8327940000    -0.3097230000
| 20>  H        0.7038740000    -0.2167260000     1.1043890000
| 21>  H        0.6415260000    -0.9253160000    -0.5205600000
| 22>  H        2.5095560000     0.7761670000    -1.7928780000
| 23>  H        2.5549810000     1.3324560000     1.6559710000
| 24>  H        3.2683100000     2.0084120000     0.1840660000
| 25>  H        4.9510080000     1.0207400000     2.0969160000
| 26>  H        5.2280820000     0.5270170000     0.4229680000
| 27>  H        3.7632870000    -0.9126860000     2.4838650000
| 28>  H        2.5261830000    -2.0171260000     0.9787990000
| 29>  H        3.7576050000    -1.8003730000    -0.2682110000
| 30> *
| 31>
| 32>                          ****END OF INPUT****
 Total Charge           Charge          ....    0
 Multiplicity           Mult            ....    1
 Number of Electrons    NEL             ....   56
 Basis Dimension        Dim             ....  153

MULLIKEN ATOMIC CHARGES
-----------------------
   0 C :    0.060121
   1 C :   -0.254261
   2 O :   -0.255403
   3 C :    0.087513
   4 C :    0.085300
   5 N :   -0.255306
   6 C :    0.228704
   7 H :    0.007813
   8 H :    0.007239
   9 H :    0.028256
  10 H :    0.148937
  11 H :   -0.004880
  12 H :   -0.008897
  13 H :    0.011274
  14 H :    0.017865
  15 H :    0.091103
  16 H :   -0.004045
  17 H :    0.008666
Sum of atomic charges:   -0.0000000

LOEWDIN ATOMIC CHARGES
----------------------
   0 C :   -0.070010
   1 C :    0.004655
   2 O :   -0.108787
   3 C :   -0.063363
   4 C :    0.009728
   5 N :   -0.096873
   6 C :    0.014435
   7 H :    0.021357
   8 H :    0.025330
   9 H :    0.028677
  10 H :    0.062388
  11 H :    0.019466
  12 H :    0.020281
  13 H :    0.018955
  14 H :    0.021102
  15 H :    0.049062
  16 H :    0.018883
  17 H :    0.024714

  Mayer bond orders larger than 0.1
B(  0-C ,  1-C ) :   1.0701 B(  0-C ,  7-H ) :   0.9512 B(  0-C ,  8-H ) :   0.9409
B(  0-C ,  9-H ) :   0.9538 B(  1-C ,  2-O ) :   1.0323 B(  1-C ,  3-C ) :   1.0568
B(  1-C ,  6-C ) :   0.9621 B(  2-O , 10-H ) :   0.9815 B(  3-C ,  4-C ) :   1.0632
B(  3-C , 11-H ) :   0.9149 B(  3-C , 12-H ) :   0.9090 B(  4-C ,  5-N ) :   1.0756
B(  4-C , 13-H ) :   0.9477 B(  4-C , 14-H ) :   0.9304 B(  5-N ,  6-C ) :   1.0973
B(  5-N , 15-H ) :   0.9480 B(  6-C , 16-H ) :   0.9391 B(  6-C , 17-H ) :   0.9024

FINAL SINGLE POINT ENERGY      -326.456401935082

DIPOLE MOMENT
-------------
                                X             Y             Z
Electronic contribution:      2.38579      -0.93976      -1.53507
Nuclear contribution   :     -3.10741       1.54708       1.81946
                        -----------------------------------------
Total Dipole Moment    :     -0.72163       0.60732       0.28440
                        -----------------------------------------
Magnitude (a.u.)       :      0.98512
Magnitude (Debye)      :      2.50398

                             ****ORCA TERMINATED NORMALLY****
TOTAL RUN TIME: 0 days 0 hours 0 minutes 7 seconds 896 msec
