                         Program Version 3.0.3 - RELEASE   -
|  1> ! RI PBE def2-SVP def2-SVP/J NBO PAL2
|  2> % maxcore 2000
|  3> % output
|  4>     # printlevel mini
|  5>     print[ P_Basis ] 0
|  6>     print[ P_SCFInfo ] 1
|  7>     print[ P_SCFIterInfo ] 1
|  8>     print[ P_OrbEn ] 0
|  9>     print[ P_Cartesian ] 0
| 10> end
| 11> *xyz 0 1
| 12>  C        0.8294330000    -0.0448380000     0.0556830000
| 13>  C        2.3359660000    -0.0649560000    -0.0279540000
| 14>  O        2.7672700000    -0.1575460000    -1.3807790000
| 15>  C        3.1296330000     1.0169290000     0.7422960000
| 16>  C        4.1516510000    -0.0563270000     1.1692250000
| 17>  N        5.3765660000     0.0150910000     0.4031530000
| 18>  C        3.1069430000    -1.1344150000     0.7653350000
| 19>  H        0.4232350000     0.8379620000    -0.4502750000
| 20>  H        0.4930100000    -0.0155150000     1.0944260000
| 21>  H        0.4107070000    -0.9337880000    -0.4221580000
| 22>  H        2.4373490000     0.6150520000    -1.8500070000
| 23>  H        2.5679900000     1.4181420000     1.5884210000
| 24>  H        3.5265500000     1.8435340000     0.1485030000
| 25>  H        4.4118100000    -0.0479740000     2.2299740000
| 26>  H        5.1574170000    -0.0378150000    -0.5861860000
| 27>  H        5.9718420000    -0.7770330000     0.6163260000
| 28>  H        2.5295730000    -1.5005570000     1.6174690000
| 29>  H        3.4684540000    -1.9804570000     0.1779570000
| 30> *
| 31>
| 32>                          ****END OF INPUT****
 Total Charge           Charge          ....    0
 Multiplicity           Mult            ....    1
 Number of Electrons    NEL             ....   56
 Basis Dimension        Dim             ....  153

MULLIKEN ATOMIC CHARGES
-----------------------
   0 C :    0.097274
   1 C :   -0.279823
   2 O :   -0.252015
   3 C :    0.208978
   4 C :   -0.169491
   5 N :   -0.130165
   6 C :    0.218651
   7 H :    0.005740
   8 H :    0.005487
   9 H :    0.025735
  10 H :    0.151764
  11 H :   -0.008280
  12 H :   -0.011900
  13 H :   -0.003193
  14 H :    0.076257
  15 H :    0.085793
  16 H :   -0.012283
  17 H :   -0.008529
Sum of atomic charges:    0.0000000

LOEWDIN ATOMIC CHARGES
----------------------
   0 C :   -0.072483
   1 C :    0.018655
   2 O :   -0.105487
   3 C :   -0.041698
   4 C :    0.007368
   5 N :   -0.093396
   6 C :   -0.048034
   7 H :    0.022879
   8 H :    0.027261
   9 H :    0.030119
  10 H :    0.065326
  11 H :    0.025253
  12 H :    0.017012
  13 H :    0.012366
  14 H :    0.043032
  15 H :    0.050615
  16 H :    0.023530
  17 H :    0.017682

  Mayer bond orders larger than 0.1
B(  0-C ,  1-C ) :   1.0736 B(  0-C ,  7-H ) :   0.9475 B(  0-C ,  8-H ) :   0.9371
B(  0-C ,  9-H ) :   0.9518 B(  1-C ,  2-O ) :   1.0198 B(  1-C ,  3-C ) :   1.0423
B(  1-C ,  6-C ) :   1.0374 B(  2-O , 10-H ) :   0.9787 B(  3-C ,  4-C ) :   1.0752
B(  3-C , 11-H ) :   0.9001 B(  3-C , 12-H ) :   0.8963 B(  4-C ,  5-N ) :   1.1257
B(  4-C ,  6-C ) :   1.0418 B(  4-C , 13-H ) :   0.9118 B(  5-N , 14-H ) :   0.9555
B(  5-N , 15-H ) :   0.9654 B(  6-C , 16-H ) :   0.8973 B(  6-C , 17-H ) :   0.8929

FINAL SINGLE POINT ENERGY      -326.440747362189

DIPOLE MOMENT
-------------
                                X             Y             Z
Electronic contribution:      2.08795      -0.09340      -1.82610
Nuclear contribution   :     -2.57472       0.09897       1.81986
                        -----------------------------------------
Total Dipole Moment    :     -0.48677       0.00556      -0.00624
                        -----------------------------------------
Magnitude (a.u.)       :      0.48684
Magnitude (Debye)      :      1.23745

                             ****ORCA TERMINATED NORMALLY****
TOTAL RUN TIME: 0 days 0 hours 0 minutes 7 seconds 850 msec
