                         Program Version 3.0.3 - RELEASE   -
|  1> ! RI PBE def2-SVP def2-SVP/J NBO PAL2
|  2> % maxcore 2000
|  3> % output
|  4>     # printlevel mini
|  5>     print[ P_Basis ] 0
|  6>     print[ P_SCFInfo ] 1
|  7>     print[ P_SCFIterInfo ] 1
|  8>     print[ P_OrbEn ] 0
|  9>     print[ P_Cartesian ] 0
| 10> end
| 11> *xyz 0 1
| 12>  C        1.2732940000    -0.0487760000    -0.2593440000
| 13>  C        2.7100750000    -0.0903140000     0.2204420000
| 14>  O        3.4494180000     1.0450850000    -0.1313920000
| 15>  C        3.6190450000     1.1413370000    -1.5225590000
| 16>  C        3.8261690000    -0.1993550000    -2.1330980000
| 17>  N        3.7302710000    -1.3147210000    -1.5324520000
| 18>  O        3.3550280000    -1.2794040000    -0.2068060000
| 19>  H        0.8016800000     0.8759560000     0.0782630000
| 20>  H        0.7286640000    -0.8963290000     0.1577570000
| 21>  H        1.2021020000    -0.1063680000    -1.3463430000
| 22>  H        2.7523890000    -0.1444400000     1.3093690000
| 23>  H        4.5077500000     1.7566880000    -1.6916340000
| 24>  H        2.7743050000     1.6590940000    -2.0040090000
| 25>  H        4.1213110000    -0.2687530000    -3.1765950000
| 26> *
| 27>
| 28>                          ****END OF INPUT****
 Total Charge           Charge          ....    0
 Multiplicity           Mult            ....    1
 Number of Electrons    NEL             ....   54
 Basis Dimension        Dim             ....  133

MULLIKEN ATOMIC CHARGES
-----------------------
   0 C :    0.026063
   1 C :    0.144410
   2 O :   -0.305413
   3 C :    0.228071
   4 C :   -0.128140
   5 N :    0.032978
   6 O :   -0.243008
   7 H :    0.037699
   8 H :    0.043607
   9 H :    0.027237
  10 H :    0.029304
  11 H :    0.047787
  12 H :    0.029023
  13 H :    0.030382
Sum of atomic charges:   -0.0000000

LOEWDIN ATOMIC CHARGES
----------------------
   0 C :   -0.085289
   1 C :    0.088612
   2 O :   -0.128352
   3 C :    0.041098
   4 C :   -0.077807
   5 N :    0.005945
   6 O :   -0.081979
   7 H :    0.037897
   8 H :    0.041677
   9 H :    0.033190
  10 H :    0.028533
  11 H :    0.042754
  12 H :    0.020916
  13 H :    0.032806

  Mayer bond orders larger than 0.1
B(  0-C ,  1-C ) :   1.0749 B(  0-C ,  7-H ) :   0.9512 B(  0-C ,  8-H ) :   0.9474
B(  0-C ,  9-H ) :   0.9441 B(  1-C ,  2-O ) :   1.0638 B(  1-C ,  6-O ) :   0.9909
B(  1-C , 10-H ) :   0.9262 B(  2-O ,  3-C ) :   1.0129 B(  3-C ,  4-C ) :   0.9955
B(  3-C , 11-H ) :   0.9225 B(  3-C , 12-H ) :   0.9155 B(  4-C ,  5-N ) :   1.9199
B(  4-C ,  6-O ) :   0.1111 B(  4-C , 13-H ) :   0.9470 B(  5-N ,  6-O ) :   0.9729

FINAL SINGLE POINT ENERGY      -361.067393994069

DIPOLE MOMENT
-------------
                                X             Y             Z
Electronic contribution:      4.14069      -2.43621       0.84129
Nuclear contribution   :     -4.63125       3.31567      -1.18199
                        -----------------------------------------
Total Dipole Moment    :     -0.49056       0.87945      -0.34071
                        -----------------------------------------
Magnitude (a.u.)       :      1.06309
Magnitude (Debye)      :      2.70217

                             ****ORCA TERMINATED NORMALLY****
TOTAL RUN TIME: 0 days 0 hours 0 minutes 6 seconds 569 msec
