                         Program Version 3.0.3 - RELEASE   -
|  1> ! RI PBE def2-SVP def2-SVP/J NBO PAL2
|  2> % maxcore 2000
|  3> % output
|  4>     # printlevel mini
|  5>     print[ P_Basis ] 0
|  6>     print[ P_SCFInfo ] 1
|  7>     print[ P_SCFIterInfo ] 1
|  8>     print[ P_OrbEn ] 0
|  9>     print[ P_Cartesian ] 0
| 10> end
| 11> *xyz 0 1
| 12>  C        0.8619940000    -0.1279520000    -0.0627000000
| 13>  C        2.3193030000     0.0962480000    -0.0632490000
| 14>  C        3.1317250000     1.1872390000    -0.0663830000
| 15>  N        2.8416770000     2.5213470000    -0.0702590000
| 16>  N        4.4500160000     0.7778580000    -0.0650610000
| 17>  C        4.3830780000    -0.5082210000    -0.0612900000
| 18>  O        3.1479750000    -1.0070640000    -0.0599310000
| 19>  H        0.3398220000     0.8304970000    -0.0653570000
| 20>  H        0.5314080000    -0.6807760000     0.8225090000
| 21>  H        0.5314660000    -0.6856600000    -0.9448640000
| 22>  H        1.9012800000     2.8580620000    -0.0720700000
| 23>  H        3.5990270000     3.1749410000    -0.0726970000
| 24>  H        5.2018170000    -1.2111370000    -0.0591480000
| 25> *
| 26>
| 27>                          ****END OF INPUT****
 Total Charge           Charge          ....    0
 Multiplicity           Mult            ....    1
 Number of Electrons    NEL             ....   52
 Basis Dimension        Dim             ....  128

MULLIKEN ATOMIC CHARGES
-----------------------
   0 C :    0.103757
   1 C :   -0.109725
   2 C :   -0.083766
   3 N :   -0.042449
   4 N :   -0.128999
   5 C :    0.129777
   6 O :   -0.170809
   7 H :    0.004621
   8 H :    0.035022
   9 H :    0.035082
  10 H :    0.097002
  11 H :    0.115239
  12 H :    0.015249
Sum of atomic charges:   -0.0000000

LOEWDIN ATOMIC CHARGES
----------------------
   0 C :   -0.066547
   1 C :   -0.078860
   2 C :   -0.031717
   3 N :   -0.015868
   4 N :   -0.119532
   5 C :    0.021010
   6 O :    0.021093
   7 H :    0.037025
   8 H :    0.038096
   9 H :    0.038097
  10 H :    0.067394
  11 H :    0.073142
  12 H :    0.016664

  Mayer bond orders larger than 0.1
B(  0-C ,  1-C ) :   1.1502 B(  0-C ,  7-H ) :   0.9405 B(  0-C ,  8-H ) :   0.9322
B(  0-C ,  9-H ) :   0.9322 B(  1-C ,  2-C ) :   1.4818 B(  1-C ,  6-O ) :   1.0767
B(  2-C ,  3-N ) :   1.2543 B(  2-C ,  4-N ) :   1.3259 B(  3-N , 10-H ) :   0.9478
B(  3-N , 11-H ) :   0.9387 B(  4-N ,  5-C ) :   1.6876 B(  5-C ,  6-O ) :   1.2145
B(  5-C , 12-H ) :   0.9750

FINAL SINGLE POINT ENERGY      -340.102953398785

DIPOLE MOMENT
-------------
                                X             Y             Z
Electronic contribution:      4.75227      -1.17577       0.00412
Nuclear contribution   :     -5.45552       1.59207      -0.00618
                        -----------------------------------------
Total Dipole Moment    :     -0.70325       0.41630      -0.00206
                        -----------------------------------------
Magnitude (a.u.)       :      0.81723
Magnitude (Debye)      :      2.07723

                             ****ORCA TERMINATED NORMALLY****
TOTAL RUN TIME: 0 days 0 hours 0 minutes 6 seconds 174 msec
