                         Program Version 3.0.3 - RELEASE   -
|  1> ! RI PBE def2-SVP def2-SVP/J NBO PAL2
|  2> % maxcore 2000
|  3> % output
|  4>     # printlevel mini
|  5>     print[ P_Basis ] 0
|  6>     print[ P_SCFInfo ] 1
|  7>     print[ P_SCFIterInfo ] 1
|  8>     print[ P_OrbEn ] 0
|  9>     print[ P_Cartesian ] 0
| 10> end
| 11> *xyz 0 1
| 12>  C        1.0331800000    -0.1000260000    -0.0055280000
| 13>  C        2.3417340000    -0.0220080000    -0.1745270000
| 14>  O        3.1304600000    -1.1165410000    -0.4913760000
| 15>  C        4.3825710000    -0.6216500000    -0.5739460000
| 16>  N        4.5611660000     0.6196480000    -0.3652450000
| 17>  C        3.2700600000     1.1277690000    -0.0883120000
| 18>  N        2.9404570000     2.3166690000     0.1818580000
| 19>  H        0.4998500000    -1.0354330000    -0.1068210000
| 20>  H        0.4933360000     0.8040980000     0.2405240000
| 21>  H        5.1473420000    -1.3485250000    -0.8181900000
| 22>  H        3.7664240000     2.9131990000     0.1782530000
| 23> *
| 24>
| 25>                          ****END OF INPUT****
 Total Charge           Charge          ....    0
 Multiplicity           Mult            ....    1
 Number of Electrons    NEL             ....   50
 Basis Dimension        Dim             ....  118

MULLIKEN ATOMIC CHARGES
-----------------------
   0 C :   -0.056512
   1 C :    0.121373
   2 O :   -0.188653
   3 C :    0.177749
   4 N :   -0.120297
   5 C :   -0.143270
   6 N :   -0.026810
   7 H :    0.041001
   8 H :    0.051537
   9 H :    0.036715
  10 H :    0.107166
Sum of atomic charges:   -0.0000000

LOEWDIN ATOMIC CHARGES
----------------------
   0 C :   -0.033065
   1 C :    0.015814
   2 O :   -0.013033
   3 C :    0.084510
   4 N :   -0.122587
   5 C :   -0.023662
   6 N :   -0.085602
   7 H :    0.040170
   8 H :    0.049748
   9 H :    0.027238
  10 H :    0.060470

  Mayer bond orders larger than 0.1
B(  0-C ,  1-C ) :   1.9546 B(  0-C ,  6-N ) :   0.1253 B(  0-C ,  7-H ) :   0.9192
B(  0-C ,  8-H ) :   0.9105 B(  1-C ,  2-O ) :   1.0416 B(  1-C ,  5-C ) :   0.9320
B(  2-O ,  3-C ) :   1.1472 B(  3-C ,  4-N ) :   1.7861 B(  3-C ,  9-H ) :   0.9682
B(  4-N ,  5-C ) :   1.1583 B(  5-C ,  6-N ) :   2.0318 B(  6-N , 10-H ) :   0.9220

FINAL SINGLE POINT ENERGY      -338.876206097528

DIPOLE MOMENT
-------------
                                X             Y             Z
Electronic contribution:      2.34693      -0.79427      -0.47957
Nuclear contribution   :     -2.32035       0.10144       0.34483
                        -----------------------------------------
Total Dipole Moment    :      0.02658      -0.69283      -0.13474
                        -----------------------------------------
Magnitude (a.u.)       :      0.70631
Magnitude (Debye)      :      1.79531

                             ****ORCA TERMINATED NORMALLY****
TOTAL RUN TIME: 0 days 0 hours 0 minutes 5 seconds 702 msec
