                         Program Version 3.0.3 - RELEASE   -
|  1> ! RI PBE def2-SVP def2-SVP/J NBO PAL2
|  2> % maxcore 2000
|  3> % output
|  4>     # printlevel mini
|  5>     print[ P_Basis ] 0
|  6>     print[ P_SCFInfo ] 1
|  7>     print[ P_SCFIterInfo ] 1
|  8>     print[ P_OrbEn ] 0
|  9>     print[ P_Cartesian ] 0
| 10> end
| 11> *xyz 0 1
| 12>  C        0.9437400000     0.1170860000    -0.1138020000
| 13>  C        2.4385670000     0.0609480000    -0.0397820000
| 14>  O        2.9687500000     0.1568120000     1.2520220000
| 15>  C        3.2486240000    -0.7659080000    -1.0273450000
| 16>  N        2.7007970000    -1.5320630000    -2.1024610000
| 17>  C        3.2959710000     0.7267510000    -1.0851370000
| 18>  N        4.5093310000     1.4273940000    -0.7953920000
| 19>  H        0.4874910000    -0.7238050000     0.4214630000
| 20>  H        0.5974600000     0.0748760000    -1.1481950000
| 21>  H        0.5736920000     1.0417210000     0.3356880000
| 22>  H        2.8045730000    -0.6732810000     1.7091630000
| 23>  H        4.1326820000    -1.2104050000    -0.5700130000
| 24>  H        2.3434690000    -0.9533530000    -2.8478410000
| 25>  H        1.9722110000    -2.1657450000    -1.8031230000
| 26>  H        2.7422400000     1.1676850000    -1.9110190000
| 27>  H        4.9852160000     0.9713620000    -0.0259530000
| 28>  H        4.2937060000     2.3640340000    -0.4717940000
| 29> *
| 30>
| 31>                          ****END OF INPUT****
 Total Charge           Charge          ....    0
 Multiplicity           Mult            ....    1
 Number of Electrons    NEL             ....   56
 Basis Dimension        Dim             ....  148

MULLIKEN ATOMIC CHARGES
-----------------------
   0 C :    0.112576
   1 C :   -0.062077
   2 O :   -0.240168
   3 C :   -0.079001
   4 N :   -0.108461
   5 C :   -0.059357
   6 N :   -0.099702
   7 H :    0.003313
   8 H :   -0.019354
   9 H :    0.023248
  10 H :    0.156956
  11 H :    0.007708
  12 H :    0.083853
  13 H :    0.093017
  14 H :    0.012100
  15 H :    0.082398
  16 H :    0.092952
Sum of atomic charges:    0.0000000

LOEWDIN ATOMIC CHARGES
----------------------
   0 C :   -0.066618
   1 C :   -0.033345
   2 O :   -0.092927
   3 C :   -0.031314
   4 N :   -0.078575
   5 C :   -0.013520
   6 N :   -0.079124
   7 H :    0.021297
   8 H :    0.020429
   9 H :    0.031710
  10 H :    0.071953
  11 H :    0.016559
  12 H :    0.050903
  13 H :    0.052487
  14 H :    0.019857
  15 H :    0.051402
  16 H :    0.058828

  Mayer bond orders larger than 0.1
B(  0-C ,  1-C ) :   1.0861 B(  0-C ,  7-H ) :   0.9432 B(  0-C ,  8-H ) :   0.9264
B(  0-C ,  9-H ) :   0.9506 B(  1-C ,  2-O ) :   1.0955 B(  1-C ,  3-C ) :   0.8407
B(  1-C ,  5-C ) :   0.8390 B(  2-O , 10-H ) :   0.9785 B(  3-C ,  4-N ) :   1.1827
B(  3-C ,  5-C ) :   0.9386 B(  3-C , 11-H ) :   0.9285 B(  4-N , 12-H ) :   0.9646
B(  4-N , 13-H ) :   0.9703 B(  5-C ,  6-N ) :   1.1914 B(  5-C , 14-H ) :   0.9361
B(  6-N , 15-H ) :   0.9504 B(  6-N , 16-H ) :   0.9638

FINAL SINGLE POINT ENERGY      -342.448361623278

DIPOLE MOMENT
-------------
                                X             Y             Z
Electronic contribution:      2.70093       0.14200       1.31960
Nuclear contribution   :     -3.49904      -0.33832      -0.93226
                        -----------------------------------------
Total Dipole Moment    :     -0.79811      -0.19632       0.38734
                        -----------------------------------------
Magnitude (a.u.)       :      0.90860
Magnitude (Debye)      :      2.30948

                             ****ORCA TERMINATED NORMALLY****
TOTAL RUN TIME: 0 days 0 hours 0 minutes 7 seconds 651 msec
