                         Program Version 3.0.3 - RELEASE   -
|  1> ! RI PBE def2-SVP def2-SVP/J NBO PAL2
|  2> % maxcore 2000
|  3> % output
|  4>     # printlevel mini
|  5>     print[ P_Basis ] 0
|  6>     print[ P_SCFInfo ] 1
|  7>     print[ P_SCFIterInfo ] 1
|  8>     print[ P_OrbEn ] 0
|  9>     print[ P_Cartesian ] 0
| 10> end
| 11> *xyz 0 1
| 12>  C        1.0288230000    -0.1008920000     0.0616040000
| 13>  C        2.4918880000     0.0852330000     0.0610910000
| 14>  C        3.3323360000     1.1512770000     0.0578630000
| 15>  O        3.0841020000     2.4730610000     0.0538170000
| 16>  N        4.6349050000     0.7297990000     0.0592070000
| 17>  C        4.5441270000    -0.5537890000     0.0631150000
| 18>  O        3.2936420000    -1.0299380000     0.0645300000
| 19>  H        0.5252750000     0.8682510000     0.0587620000
| 20>  H        0.6884310000    -0.6453040000     0.9473240000
| 21>  H        0.6884540000    -0.6504870000    -0.8209190000
| 22>  H        2.1344270000     2.6188870000     0.0532520000
| 23>  H        5.3462000000    -1.2752770000     0.0653530000
| 24> *
| 25>
| 26>                          ****END OF INPUT****
 Total Charge           Charge          ....    0
 Multiplicity           Mult            ....    1
 Number of Electrons    NEL             ....   52
 Basis Dimension        Dim             ....  123

MULLIKEN ATOMIC CHARGES
-----------------------
   0 C :    0.096802
   1 C :   -0.107521
   2 C :    0.004355
   3 O :   -0.130135
   4 N :   -0.105328
   5 C :    0.128050
   6 O :   -0.170198
   7 H :    0.002555
   8 H :    0.046143
   9 H :    0.046211
  10 H :    0.165334
  11 H :    0.023732
Sum of atomic charges:   -0.0000000

LOEWDIN ATOMIC CHARGES
----------------------
   0 C :   -0.064812
   1 C :   -0.079090
   2 C :   -0.023811
   3 O :   -0.017938
   4 N :   -0.096135
   5 C :    0.028472
   6 O :    0.024249
   7 H :    0.035001
   8 H :    0.043132
   9 H :    0.043138
  10 H :    0.088010
  11 H :    0.019785

  Mayer bond orders larger than 0.1
B(  0-C ,  1-C ) :   1.1285 B(  0-C ,  7-H ) :   0.9380 B(  0-C ,  8-H ) :   0.9352
B(  0-C ,  9-H ) :   0.9352 B(  1-C ,  2-C ) :   1.4724 B(  1-C ,  5-C ) :   0.1006
B(  1-C ,  6-O ) :   1.0870 B(  2-C ,  3-O ) :   1.2534 B(  2-C ,  4-N ) :   1.3391
B(  3-O , 10-H ) :   0.9635 B(  4-N ,  5-C ) :   1.7056 B(  5-C ,  6-O ) :   1.1966
B(  5-C , 11-H ) :   0.9765

FINAL SINGLE POINT ENERGY      -359.940026083295

DIPOLE MOMENT
-------------
                                X             Y             Z
Electronic contribution:      4.83024       0.74994      -0.00209
Nuclear contribution   :     -6.02041      -1.08128       0.00302
                        -----------------------------------------
Total Dipole Moment    :     -1.19016      -0.33134       0.00093
                        -----------------------------------------
Magnitude (a.u.)       :      1.23543
Magnitude (Debye)      :      3.14020

                             ****ORCA TERMINATED NORMALLY****
TOTAL RUN TIME: 0 days 0 hours 0 minutes 5 seconds 970 msec
