                         Program Version 3.0.3 - RELEASE   -
|  1> ! RI PBE def2-SVP def2-SVP/J NBO PAL2
|  2> % maxcore 2000
|  3> % output
|  4>     # printlevel mini
|  5>     print[ P_Basis ] 0
|  6>     print[ P_SCFInfo ] 1
|  7>     print[ P_SCFIterInfo ] 1
|  8>     print[ P_OrbEn ] 0
|  9>     print[ P_Cartesian ] 0
| 10> end
| 11> *xyz 0 1
| 12>  C        1.1903620000    -0.0498900000     0.0832340000
| 13>  C        2.4972540000     0.0061050000    -0.1013970000
| 14>  O        3.2855850000    -1.0852490000    -0.3951970000
| 15>  C        4.5340730000    -0.5773310000    -0.4978920000
| 16>  N        4.7111900000     0.6702340000    -0.3218470000
| 17>  C        3.4191310000     1.1824960000    -0.0473190000
| 18>  O        3.1325180000     2.3221000000     0.1799820000
| 19>  H        0.6366470000    -0.9769460000     0.0149950000
| 20>  H        0.6697680000     0.8713590000     0.3097640000
| 21>  H        5.2992720000    -1.3083680000    -0.7298230000
| 22> *
| 23>
| 24>                          ****END OF INPUT****
 Total Charge           Charge          ....    0
 Multiplicity           Mult            ....    1
 Number of Electrons    NEL             ....   50
 Basis Dimension        Dim             ....  113

MULLIKEN ATOMIC CHARGES
-----------------------
   0 C :   -0.024384
   1 C :    0.030652
   2 O :   -0.182972
   3 C :    0.181144
   4 N :   -0.131046
   5 C :    0.076078
   6 O :   -0.103520
   7 H :    0.052036
   8 H :    0.058202
   9 H :    0.043810
Sum of atomic charges:   -0.0000000

LOEWDIN ATOMIC CHARGES
----------------------
   0 C :   -0.006884
   1 C :   -0.012344
   2 O :   -0.009631
   3 C :    0.096138
   4 N :   -0.116834
   5 C :    0.015094
   6 O :   -0.091730
   7 H :    0.044216
   8 H :    0.052181
   9 H :    0.029794

  Mayer bond orders larger than 0.1
B(  0-C ,  1-C ) :   1.9379 B(  0-C ,  7-H ) :   0.9276 B(  0-C ,  8-H ) :   0.9133
B(  1-C ,  2-O ) :   1.0458 B(  1-C ,  5-C ) :   0.8811 B(  2-O ,  3-C ) :   1.1375
B(  3-C ,  4-N ) :   1.7928 B(  3-C ,  9-H ) :   0.9689 B(  4-N ,  5-C ) :   1.1266
B(  5-C ,  6-O ) :   2.1922

FINAL SINGLE POINT ENERGY      -358.730642738318

DIPOLE MOMENT
-------------
                                X             Y             Z
Electronic contribution:      2.41906       0.96872      -0.20182
Nuclear contribution   :     -2.93316      -2.31714       0.05906
                        -----------------------------------------
Total Dipole Moment    :     -0.51410      -1.34841      -0.14276
                        -----------------------------------------
Magnitude (a.u.)       :      1.45014
Magnitude (Debye)      :      3.68596

                             ****ORCA TERMINATED NORMALLY****
TOTAL RUN TIME: 0 days 0 hours 0 minutes 5 seconds 610 msec
