                         Program Version 3.0.3 - RELEASE   -
|  1> ! RI PBE def2-SVP def2-SVP/J NBO PAL2
|  2> % maxcore 2000
|  3> % output
|  4>     # printlevel mini
|  5>     print[ P_Basis ] 0
|  6>     print[ P_SCFInfo ] 1
|  7>     print[ P_SCFIterInfo ] 1
|  8>     print[ P_OrbEn ] 0
|  9>     print[ P_Cartesian ] 0
| 10> end
| 11> *xyz 0 1
| 12>  C        0.8939210000    -0.0089120000    -0.0123550000
| 13>  C        2.3872720000    -0.1061010000     0.0192820000
| 14>  O        2.9524260000     0.0226720000     1.2972240000
| 15>  C        3.1556690000    -0.9756750000    -0.9636050000
| 16>  N        2.5290720000    -1.7310840000    -1.9981270000
| 17>  C        3.2448980000     0.5271200000    -1.0296170000
| 18>  O        4.3995190000     1.1847500000    -0.6523570000
| 19>  H        0.4326150000    -0.8385670000     0.5340890000
| 20>  H        0.5197820000    -0.0307060000    -1.0371690000
| 21>  H        0.5681460000     0.9244260000     0.4518080000
| 22>  H        3.0034790000    -0.8460270000     1.7056860000
| 23>  H        4.0443960000    -1.4304260000    -0.5257030000
| 24>  H        2.3494110000    -1.1884160000    -2.8298450000
| 25>  H        1.6756860000    -2.1861610000    -1.7073120000
| 26>  H        2.7408120000     1.0081100000    -1.8645100000
| 27>  H        4.4453950000     1.1173970000     0.3103120000
| 28> *
| 29>
| 30>                          ****END OF INPUT****
 Total Charge           Charge          ....    0
 Multiplicity           Mult            ....    1
 Number of Electrons    NEL             ....   56
 Basis Dimension        Dim             ....  143

MULLIKEN ATOMIC CHARGES
-----------------------
   0 C :    0.123736
   1 C :   -0.102389
   2 O :   -0.248980
   3 C :   -0.085794
   4 N :   -0.115704
   5 C :    0.102221
   6 O :   -0.217742
   7 H :    0.010750
   8 H :   -0.013277
   9 H :    0.028923
  10 H :    0.167804
  11 H :    0.005997
  12 H :    0.090638
  13 H :    0.094812
  14 H :    0.008902
  15 H :    0.150102
Sum of atomic charges:   -0.0000000

LOEWDIN ATOMIC CHARGES
----------------------
   0 C :   -0.063571
   1 C :   -0.026561
   2 O :   -0.082766
   3 C :   -0.046470
   4 N :   -0.077731
   5 C :    0.028540
   6 O :   -0.087112
   7 H :    0.024727
   8 H :    0.022956
   9 H :    0.035701
  10 H :    0.077288
  11 H :    0.014771
  12 H :    0.053435
  13 H :    0.051914
  14 H :    0.014708
  15 H :    0.060171

  Mayer bond orders larger than 0.1
B(  0-C ,  1-C ) :   1.0810 B(  0-C ,  7-H ) :   0.9450 B(  0-C ,  8-H ) :   0.9261
B(  0-C ,  9-H ) :   0.9474 B(  1-C ,  2-O ) :   1.0665 B(  1-C ,  3-C ) :   0.8609
B(  1-C ,  5-C ) :   0.8928 B(  2-O , 10-H ) :   0.9722 B(  3-C ,  4-N ) :   1.1775
B(  3-C ,  5-C ) :   0.8755 B(  3-C , 11-H ) :   0.9200 B(  4-N , 12-H ) :   0.9677
B(  4-N , 13-H ) :   0.9683 B(  5-C ,  6-O ) :   1.1804 B(  5-C , 14-H ) :   0.9455
B(  6-O , 15-H ) :   0.9534

FINAL SINGLE POINT ENERGY      -362.290817378575

DIPOLE MOMENT
-------------
                                X             Y             Z
Electronic contribution:      4.23338       1.51673       1.17911
Nuclear contribution   :     -5.10477      -1.99800      -0.83155
                        -----------------------------------------
Total Dipole Moment    :     -0.87139      -0.48127       0.34755
                        -----------------------------------------
Magnitude (a.u.)       :      1.05439
Magnitude (Debye)      :      2.68004

                             ****ORCA TERMINATED NORMALLY****
TOTAL RUN TIME: 0 days 0 hours 0 minutes 7 seconds 261 msec
