                         Program Version 3.0.3 - RELEASE   -
|  1> ! RI PBE def2-SVP def2-SVP/J NBO PAL2
|  2> % maxcore 2000
|  3> % output
|  4>     # printlevel mini
|  5>     print[ P_Basis ] 0
|  6>     print[ P_SCFInfo ] 1
|  7>     print[ P_SCFIterInfo ] 1
|  8>     print[ P_OrbEn ] 0
|  9>     print[ P_Cartesian ] 0
| 10> end
| 11> *xyz 0 1
| 12>  C        1.0223770000     0.0666990000     0.2237510000
| 13>  C        2.5102760000     0.1517840000    -0.0141050000
| 14>  O        2.8402200000     0.1683660000    -1.3706710000
| 15>  C        3.2772060000     1.1834290000     0.8703240000
| 16>  N        3.8775060000     0.0467550000     1.5525770000
| 17>  C        3.3193310000    -0.9195440000     0.7718540000
| 18>  O        3.4134740000    -2.1125540000     0.7416280000
| 19>  H        0.5122020000     0.9296660000    -0.2180110000
| 20>  H        0.7919940000     0.0496370000     1.2905190000
| 21>  H        0.6295750000    -0.8470440000    -0.2268390000
| 22>  H        2.1141540000     0.5583770000    -1.8644020000
| 23>  H        2.6608860000     1.8215090000     1.5095420000
| 24>  H        3.9835780000     1.7841590000     0.2935940000
| 25>  H        4.5385330000    -0.0134680000     2.3102280000
| 26> *
| 27>
| 28>                          ****END OF INPUT****
 Total Charge           Charge          ....    0
 Multiplicity           Mult            ....    1
 Number of Electrons    NEL             ....   54
 Basis Dimension        Dim             ....  133

MULLIKEN ATOMIC CHARGES
-----------------------
   0 C :    0.049509
   1 C :   -0.293989
   2 O :   -0.214126
   3 C :    0.300631
   4 N :   -0.216240
   5 C :    0.163916
   6 O :   -0.157232
   7 H :    0.024297
   8 H :    0.024987
   9 H :    0.048450
  10 H :    0.154580
  11 H :    0.003671
  12 H :    0.008726
  13 H :    0.102820
Sum of atomic charges:    0.0000000

LOEWDIN ATOMIC CHARGES
----------------------
   0 C :   -0.063726
   1 C :   -0.009516
   2 O :   -0.081501
   3 C :    0.029760
   4 N :   -0.000411
   5 C :    0.013717
   6 O :   -0.152020
   7 H :    0.026055
   8 H :    0.037767
   9 H :    0.038369
  10 H :    0.071227
  11 H :    0.011190
  12 H :    0.017147
  13 H :    0.061941

  Mayer bond orders larger than 0.1
B(  0-C ,  1-C ) :   1.0396 B(  0-C ,  7-H ) :   0.9524 B(  0-C ,  8-H ) :   0.9385
B(  0-C ,  9-H ) :   0.9559 B(  1-C ,  2-O ) :   1.1170 B(  1-C ,  3-C ) :   0.9657
B(  1-C ,  5-C ) :   0.8009 B(  2-O , 10-H ) :   0.9760 B(  3-C ,  4-N ) :   1.0341
B(  3-C , 11-H ) :   0.9223 B(  3-C , 12-H ) :   0.9101 B(  4-N ,  5-C ) :   1.1908
B(  4-N ,  6-O ) :   0.1202 B(  4-N , 13-H ) :   0.9381 B(  5-C ,  6-O ) :   2.2109

FINAL SINGLE POINT ENERGY      -361.134273139103

DIPOLE MOMENT
-------------
                                X             Y             Z
Electronic contribution:      4.10867      -3.81575      -0.15544
Nuclear contribution   :     -4.62442       5.31775       0.48349
                        -----------------------------------------
Total Dipole Moment    :     -0.51576       1.50200       0.32805
                        -----------------------------------------
Magnitude (a.u.)       :      1.62161
Magnitude (Debye)      :      4.12181

                             ****ORCA TERMINATED NORMALLY****
TOTAL RUN TIME: 0 days 0 hours 0 minutes 6 seconds 743 msec
