                         Program Version 3.0.3 - RELEASE   -
|  1> ! RI PBE def2-SVP def2-SVP/J NBO PAL2
|  2> % maxcore 2000
|  3> % output
|  4>     # printlevel mini
|  5>     print[ P_Basis ] 0
|  6>     print[ P_SCFInfo ] 1
|  7>     print[ P_SCFIterInfo ] 1
|  8>     print[ P_OrbEn ] 0
|  9>     print[ P_Cartesian ] 0
| 10> end
| 11> *xyz 0 1
| 12>  C        0.9168260000     0.1523100000    -0.0173790000
| 13>  C        2.2468720000     0.1206800000    -0.0185640000
| 14>  O        2.9678970000     1.2944160000    -0.0200110000
| 15>  C        4.3071240000     1.1849980000    -0.0211620000
| 16>  N        5.0057860000     0.1288140000    -0.0210860000
| 17>  N        4.3351720000    -1.1007890000    -0.0196360000
| 18>  C        3.0591390000    -1.0785070000    -0.0184880000
| 19>  H        0.3717920000     1.0861680000    -0.0175180000
| 20>  H        0.3658570000    -0.7774950000    -0.0162490000
| 21>  H        4.7861590000     2.1579390000    -0.0222600000
| 22>  H        2.5467660000    -2.0372330000    -0.0173680000
| 23> *
| 24>
| 25>                          ****END OF INPUT****
 Total Charge           Charge          ....    0
 Multiplicity           Mult            ....    1
 Number of Electrons    NEL             ....   50
 Basis Dimension        Dim             ....  118

MULLIKEN ATOMIC CHARGES
-----------------------
   0 C :   -0.054288
   1 C :    0.066695
   2 O :   -0.178225
   3 C :    0.163318
   4 N :   -0.102842
   5 N :   -0.059629
   6 C :    0.033362
   7 H :    0.038364
   8 H :    0.029865
   9 H :    0.042583
  10 H :    0.020796
Sum of atomic charges:    0.0000000

LOEWDIN ATOMIC CHARGES
----------------------
   0 C :   -0.086622
   1 C :    0.003144
   2 O :    0.001025
   3 C :    0.063018
   4 N :   -0.087010
   5 N :   -0.030322
   6 C :   -0.005211
   7 H :    0.036250
   8 H :    0.038008
   9 H :    0.031408
  10 H :    0.036312

  Mayer bond orders larger than 0.1
B(  0-C ,  1-C ) :   1.8569 B(  0-C ,  5-N ) :   0.1035 B(  0-C ,  7-H ) :   0.9283
B(  0-C ,  8-H ) :   0.9287 B(  1-C ,  2-O ) :   1.0338 B(  1-C ,  6-C ) :   1.0546
B(  2-O ,  3-C ) :   1.1390 B(  3-C ,  4-N ) :   1.8612 B(  3-C ,  9-H ) :   0.9608
B(  4-N ,  5-N ) :   1.0302 B(  5-N ,  6-C ) :   1.8605 B(  6-C , 10-H ) :   0.9600

FINAL SINGLE POINT ENERGY      -338.831225219382

DIPOLE MOMENT
-------------
                                X             Y             Z
Electronic contribution:      3.61571       0.51582      -0.00361
Nuclear contribution   :     -4.63850      -0.05862       0.00425
                        -----------------------------------------
Total Dipole Moment    :     -1.02279       0.45719       0.00064
                        -----------------------------------------
Magnitude (a.u.)       :      1.12032
Magnitude (Debye)      :      2.84763

                             ****ORCA TERMINATED NORMALLY****
TOTAL RUN TIME: 0 days 0 hours 0 minutes 5 seconds 502 msec
