                         Program Version 3.0.3 - RELEASE   -
|  1> ! RI PBE def2-SVP def2-SVP/J NBO PAL2
|  2> % maxcore 2000
|  3> % output
|  4>     # printlevel mini
|  5>     print[ P_Basis ] 0
|  6>     print[ P_SCFInfo ] 1
|  7>     print[ P_SCFIterInfo ] 1
|  8>     print[ P_OrbEn ] 0
|  9>     print[ P_Cartesian ] 0
| 10> end
| 11> *xyz 0 1
| 12>  C        0.9526370000     0.1138160000     0.0293600000
| 13>  C        2.4783730000     0.1209710000     0.0826550000
| 14>  O        2.9575500000     0.0878880000     1.4072920000
| 15>  C        3.0431800000     1.2248570000    -0.7769840000
| 16>  N        3.6696650000     0.8010890000    -1.7964590000
| 17>  N        3.6680210000    -0.6458150000    -1.7591910000
| 18>  C        3.0490240000    -1.0186250000    -0.7160050000
| 19>  H        0.5566120000     1.0121770000     0.5121470000
| 20>  H        0.5709560000    -0.7622820000     0.5565800000
| 21>  H        0.5908660000     0.0955570000    -1.0004020000
| 22>  H        2.4798290000     0.7448950000     1.9218910000
| 23>  H        2.9175630000     2.2879700000    -0.5952840000
| 24>  H        2.9257130000    -2.0675960000    -0.4694000000
| 25> *
| 26>
| 27>                          ****END OF INPUT****
 Total Charge           Charge          ....    0
 Multiplicity           Mult            ....    1
 Number of Electrons    NEL             ....   52
 Basis Dimension        Dim             ....  128

MULLIKEN ATOMIC CHARGES
-----------------------
   0 C :    0.039952
   1 C :   -0.119220
   2 O :   -0.237795
   3 C :    0.074004
   4 N :   -0.089240
   5 N :   -0.087142
   6 C :    0.084786
   7 H :    0.028874
   8 H :    0.046460
   9 H :    0.045951
  10 H :    0.162807
  11 H :    0.021981
  12 H :    0.028581
Sum of atomic charges:    0.0000000

LOEWDIN ATOMIC CHARGES
----------------------
   0 C :   -0.049202
   1 C :   -0.025903
   2 O :   -0.081419
   3 C :   -0.009105
   4 N :   -0.042976
   5 N :   -0.040694
   6 C :    0.009043
   7 H :    0.030325
   8 H :    0.036874
   9 H :    0.044518
  10 H :    0.074272
  11 H :    0.024748
  12 H :    0.029517

  Mayer bond orders larger than 0.1
B(  0-C ,  1-C ) :   1.0091 B(  0-C ,  7-H ) :   0.9524 B(  0-C ,  8-H ) :   0.9559
B(  0-C ,  9-H ) :   0.9437 B(  1-C ,  2-O ) :   1.0374 B(  1-C ,  3-C ) :   0.9346
B(  1-C ,  6-C ) :   0.9374 B(  2-O , 10-H ) :   0.9759 B(  3-C ,  4-N ) :   1.9295
B(  3-C , 11-H ) :   0.9674 B(  4-N ,  5-N ) :   0.9825 B(  5-N ,  6-C ) :   1.9303
B(  6-C , 12-H ) :   0.9702

FINAL SINGLE POINT ENERGY      -340.027235616798

DIPOLE MOMENT
-------------
                                X             Y             Z
Electronic contribution:      4.91758      -0.26252      -2.07580
Nuclear contribution   :     -6.32343       0.64394       3.34480
                        -----------------------------------------
Total Dipole Moment    :     -1.40585       0.38143       1.26900
                        -----------------------------------------
Magnitude (a.u.)       :      1.93191
Magnitude (Debye)      :      4.91051

                             ****ORCA TERMINATED NORMALLY****
TOTAL RUN TIME: 0 days 0 hours 0 minutes 6 seconds 202 msec
