                         Program Version 3.0.3 - RELEASE   -
|  1> ! RI PBE def2-SVP def2-SVP/J NBO PAL2
|  2> % maxcore 2000
|  3> % output
|  4>     # printlevel mini
|  5>     print[ P_Basis ] 0
|  6>     print[ P_SCFInfo ] 1
|  7>     print[ P_SCFIterInfo ] 1
|  8>     print[ P_OrbEn ] 0
|  9>     print[ P_Cartesian ] 0
| 10> end
| 11> *xyz 0 1
| 12>  C        1.0575850000    -0.0509560000    -0.0795600000
| 13>  C        2.5754430000    -0.1323960000    -0.0166180000
| 14>  O        3.1464610000     0.0239690000    -1.3001220000
| 15>  C        3.0716400000    -1.3914260000     0.7130070000
| 16>  N        3.2233500000    -0.9130690000     2.0852260000
| 17>  N        3.4786400000     0.4407180000     2.0574920000
| 18>  C        3.1274560000     0.9065980000     0.9270940000
| 19>  H        0.6580300000    -0.8393860000    -0.7273300000
| 20>  H        0.7409630000     0.9178380000    -0.4714950000
| 21>  H        0.6273890000    -0.1847680000     0.9151540000
| 22>  H        2.5683860000    -0.3948470000    -1.9434410000
| 23>  H        4.0314710000    -1.6851560000     0.2693250000
| 24>  H        2.3717110000    -2.2276730000     0.6595340000
| 25>  H        3.9104250000    -1.3869070000     2.6527050000
| 26>  H        3.1729590000     1.9672800000     0.7145410000
| 27> *
| 28>
| 29>                          ****END OF INPUT****
 Total Charge           Charge          ....    0
 Multiplicity           Mult            ....    1
 Number of Electrons    NEL             ....   54
 Basis Dimension        Dim             ....  138

MULLIKEN ATOMIC CHARGES
-----------------------
   0 C :    0.055889
   1 C :   -0.184241
   2 O :   -0.238767
   3 C :    0.219983
   4 N :   -0.152422
   5 N :   -0.082913
   6 C :    0.012340
   7 H :    0.016136
   8 H :    0.029151
   9 H :    0.034007
  10 H :    0.149930
  11 H :    0.010942
  12 H :    0.003248
  13 H :    0.117908
  14 H :    0.008810
Sum of atomic charges:    0.0000000

LOEWDIN ATOMIC CHARGES
----------------------
   0 C :   -0.062298
   1 C :   -0.009326
   2 O :   -0.098054
   3 C :    0.003872
   4 N :   -0.018862
   5 N :   -0.034268
   6 C :   -0.058415
   7 H :    0.022687
   8 H :    0.030693
   9 H :    0.039100
  10 H :    0.066013
  11 H :    0.018166
  12 H :    0.019853
  13 H :    0.059898
  14 H :    0.020940

  Mayer bond orders larger than 0.1
B(  0-C ,  1-C ) :   1.0409 B(  0-C ,  7-H ) :   0.9470 B(  0-C ,  8-H ) :   0.9573
B(  0-C ,  9-H ) :   0.9416 B(  1-C ,  2-O ) :   1.0861 B(  1-C ,  3-C ) :   1.0068
B(  1-C ,  6-C ) :   0.9416 B(  2-O , 10-H ) :   0.9796 B(  3-C ,  4-N ) :   0.9835
B(  3-C , 11-H ) :   0.9146 B(  3-C , 12-H ) :   0.9253 B(  4-N ,  5-N ) :   1.0986
B(  4-N ,  6-C ) :   0.1042 B(  4-N , 13-H ) :   0.9388 B(  5-N ,  6-C ) :   1.8832
B(  6-C , 14-H ) :   0.9780

FINAL SINGLE POINT ENERGY      -341.254416173953

DIPOLE MOMENT
-------------
                                X             Y             Z
Electronic contribution:      3.57891       1.44870       1.83339
Nuclear contribution   :     -4.05521      -2.23566      -2.40733
                        -----------------------------------------
Total Dipole Moment    :     -0.47630      -0.78696      -0.57393
                        -----------------------------------------
Magnitude (a.u.)       :      1.08424
Magnitude (Debye)      :      2.75592

                             ****ORCA TERMINATED NORMALLY****
TOTAL RUN TIME: 0 days 0 hours 0 minutes 7 seconds 442 msec
