                         Program Version 3.0.3 - RELEASE   -
|  1> ! RI PBE def2-SVP def2-SVP/J NBO PAL2
|  2> % maxcore 2000
|  3> % output
|  4>     # printlevel mini
|  5>     print[ P_Basis ] 0
|  6>     print[ P_SCFInfo ] 1
|  7>     print[ P_SCFIterInfo ] 1
|  8>     print[ P_OrbEn ] 0
|  9>     print[ P_Cartesian ] 0
| 10> end
| 11> *xyz 0 1
| 12>  C        1.0902320000     0.2135100000    -0.1199210000
| 13>  C        2.5769550000     0.0509160000     0.1300280000
| 14>  O        3.3057170000     1.1978040000    -0.3404500000
| 15>  C        3.5675600000     1.1515790000    -1.6510280000
| 16>  N        3.6572000000     0.1108900000    -2.3780660000
| 17>  N        3.6566200000    -1.1156410000    -1.7075820000
| 18>  C        3.1537820000    -1.1556560000    -0.5433460000
| 19>  H        0.7232410000     1.1280370000     0.3495580000
| 20>  H        0.5508650000    -0.6359790000     0.3056880000
| 21>  H        0.8774330000     0.2499380000    -1.1900500000
| 22>  H        2.7769420000     0.0136050000     1.2027700000
| 23>  H        3.7427790000     2.1310180000    -2.0861810000
| 24>  H        3.1787750000    -2.1091110000    -0.0197290000
| 25> *
| 26>
| 27>                          ****END OF INPUT****
 Total Charge           Charge          ....    0
 Multiplicity           Mult            ....    1
 Number of Electrons    NEL             ....   52
 Basis Dimension        Dim             ....  128

MULLIKEN ATOMIC CHARGES
-----------------------
   0 C :    0.037661
   1 C :    0.051757
   2 O :   -0.232783
   3 C :    0.141460
   4 N :   -0.118013
   5 N :   -0.062731
   6 C :   -0.030264
   7 H :    0.041528
   8 H :    0.033501
   9 H :    0.041471
  10 H :    0.033905
  11 H :    0.034231
  12 H :    0.028277
Sum of atomic charges:   -0.0000000

LOEWDIN ATOMIC CHARGES
----------------------
   0 C :   -0.064440
   1 C :    0.034599
   2 O :   -0.049235
   3 C :    0.036609
   4 N :   -0.105337
   5 N :   -0.027957
   6 C :   -0.023961
   7 H :    0.035797
   8 H :    0.040745
   9 H :    0.037004
  10 H :    0.035587
  11 H :    0.024046
  12 H :    0.026543

  Mayer bond orders larger than 0.1
B(  0-C ,  1-C ) :   1.0760 B(  0-C ,  7-H ) :   0.9515 B(  0-C ,  8-H ) :   0.9522
B(  0-C ,  9-H ) :   0.9536 B(  1-C ,  2-O ) :   0.9313 B(  1-C ,  6-C ) :   0.9771
B(  1-C , 10-H ) :   0.9139 B(  2-O ,  3-C ) :   1.1666 B(  3-C ,  4-N ) :   1.8074
B(  3-C , 11-H ) :   0.9601 B(  4-N ,  5-N ) :   1.0338 B(  5-N ,  6-C ) :   1.9282
B(  6-C , 12-H ) :   0.9618

FINAL SINGLE POINT ENERGY      -340.042278976613

DIPOLE MOMENT
-------------
                                X             Y             Z
Electronic contribution:      4.85690       0.11152      -2.65364
Nuclear contribution   :     -5.62769       0.22280       3.83181
                        -----------------------------------------
Total Dipole Moment    :     -0.77079       0.33432       1.17816
                        -----------------------------------------
Magnitude (a.u.)       :      1.44705
Magnitude (Debye)      :      3.67811

                             ****ORCA TERMINATED NORMALLY****
TOTAL RUN TIME: 0 days 0 hours 0 minutes 5 seconds 826 msec
