                         Program Version 3.0.3 - RELEASE   -
|  1> ! RI PBE def2-SVP def2-SVP/J NBO PAL2
|  2> % maxcore 2000
|  3> % output
|  4>     # printlevel mini
|  5>     print[ P_Basis ] 0
|  6>     print[ P_SCFInfo ] 1
|  7>     print[ P_SCFIterInfo ] 1
|  8>     print[ P_OrbEn ] 0
|  9>     print[ P_Cartesian ] 0
| 10> end
| 11> *xyz 0 1
| 12>  C        0.9659790000     0.0665870000     0.0332670000
| 13>  C        2.4346390000    -0.1533510000    -0.1742360000
| 14>  O        3.2481240000     0.8781800000     0.4665550000
| 15>  C        4.0129970000    -0.0421920000     1.1179800000
| 16>  O        4.9848500000     0.1500290000     1.7656790000
| 17>  C        3.1681150000    -1.2311360000     0.6606200000
| 18>  N        3.8528870000    -2.3537860000     0.1136240000
| 19>  H        0.6392410000     0.9979030000    -0.4333950000
| 20>  H        0.7278810000     0.1140520000     1.0985110000
| 21>  H        0.3981960000    -0.7536630000    -0.4138380000
| 22>  H        2.6984250000    -0.2010600000    -1.2351590000
| 23>  H        2.5357570000    -1.5613220000     1.4911670000
| 24>  H        4.4461660000    -2.1104300000    -0.6677120000
| 25>  H        3.2247530000    -3.0951010000    -0.1614540000
| 26> *
| 27>
| 28>                          ****END OF INPUT****
 Total Charge           Charge          ....    0
 Multiplicity           Mult            ....    1
 Number of Electrons    NEL             ....   54
 Basis Dimension        Dim             ....  133

MULLIKEN ATOMIC CHARGES
-----------------------
   0 C :    0.057508
   1 C :    0.067519
   2 O :   -0.247387
   3 C :    0.138324
   4 O :   -0.116852
   5 C :   -0.109429
   6 N :   -0.124641
   7 H :    0.040183
   8 H :    0.023086
   9 H :    0.031449
  10 H :    0.004387
  11 H :    0.035908
  12 H :    0.097844
  13 H :    0.102101
Sum of atomic charges:   -0.0000000

LOEWDIN ATOMIC CHARGES
----------------------
   0 C :   -0.068805
   1 C :    0.047460
   2 O :   -0.083731
   3 C :    0.028922
   4 O :   -0.100049
   5 C :   -0.040642
   6 N :   -0.066393
   7 H :    0.038429
   8 H :    0.032309
   9 H :    0.037801
  10 H :    0.014419
  11 H :    0.041654
  12 H :    0.058776
  13 H :    0.059851

  Mayer bond orders larger than 0.1
B(  0-C ,  1-C ) :   1.0929 B(  0-C ,  7-H ) :   0.9497 B(  0-C ,  8-H ) :   0.9467
B(  0-C ,  9-H ) :   0.9498 B(  1-C ,  2-O ) :   0.9866 B(  1-C ,  5-C ) :   0.9710
B(  1-C , 10-H ) :   0.9100 B(  2-O ,  3-C ) :   1.1211 B(  2-O ,  4-O ) :   0.1145
B(  3-C ,  4-O ) :   2.2517 B(  3-C ,  5-C ) :   0.8954 B(  5-C ,  6-N ) :   1.1721
B(  5-C , 11-H ) :   0.8865 B(  6-N , 12-H ) :   0.9631 B(  6-N , 13-H ) :   0.9650

FINAL SINGLE POINT ENERGY      -361.136611711353

DIPOLE MOMENT
-------------
                                X             Y             Z
Electronic contribution:      6.17474       2.76497       2.87867
Nuclear contribution   :     -7.48454      -3.61817      -3.96769
                        -----------------------------------------
Total Dipole Moment    :     -1.30980      -0.85320      -1.08902
                        -----------------------------------------
Magnitude (a.u.)       :      1.90513
Magnitude (Debye)      :      4.84244

                             ****ORCA TERMINATED NORMALLY****
TOTAL RUN TIME: 0 days 0 hours 0 minutes 6 seconds 452 msec
