                         Program Version 3.0.3 - RELEASE   -
|  1> ! RI PBE def2-SVP def2-SVP/J NBO PAL2
|  2> % maxcore 2000
|  3> % output
|  4>     # printlevel mini
|  5>     print[ P_Basis ] 0
|  6>     print[ P_SCFInfo ] 1
|  7>     print[ P_SCFIterInfo ] 1
|  8>     print[ P_OrbEn ] 0
|  9>     print[ P_Cartesian ] 0
| 10> end
| 11> *xyz 0 1
| 12>  C        1.0313820000     0.0176740000     0.0717620000
| 13>  C        2.3616910000     0.0609040000     0.1288960000
| 14>  O        3.0228270000     1.1945630000     0.4809120000
| 15>  C        4.3637140000     1.1386790000     0.0623530000
| 16>  O        5.0335380000     0.0271090000     0.5736290000
| 17>  N        4.4567430000    -1.1701800000     0.1904820000
| 18>  C        3.2066040000    -1.1076880000    -0.0671960000
| 19>  H        0.4350690000     0.8975610000     0.2726600000
| 20>  H        0.5318160000    -0.9152980000    -0.1478520000
| 21>  H        4.8676230000     2.0191580000     0.4541360000
| 22>  H        4.4008600000     1.1047800000    -1.0356440000
| 23>  H        2.7501240000    -2.0409810000    -0.3781380000
| 24> *
| 25>
| 26>                          ****END OF INPUT****
 Total Charge           Charge          ....    0
 Multiplicity           Mult            ....    1
 Number of Electrons    NEL             ....   52
 Basis Dimension        Dim             ....  123

MULLIKEN ATOMIC CHARGES
-----------------------
   0 C :   -0.055254
   1 C :    0.090601
   2 O :   -0.249634
   3 C :    0.299356
   4 O :   -0.245470
   5 N :    0.046354
   6 C :   -0.047717
   7 H :    0.037939
   8 H :    0.028246
   9 H :    0.044461
  10 H :    0.029196
  11 H :    0.021922
Sum of atomic charges:   -0.0000000

LOEWDIN ATOMIC CHARGES
----------------------
   0 C :   -0.074924
   1 C :   -0.003694
   2 O :   -0.073364
   3 C :    0.124219
   4 O :   -0.069932
   5 N :    0.012745
   6 C :   -0.061161
   7 H :    0.035721
   8 H :    0.035625
   9 H :    0.029263
  10 H :    0.005621
  11 H :    0.039880

  Mayer bond orders larger than 0.1
B(  0-C ,  1-C ) :   1.8440 B(  0-C ,  5-N ) :   0.1120 B(  0-C ,  7-H ) :   0.9281
B(  0-C ,  8-H ) :   0.9316 B(  1-C ,  2-O ) :   1.1221 B(  1-C ,  6-C ) :   1.0217
B(  2-O ,  3-C ) :   1.0033 B(  3-C ,  4-O ) :   1.0291 B(  3-C ,  9-H ) :   0.9547
B(  3-C , 10-H ) :   0.9356 B(  4-O ,  5-N ) :   0.9712 B(  5-N ,  6-C ) :   1.8453
B(  6-C , 11-H ) :   0.9533

FINAL SINGLE POINT ENERGY      -359.859015769835

DIPOLE MOMENT
-------------
                                X             Y             Z
Electronic contribution:      3.13343      -0.39167       1.32175
Nuclear contribution   :     -3.70316       0.74654      -1.77055
                        -----------------------------------------
Total Dipole Moment    :     -0.56973       0.35487      -0.44880
                        -----------------------------------------
Magnitude (a.u.)       :      0.80743
Magnitude (Debye)      :      2.05232

                             ****ORCA TERMINATED NORMALLY****
TOTAL RUN TIME: 0 days 0 hours 0 minutes 5 seconds 830 msec
