                         Program Version 3.0.3 - RELEASE   -
|  1> ! RI PBE def2-SVP def2-SVP/J NBO PAL2
|  2> % maxcore 2000
|  3> % output
|  4>     # printlevel mini
|  5>     print[ P_Basis ] 0
|  6>     print[ P_SCFInfo ] 1
|  7>     print[ P_SCFIterInfo ] 1
|  8>     print[ P_OrbEn ] 0
|  9>     print[ P_Cartesian ] 0
| 10> end
| 11> *xyz 0 1
| 12>  C        1.0386210000    -0.1163000000    -0.1099790000
| 13>  C        2.5487320000    -0.1062600000     0.0487370000
| 14>  O        3.1796420000     0.1619560000    -1.1952900000
| 15>  C        3.1083580000    -1.3510990000     0.7452480000
| 16>  O        3.9933370000    -0.8783380000     1.7678160000
| 17>  N        3.8385220000     0.4773490000     1.9071340000
| 18>  C        3.0517070000     0.9245980000     1.0200550000
| 19>  H        0.7277320000    -0.9395720000    -0.7620400000
| 20>  H        0.6997590000     0.8212070000    -0.5553320000
| 21>  H        0.5396780000    -0.2457180000     0.8514980000
| 22>  H        2.6914370000    -0.2920950000    -1.8884120000
| 23>  H        3.6771130000    -1.9764160000     0.0556380000
| 24>  H        2.3216070000    -1.9408360000     1.2248070000
| 25>  H        2.8371450000     1.9841230000     0.9715180000
| 26> *
| 27>
| 28>                          ****END OF INPUT****
 Total Charge           Charge          ....    0
 Multiplicity           Mult            ....    1
 Number of Electrons    NEL             ....   54
 Basis Dimension        Dim             ....  133

MULLIKEN ATOMIC CHARGES
-----------------------
   0 C :    0.028517
   1 C :   -0.226718
   2 O :   -0.241136
   3 C :    0.338993
   4 O :   -0.273374
   5 N :    0.029368
   6 C :    0.033293
   7 H :    0.028361
   8 H :    0.037086
   9 H :    0.034036
  10 H :    0.152906
  11 H :    0.016285
  12 H :    0.016669
  13 H :    0.025713
Sum of atomic charges:   -0.0000000

LOEWDIN ATOMIC CHARGES
----------------------
   0 C :   -0.065230
   1 C :   -0.016169
   2 O :   -0.099336
   3 C :    0.055180
   4 O :   -0.084902
   5 N :    0.022540
   6 C :   -0.057699
   7 H :    0.028227
   8 H :    0.033525
   9 H :    0.036382
  10 H :    0.066756
  11 H :    0.028453
  12 H :    0.021685
  13 H :    0.030587

  Mayer bond orders larger than 0.1
B(  0-C ,  1-C ) :   1.0535 B(  0-C ,  7-H ) :   0.9537 B(  0-C ,  8-H ) :   0.9567
B(  0-C ,  9-H ) :   0.9433 B(  1-C ,  2-O ) :   1.0508 B(  1-C ,  3-C ) :   1.0093
B(  1-C ,  6-C ) :   0.9491 B(  2-O , 10-H ) :   0.9770 B(  3-C ,  4-O ) :   0.9452
B(  3-C , 11-H ) :   0.9146 B(  3-C , 12-H ) :   0.9319 B(  4-O ,  5-N ) :   1.0066
B(  4-O ,  6-C ) :   0.1206 B(  5-N ,  6-C ) :   1.8905 B(  6-C , 13-H ) :   0.9713

FINAL SINGLE POINT ENERGY      -361.072028451122

DIPOLE MOMENT
-------------
                                X             Y             Z
Electronic contribution:      5.44111       1.02067       2.77862
Nuclear contribution   :     -6.75118      -1.44585      -3.74942
                        -----------------------------------------
Total Dipole Moment    :     -1.31007      -0.42518      -0.97080
                        -----------------------------------------
Magnitude (a.u.)       :      1.68509
Magnitude (Debye)      :      4.28315

                             ****ORCA TERMINATED NORMALLY****
TOTAL RUN TIME: 0 days 0 hours 0 minutes 6 seconds 359 msec
