                         Program Version 3.0.3 - RELEASE   -
|  1> ! RI PBE def2-SVP def2-SVP/J NBO PAL2
|  2> % maxcore 2000
|  3> % output
|  4>     # printlevel mini
|  5>     print[ P_Basis ] 0
|  6>     print[ P_SCFInfo ] 1
|  7>     print[ P_SCFIterInfo ] 1
|  8>     print[ P_OrbEn ] 0
|  9>     print[ P_Cartesian ] 0
| 10> end
| 11> *xyz 0 1
| 12>  C        1.0422630000     0.0896030000    -0.0419730000
| 13>  C        2.5480260000    -0.0962500000     0.0387900000
| 14>  O        3.2492090000     1.0781430000    -0.3305000000
| 15>  C        3.6039240000     1.0228190000    -1.6735330000
| 16>  O        4.4892780000    -0.0281030000    -1.9517110000
| 17>  N        3.9766290000    -1.2652920000    -1.6174790000
| 18>  C        3.0508560000    -1.2677970000    -0.7456800000
| 19>  H        0.7401860000     0.9168470000     0.6019360000
| 20>  H        0.5228290000    -0.8139010000     0.2864070000
| 21>  H        0.7281490000     0.3086550000    -1.0644830000
| 22>  H        2.8245310000    -0.2843660000     1.0837910000
| 23>  H        4.1310660000     1.9417760000    -1.9235920000
| 24>  H        2.7115270000     0.8949630000    -2.3060460000
| 25>  H        2.6536070000    -2.2526970000    -0.5141340000
| 26> *
| 27>
| 28>                          ****END OF INPUT****
 Total Charge           Charge          ....    0
 Multiplicity           Mult            ....    1
 Number of Electrons    NEL             ....   54
 Basis Dimension        Dim             ....  133

MULLIKEN ATOMIC CHARGES
-----------------------
   0 C :    0.039022
   1 C :    0.088756
   2 O :   -0.316322
   3 C :    0.306619
   4 O :   -0.251935
   5 N :    0.036077
   6 C :   -0.101390
   7 H :    0.038281
   8 H :    0.026220
   9 H :    0.022216
  10 H :    0.039774
  11 H :    0.037012
  12 H :    0.007814
  13 H :    0.027857
Sum of atomic charges:   -0.0000000

LOEWDIN ATOMIC CHARGES
----------------------
   0 C :   -0.063044
   1 C :    0.026752
   2 O :   -0.129273
   3 C :    0.111472
   4 O :   -0.079765
   5 N :    0.005786
   6 C :   -0.068500
   7 H :    0.034615
   8 H :    0.034520
   9 H :    0.028412
  10 H :    0.042804
  11 H :    0.026068
  12 H :   -0.003042
  13 H :    0.033195

  Mayer bond orders larger than 0.1
B(  0-C ,  1-C ) :   1.0712 B(  0-C ,  7-H ) :   0.9531 B(  0-C ,  8-H ) :   0.9515
B(  0-C ,  9-H ) :   0.9506 B(  1-C ,  2-O ) :   0.9942 B(  1-C ,  6-C ) :   0.9692
B(  1-C , 10-H ) :   0.8973 B(  2-O ,  3-C ) :   1.0600 B(  3-C ,  4-O ) :   1.0167
B(  3-C , 11-H ) :   0.9519 B(  3-C , 12-H ) :   0.9244 B(  4-O ,  5-N ) :   0.9785
B(  4-O ,  6-C ) :   0.1078 B(  5-N ,  6-C ) :   1.9372 B(  6-C , 13-H ) :   0.9493

FINAL SINGLE POINT ENERGY      -361.067508757910

DIPOLE MOMENT
-------------
                                X             Y             Z
Electronic contribution:      6.11008      -0.66869      -1.93799
Nuclear contribution   :     -7.13644       0.88670       2.37471
                        -----------------------------------------
Total Dipole Moment    :     -1.02637       0.21801       0.43672
                        -----------------------------------------
Magnitude (a.u.)       :      1.13652
Magnitude (Debye)      :      2.88881

                             ****ORCA TERMINATED NORMALLY****
TOTAL RUN TIME: 0 days 0 hours 0 minutes 5 seconds 871 msec
