                         Program Version 3.0.3 - RELEASE   -
|  1> ! RI PBE def2-SVP def2-SVP/J NBO PAL2
|  2> % maxcore 2000
|  3> % output
|  4>     # printlevel mini
|  5>     print[ P_Basis ] 0
|  6>     print[ P_SCFInfo ] 1
|  7>     print[ P_SCFIterInfo ] 1
|  8>     print[ P_OrbEn ] 0
|  9>     print[ P_Cartesian ] 0
| 10> end
| 11> *xyz 0 1
| 12>  C        1.0990840000     0.0230220000     0.0445600000
| 13>  C        2.6026520000    -0.0196310000    -0.1031140000
| 14>  O        2.9631570000    -1.1496350000    -0.9332320000
| 15>  N        3.3821430000    -0.7012880000    -2.1632810000
| 16>  C        3.4922360000     0.5624160000    -2.1450160000
| 17>  C        3.1987110000     1.1963520000    -0.8206570000
| 18>  C        4.4503330000     1.7737640000    -0.1680810000
| 19>  H        0.7280850000    -0.9144960000     0.4615350000
| 20>  H        0.6245010000     0.1787620000    -0.9273450000
| 21>  H        0.8043630000     0.8387200000     0.7103680000
| 22>  H        3.0816720000    -0.1864060000     0.8660200000
| 23>  H        3.8248280000     1.0745920000    -3.0395120000
| 24>  H        2.4477130000     1.9868480000    -0.9237310000
| 25>  H        5.2106680000     0.9999750000    -0.0399690000
| 26>  H        4.2157780000     2.1900450000     0.8146890000
| 27>  H        4.8806570000     2.5728690000    -0.7762150000
| 28> *
| 29>
| 30>                          ****END OF INPUT****
 Total Charge           Charge          ....    0
 Multiplicity           Mult            ....    1
 Number of Electrons    NEL             ....   54
 Basis Dimension        Dim             ....  143

MULLIKEN ATOMIC CHARGES
-----------------------
   0 C :    0.052655
   1 C :    0.108499
   2 O :   -0.269542
   3 N :    0.029446
   4 C :   -0.012243
   5 C :   -0.180347
   6 C :    0.041305
   7 H :    0.035844
   8 H :    0.023483
   9 H :    0.022861
  10 H :    0.009100
  11 H :    0.019705
  12 H :    0.028641
  13 H :    0.036370
  14 H :    0.028140
  15 H :    0.026083
Sum of atomic charges:   -0.0000000

LOEWDIN ATOMIC CHARGES
----------------------
   0 C :   -0.067249
   1 C :    0.050690
   2 O :   -0.092670
   3 N :    0.010978
   4 C :   -0.054585
   5 C :   -0.070522
   6 C :   -0.052252
   7 H :    0.034832
   8 H :    0.032103
   9 H :    0.031065
  10 H :    0.022626
  11 H :    0.026738
  12 H :    0.036084
  13 H :    0.032692
  14 H :    0.028989
  15 H :    0.030481

  Mayer bond orders larger than 0.1
B(  0-C ,  1-C ) :   1.0824 B(  0-C ,  7-H ) :   0.9531 B(  0-C ,  8-H ) :   0.9478
B(  0-C ,  9-H ) :   0.9517 B(  1-C ,  2-O ) :   0.9321 B(  1-C ,  5-C ) :   1.0294
B(  1-C , 10-H ) :   0.9203 B(  2-O ,  3-N ) :   0.9940 B(  2-O ,  4-C ) :   0.1146
B(  3-N ,  4-C ) :   1.8881 B(  4-C ,  5-C ) :   0.9678 B(  4-C , 11-H ) :   0.9702
B(  5-C ,  6-C ) :   1.0667 B(  5-C , 12-H ) :   0.9111 B(  6-C , 13-H ) :   0.9582
B(  6-C , 14-H ) :   0.9580 B(  6-C , 15-H ) :   0.9590

FINAL SINGLE POINT ENERGY      -325.220805389075

DIPOLE MOMENT
-------------
                                X             Y             Z
Electronic contribution:      1.11611      -5.04523      -4.11776
Nuclear contribution   :     -1.25111       6.21039       4.67774
                        -----------------------------------------
Total Dipole Moment    :     -0.13500       1.16517       0.55998
                        -----------------------------------------
Magnitude (a.u.)       :      1.29977
Magnitude (Debye)      :      3.30376

                             ****ORCA TERMINATED NORMALLY****
TOTAL RUN TIME: 0 days 0 hours 0 minutes 7 seconds 567 msec
