                         Program Version 3.0.3 - RELEASE   -
|  1> ! RI PBE def2-SVP def2-SVP/J NBO PAL2
|  2> % maxcore 2000
|  3> % output
|  4>     # printlevel mini
|  5>     print[ P_Basis ] 0
|  6>     print[ P_SCFInfo ] 1
|  7>     print[ P_SCFIterInfo ] 1
|  8>     print[ P_OrbEn ] 0
|  9>     print[ P_Cartesian ] 0
| 10> end
| 11> *xyz 0 1
| 12>  C        0.9793110000     0.1321200000     0.1859580000
| 13>  C        2.4645530000     0.0519950000    -0.0896470000
| 14>  O        2.7283970000    -1.0466210000    -0.9918470000
| 15>  N        3.3627770000    -0.5933510000    -2.1141590000
| 16>  C        3.5485940000     0.6688040000    -2.0305410000
| 17>  C        3.0430740000     1.2423110000    -0.8005230000
| 18>  C        3.0770970000     2.5146320000    -0.4109330000
| 19>  H        0.6221870000    -0.7994450000     0.6276820000
| 20>  H        0.4313070000     0.3168270000    -0.7393400000
| 21>  H        0.7735410000     0.9490650000     0.8815230000
| 22>  H        3.0154570000    -0.1625140000     0.8328260000
| 23>  H        4.0364410000     1.1909550000    -2.8424310000
| 24>  H        3.5230370000     3.2781140000    -1.0367500000
| 25>  H        2.6672070000     2.8324070000     0.5404820000
| 26> *
| 27>
| 28>                          ****END OF INPUT****
 Total Charge           Charge          ....    0
 Multiplicity           Mult            ....    1
 Number of Electrons    NEL             ....   52
 Basis Dimension        Dim             ....  133

MULLIKEN ATOMIC CHARGES
-----------------------
   0 C :    0.038077
   1 C :    0.139729
   2 O :   -0.257550
   3 N :    0.038063
   4 C :    0.019262
   5 C :   -0.142303
   6 C :   -0.033043
   7 H :    0.041449
   8 H :    0.032660
   9 H :    0.029298
  10 H :    0.041535
  11 H :    0.013165
  12 H :    0.021862
  13 H :    0.017797
Sum of atomic charges:    0.0000000

LOEWDIN ATOMIC CHARGES
----------------------
   0 C :   -0.056205
   1 C :    0.052203
   2 O :   -0.074467
   3 N :    0.021475
   4 C :   -0.054180
   5 C :   -0.061938
   6 C :   -0.059176
   7 H :    0.036556
   8 H :    0.036039
   9 H :    0.034541
  10 H :    0.037245
  11 H :    0.032267
  12 H :    0.030061
  13 H :    0.025578

  Mayer bond orders larger than 0.1
B(  0-C ,  1-C ) :   1.0911 B(  0-C ,  7-H ) :   0.9556 B(  0-C ,  8-H ) :   0.9512
B(  0-C ,  9-H ) :   0.9512 B(  1-C ,  2-O ) :   0.9157 B(  1-C ,  5-C ) :   1.0051
B(  1-C , 10-H ) :   0.8992 B(  2-O ,  3-N ) :   1.0180 B(  2-O ,  4-C ) :   0.1018
B(  3-N ,  4-C ) :   1.7913 B(  3-N ,  6-C ) :   0.1002 B(  4-C ,  5-C ) :   1.0620
B(  4-C , 11-H ) :   0.9771 B(  5-C ,  6-C ) :   1.9042 B(  6-C , 12-H ) :   0.9297
B(  6-C , 13-H ) :   0.9346

FINAL SINGLE POINT ENERGY      -324.007756316504

DIPOLE MOMENT
-------------
                                X             Y             Z
Electronic contribution:      3.45380      -3.62643      -3.51618
Nuclear contribution   :     -3.67292       4.54030       4.11160
                        -----------------------------------------
Total Dipole Moment    :     -0.21912       0.91387       0.59542
                        -----------------------------------------
Magnitude (a.u.)       :      1.11252
Magnitude (Debye)      :      2.82779

                             ****ORCA TERMINATED NORMALLY****
TOTAL RUN TIME: 0 days 0 hours 0 minutes 7 seconds 212 msec
