                         Program Version 3.0.3 - RELEASE   -
|  1> ! RI PBE def2-SVP def2-SVP/J NBO PAL2
|  2> % maxcore 2000
|  3> % output
|  4>     # printlevel mini
|  5>     print[ P_Basis ] 0
|  6>     print[ P_SCFInfo ] 1
|  7>     print[ P_SCFIterInfo ] 1
|  8>     print[ P_OrbEn ] 0
|  9>     print[ P_Cartesian ] 0
| 10> end
| 11> *xyz 0 1
| 12>  C        1.0170760000    -0.0433220000    -0.0166810000
| 13>  C        2.4811310000     0.1531000000    -0.0208180000
| 14>  C        3.2823840000     1.2546670000    -0.0182690000
| 15>  N        2.9495750000     2.5860060000    -0.0107320000
| 16>  C        4.5893960000     0.7006090000    -0.0255160000
| 17>  N        4.5689620000    -0.6024330000    -0.0317660000
| 18>  O        3.2558890000    -0.9554520000    -0.0288940000
| 19>  H        0.5033470000     0.9192180000    -0.0105820000
| 20>  H        0.6916760000    -0.6026200000     0.8649900000
| 21>  H        0.6856500000    -0.5946250000    -0.9011360000
| 22>  H        1.9951160000     2.8826230000    -0.0050590000
| 23>  H        3.6601880000     3.2882380000    -0.0090810000
| 24>  H        5.5399110000     1.2161010000    -0.0263460000
| 25> *
| 26>
| 27>                          ****END OF INPUT****
 Total Charge           Charge          ....    0
 Multiplicity           Mult            ....    1
 Number of Electrons    NEL             ....   52
 Basis Dimension        Dim             ....  128

MULLIKEN ATOMIC CHARGES
-----------------------
   0 C :    0.094173
   1 C :   -0.057649
   2 C :   -0.072285
   3 N :   -0.059768
   4 C :   -0.010518
   5 N :   -0.013855
   6 O :   -0.171349
   7 H :    0.007028
   8 H :    0.044095
   9 H :    0.044048
  10 H :    0.099273
  11 H :    0.109399
  12 H :   -0.012591
Sum of atomic charges:   -0.0000000

LOEWDIN ATOMIC CHARGES
----------------------
   0 C :   -0.064708
   1 C :   -0.047074
   2 C :   -0.066538
   3 N :   -0.021154
   4 C :   -0.072930
   5 N :   -0.041870
   6 O :    0.027892
   7 H :    0.036030
   8 H :    0.044385
   9 H :    0.044388
  10 H :    0.066473
  11 H :    0.071415
  12 H :    0.023692

  Mayer bond orders larger than 0.1
B(  0-C ,  1-C ) :   1.1506 B(  0-C ,  7-H ) :   0.9435 B(  0-C ,  8-H ) :   0.9305
B(  0-C ,  9-H ) :   0.9306 B(  1-C ,  2-C ) :   1.4758 B(  1-C ,  5-N ) :   0.1328
B(  1-C ,  6-O ) :   1.0942 B(  2-C ,  3-N ) :   1.2293 B(  2-C ,  4-C ) :   1.1894
B(  3-N , 10-H ) :   0.9521 B(  3-N , 11-H ) :   0.9510 B(  4-C ,  5-N ) :   1.6684
B(  4-C , 12-H ) :   0.9827 B(  5-N ,  6-O ) :   1.0439

FINAL SINGLE POINT ENERGY      -340.060274029768

DIPOLE MOMENT
-------------
                                X             Y             Z
Electronic contribution:      4.51040      -2.56290      -0.02845
Nuclear contribution   :     -5.34728       4.10312       0.03982
                        -----------------------------------------
Total Dipole Moment    :     -0.83687       1.54023       0.01137
                        -----------------------------------------
Magnitude (a.u.)       :      1.75293
Magnitude (Debye)      :      4.45560

                             ****ORCA TERMINATED NORMALLY****
TOTAL RUN TIME: 0 days 0 hours 0 minutes 6 seconds 135 msec
