                         Program Version 3.0.3 - RELEASE   -
|  1> ! RI PBE def2-SVP def2-SVP/J NBO PAL2
|  2> % maxcore 2000
|  3> % output
|  4>     # printlevel mini
|  5>     print[ P_Basis ] 0
|  6>     print[ P_SCFInfo ] 1
|  7>     print[ P_SCFIterInfo ] 1
|  8>     print[ P_OrbEn ] 0
|  9>     print[ P_Cartesian ] 0
| 10> end
| 11> *xyz 0 1
| 12>  C        1.0831370000    -0.0168540000     0.0094360000
| 13>  C        2.5905340000    -0.0592950000    -0.0949940000
| 14>  O        2.9721110000    -1.1746470000    -0.9284400000
| 15>  N        3.3859900000    -0.7063040000    -2.1530850000
| 16>  C        3.4781670000     0.5592950000    -2.1263720000
| 17>  C        3.2002160000     1.1717570000    -0.7864720000
| 18>  N        4.4162270000     1.7493300000    -0.2488150000
| 19>  H        0.6980220000    -0.9583520000     0.4034570000
| 20>  H        0.6370580000     0.1505790000    -0.9740230000
| 21>  H        0.7692390000     0.7919480000     0.6749230000
| 22>  H        3.0494200000    -0.2269310000     0.8837230000
| 23>  H        3.8130450000     1.0922260000    -3.0063690000
| 24>  H        2.4585450000     1.9733380000    -0.8590160000
| 25>  H        5.1288060000     1.0407020000    -0.1229590000
| 26>  H        4.2483930000     2.1894950000     0.6469030000
| 27> *
| 28>
| 29>                          ****END OF INPUT****
 Total Charge           Charge          ....    0
 Multiplicity           Mult            ....    1
 Number of Electrons    NEL             ....   54
 Basis Dimension        Dim             ....  138

MULLIKEN ATOMIC CHARGES
-----------------------
   0 C :    0.057559
   1 C :    0.120024
   2 O :   -0.267567
   3 N :    0.028833
   4 C :   -0.012061
   5 C :   -0.090407
   6 N :   -0.151197
   7 H :    0.035784
   8 H :    0.025658
   9 H :    0.020519
  10 H :   -0.007566
  11 H :    0.025764
  12 H :    0.024380
  13 H :    0.095762
  14 H :    0.094516
Sum of atomic charges:   -0.0000000

LOEWDIN ATOMIC CHARGES
----------------------
   0 C :   -0.065779
   1 C :    0.027067
   2 O :   -0.090620
   3 N :    0.013050
   4 C :   -0.059496
   5 C :   -0.030433
   6 N :   -0.082497
   7 H :    0.035010
   8 H :    0.033235
   9 H :    0.030346
  10 H :    0.017959
  11 H :    0.029573
  12 H :    0.033581
  13 H :    0.055653
  14 H :    0.053351

  Mayer bond orders larger than 0.1
B(  0-C ,  1-C ) :   1.0727 B(  0-C ,  7-H ) :   0.9501 B(  0-C ,  8-H ) :   0.9495
B(  0-C ,  9-H ) :   0.9509 B(  1-C ,  2-O ) :   0.9291 B(  1-C ,  5-C ) :   0.9840
B(  1-C , 10-H ) :   0.9065 B(  2-O ,  3-N ) :   0.9940 B(  2-O ,  4-C ) :   0.1156
B(  3-N ,  4-C ) :   1.8657 B(  4-C ,  5-C ) :   0.9711 B(  4-C , 11-H ) :   0.9702
B(  5-C ,  6-N ) :   1.1120 B(  5-C , 12-H ) :   0.9124 B(  6-N , 13-H ) :   0.9644
B(  6-N , 14-H ) :   0.9659

FINAL SINGLE POINT ENERGY      -341.235785227564

DIPOLE MOMENT
-------------
                                X             Y             Z
Electronic contribution:      2.88992      -3.17634      -3.38987
Nuclear contribution   :     -3.12424       4.02772       4.30065
                        -----------------------------------------
Total Dipole Moment    :     -0.23432       0.85138       0.91078
                        -----------------------------------------
Magnitude (a.u.)       :      1.26857
Magnitude (Debye)      :      3.22445

                             ****ORCA TERMINATED NORMALLY****
TOTAL RUN TIME: 0 days 0 hours 0 minutes 7 seconds 372 msec
