                         Program Version 3.0.3 - RELEASE   -
|  1> ! RI PBE def2-SVP def2-SVP/J NBO PAL2
|  2> % maxcore 2000
|  3> % output
|  4>     # printlevel mini
|  5>     print[ P_Basis ] 0
|  6>     print[ P_SCFInfo ] 1
|  7>     print[ P_SCFIterInfo ] 1
|  8>     print[ P_OrbEn ] 0
|  9>     print[ P_Cartesian ] 0
| 10> end
| 11> *xyz 0 1
| 12>  C        1.0303100000    -0.1254250000     0.0350820000
| 13>  C        2.4967520000     0.0511110000     0.0306830000
| 14>  C        3.3135410000     1.1365740000     0.0326960000
| 15>  O        3.0418390000     2.4608580000     0.0396060000
| 16>  C        4.6179180000     0.5895760000     0.0256210000
| 17>  N        4.5856650000    -0.7118670000     0.0198600000
| 18>  O        3.2625780000    -1.0575310000     0.0229910000
| 19>  H        0.5255560000     0.8429170000     0.0406960000
| 20>  H        0.7006430000    -0.6795020000     0.9176940000
| 21>  H        0.6945370000    -0.6724180000    -0.8496400000
| 22>  H        2.0905610000     2.5962110000     0.0439070000
| 23>  H        5.5648900000     1.1091060000     0.0246130000
| 24> *
| 25>
| 26>                          ****END OF INPUT****
 Total Charge           Charge          ....    0
 Multiplicity           Mult            ....    1
 Number of Electrons    NEL             ....   52
 Basis Dimension        Dim             ....  123

MULLIKEN ATOMIC CHARGES
-----------------------
   0 C :    0.088599
   1 C :   -0.046705
   2 C :    0.000835
   3 O :   -0.155876
   4 C :    0.010197
   5 N :   -0.014828
   6 O :   -0.169056
   7 H :    0.003560
   8 H :    0.054229
   9 H :    0.054183
  10 H :    0.168256
  11 H :    0.006606
Sum of atomic charges:   -0.0000000

LOEWDIN ATOMIC CHARGES
----------------------
   0 C :   -0.062752
   1 C :   -0.049136
   2 C :   -0.049940
   3 O :   -0.029423
   4 C :   -0.057270
   5 N :   -0.034672
   6 O :    0.031140
   7 H :    0.033976
   8 H :    0.048877
   9 H :    0.048880
  10 H :    0.087589
  11 H :    0.032732

  Mayer bond orders larger than 0.1
B(  0-C ,  1-C ) :   1.1367 B(  0-C ,  7-H ) :   0.9396 B(  0-C ,  8-H ) :   0.9329
B(  0-C ,  9-H ) :   0.9329 B(  1-C ,  2-C ) :   1.4515 B(  1-C ,  5-N ) :   0.1305
B(  1-C ,  6-O ) :   1.1094 B(  2-C ,  3-O ) :   1.2194 B(  2-C ,  4-C ) :   1.2110
B(  3-O , 10-H ) :   0.9647 B(  4-C ,  5-N ) :   1.6696 B(  4-C , 11-H ) :   0.9809
B(  5-N ,  6-O ) :   1.0322

FINAL SINGLE POINT ENERGY      -359.898457382382

DIPOLE MOMENT
-------------
                                X             Y             Z
Electronic contribution:      4.52802      -0.50757      -0.01836
Nuclear contribution   :     -5.79591       1.32036       0.02671
                        -----------------------------------------
Total Dipole Moment    :     -1.26790       0.81278       0.00835
                        -----------------------------------------
Magnitude (a.u.)       :      1.50607
Magnitude (Debye)      :      3.82813

                             ****ORCA TERMINATED NORMALLY****
TOTAL RUN TIME: 0 days 0 hours 0 minutes 6 seconds 202 msec
