                         Program Version 3.0.3 - RELEASE   -
|  1> ! RI PBE def2-SVP def2-SVP/J NBO PAL2
|  2> % maxcore 2000
|  3> % output
|  4>     # printlevel mini
|  5>     print[ P_Basis ] 0
|  6>     print[ P_SCFInfo ] 1
|  7>     print[ P_SCFIterInfo ] 1
|  8>     print[ P_OrbEn ] 0
|  9>     print[ P_Cartesian ] 0
| 10> end
| 11> *xyz 0 1
| 12>  C        0.9422900000    -0.0404720000    -0.0595630000
| 13>  C        2.4508210000    -0.0529010000    -0.1493320000
| 14>  O        2.8645270000    -1.1848600000    -0.9477440000
| 15>  N        3.2858050000    -0.7450420000    -2.1747560000
| 16>  C        3.3379080000     0.5256830000    -2.1919940000
| 17>  C        3.0376290000     1.1613500000    -0.8687360000
| 18>  O        4.1890570000     1.7244640000    -0.2761910000
| 19>  H        0.5777480000    -0.9811650000     0.3546710000
| 20>  H        0.4990100000     0.0921130000    -1.0495200000
| 21>  H        0.6076440000     0.7761870000     0.5847270000
| 22>  H        2.9082910000    -0.1691840000     0.8362590000
| 23>  H        3.6652780000     1.0364880000    -3.0879790000
| 24>  H        2.3158780000     1.9776740000    -0.9316630000
| 25>  H        4.9035140000     1.0817630000    -0.3295910000
| 26> *
| 27>
| 28>                          ****END OF INPUT****
 Total Charge           Charge          ....    0
 Multiplicity           Mult            ....    1
 Number of Electrons    NEL             ....   54
 Basis Dimension        Dim             ....  133

MULLIKEN ATOMIC CHARGES
-----------------------
   0 C :    0.054510
   1 C :    0.081037
   2 O :   -0.260344
   3 N :    0.031074
   4 C :   -0.051299
   5 C :    0.070824
   6 O :   -0.249914
   7 H :    0.039273
   8 H :    0.025220
   9 H :    0.030464
  10 H :    0.015726
  11 H :    0.028797
  12 H :    0.023762
  13 H :    0.160870
Sum of atomic charges:    0.0000000

LOEWDIN ATOMIC CHARGES
----------------------
   0 C :   -0.062135
   1 C :    0.027576
   2 O :   -0.085009
   3 N :    0.016724
   4 C :   -0.084277
   5 C :    0.017709
   6 O :   -0.095500
   7 H :    0.036574
   8 H :    0.033327
   9 H :    0.034757
  10 H :    0.027175
  11 H :    0.029515
  12 H :    0.031609
  13 H :    0.071955

  Mayer bond orders larger than 0.1
B(  0-C ,  1-C ) :   1.0735 B(  0-C ,  7-H ) :   0.9515 B(  0-C ,  8-H ) :   0.9497
B(  0-C ,  9-H ) :   0.9515 B(  1-C ,  2-O ) :   0.9260 B(  1-C ,  5-C ) :   1.0044
B(  1-C , 10-H ) :   0.9028 B(  2-O ,  3-N ) :   1.0061 B(  2-O ,  4-C ) :   0.1196
B(  3-N ,  4-C ) :   1.8398 B(  4-C ,  5-C ) :   0.9772 B(  4-C , 11-H ) :   0.9714
B(  5-C ,  6-O ) :   1.0592 B(  5-C , 12-H ) :   0.9172 B(  6-O , 13-H ) :   0.9785

FINAL SINGLE POINT ENERGY      -361.077047348759

DIPOLE MOMENT
-------------
                                X             Y             Z
Electronic contribution:      4.20068      -1.65572      -2.31474
Nuclear contribution   :     -4.41256       2.19867       2.64172
                        -----------------------------------------
Total Dipole Moment    :     -0.21188       0.54295       0.32698
                        -----------------------------------------
Magnitude (a.u.)       :      0.66828
Magnitude (Debye)      :      1.69864

                             ****ORCA TERMINATED NORMALLY****
TOTAL RUN TIME: 0 days 0 hours 0 minutes 6 seconds 778 msec
