                         Program Version 3.0.3 - RELEASE   -
|  1> ! RI PBE def2-SVP def2-SVP/J NBO PAL2
|  2> % maxcore 2000
|  3> % output
|  4>     # printlevel mini
|  5>     print[ P_Basis ] 0
|  6>     print[ P_SCFInfo ] 1
|  7>     print[ P_SCFIterInfo ] 1
|  8>     print[ P_OrbEn ] 0
|  9>     print[ P_Cartesian ] 0
| 10> end
| 11> *xyz 0 1
| 12>  C        0.9743750000     0.1362430000    -0.1385840000
| 13>  C        2.4450760000    -0.0389080000     0.2001820000
| 14>  O        3.2144980000     1.0934350000    -0.2346700000
| 15>  N        3.5261320000     1.1819850000    -1.5688470000
| 16>  C        3.6562120000     0.0754280000    -2.1983900000
| 17>  C        3.5650550000    -1.2292540000    -1.5754350000
| 18>  C        3.0174440000    -1.2991970000    -0.3649610000
| 19>  H        0.5962110000     1.0667430000     0.2887450000
| 20>  H        0.3959380000    -0.6971140000     0.2688330000
| 21>  H        0.8259760000     0.1566430000    -1.2198760000
| 22>  H        2.5742690000    -0.0141420000     1.2854960000
| 23>  H        3.9297540000     0.1861110000    -3.2423640000
| 24>  H        3.9796020000    -2.0908380000    -2.0845830000
| 25>  H        2.9471570000    -2.2239350000     0.1968540000
| 26> *
| 27>
| 28>                          ****END OF INPUT****
 Total Charge           Charge          ....    0
 Multiplicity           Mult            ....    1
 Number of Electrons    NEL             ....   52
 Basis Dimension        Dim             ....  133

MULLIKEN ATOMIC CHARGES
-----------------------
   0 C :    0.049293
   1 C :    0.066436
   2 O :   -0.246454
   3 N :    0.045882
   4 C :   -0.043155
   5 C :    0.019377
   6 C :   -0.038932
   7 H :    0.035907
   8 H :    0.019892
   9 H :    0.029852
  10 H :    0.028601
  11 H :    0.019584
  12 H :    0.003504
  13 H :    0.010211
Sum of atomic charges:   -0.0000000

LOEWDIN ATOMIC CHARGES
----------------------
   0 C :   -0.070282
   1 C :    0.034497
   2 O :   -0.068302
   3 N :    0.009313
   4 C :   -0.059696
   5 C :   -0.057024
   6 C :   -0.020527
   7 H :    0.034058
   8 H :    0.034295
   9 H :    0.032609
  10 H :    0.033893
  11 H :    0.031324
  12 H :    0.034989
  13 H :    0.030854

  Mayer bond orders larger than 0.1
B(  0-C ,  1-C ) :   1.0705 B(  0-C ,  7-H ) :   0.9482 B(  0-C ,  8-H ) :   0.9494
B(  0-C ,  9-H ) :   0.9545 B(  1-C ,  2-O ) :   0.9511 B(  1-C ,  6-C ) :   1.0183
B(  1-C , 10-H ) :   0.9105 B(  2-O ,  3-N ) :   0.9835 B(  2-O ,  4-C ) :   0.1108
B(  3-N ,  4-C ) :   1.8420 B(  4-C ,  5-C ) :   1.0573 B(  4-C , 11-H ) :   0.9602
B(  5-C ,  6-C ) :   1.7900 B(  5-C , 12-H ) :   0.9729 B(  6-C , 13-H ) :   0.9693

FINAL SINGLE POINT ENERGY      -323.999750269816

DIPOLE MOMENT
-------------
                                X             Y             Z
Electronic contribution:      4.25196       2.39954      -1.03360
Nuclear contribution   :     -4.63569      -3.51341       1.13478
                        -----------------------------------------
Total Dipole Moment    :     -0.38373      -1.11386       0.10117
                        -----------------------------------------
Magnitude (a.u.)       :      1.18245
Magnitude (Debye)      :      3.00554

                             ****ORCA TERMINATED NORMALLY****
TOTAL RUN TIME: 0 days 0 hours 0 minutes 7 seconds 235 msec
