                         Program Version 3.0.3 - RELEASE   -
|  1> ! RI PBE def2-SVP def2-SVP/J NBO PAL2
|  2> % maxcore 2000
|  3> % output
|  4>     # printlevel mini
|  5>     print[ P_Basis ] 0
|  6>     print[ P_SCFInfo ] 1
|  7>     print[ P_SCFIterInfo ] 1
|  8>     print[ P_OrbEn ] 0
|  9>     print[ P_Cartesian ] 0
| 10> end
| 11> *xyz 0 1
| 12>  C        0.8758850000    -0.0930100000     0.2136450000
| 13>  C        2.2557900000    -0.0084010000    -0.3636520000
| 14>  O        2.5718630000    -1.1592700000    -1.1180450000
| 15>  N        3.3175280000    -0.7221990000    -2.2296660000
| 16>  C        3.1422580000     0.5356730000    -2.2839110000
| 17>  C        3.6581100000     1.4312280000    -3.3350360000
| 18>  O        2.3804860000     1.0626170000    -1.3002430000
| 19>  H        0.8161100000    -0.9508660000     0.8850550000
| 20>  H        0.1436900000    -0.2131320000    -0.5854840000
| 21>  H        0.6506760000     0.8102260000     0.7826660000
| 22>  H        3.0209610000     0.1447620000     0.4164810000
| 23>  H        4.2229440000     0.8507270000    -4.0614040000
| 24>  H        4.2989660000     2.2019590000    -2.9016830000
| 25>  H        2.8266330000     1.9317770000    -3.8371340000
| 26> *
| 27>
| 28>                          ****END OF INPUT****
 Total Charge           Charge          ....    0
 Multiplicity           Mult            ....    1
 Number of Electrons    NEL             ....   54
 Basis Dimension        Dim             ....  133

MULLIKEN ATOMIC CHARGES
-----------------------
   0 C :    0.020072
   1 C :    0.235023
   2 O :   -0.275421
   3 N :    0.003532
   4 C :   -0.082680
   5 C :    0.091377
   6 O :   -0.262396
   7 H :    0.048077
   8 H :    0.032290
   9 H :    0.039668
  10 H :    0.007270
  11 H :    0.047348
  12 H :    0.048594
  13 H :    0.047243
Sum of atomic charges:    0.0000000

LOEWDIN ATOMIC CHARGES
----------------------
   0 C :   -0.075308
   1 C :    0.120305
   2 O :   -0.104647
   3 N :   -0.050515
   4 C :   -0.017772
   5 C :   -0.060341
   6 O :   -0.082604
   7 H :    0.044971
   8 H :    0.036987
   9 H :    0.040320
  10 H :   -0.000882
  11 H :    0.051689
  12 H :    0.047662
  13 H :    0.050135

  Mayer bond orders larger than 0.1
B(  0-C ,  1-C ) :   1.1069 B(  0-C ,  7-H ) :   0.9510 B(  0-C ,  8-H ) :   0.9433
B(  0-C ,  9-H ) :   0.9504 B(  1-C ,  2-O ) :   1.0193 B(  1-C ,  6-O ) :   0.9767
B(  1-C , 10-H ) :   0.9091 B(  2-O ,  3-N ) :   0.9215 B(  2-O ,  4-C ) :   0.1034
B(  3-N ,  4-C ) :   1.8356 B(  4-C ,  5-C ) :   1.1190 B(  4-C ,  6-O ) :   1.1208
B(  5-C , 11-H ) :   0.9420 B(  5-C , 12-H ) :   0.9369 B(  5-C , 13-H ) :   0.9271

FINAL SINGLE POINT ENERGY      -361.095106492266

DIPOLE MOMENT
-------------
                                X             Y             Z
Electronic contribution:      1.75043      -2.55517      -0.68770
Nuclear contribution   :     -1.96689       3.45886       0.92854
                        -----------------------------------------
Total Dipole Moment    :     -0.21646       0.90369       0.24084
                        -----------------------------------------
Magnitude (a.u.)       :      0.95995
Magnitude (Debye)      :      2.44001

                             ****ORCA TERMINATED NORMALLY****
TOTAL RUN TIME: 0 days 0 hours 0 minutes 6 seconds 571 msec
