                         Program Version 3.0.3 - RELEASE   -
|  1> ! RI PBE def2-SVP def2-SVP/J NBO PAL2
|  2> % maxcore 2000
|  3> % output
|  4>     # printlevel mini
|  5>     print[ P_Basis ] 0
|  6>     print[ P_SCFInfo ] 1
|  7>     print[ P_SCFIterInfo ] 1
|  8>     print[ P_OrbEn ] 0
|  9>     print[ P_Cartesian ] 0
| 10> end
| 11> *xyz 0 1
| 12>  C        0.8643540000    -0.0068620000    -0.2245130000
| 13>  C        2.3527460000     0.0381620000     0.1090910000
| 14>  C        2.6974860000     1.0867630000     1.1000760000
| 15>  C        3.1907250000     1.0564570000     2.3642540000
| 16>  C        3.2629230000     2.4224880000     2.7227590000
| 17>  N        2.8514050000     3.2014270000     1.7645210000
| 18>  O        2.4933550000     2.3592350000     0.7372250000
| 19>  H        0.6631660000    -0.7833350000    -0.9649280000
| 20>  H        0.5274160000     0.9474880000    -0.6318700000
| 21>  H        0.2702090000    -0.2223310000     0.6658910000
| 22>  H        2.9296190000     0.2165660000    -0.8044180000
| 23>  H        2.6834300000    -0.9225510000     0.5095240000
| 24>  H        3.4614760000     0.1923670000     2.9471200000
| 25>  H        3.6017990000     2.8666360000     3.6478690000
| 26> *
| 27>
| 28>                          ****END OF INPUT****
 Total Charge           Charge          ....    0
 Multiplicity           Mult            ....    1
 Number of Electrons    NEL             ....   52
 Basis Dimension        Dim             ....  133

MULLIKEN ATOMIC CHARGES
-----------------------
   0 C :   -0.041341
   1 C :    0.079704
   2 C :    0.052452
   3 C :   -0.101635
   4 C :    0.035635
   5 N :   -0.025696
   6 O :   -0.164329
   7 H :    0.030790
   8 H :    0.045003
   9 H :    0.030960
  10 H :    0.037598
  11 H :    0.012713
  12 H :   -0.002762
  13 H :    0.010907
Sum of atomic charges:   -0.0000000

LOEWDIN ATOMIC CHARGES
----------------------
   0 C :   -0.058532
   1 C :   -0.045753
   2 C :    0.021270
   3 C :   -0.113142
   4 C :   -0.040950
   5 N :   -0.040745
   6 O :    0.035016
   7 H :    0.030653
   8 H :    0.033014
   9 H :    0.030506
  10 H :    0.045075
  11 H :    0.039764
  12 H :    0.033551
  13 H :    0.030273

  Mayer bond orders larger than 0.1
B(  0-C ,  1-C ) :   1.1086 B(  0-C ,  7-H ) :   0.9618 B(  0-C ,  8-H ) :   0.9677
B(  0-C ,  9-H ) :   0.9672 B(  1-C ,  2-C ) :   1.0759 B(  1-C , 10-H ) :   0.9031
B(  1-C , 11-H ) :   0.9191 B(  2-C ,  3-C ) :   1.5361 B(  2-C ,  5-N ) :   0.1177
B(  2-C ,  6-O ) :   1.1722 B(  3-C ,  4-C ) :   1.2136 B(  3-C , 12-H ) :   0.9900
B(  4-C ,  5-N ) :   1.6831 B(  4-C , 13-H ) :   0.9752 B(  5-N ,  6-O ) :   1.0112

FINAL SINGLE POINT ENERGY      -324.040892622518

DIPOLE MOMENT
-------------
                                X             Y             Z
Electronic contribution:      3.20925       6.14702       2.86901
Nuclear contribution   :     -3.14252      -7.29868      -2.73247
                        -----------------------------------------
Total Dipole Moment    :      0.06673      -1.15166       0.13654
                        -----------------------------------------
Magnitude (a.u.)       :      1.16165
Magnitude (Debye)      :      2.95268

                             ****ORCA TERMINATED NORMALLY****
TOTAL RUN TIME: 0 days 0 hours 0 minutes 6 seconds 193 msec
