                         Program Version 3.0.3 - RELEASE   -
|  1> ! RI PBE def2-SVP def2-SVP/J NBO PAL2
|  2> % maxcore 2000
|  3> % output
|  4>     # printlevel mini
|  5>     print[ P_Basis ] 0
|  6>     print[ P_SCFInfo ] 1
|  7>     print[ P_SCFIterInfo ] 1
|  8>     print[ P_OrbEn ] 0
|  9>     print[ P_Cartesian ] 0
| 10> end
| 11> *xyz 0 1
| 12>  C        1.8544330000    -1.2544570000    -0.3976400000
| 13>  C        2.1472400000    -0.0241450000     0.0164820000
| 14>  C        2.9210190000     0.2881180000     1.1950560000
| 15>  C        3.3015220000     1.4748320000     1.7451450000
| 16>  C        4.0374110000     1.0880770000     2.8855070000
| 17>  N        4.0950350000    -0.2077770000     3.0109750000
| 18>  O        3.3930840000    -0.7161810000     1.9482010000
| 19>  H        1.2677210000    -1.4128380000    -1.2935170000
| 20>  H        2.1909160000    -2.1305330000     0.1438590000
| 21>  H        1.8000240000     0.8395930000    -0.5411250000
| 22>  H        3.0861360000     2.4670930000     1.3862720000
| 23>  H        4.5286480000     1.7078090000     3.6216960000
| 24> *
| 25>
| 26>                          ****END OF INPUT****
 Total Charge           Charge          ....    0
 Multiplicity           Mult            ....    1
 Number of Electrons    NEL             ....   50
 Basis Dimension        Dim             ....  123

MULLIKEN ATOMIC CHARGES
-----------------------
   0 C :   -0.004997
   1 C :   -0.013055
   2 C :    0.148888
   3 C :   -0.095532
   4 C :    0.039902
   5 N :   -0.013752
   6 O :   -0.158734
   7 H :    0.035329
   8 H :    0.043240
   9 H :    0.000756
  10 H :    0.001832
  11 H :    0.016121
Sum of atomic charges:   -0.0000000

LOEWDIN ATOMIC CHARGES
----------------------
   0 C :   -0.021004
   1 C :   -0.045951
   2 C :    0.015722
   3 C :   -0.094147
   4 C :   -0.038680
   5 N :   -0.029907
   6 O :    0.041227
   7 H :    0.031634
   8 H :    0.032881
   9 H :    0.039610
  10 H :    0.036105
  11 H :    0.032510

  Mayer bond orders larger than 0.1
B(  0-C ,  1-C ) :   1.8976 B(  0-C ,  7-H ) :   0.9361 B(  0-C ,  8-H ) :   0.9491
B(  1-C ,  2-C ) :   1.1417 B(  1-C ,  9-H ) :   0.9487 B(  2-C ,  3-C ) :   1.4489
B(  2-C ,  5-N ) :   0.1085 B(  2-C ,  6-O ) :   1.1754 B(  3-C ,  4-C ) :   1.2254
B(  3-C , 10-H ) :   0.9910 B(  4-C ,  5-N ) :   1.6725 B(  4-C , 11-H ) :   0.9774
B(  5-N ,  6-O ) :   1.0177

FINAL SINGLE POINT ENERGY      -322.821474496402

DIPOLE MOMENT
-------------
                                X             Y             Z
Electronic contribution:      2.11541      -0.31000       3.25056
Nuclear contribution   :     -2.50909       1.07117      -3.88107
                        -----------------------------------------
Total Dipole Moment    :     -0.39368       0.76116      -0.63050
                        -----------------------------------------
Magnitude (a.u.)       :      1.06390
Magnitude (Debye)      :      2.70423

                             ****ORCA TERMINATED NORMALLY****
TOTAL RUN TIME: 0 days 0 hours 0 minutes 5 seconds 635 msec
