                         Program Version 3.0.3 - RELEASE   -
|  1> ! RI PBE def2-SVP def2-SVP/J NBO PAL2
|  2> % maxcore 2000
|  3> % output
|  4>     # printlevel mini
|  5>     print[ P_Basis ] 0
|  6>     print[ P_SCFInfo ] 1
|  7>     print[ P_SCFIterInfo ] 1
|  8>     print[ P_OrbEn ] 0
|  9>     print[ P_Cartesian ] 0
| 10> end
| 11> *xyz 0 1
| 12>  C        0.9063770000    -0.1279720000     0.0441770000
| 13>  C        2.1048730000    -0.0492550000     0.0470330000
| 14>  C        3.5085880000     0.0567550000     0.0503790000
| 15>  C        4.3495670000     1.1263700000     0.0501290000
| 16>  C        5.6278930000     0.5298950000     0.0547260000
| 17>  N        5.5575380000    -0.7721730000     0.0574680000
| 18>  O        4.2285150000    -1.0809460000     0.0547700000
| 19>  H       -0.1558540000    -0.2015450000     0.0416740000
| 20>  H        4.0840040000     2.1694010000     0.0471130000
| 21>  H        6.5988980000     1.0035510000     0.0561420000
| 22> *
| 23>
| 24>                          ****END OF INPUT****
 Total Charge           Charge          ....    0
 Multiplicity           Mult            ....    1
 Number of Electrons    NEL             ....   48
 Basis Dimension        Dim             ....  113

MULLIKEN ATOMIC CHARGES
-----------------------
   0 C :   -0.442403
   1 C :    0.458952
   2 C :    0.104139
   3 C :   -0.069285
   4 C :    0.053485
   5 N :   -0.013246
   6 O :   -0.142698
   7 H :    0.021388
   8 H :    0.011996
   9 H :    0.017671
Sum of atomic charges:   -0.0000000

LOEWDIN ATOMIC CHARGES
----------------------
   0 C :   -0.015740
   1 C :   -0.028403
   2 C :    0.002092
   3 C :   -0.073710
   4 C :   -0.035120
   5 N :   -0.024025
   6 O :    0.054837
   7 H :    0.042954
   8 H :    0.042238
   9 H :    0.034877

  Mayer bond orders larger than 0.1
B(  0-C ,  1-C ) :   2.2270 B(  0-C ,  7-H ) :   1.0893 B(  1-C ,  2-C ) :   0.9327
B(  1-C ,  7-H ) :  -0.1003 B(  2-C ,  3-C ) :   1.4906 B(  2-C ,  5-N ) :   0.1190
B(  2-C ,  6-O ) :   1.1615 B(  3-C ,  4-C ) :   1.2219 B(  3-C ,  8-H ) :   0.9966
B(  4-C ,  5-N ) :   1.6548 B(  4-C ,  9-H ) :   0.9745 B(  5-N ,  6-O ) :   1.0317

FINAL SINGLE POINT ENERGY      -321.571115098552

DIPOLE MOMENT
-------------
                                X             Y             Z
Electronic contribution:      0.30748      -2.01958       0.00515
Nuclear contribution   :     -0.81922       2.97054      -0.00870
                        -----------------------------------------
Total Dipole Moment    :     -0.51174       0.95096      -0.00355
                        -----------------------------------------
Magnitude (a.u.)       :      1.07992
Magnitude (Debye)      :      2.74493

                             ****ORCA TERMINATED NORMALLY****
TOTAL RUN TIME: 0 days 0 hours 0 minutes 5 seconds 305 msec
