                         Program Version 3.0.3 - RELEASE   -
|  1> ! RI PBE def2-SVP def2-SVP/J NBO PAL2
|  2> % maxcore 2000
|  3> % output
|  4>     # printlevel mini
|  5>     print[ P_Basis ] 0
|  6>     print[ P_SCFInfo ] 1
|  7>     print[ P_SCFIterInfo ] 1
|  8>     print[ P_OrbEn ] 0
|  9>     print[ P_Cartesian ] 0
| 10> end
| 11> *xyz 0 1
| 12>  C        1.8590460000     0.6515720000     1.0264370000
| 13>  C        1.9143220000    -0.3741260000     0.1904550000
| 14>  C        3.0661920000    -1.3096790000     0.0996190000
| 15>  C        2.7329230000    -2.7841820000     0.3337840000
| 16>  C        3.4813030000    -3.3962070000    -0.8058270000
| 17>  N        3.9179790000    -2.5568450000    -1.6494470000
| 18>  O        3.6025690000    -1.2794170000    -1.2485750000
| 19>  H        0.9923710000     1.3000740000     1.0733220000
| 20>  H        2.6829430000     0.8795490000     1.6954660000
| 21>  H        1.0865220000    -0.5829210000    -0.4837970000
| 22>  H        3.8680580000    -0.9846440000     0.7729140000
| 23>  H        1.6604520000    -2.9944840000     0.2498780000
| 24>  H        3.0621240000    -3.1397420000     1.3108470000
| 25>  H        3.6323050000    -4.4528500000    -0.9863750000
| 26> *
| 27>
| 28>                          ****END OF INPUT****
 Total Charge           Charge          ....    0
 Multiplicity           Mult            ....    1
 Number of Electrons    NEL             ....   52
 Basis Dimension        Dim             ....  133

MULLIKEN ATOMIC CHARGES
-----------------------
   0 C :   -0.030588
   1 C :   -0.013277
   2 C :    0.115614
   3 C :    0.044906
   4 C :   -0.069914
   5 N :    0.031473
   6 O :   -0.268791
   7 H :    0.035033
   8 H :    0.027200
   9 H :    0.007027
  10 H :    0.014056
  11 H :    0.038190
  12 H :    0.040878
  13 H :    0.028193
Sum of atomic charges:    0.0000000

LOEWDIN ATOMIC CHARGES
----------------------
   0 C :   -0.044929
   1 C :   -0.034330
   2 C :    0.050961
   3 C :   -0.055641
   4 C :   -0.057119
   5 N :    0.014748
   6 O :   -0.093925
   7 H :    0.029940
   8 H :    0.025612
   9 H :    0.029641
  10 H :    0.023295
  11 H :    0.040873
  12 H :    0.041834
  13 H :    0.029040

  Mayer bond orders larger than 0.1
B(  0-C ,  1-C ) :   1.9856 B(  0-C ,  7-H ) :   0.9420 B(  0-C ,  8-H ) :   0.9499
B(  1-C ,  2-C ) :   1.0382 B(  1-C ,  9-H ) :   0.9479 B(  2-C ,  3-C ) :   1.0698
B(  2-C ,  6-O ) :   0.9181 B(  2-C , 10-H ) :   0.9183 B(  3-C ,  4-C ) :   0.9901
B(  3-C , 11-H ) :   0.9066 B(  3-C , 12-H ) :   0.9298 B(  4-C ,  5-N ) :   1.8996
B(  4-C ,  6-O ) :   0.1162 B(  4-C , 13-H ) :   0.9674 B(  5-N ,  6-O ) :   0.9914

FINAL SINGLE POINT ENERGY      -323.992742529742

DIPOLE MOMENT
-------------
                                X             Y             Z
Electronic contribution:      2.84414      -1.35592      -4.28490
Nuclear contribution   :     -3.41898       0.98468       5.36593
                        -----------------------------------------
Total Dipole Moment    :     -0.57484      -0.37125       1.08103
                        -----------------------------------------
Magnitude (a.u.)       :      1.27941
Magnitude (Debye)      :      3.25201

                             ****ORCA TERMINATED NORMALLY****
TOTAL RUN TIME: 0 days 0 hours 0 minutes 6 seconds 446 msec
