                         Program Version 3.0.3 - RELEASE   -
|  1> ! RI PBE def2-SVP def2-SVP/J NBO PAL2
|  2> % maxcore 2000
|  3> % output
|  4>     # printlevel mini
|  5>     print[ P_Basis ] 0
|  6>     print[ P_SCFInfo ] 1
|  7>     print[ P_SCFIterInfo ] 1
|  8>     print[ P_OrbEn ] 0
|  9>     print[ P_Cartesian ] 0
| 10> end
| 11> *xyz 0 1
| 12>  C        0.9977070000     0.0592730000     0.1579960000
| 13>  C        2.1944770000     0.0853570000     0.0798680000
| 14>  C        3.6477150000     0.0976060000    -0.0038270000
| 15>  C        4.2291250000    -1.1366440000    -0.7062530000
| 16>  C        4.6737290000    -0.5061920000    -1.9857170000
| 17>  N        4.5974540000     0.7579480000    -2.0027350000
| 18>  O        4.0924340000     1.2194710000    -0.8092420000
| 19>  H       -0.0649080000     0.0478240000     0.2223780000
| 20>  H        4.0688080000     0.2448010000     0.9931470000
| 21>  H        3.4868340000    -1.9218510000    -0.8519700000
| 22>  H        5.0767030000    -1.5666030000    -0.1650570000
| 23>  H        5.0647320000    -1.0235000000    -2.8520780000
| 24> *
| 25>
| 26>                          ****END OF INPUT****
 Total Charge           Charge          ....    0
 Multiplicity           Mult            ....    1
 Number of Electrons    NEL             ....   50
 Basis Dimension        Dim             ....  123

MULLIKEN ATOMIC CHARGES
-----------------------
   0 C :   -0.473436
   1 C :    0.426605
   2 C :    0.104125
   3 C :    0.013240
   4 C :   -0.048684
   5 N :    0.037466
   6 O :   -0.254020
   7 H :    0.008894
   8 H :    0.046476
   9 H :    0.057256
  10 H :    0.049846
  11 H :    0.032231
Sum of atomic charges:    0.0000000

LOEWDIN ATOMIC CHARGES
----------------------
   0 C :   -0.053481
   1 C :   -0.032017
   2 C :    0.043986
   3 C :   -0.050539
   4 C :   -0.051648
   5 N :    0.018740
   6 O :   -0.083984
   7 H :    0.038560
   8 H :    0.045552
   9 H :    0.048323
  10 H :    0.044820
  11 H :    0.031686

  Mayer bond orders larger than 0.1
B(  0-C ,  1-C ) :   2.3441 B(  0-C ,  7-H ) :   1.0984 B(  1-C ,  2-C ) :   0.9451
B(  1-C ,  7-H ) :  -0.1081 B(  2-C ,  3-C ) :   1.1038 B(  2-C ,  6-O ) :   0.9762
B(  2-C ,  8-H ) :   0.8935 B(  3-C ,  4-C ) :   0.9904 B(  3-C ,  9-H ) :   0.9300
B(  3-C , 10-H ) :   0.9095 B(  4-C ,  5-N ) :   1.9000 B(  4-C ,  6-O ) :   0.1131
B(  4-C , 11-H ) :   0.9671 B(  5-N ,  6-O ) :   0.9856

FINAL SINGLE POINT ENERGY      -322.744479280419

DIPOLE MOMENT
-------------
                                X             Y             Z
Electronic contribution:     -0.01924       3.17697      -0.68320
Nuclear contribution   :     -0.05327      -4.38465       1.11353
                        -----------------------------------------
Total Dipole Moment    :     -0.07252      -1.20768       0.43033
                        -----------------------------------------
Magnitude (a.u.)       :      1.28411
Magnitude (Debye)      :      3.26394

                             ****ORCA TERMINATED NORMALLY****
TOTAL RUN TIME: 0 days 0 hours 0 minutes 6 seconds 54 msec
