                         Program Version 3.0.3 - RELEASE   -
|  1> ! RI PBE def2-SVP def2-SVP/J NBO PAL2
|  2> % maxcore 2000
|  3> % output
|  4>     # printlevel mini
|  5>     print[ P_Basis ] 0
|  6>     print[ P_SCFInfo ] 1
|  7>     print[ P_SCFIterInfo ] 1
|  8>     print[ P_OrbEn ] 0
|  9>     print[ P_Cartesian ] 0
| 10> end
| 11> *xyz 0 1
| 12>  C        3.2242100000     1.2006040000     0.0328340000
| 13>  C        2.5149010000    -0.1404610000    -0.0231210000
| 14>  C        3.4493030000    -1.3215540000     0.1564540000
| 15>  C        2.7579590000    -2.6798020000     0.0435260000
| 16>  C        3.3051220000    -3.1403340000    -1.2672240000
| 17>  N        4.2071740000    -2.3911880000    -1.7497800000
| 18>  O        4.4323470000    -1.3265690000    -0.9103640000
| 19>  H        2.5213920000     2.0232530000    -0.1137700000
| 20>  H        3.9900630000     1.2666750000    -0.7415770000
| 21>  H        3.7119830000     1.3478040000     1.0006820000
| 22>  H        1.9960300000    -0.2570620000    -0.9814020000
| 23>  H        1.7488450000    -0.1970540000     0.7589730000
| 24>  H        4.0129800000    -1.2191030000     1.0882160000
| 25>  H        1.6678360000    -2.5933990000     0.0333770000
| 26>  H        3.0243010000    -3.3733890000     0.8467460000
| 27>  H        3.0186740000    -4.0333220000    -1.8076580000
| 28> *
| 29>
| 30>                          ****END OF INPUT****
 Total Charge           Charge          ....    0
 Multiplicity           Mult            ....    1
 Number of Electrons    NEL             ....   54
 Basis Dimension        Dim             ....  143

MULLIKEN ATOMIC CHARGES
-----------------------
   0 C :   -0.006516
   1 C :   -0.001385
   2 C :    0.060165
   3 C :    0.029681
   4 C :   -0.064482
   5 N :    0.029968
   6 O :   -0.273800
   7 H :    0.023843
   8 H :    0.041759
   9 H :    0.013676
  10 H :    0.012436
  11 H :    0.019034
  12 H :    0.008313
  13 H :    0.037491
  14 H :    0.044317
  15 H :    0.025501
Sum of atomic charges:   -0.0000000

LOEWDIN ATOMIC CHARGES
----------------------
   0 C :   -0.066622
   1 C :   -0.054622
   2 C :    0.052079
   3 C :   -0.063781
   4 C :   -0.057814
   5 N :    0.010353
   6 O :   -0.094405
   7 H :    0.028985
   8 H :    0.032533
   9 H :    0.024994
  10 H :    0.029367
  11 H :    0.028504
  12 H :    0.020917
  13 H :    0.040078
  14 H :    0.041468
  15 H :    0.027967

  Mayer bond orders larger than 0.1
B(  0-C ,  1-C ) :   1.1210 B(  0-C ,  7-H ) :   0.9609 B(  0-C ,  8-H ) :   0.9629
B(  0-C ,  9-H ) :   0.9619 B(  1-C ,  2-C ) :   1.0539 B(  1-C , 10-H ) :   0.9188
B(  1-C , 11-H ) :   0.9280 B(  2-C ,  3-C ) :   1.0881 B(  2-C ,  6-O ) :   0.9414
B(  2-C , 12-H ) :   0.9183 B(  3-C ,  4-C ) :   1.0021 B(  3-C , 13-H ) :   0.9195
B(  3-C , 14-H ) :   0.9105 B(  4-C ,  5-N ) :   1.8961 B(  4-C ,  6-O ) :   0.1171
B(  4-C , 15-H ) :   0.9681 B(  5-N ,  6-O ) :   0.9915

FINAL SINGLE POINT ENERGY      -325.220042476587

DIPOLE MOMENT
-------------
                                X             Y             Z
Electronic contribution:      3.82944      -5.11549      -3.65995
Nuclear contribution   :     -4.74477       4.88033       4.46872
                        -----------------------------------------
Total Dipole Moment    :     -0.91534      -0.23516       0.80877
                        -----------------------------------------
Magnitude (a.u.)       :      1.24389
Magnitude (Debye)      :      3.16171

                             ****ORCA TERMINATED NORMALLY****
TOTAL RUN TIME: 0 days 0 hours 0 minutes 7 seconds 468 msec
