                         Program Version 3.0.3 - RELEASE   -
|  1> ! RI PBE def2-SVP def2-SVP/J NBO PAL2
|  2> % maxcore 2000
|  3> % output
|  4>     # printlevel mini
|  5>     print[ P_Basis ] 0
|  6>     print[ P_SCFInfo ] 1
|  7>     print[ P_SCFIterInfo ] 1
|  8>     print[ P_OrbEn ] 0
|  9>     print[ P_Cartesian ] 0
| 10> end
| 11> *xyz 0 1
| 12>  C        2.4648910000    -1.2831310000     0.4399330000
| 13>  C        2.2595990000     0.0129950000     0.2325740000
| 14>  C        3.0600430000     1.0811980000     0.8067950000
| 15>  N        2.7564110000     2.3258040000     0.5259430000
| 16>  O        3.6617770000     3.1045850000     1.1918250000
| 17>  C        4.5017300000     2.3159370000     1.8673600000
| 18>  C        4.1871520000     1.0192670000     1.6751910000
| 19>  H        1.8294970000    -2.0296140000    -0.0197610000
| 20>  H        3.2686650000    -1.6453980000     1.0714570000
| 21>  H        1.4472130000     0.3479450000    -0.4045150000
| 22>  H        5.2682450000     2.8176360000     2.4371490000
| 23>  H        4.6769780000     0.1525650000     2.0846580000
| 24> *
| 25>
| 26>                          ****END OF INPUT****
 Total Charge           Charge          ....    0
 Multiplicity           Mult            ....    1
 Number of Electrons    NEL             ....   50
 Basis Dimension        Dim             ....  123

MULLIKEN ATOMIC CHARGES
-----------------------
   0 C :   -0.022476
   1 C :    0.031084
   2 C :   -0.022739
   3 N :   -0.034139
   4 O :   -0.139795
   5 C :    0.166825
   6 C :   -0.071156
   7 H :    0.035827
   8 H :    0.022226
   9 H :    0.005696
  10 H :    0.026384
  11 H :    0.002263
Sum of atomic charges:    0.0000000

LOEWDIN ATOMIC CHARGES
----------------------
   0 C :   -0.035378
   1 C :   -0.026778
   2 C :   -0.054027
   3 N :   -0.038862
   4 O :    0.049333
   5 C :    0.034581
   6 C :   -0.091028
   7 H :    0.031604
   8 H :    0.023959
   9 H :    0.040143
  10 H :    0.030015
  11 H :    0.036438

  Mayer bond orders larger than 0.1
B(  0-C ,  1-C ) :   1.9186 B(  0-C ,  7-H ) :   0.9379 B(  0-C ,  8-H ) :   0.9447
B(  1-C ,  2-C ) :   1.1077 B(  1-C ,  9-H ) :   0.9498 B(  2-C ,  3-N ) :   1.6008
B(  2-C ,  6-C ) :   1.2105 B(  3-N ,  4-O ) :   1.0206 B(  3-N ,  5-C ) :   0.1115
B(  4-O ,  5-C ) :   1.1800 B(  5-C ,  6-C ) :   1.5549 B(  5-C , 10-H ) :   0.9759
B(  6-C , 11-H ) :   0.9816

FINAL SINGLE POINT ENERGY      -322.818288028650

DIPOLE MOMENT
-------------
                                X             Y             Z
Electronic contribution:      0.49821       5.49651       0.17135
Nuclear contribution   :      0.10028      -6.20477       0.31423
                        -----------------------------------------
Total Dipole Moment    :      0.59849      -0.70825       0.48559
                        -----------------------------------------
Magnitude (a.u.)       :      1.04672
Magnitude (Debye)      :      2.66054

                             ****ORCA TERMINATED NORMALLY****
TOTAL RUN TIME: 0 days 0 hours 0 minutes 5 seconds 961 msec
