                         Program Version 3.0.3 - RELEASE   -
|  1> ! RI PBE def2-SVP def2-SVP/J NBO PAL2
|  2> % maxcore 2000
|  3> % output
|  4>     # printlevel mini
|  5>     print[ P_Basis ] 0
|  6>     print[ P_SCFInfo ] 1
|  7>     print[ P_SCFIterInfo ] 1
|  8>     print[ P_OrbEn ] 0
|  9>     print[ P_Cartesian ] 0
| 10> end
| 11> *xyz 0 1
| 12>  C        1.0354650000     0.0024330000    -0.0291900000
| 13>  C        2.2355450000    -0.0082890000    -0.0289590000
| 14>  C        3.6515590000    -0.0690250000    -0.0286740000
| 15>  N        4.3784860000     1.0255260000    -0.0286870000
| 16>  O        5.6764180000     0.6069680000    -0.0283730000
| 17>  C        5.7184720000    -0.7272720000    -0.0281790000
| 18>  C        4.4683210000    -1.2339940000    -0.0283520000
| 19>  H       -0.0289060000     0.0262230000    -0.0293910000
| 20>  H        6.7012770000    -1.1718380000    -0.0279240000
| 21>  H        4.1542530000    -2.2632320000    -0.0282700000
| 22> *
| 23>
| 24>                          ****END OF INPUT****
 Total Charge           Charge          ....    0
 Multiplicity           Mult            ....    1
 Number of Electrons    NEL             ....   48
 Basis Dimension        Dim             ....  113

MULLIKEN ATOMIC CHARGES
-----------------------
   0 C :   -0.460526
   1 C :    0.479228
   2 C :   -0.062030
   3 N :   -0.016547
   4 O :   -0.134420
   5 C :    0.181676
   6 C :   -0.039056
   7 H :    0.015500
   8 H :    0.028150
   9 H :    0.008025
Sum of atomic charges:    0.0000000

LOEWDIN ATOMIC CHARGES
----------------------
   0 C :   -0.030353
   1 C :   -0.014784
   2 C :   -0.066554
   3 N :   -0.022509
   4 O :    0.057823
   5 C :    0.037566
   6 C :   -0.076976
   7 H :    0.040573
   8 H :    0.032536
   9 H :    0.042678

  Mayer bond orders larger than 0.1
B(  0-C ,  1-C ) :   2.2597 B(  0-C ,  7-H ) :   1.0927 B(  1-C ,  2-C ) :   0.9460
B(  1-C ,  7-H ) :  -0.1037 B(  2-C ,  3-N ) :   1.5941 B(  2-C ,  6-C ) :   1.2232
B(  3-N ,  4-O ) :   1.0229 B(  3-N ,  5-C ) :   0.1183 B(  4-O ,  5-C ) :   1.1778
B(  5-C ,  6-C ) :   1.5378 B(  5-C ,  8-H ) :   0.9747 B(  6-C ,  9-H ) :   0.9921

FINAL SINGLE POINT ENERGY      -321.568567311435

DIPOLE MOMENT
-------------
                                X             Y             Z
Electronic contribution:      0.98575       1.98048      -0.00009
Nuclear contribution   :     -0.95885      -3.06724       0.00025
                        -----------------------------------------
Total Dipole Moment    :      0.02690      -1.08676       0.00016
                        -----------------------------------------
Magnitude (a.u.)       :      1.08709
Magnitude (Debye)      :      2.76316

                             ****ORCA TERMINATED NORMALLY****
TOTAL RUN TIME: 0 days 0 hours 0 minutes 5 seconds 118 msec
