                         Program Version 3.0.3 - RELEASE   -
|  1> ! RI PBE def2-SVP def2-SVP/J NBO PAL2
|  2> % maxcore 2000
|  3> % output
|  4>     # printlevel mini
|  5>     print[ P_Basis ] 0
|  6>     print[ P_SCFInfo ] 1
|  7>     print[ P_SCFIterInfo ] 1
|  8>     print[ P_OrbEn ] 0
|  9>     print[ P_Cartesian ] 0
| 10> end
| 11> *xyz 0 1
| 12>  C        1.9859800000     1.1560480000    -0.0749970000
| 13>  C        2.6255130000     0.0167370000     0.1475920000
| 14>  C        3.2756990000    -0.7957460000    -0.9149760000
| 15>  C        4.7471070000    -1.2278380000    -0.6669970000
| 16>  C        4.2208540000    -2.6672520000    -0.7068740000
| 17>  O        4.6960430000    -3.7631750000    -0.6168780000
| 18>  N        2.9447980000    -2.2210590000    -0.8981750000
| 19>  H        1.5390260000     1.7249980000     0.7314580000
| 20>  H        1.8911720000     1.5635930000    -1.0770000000
| 21>  H        2.7038020000    -0.3799070000     1.1584950000
| 22>  H        3.1232270000    -0.3343030000    -1.8958050000
| 23>  H        5.1566180000    -0.9320270000     0.2989240000
| 24>  H        5.4497760000    -0.9790490000    -1.4614650000
| 25>  H        2.0728740000    -2.7116210000    -1.0248020000
| 26> *
| 27>
| 28>                          ****END OF INPUT****
 Total Charge           Charge          ....    0
 Multiplicity           Mult            ....    1
 Number of Electrons    NEL             ....   52
 Basis Dimension        Dim             ....  133

MULLIKEN ATOMIC CHARGES
-----------------------
   0 C :   -0.021526
   1 C :    0.010809
   2 C :    0.013756
   3 C :    0.020782
   4 C :    0.074415
   5 O :   -0.165765
   6 N :   -0.172921
   7 H :    0.030852
   8 H :    0.022962
   9 H :   -0.003536
  10 H :    0.006123
  11 H :    0.033117
  12 H :    0.049177
  13 H :    0.101754
Sum of atomic charges:    0.0000000

LOEWDIN ATOMIC CHARGES
----------------------
   0 C :   -0.050627
   1 C :   -0.040797
   2 C :    0.033734
   3 C :   -0.045463
   4 C :    0.019897
   5 O :   -0.159376
   6 N :   -0.003197
   7 H :    0.029236
   8 H :    0.024244
   9 H :    0.027940
  10 H :    0.020790
  11 H :    0.039359
  12 H :    0.041286
  13 H :    0.062973

  Mayer bond orders larger than 0.1
B(  0-C ,  1-C ) :   1.9779 B(  0-C ,  7-H ) :   0.9337 B(  0-C ,  8-H ) :   0.9531
B(  1-C ,  2-C ) :   1.0424 B(  1-C ,  9-H ) :   0.9443 B(  2-C ,  3-C ) :   1.0584
B(  2-C ,  6-N ) :   0.9902 B(  2-C , 10-H ) :   0.9136 B(  3-C ,  4-C ) :   0.9360
B(  3-C , 11-H ) :   0.9023 B(  3-C , 12-H ) :   0.9112 B(  4-C ,  5-O ) :   2.1734
B(  4-C ,  6-N ) :   1.1673 B(  5-O ,  6-N ) :   0.1142 B(  6-N , 13-H ) :   0.9458

FINAL SINGLE POINT ENERGY      -324.055613333924

DIPOLE MOMENT
-------------
                                X             Y             Z
Electronic contribution:      1.70308      -6.09116      -0.61436
Nuclear contribution   :     -2.46022       7.21084       0.46994
                        -----------------------------------------
Total Dipole Moment    :     -0.75714       1.11968      -0.14442
                        -----------------------------------------
Magnitude (a.u.)       :      1.35934
Magnitude (Debye)      :      3.45517

                             ****ORCA TERMINATED NORMALLY****
TOTAL RUN TIME: 0 days 0 hours 0 minutes 6 seconds 620 msec
