                         Program Version 3.0.3 - RELEASE   -
|  1> ! RI PBE def2-SVP def2-SVP/J NBO PAL2
|  2> % maxcore 2000
|  3> % output
|  4>     # printlevel mini
|  5>     print[ P_Basis ] 0
|  6>     print[ P_SCFInfo ] 1
|  7>     print[ P_SCFIterInfo ] 1
|  8>     print[ P_OrbEn ] 0
|  9>     print[ P_Cartesian ] 0
| 10> end
| 11> *xyz 0 1
| 12>  C        1.4804890000    -0.9410880000     0.2786950000
| 13>  C        2.5348490000     0.1006010000    -0.0547520000
| 14>  C        2.9279740000     0.1000740000    -1.5153310000
| 15>  C        4.1722070000     0.9262180000    -1.9154350000
| 16>  C        4.7720240000    -0.4042880000    -2.3866050000
| 17>  O        5.7865310000    -0.7532860000    -2.9214190000
| 18>  N        3.6620820000    -1.0822320000    -1.9717070000
| 19>  H        1.2066250000    -0.9046970000     1.3349010000
| 20>  H        1.8431660000    -1.9516280000     0.0712260000
| 21>  H        0.5693490000    -0.7854670000    -0.3059880000
| 22>  H        3.4334430000    -0.0661970000     0.5491320000
| 23>  H        2.1645190000     1.1004820000     0.1972480000
| 24>  H        2.0554440000     0.3128740000    -2.1443610000
| 25>  H        4.7057570000     1.3882940000    -1.0842280000
| 26>  H        4.0277320000     1.6519620000    -2.7151490000
| 27>  H        3.3877190000    -2.0425300000    -2.1083370000
| 28> *
| 29>
| 30>                          ****END OF INPUT****
 Total Charge           Charge          ....    0
 Multiplicity           Mult            ....    1
 Number of Electrons    NEL             ....   54
 Basis Dimension        Dim             ....  143

MULLIKEN ATOMIC CHARGES
-----------------------
   0 C :   -0.019946
   1 C :    0.043779
   2 C :   -0.029002
   3 C :    0.012788
   4 C :    0.068600
   5 O :   -0.167870
   6 N :   -0.181295
   7 H :    0.030536
   8 H :    0.012521
   9 H :    0.019127
  10 H :    0.005199
  11 H :    0.017487
  12 H :    0.009749
  13 H :    0.031068
  14 H :    0.044822
  15 H :    0.102435
Sum of atomic charges:   -0.0000000

LOEWDIN ATOMIC CHARGES
----------------------
   0 C :   -0.066965
   1 C :   -0.051594
   2 C :    0.035286
   3 C :   -0.055273
   4 C :    0.021074
   5 O :   -0.163440
   6 N :   -0.009458
   7 H :    0.031588
   8 H :    0.021997
   9 H :    0.025926
  10 H :    0.026742
  11 H :    0.030614
  12 H :    0.015850
  13 H :    0.037793
  14 H :    0.039685
  15 H :    0.060176

  Mayer bond orders larger than 0.1
B(  0-C ,  1-C ) :   1.1181 B(  0-C ,  7-H ) :   0.9614 B(  0-C ,  8-H ) :   0.9651
B(  0-C ,  9-H ) :   0.9630 B(  1-C ,  2-C ) :   1.0615 B(  1-C , 10-H ) :   0.9149
B(  1-C , 11-H ) :   0.9276 B(  2-C ,  3-C ) :   1.0745 B(  2-C ,  6-N ) :   1.0163
B(  2-C , 12-H ) :   0.9088 B(  3-C ,  4-C ) :   0.9463 B(  3-C , 13-H ) :   0.8995
B(  3-C , 14-H ) :   0.9104 B(  4-C ,  5-O ) :   2.1753 B(  4-C ,  6-N ) :   1.1721
B(  5-O ,  6-N ) :   0.1123 B(  6-N , 15-H ) :   0.9396

FINAL SINGLE POINT ENERGY      -325.280267901245

DIPOLE MOMENT
-------------
                                X             Y             Z
Electronic contribution:      7.19402      -1.26182      -6.11306
Nuclear contribution   :     -8.53637       1.42506       6.74266
                        -----------------------------------------
Total Dipole Moment    :     -1.34236       0.16324       0.62960
                        -----------------------------------------
Magnitude (a.u.)       :      1.49163
Magnitude (Debye)      :      3.79142

                             ****ORCA TERMINATED NORMALLY****
TOTAL RUN TIME: 0 days 0 hours 0 minutes 7 seconds 628 msec
