                         Program Version 3.0.3 - RELEASE   -
|  1> ! RI PBE def2-SVP def2-SVP/J NBO PAL2
|  2> % maxcore 2000
|  3> % output
|  4>     # printlevel mini
|  5>     print[ P_Basis ] 0
|  6>     print[ P_SCFInfo ] 1
|  7>     print[ P_SCFIterInfo ] 1
|  8>     print[ P_OrbEn ] 0
|  9>     print[ P_Cartesian ] 0
| 10> end
| 11> *xyz 0 1
| 12>  C        2.6693560000     0.4153170000    -1.4299120000
| 13>  C        3.3480320000    -0.5615050000    -0.8432160000
| 14>  C        3.3753210000    -0.7814470000     0.6103680000
| 15>  C        3.5469800000    -2.1751900000     1.1454040000
| 16>  N        4.6020580000    -1.2198310000     1.2478690000
| 17>  C        5.8276240000    -1.3414590000     0.6339020000
| 18>  O        6.4597650000    -2.3620700000     0.5607580000
| 19>  H        2.6615810000     0.5299320000    -2.5067600000
| 20>  H        2.0928150000     1.1308740000    -0.8525520000
| 21>  H        3.9235200000    -1.2637010000    -1.4442090000
| 22>  H        2.7876240000    -0.0838300000     1.2013780000
| 23>  H        3.6787950000    -2.9798630000     0.4280020000
| 24>  H        3.0527970000    -2.4479780000     2.0717200000
| 25>  H        6.2073510000    -0.3698590000     0.2706380000
| 26> *
| 27>
| 28>                          ****END OF INPUT****
 Total Charge           Charge          ....    0
 Multiplicity           Mult            ....    1
 Number of Electrons    NEL             ....   52
 Basis Dimension        Dim             ....  133

MULLIKEN ATOMIC CHARGES
-----------------------
   0 C :   -0.030570
   1 C :    0.027198
   2 C :   -0.044695
   3 C :    0.100409
   4 N :   -0.185632
   5 C :    0.141347
   6 O :   -0.194751
   7 H :    0.033604
   8 H :    0.026335
   9 H :    0.010809
  10 H :    0.024108
  11 H :    0.049070
  12 H :    0.050208
  13 H :   -0.007440
Sum of atomic charges:    0.0000000

LOEWDIN ATOMIC CHARGES
----------------------
   0 C :   -0.049305
   1 C :   -0.040635
   2 C :    0.023930
   3 C :    0.039716
   4 N :   -0.051678
   5 C :    0.055434
   6 O :   -0.146870
   7 H :    0.031509
   8 H :    0.026771
   9 H :    0.034343
  10 H :    0.030166
  11 H :    0.025885
  12 H :    0.031442
  13 H :   -0.010709

  Mayer bond orders larger than 0.1
B(  0-C ,  1-C ) :   1.9613 B(  0-C ,  7-H ) :   0.9336 B(  0-C ,  8-H ) :   0.9571
B(  1-C ,  2-C ) :   1.0799 B(  1-C ,  9-H ) :   0.9314 B(  2-C ,  3-C ) :   0.9783
B(  2-C ,  4-N ) :   0.8971 B(  2-C , 10-H ) :   0.9434 B(  3-C ,  4-N ) :   0.9621
B(  3-C , 11-H ) :   0.9410 B(  3-C , 12-H ) :   0.9378 B(  4-N ,  5-C ) :   1.1150
B(  5-C ,  6-O ) :   2.0916 B(  5-C , 13-H ) :   0.9278

FINAL SINGLE POINT ENERGY      -324.021515142243

DIPOLE MOMENT
-------------
                                X             Y             Z
Electronic contribution:      4.21551      -1.97328       2.40402
Nuclear contribution   :     -5.32483       2.53116      -2.59743
                        -----------------------------------------
Total Dipole Moment    :     -1.10932       0.55789      -0.19341
                        -----------------------------------------
Magnitude (a.u.)       :      1.25667
Magnitude (Debye)      :      3.19421

                             ****ORCA TERMINATED NORMALLY****
TOTAL RUN TIME: 0 days 0 hours 0 minutes 6 seconds 634 msec
