                         Program Version 3.0.3 - RELEASE   -
|  1> ! RI PBE def2-SVP def2-SVP/J NBO PAL2
|  2> % maxcore 2000
|  3> % output
|  4>     # printlevel mini
|  5>     print[ P_Basis ] 0
|  6>     print[ P_SCFInfo ] 1
|  7>     print[ P_SCFIterInfo ] 1
|  8>     print[ P_OrbEn ] 0
|  9>     print[ P_Cartesian ] 0
| 10> end
| 11> *xyz 0 1
| 12>  C        4.2842630000    -0.1349140000    -1.6518040000
| 13>  C        2.9376060000     0.0186270000    -0.9636690000
| 14>  C        2.7115360000     1.4097220000    -0.4482340000
| 15>  C        1.8871510000     1.6946890000     0.7631310000
| 16>  N        3.3206070000     1.7695550000     0.8142280000
| 17>  C        4.0024820000     2.9423830000     1.0459780000
| 18>  O        3.6825150000     3.7826350000     1.8441510000
| 19>  H        4.4284670000    -1.1541770000    -2.0152780000
| 20>  H        5.0999950000     0.0927620000    -0.9612930000
| 21>  H        4.3712570000     0.5384390000    -2.5089660000
| 22>  H        2.8628070000    -0.6780800000    -0.1234080000
| 23>  H        2.1276450000    -0.2307680000    -1.6576150000
| 24>  H        2.7101560000     2.1938370000    -1.2053630000
| 25>  H        1.4384720000     0.8648860000     1.2994010000
| 26>  H        1.3469280000     2.6343450000     0.8180340000
| 27>  H        4.9322130000     3.0050690000     0.4502970000
| 28> *
| 29>
| 30>                          ****END OF INPUT****
 Total Charge           Charge          ....    0
 Multiplicity           Mult            ....    1
 Number of Electrons    NEL             ....   54
 Basis Dimension        Dim             ....  143

MULLIKEN ATOMIC CHARGES
-----------------------
   0 C :   -0.034247
   1 C :    0.073255
   2 C :   -0.104166
   3 C :    0.105204
   4 N :   -0.203038
   5 C :    0.144216
   6 O :   -0.193806
   7 H :    0.027039
   8 H :    0.031300
   9 H :    0.022000
  10 H :    0.007920
  11 H :    0.024185
  12 H :    0.034611
  13 H :    0.036505
  14 H :    0.045838
  15 H :   -0.016813
Sum of atomic charges:    0.0000000

LOEWDIN ATOMIC CHARGES
----------------------
   0 C :   -0.064332
   1 C :   -0.046335
   2 C :    0.022948
   3 C :    0.031073
   4 N :   -0.065088
   5 C :    0.056499
   6 O :   -0.145251
   7 H :    0.030363
   8 H :    0.028420
   9 H :    0.026437
  10 H :    0.032446
  11 H :    0.033004
  12 H :    0.022267
  13 H :    0.026914
  14 H :    0.025521
  15 H :   -0.014887

  Mayer bond orders larger than 0.1
B(  0-C ,  1-C ) :   1.1152 B(  0-C ,  7-H ) :   0.9604 B(  0-C ,  8-H ) :   0.9682
B(  0-C ,  9-H ) :   0.9655 B(  1-C ,  2-C ) :   1.0575 B(  1-C , 10-H ) :   0.9151
B(  1-C , 11-H ) :   0.9263 B(  2-C ,  3-C ) :   1.0290 B(  2-C ,  4-N ) :   0.9025
B(  2-C , 12-H ) :   0.9368 B(  3-C ,  4-N ) :   0.9541 B(  3-C , 13-H ) :   0.9349
B(  3-C , 14-H ) :   0.9384 B(  4-N ,  5-C ) :   1.1167 B(  5-C ,  6-O ) :   2.0921
B(  5-C , 15-H ) :   0.9268

FINAL SINGLE POINT ENERGY      -325.245772930774

DIPOLE MOMENT
-------------
                                X             Y             Z
Electronic contribution:     -0.15000       6.28302       6.18350
Nuclear contribution   :     -0.17272      -7.10747      -7.20553
                        -----------------------------------------
Total Dipole Moment    :     -0.32272      -0.82445      -1.02203
                        -----------------------------------------
Magnitude (a.u.)       :      1.35219
Magnitude (Debye)      :      3.43699

                             ****ORCA TERMINATED NORMALLY****
TOTAL RUN TIME: 0 days 0 hours 0 minutes 7 seconds 603 msec
