                         Program Version 3.0.3 - RELEASE   -
|  1> ! RI PBE def2-SVP def2-SVP/J NBO PAL2
|  2> % maxcore 2000
|  3> % output
|  4>     # printlevel mini
|  5>     print[ P_Basis ] 0
|  6>     print[ P_SCFInfo ] 1
|  7>     print[ P_SCFIterInfo ] 1
|  8>     print[ P_OrbEn ] 0
|  9>     print[ P_Cartesian ] 0
| 10> end
| 11> *xyz 0 1
| 12>  C        2.4063170000    -0.7303200000    -1.0503860000
| 13>  C        2.1156220000     0.3085130000    -0.2800560000
| 14>  C        3.1204270000     1.1541300000     0.4077500000
| 15>  C        2.9202610000     2.6921900000     0.3546820000
| 16>  N        2.7880140000     2.6693780000     1.8032200000
| 17>  C        2.9458770000     1.3231890000     1.9421190000
| 18>  O        2.9475620000     0.5919760000     2.8894170000
| 19>  H        1.6287620000    -1.3255000000    -1.5141340000
| 20>  H        3.4334190000    -1.0267420000    -1.2380440000
| 21>  H        1.0731690000     0.5710940000    -0.1076630000
| 22>  H        4.1376010000     0.8439570000     0.1597640000
| 23>  H        2.0180150000     3.0120010000    -0.1725610000
| 24>  H        3.7827260000     3.2534960000    -0.0125210000
| 25>  H        2.6532190000     3.3977390000     2.4865140000
| 26> *
| 27>
| 28>                          ****END OF INPUT****
 Total Charge           Charge          ....    0
 Multiplicity           Mult            ....    1
 Number of Electrons    NEL             ....   52
 Basis Dimension        Dim             ....  133

MULLIKEN ATOMIC CHARGES
-----------------------
   0 C :   -0.020064
   1 C :    0.017507
   2 C :   -0.231644
   3 C :    0.231673
   4 N :   -0.207547
   5 C :    0.142759
   6 O :   -0.155459
   7 H :    0.028300
   8 H :    0.019674
   9 H :    0.001382
  10 H :    0.024015
  11 H :    0.020125
  12 H :    0.026056
  13 H :    0.103222
Sum of atomic charges:   -0.0000000

LOEWDIN ATOMIC CHARGES
----------------------
   0 C :   -0.052117
   1 C :   -0.024776
   2 C :   -0.058905
   3 C :    0.051029
   4 N :   -0.006109
   5 C :    0.024573
   6 O :   -0.153028
   7 H :    0.027507
   8 H :    0.023812
   9 H :    0.028195
  10 H :    0.039560
  11 H :    0.017554
  12 H :    0.020131
  13 H :    0.062573

  Mayer bond orders larger than 0.1
B(  0-C ,  1-C ) :   1.9910 B(  0-C ,  7-H ) :   0.9380 B(  0-C ,  8-H ) :   0.9511
B(  1-C ,  2-C ) :   1.0257 B(  1-C ,  9-H ) :   0.9561 B(  2-C ,  3-C ) :   1.0221
B(  2-C ,  5-C ) :   0.8439 B(  2-C , 10-H ) :   0.8886 B(  3-C ,  4-N ) :   1.0224
B(  3-C , 11-H ) :   0.9330 B(  3-C , 12-H ) :   0.9279 B(  4-N ,  5-C ) :   1.1821
B(  4-N ,  6-O ) :   0.1145 B(  4-N , 13-H ) :   0.9382 B(  5-C ,  6-O ) :   2.2031

FINAL SINGLE POINT ENERGY      -324.053010738459

DIPOLE MOMENT
-------------
                                X             Y             Z
Electronic contribution:      0.48137       0.52021       5.43171
Nuclear contribution   :     -0.50562       0.56674      -6.26251
                        -----------------------------------------
Total Dipole Moment    :     -0.02425       1.08695      -0.83080
                        -----------------------------------------
Magnitude (a.u.)       :      1.36831
Magnitude (Debye)      :      3.47797

                             ****ORCA TERMINATED NORMALLY****
TOTAL RUN TIME: 0 days 0 hours 0 minutes 6 seconds 675 msec
