                         Program Version 3.0.3 - RELEASE   -
|  1> ! RI PBE def2-SVP def2-SVP/J NBO PAL2
|  2> % maxcore 2000
|  3> % output
|  4>     # printlevel mini
|  5>     print[ P_Basis ] 0
|  6>     print[ P_SCFInfo ] 1
|  7>     print[ P_SCFIterInfo ] 1
|  8>     print[ P_OrbEn ] 0
|  9>     print[ P_Cartesian ] 0
| 10> end
| 11> *xyz 0 1
| 12>  C        3.4776880000    -0.5424060000     0.9600220000
| 13>  C        2.4112970000    -0.1607750000    -0.0555820000
| 14>  C        2.9717560000     0.5849430000    -1.2339230000
| 15>  C        2.1413420000     1.5608710000    -2.0549020000
| 16>  N        0.7758800000     1.8979030000    -1.7836250000
| 17>  C        3.2310050000     2.0513460000    -1.1612360000
| 18>  O        4.4280690000     2.5227640000    -1.6910650000
| 19>  H        3.0465190000    -1.0774340000     1.8096000000
| 20>  H        3.9879250000     0.3452890000     1.3421420000
| 21>  H        4.2365330000    -1.1875280000     0.5096690000
| 22>  H        1.6411700000     0.4466210000     0.4316500000
| 23>  H        1.8992340000    -1.0636560000    -0.4086060000
| 24>  H        3.7115900000     0.0428470000    -1.8167360000
| 25>  H        2.3901650000     1.5746460000    -3.1121860000
| 26>  H        0.6603540000     2.2884250000    -0.8589050000
| 27>  H        0.1681050000     1.0914720000    -1.8553650000
| 28>  H        2.9080200000     2.5495600000    -0.2442730000
| 29>  H        4.2564390000     3.3670000000    -2.1177800000
| 30> *
| 31>
| 32>                          ****END OF INPUT****
 Total Charge           Charge          ....    0
 Multiplicity           Mult            ....    1
 Number of Electrons    NEL             ....   56
 Basis Dimension        Dim             ....  153

MULLIKEN ATOMIC CHARGES
-----------------------
   0 C :   -0.016210
   1 C :    0.065131
   2 C :   -0.096488
   3 C :   -0.073119
   4 N :   -0.116587
   5 C :    0.054023
   6 O :   -0.229245
   7 H :    0.017984
   8 H :    0.020236
   9 H :    0.022669
  10 H :   -0.029208
  11 H :    0.007735
  12 H :    0.017263
  13 H :    0.015638
  14 H :    0.080558
  15 H :    0.098536
  16 H :    0.000525
  17 H :    0.160559
Sum of atomic charges:    0.0000000

LOEWDIN ATOMIC CHARGES
----------------------
   0 C :   -0.064160
   1 C :   -0.040313
   2 C :   -0.064724
   3 C :   -0.025608
   4 N :   -0.082437
   5 C :    0.025359
   6 O :   -0.097494
   7 H :    0.024573
   8 H :    0.026784
   9 H :    0.026759
  10 H :    0.012924
  11 H :    0.025380
  12 H :    0.029698
  13 H :    0.020532
  14 H :    0.048236
  15 H :    0.055938
  16 H :    0.003526
  17 H :    0.075026

  Mayer bond orders larger than 0.1
B(  0-C ,  1-C ) :   1.1248 B(  0-C ,  7-H ) :   0.9602 B(  0-C ,  8-H ) :   0.9655
B(  0-C ,  9-H ) :   0.9650 B(  1-C ,  2-C ) :   1.0773 B(  1-C , 10-H ) :   0.9111
B(  1-C , 11-H ) :   0.9236 B(  2-C ,  3-C ) :   0.8839 B(  2-C ,  5-C ) :   0.9244
B(  2-C , 12-H ) :   0.9251 B(  3-C ,  4-N ) :   1.1667 B(  3-C ,  5-C ) :   0.9496
B(  3-C , 13-H ) :   0.9283 B(  4-N , 14-H ) :   0.9654 B(  4-N , 15-H ) :   0.9682
B(  5-C ,  6-O ) :   1.1551 B(  5-C , 16-H ) :   0.9384 B(  6-O , 17-H ) :   0.9797

FINAL SINGLE POINT ENERGY      -326.428065588141

DIPOLE MOMENT
-------------
                                X             Y             Z
Electronic contribution:      1.19995       4.12556      -4.12801
Nuclear contribution   :     -1.61939      -4.08996       4.35979
                        -----------------------------------------
Total Dipole Moment    :     -0.41944       0.03560       0.23177
                        -----------------------------------------
Magnitude (a.u.)       :      0.48054
Magnitude (Debye)      :      1.22142

                             ****ORCA TERMINATED NORMALLY****
TOTAL RUN TIME: 0 days 0 hours 0 minutes 7 seconds 780 msec
