                         Program Version 3.0.3 - RELEASE   -
|  1> ! RI PBE def2-SVP def2-SVP/J NBO PAL2
|  2> % maxcore 2000
|  3> % output
|  4>     # printlevel mini
|  5>     print[ P_Basis ] 0
|  6>     print[ P_SCFInfo ] 1
|  7>     print[ P_SCFIterInfo ] 1
|  8>     print[ P_OrbEn ] 0
|  9>     print[ P_Cartesian ] 0
| 10> end
| 11> *xyz 0 1
| 12>  C        0.9710880000     0.2505330000     0.0058240000
| 13>  C        2.4369020000    -0.0862970000     0.2282570000
| 14>  C        2.9523990000    -1.1145640000    -0.7591270000
| 15>  C        4.3722980000    -1.6880330000    -0.5333320000
| 16>  N        3.7533690000    -2.9979290000    -0.3926350000
| 17>  C        2.4703520000    -2.5634800000    -0.5503730000
| 18>  O        1.4103400000    -3.1255580000    -0.5139100000
| 19>  H        0.6173100000     0.9693220000     0.7479510000
| 20>  H        0.3517910000    -0.6457820000     0.0723060000
| 21>  H        0.8156500000     0.6894570000    -0.9836120000
| 22>  H        2.5816120000    -0.4667680000     1.2459980000
| 23>  H        3.0472800000     0.8200790000     0.1478090000
| 24>  H        2.7873320000    -0.7856350000    -1.7889690000
| 25>  H        4.8609110000    -1.3262300000     0.3757690000
| 26>  H        5.0567060000    -1.6024140000    -1.3808010000
| 27>  H        4.1280600000    -3.9089010000    -0.1797520000
| 28> *
| 29>
| 30>                          ****END OF INPUT****
 Total Charge           Charge          ....    0
 Multiplicity           Mult            ....    1
 Number of Electrons    NEL             ....   54
 Basis Dimension        Dim             ....  143

MULLIKEN ATOMIC CHARGES
-----------------------
   0 C :   -0.025707
   1 C :    0.035406
   2 C :   -0.283228
   3 C :    0.240671
   4 N :   -0.212042
   5 C :    0.146209
   6 O :   -0.174073
   7 H :    0.022393
   8 H :    0.046170
   9 H :    0.016124
  10 H :    0.009922
  11 H :    0.015178
  12 H :    0.028820
  13 H :    0.011763
  14 H :    0.021794
  15 H :    0.100601
Sum of atomic charges:   -0.0000000

LOEWDIN ATOMIC CHARGES
----------------------
   0 C :   -0.066045
   1 C :   -0.035176
   2 C :   -0.059358
   3 C :    0.046875
   4 N :   -0.006179
   5 C :    0.022077
   6 O :   -0.166664
   7 H :    0.027362
   8 H :    0.033225
   9 H :    0.025168
  10 H :    0.025398
  11 H :    0.025079
  12 H :    0.033666
  13 H :    0.015801
  14 H :    0.017995
  15 H :    0.060776

  Mayer bond orders larger than 0.1
B(  0-C ,  1-C ) :   1.1203 B(  0-C ,  7-H ) :   0.9606 B(  0-C ,  8-H ) :   0.9612
B(  0-C ,  9-H ) :   0.9642 B(  1-C ,  2-C ) :   1.0404 B(  1-C , 10-H ) :   0.9311
B(  1-C , 11-H ) :   0.9348 B(  2-C ,  3-C ) :   1.0436 B(  2-C ,  5-C ) :   0.8845
B(  2-C , 12-H ) :   0.8912 B(  3-C ,  4-N ) :   1.0261 B(  3-C , 13-H ) :   0.9281
B(  3-C , 14-H ) :   0.9274 B(  4-N ,  5-C ) :   1.1969 B(  4-N ,  6-O ) :   0.1177
B(  4-N , 15-H ) :   0.9389 B(  5-C ,  6-O ) :   2.1500

FINAL SINGLE POINT ENERGY      -325.278320741248

DIPOLE MOMENT
-------------
                                X             Y             Z
Electronic contribution:      0.51733      -7.35337      -1.25707
Nuclear contribution   :      0.74772       7.79481       1.32605
                        -----------------------------------------
Total Dipole Moment    :      1.26505       0.44144       0.06898
                        -----------------------------------------
Magnitude (a.u.)       :      1.34163
Magnitude (Debye)      :      3.41015

                             ****ORCA TERMINATED NORMALLY****
TOTAL RUN TIME: 0 days 0 hours 0 minutes 7 seconds 464 msec
