                         Program Version 3.0.3 - RELEASE   -
|  1> ! RI PBE def2-SVP def2-SVP/J NBO PAL2
|  2> % maxcore 2000
|  3> % output
|  4>     # printlevel mini
|  5>     print[ P_Basis ] 0
|  6>     print[ P_SCFInfo ] 1
|  7>     print[ P_SCFIterInfo ] 1
|  8>     print[ P_OrbEn ] 0
|  9>     print[ P_Cartesian ] 0
| 10> end
| 11> *xyz 0 1
| 12>  C        1.0123240000    -0.1192600000     0.0746730000
| 13>  C        2.5078990000     0.0776920000    -0.1551460000
| 14>  C        2.9908830000    -0.4896170000    -1.4333480000
| 15>  C        3.5400050000     0.0175130000    -2.5598680000
| 16>  N        3.7938780000    -1.0047870000    -3.4555090000
| 17>  C        3.3945600000    -2.0602020000    -2.8433170000
| 18>  O        2.8939820000    -1.8398800000    -1.6134490000
| 19>  H        0.7114980000     0.3088850000     1.0329550000
| 20>  H        0.7547680000    -1.1798310000     0.0830240000
| 21>  H        0.4295550000     0.3628450000    -0.7129230000
| 22>  H        3.0690000000    -0.3711360000     0.6721500000
| 23>  H        2.7539920000     1.1423660000    -0.1565490000
| 24>  H        3.7716770000     1.0459820000    -2.7874400000
| 25>  H        3.4114690000    -3.0824610000    -3.1883540000
| 26> *
| 27>
| 28>                          ****END OF INPUT****
 Total Charge           Charge          ....    0
 Multiplicity           Mult            ....    1
 Number of Electrons    NEL             ....   52
 Basis Dimension        Dim             ....  133

MULLIKEN ATOMIC CHARGES
-----------------------
   0 C :   -0.033434
   1 C :    0.088222
   2 C :   -0.010186
   3 C :   -0.034361
   4 N :   -0.123119
   5 C :    0.135661
   6 O :   -0.173451
   7 H :    0.024503
   8 H :    0.035998
   9 H :    0.030677
  10 H :    0.030102
  11 H :    0.015582
  12 H :   -0.006713
  13 H :    0.020519
Sum of atomic charges:   -0.0000000

LOEWDIN ATOMIC CHARGES
----------------------
   0 C :   -0.059522
   1 C :   -0.047309
   2 C :   -0.003765
   3 C :   -0.058964
   4 N :   -0.093388
   5 C :    0.026185
   6 O :    0.023483
   7 H :    0.029224
   8 H :    0.029436
   9 H :    0.030020
  10 H :    0.040930
  11 H :    0.041769
  12 H :    0.022832
  13 H :    0.019070

  Mayer bond orders larger than 0.1
B(  0-C ,  1-C ) :   1.1065 B(  0-C ,  7-H ) :   0.9604 B(  0-C ,  8-H ) :   0.9695
B(  0-C ,  9-H ) :   0.9678 B(  1-C ,  2-C ) :   1.0747 B(  1-C , 10-H ) :   0.9033
B(  1-C , 11-H ) :   0.9156 B(  2-C ,  3-C ) :   1.5921 B(  2-C ,  6-O ) :   1.1229
B(  3-C ,  4-N ) :   1.3165 B(  3-C , 12-H ) :   0.9918 B(  4-N ,  5-C ) :   1.7400
B(  5-C ,  6-O ) :   1.1628 B(  5-C , 13-H ) :   0.9760

FINAL SINGLE POINT ENERGY      -324.075908521541

DIPOLE MOMENT
-------------
                                X             Y             Z
Electronic contribution:      4.32863      -3.36258      -5.46716
Nuclear contribution   :     -4.67417       3.47311       6.22786
                        -----------------------------------------
Total Dipole Moment    :     -0.34554       0.11053       0.76070
                        -----------------------------------------
Magnitude (a.u.)       :      0.84278
Magnitude (Debye)      :      2.14217

                             ****ORCA TERMINATED NORMALLY****
TOTAL RUN TIME: 0 days 0 hours 0 minutes 6 seconds 435 msec
