                         Program Version 3.0.3 - RELEASE   -
|  1> ! RI PBE def2-SVP def2-SVP/J NBO PAL2
|  2> % maxcore 2000
|  3> % output
|  4>     # printlevel mini
|  5>     print[ P_Basis ] 0
|  6>     print[ P_SCFInfo ] 1
|  7>     print[ P_SCFIterInfo ] 1
|  8>     print[ P_OrbEn ] 0
|  9>     print[ P_Cartesian ] 0
| 10> end
| 11> *xyz 0 1
| 12>  C        0.9093590000     0.0513580000    -0.1385600000
| 13>  C        2.1679530000     0.0884880000     0.2956690000
| 14>  C        2.9399300000    -1.0457850000     0.7221930000
| 15>  C        4.2101420000    -1.1867930000     1.1851510000
| 16>  N        4.4593310000    -2.5135710000     1.4557600000
| 17>  C        3.3576460000    -3.1051200000     1.1531460000
| 18>  O        2.3870850000    -2.2932380000     0.7018790000
| 19>  H        0.4004530000     0.9571970000    -0.4416180000
| 20>  H        0.3573540000    -0.8787750000    -0.2024950000
| 21>  H        2.6978050000     1.0345770000     0.3496620000
| 22>  H        4.9541810000    -0.4211910000     1.3388910000
| 23>  H        3.1239610000    -4.1566350000     1.2171230000
| 24> *
| 25>
| 26>                          ****END OF INPUT****
 Total Charge           Charge          ....    0
 Multiplicity           Mult            ....    1
 Number of Electrons    NEL             ....   50
 Basis Dimension        Dim             ....  123

MULLIKEN ATOMIC CHARGES
-----------------------
   0 C :   -0.013430
   1 C :   -0.015343
   2 C :    0.093781
   3 C :   -0.028409
   4 N :   -0.113284
   5 C :    0.141049
   6 O :   -0.163261
   7 H :    0.030778
   8 H :    0.033324
   9 H :    0.001414
  10 H :    0.004553
  11 H :    0.028829
Sum of atomic charges:   -0.0000000

LOEWDIN ATOMIC CHARGES
----------------------
   0 C :   -0.039560
   1 C :   -0.046553
   2 C :   -0.005911
   3 C :   -0.038702
   4 N :   -0.087766
   5 C :    0.038262
   6 O :    0.032459
   7 H :    0.029780
   8 H :    0.028197
   9 H :    0.040752
  10 H :    0.026469
  11 H :    0.022573

  Mayer bond orders larger than 0.1
B(  0-C ,  1-C ) :   1.8966 B(  0-C ,  7-H ) :   0.9334 B(  0-C ,  8-H ) :   0.9500
B(  1-C ,  2-C ) :   1.1452 B(  1-C ,  9-H ) :   0.9477 B(  2-C ,  3-C ) :   1.4895
B(  2-C ,  6-O ) :   1.1313 B(  3-C ,  4-N ) :   1.3407 B(  3-C , 10-H ) :   0.9878
B(  4-N ,  5-C ) :   1.7217 B(  5-C ,  6-O ) :   1.1696 B(  5-C , 11-H ) :   0.9751

FINAL SINGLE POINT ENERGY      -322.858060992613

DIPOLE MOMENT
-------------
                                X             Y             Z
Electronic contribution:      2.31168      -3.23212       1.25718
Nuclear contribution   :     -2.76481       3.52910      -1.45371
                        -----------------------------------------
Total Dipole Moment    :     -0.45312       0.29697      -0.19653
                        -----------------------------------------
Magnitude (a.u.)       :      0.57632
Magnitude (Debye)      :      1.46488

                             ****ORCA TERMINATED NORMALLY****
TOTAL RUN TIME: 0 days 0 hours 0 minutes 5 seconds 958 msec
