                         Program Version 3.0.3 - RELEASE   -
|  1> ! RI PBE def2-SVP def2-SVP/J NBO PAL2
|  2> % maxcore 2000
|  3> % output
|  4>     # printlevel mini
|  5>     print[ P_Basis ] 0
|  6>     print[ P_SCFInfo ] 1
|  7>     print[ P_SCFIterInfo ] 1
|  8>     print[ P_OrbEn ] 0
|  9>     print[ P_Cartesian ] 0
| 10> end
| 11> *xyz 0 1
| 12>  C        0.9037740000    -0.0529570000     0.0656040000
| 13>  C        2.1047900000    -0.0009600000     0.0677570000
| 14>  C        3.5048540000     0.0881170000     0.0701590000
| 15>  C        4.3802230000     1.1279720000     0.0679330000
| 16>  N        5.6645120000     0.6413850000     0.0722890000
| 17>  C        5.5184880000    -0.6381620000     0.0768490000
| 18>  O        4.2465510000    -1.0612800000     0.0759650000
| 19>  H       -0.1597120000    -0.1008040000     0.0637020000
| 20>  H        4.1590190000     2.1828860000     0.0635040000
| 21>  H        6.2845890000    -1.3980970000     0.0812280000
| 22> *
| 23>
| 24>                          ****END OF INPUT****
 Total Charge           Charge          ....    0
 Multiplicity           Mult            ....    1
 Number of Electrons    NEL             ....   48
 Basis Dimension        Dim             ....  113

MULLIKEN ATOMIC CHARGES
-----------------------
   0 C :   -0.445136
   1 C :    0.452049
   2 C :    0.044486
   3 C :    0.000278
   4 N :   -0.106051
   5 C :    0.141946
   6 O :   -0.150399
   7 H :    0.017318
   8 H :    0.011411
   9 H :    0.034097
Sum of atomic charges:   -0.0000000

LOEWDIN ATOMIC CHARGES
----------------------
   0 C :   -0.028879
   1 C :   -0.032042
   2 C :   -0.021156
   3 C :   -0.018500
   4 N :   -0.083496
   5 C :    0.042323
   6 O :    0.043834
   7 H :    0.040970
   8 H :    0.031388
   9 H :    0.025557

  Mayer bond orders larger than 0.1
B(  0-C ,  1-C ) :   2.2239 B(  0-C ,  7-H ) :   1.0899 B(  1-C ,  2-C ) :   0.9355
B(  1-C ,  7-H ) :  -0.1007 B(  2-C ,  3-C ) :   1.5185 B(  2-C ,  6-O ) :   1.1254
B(  3-C ,  4-N ) :   1.3458 B(  3-C ,  8-H ) :   0.9970 B(  4-N ,  5-C ) :   1.7087
B(  5-C ,  6-O ) :   1.1868 B(  5-C ,  9-H ) :   0.9745

FINAL SINGLE POINT ENERGY      -321.608508320672

DIPOLE MOMENT
-------------
                                X             Y             Z
Electronic contribution:      0.62381      -0.87262       0.00438
Nuclear contribution   :     -1.06229       0.66036      -0.00458
                        -----------------------------------------
Total Dipole Moment    :     -0.43847      -0.21226      -0.00020
                        -----------------------------------------
Magnitude (a.u.)       :      0.48715
Magnitude (Debye)      :      1.23824

                             ****ORCA TERMINATED NORMALLY****
TOTAL RUN TIME: 0 days 0 hours 0 minutes 5 seconds 653 msec
