                         Program Version 3.0.3 - RELEASE   -
|  1> ! RI PBE def2-SVP def2-SVP/J NBO PAL2
|  2> % maxcore 2000
|  3> % output
|  4>     # printlevel mini
|  5>     print[ P_Basis ] 0
|  6>     print[ P_SCFInfo ] 1
|  7>     print[ P_SCFIterInfo ] 1
|  8>     print[ P_OrbEn ] 0
|  9>     print[ P_Cartesian ] 0
| 10> end
| 11> *xyz 0 1
| 12>  C        2.1009800000    -1.2036930000     0.6377660000
| 13>  C        2.4524900000     0.2317640000     0.2791220000
| 14>  C        3.0809800000     0.3722550000    -1.0827270000
| 15>  C        4.4234480000    -0.2763110000    -1.3052450000
| 16>  N        5.3919990000     0.2298450000    -0.3478160000
| 17>  C        2.2394420000     0.6440810000    -2.2453160000
| 18>  O        2.9913840000     1.6863810000    -1.6453770000
| 19>  H        1.5871110000    -1.2454130000     1.6003450000
| 20>  H        2.9947740000    -1.8262410000     0.7193260000
| 21>  H        1.4428440000    -1.6545360000    -0.1104730000
| 22>  H        3.1476000000     0.6373220000     1.0191020000
| 23>  H        1.5573240000     0.8594980000     0.2965870000
| 24>  H        4.7028680000    -0.1133070000    -2.3564040000
| 25>  H        4.3270770000    -1.3571300000    -1.1609210000
| 26>  H        5.5576500000     1.2150160000    -0.5170920000
| 27>  H        6.2793190000    -0.2449030000    -0.4483440000
| 28>  H        1.1617370000     0.7159560000    -2.1144050000
| 29>  H        2.5692840000     0.3445280000    -3.2381470000
| 30> *
| 31>
| 32>                          ****END OF INPUT****
 Total Charge           Charge          ....    0
 Multiplicity           Mult            ....    1
 Number of Electrons    NEL             ....   56
 Basis Dimension        Dim             ....  153

MULLIKEN ATOMIC CHARGES
-----------------------
   0 C :   -0.035600
   1 C :    0.119879
   2 C :   -0.241013
   3 C :    0.193018
   4 N :   -0.209684
   5 C :    0.182233
   6 O :   -0.297784
   7 H :    0.021684
   8 H :    0.029640
   9 H :    0.014480
  10 H :    0.016959
  11 H :   -0.004521
  12 H :   -0.021982
  13 H :    0.012395
  14 H :    0.097728
  15 H :    0.089693
  16 H :    0.019462
  17 H :    0.013414
Sum of atomic charges:    0.0000000

LOEWDIN ATOMIC CHARGES
----------------------
   0 C :   -0.065342
   1 C :   -0.040052
   2 C :    0.004437
   3 C :    0.006853
   4 N :   -0.103814
   5 C :    0.056587
   6 O :   -0.160616
   7 H :    0.029859
   8 H :    0.026226
   9 H :    0.022853
  10 H :    0.030565
  11 H :    0.027777
  12 H :    0.005213
  13 H :    0.025207
  14 H :    0.056526
  15 H :    0.054097
  16 H :    0.013138
  17 H :    0.010484

  Mayer bond orders larger than 0.1
B(  0-C ,  1-C ) :   1.1128 B(  0-C ,  7-H ) :   0.9548 B(  0-C ,  8-H ) :   0.9626
B(  0-C ,  9-H ) :   0.9642 B(  1-C ,  2-C ) :   1.0468 B(  1-C , 10-H ) :   0.9092
B(  1-C , 11-H ) :   0.9039 B(  2-C ,  3-C ) :   1.0396 B(  2-C ,  5-C ) :   1.0824
B(  2-C ,  6-O ) :   0.9287 B(  3-C ,  4-N ) :   1.1044 B(  3-C , 12-H ) :   0.8962
B(  3-C , 13-H ) :   0.9188 B(  4-N , 14-H ) :   0.9633 B(  4-N , 15-H ) :   0.9644
B(  5-C ,  6-O ) :   1.0204 B(  5-C , 16-H ) :   0.9233 B(  5-C , 17-H ) :   0.9186

FINAL SINGLE POINT ENERGY      -326.428529267580

DIPOLE MOMENT
-------------
                                X             Y             Z
Electronic contribution:      0.80671       4.43497      -2.71760
Nuclear contribution   :     -0.59137      -5.00545       2.45605
                        -----------------------------------------
Total Dipole Moment    :      0.21534      -0.57048      -0.26155
                        -----------------------------------------
Magnitude (a.u.)       :      0.66350
Magnitude (Debye)      :      1.68648

                             ****ORCA TERMINATED NORMALLY****
TOTAL RUN TIME: 0 days 0 hours 0 minutes 7 seconds 710 msec
