                         Program Version 3.0.3 - RELEASE   -
|  1> ! RI PBE def2-SVP def2-SVP/J NBO PAL2
|  2> % maxcore 2000
|  3> % output
|  4>     # printlevel mini
|  5>     print[ P_Basis ] 0
|  6>     print[ P_SCFInfo ] 1
|  7>     print[ P_SCFIterInfo ] 1
|  8>     print[ P_OrbEn ] 0
|  9>     print[ P_Cartesian ] 0
| 10> end
| 11> *xyz 0 1
| 12>  C        0.8775210000    -0.0275980000     0.0724680000
| 13>  C        2.3764920000     0.1227430000    -0.1705970000
| 14>  C        2.8281460000    -0.5186810000    -1.4273940000
| 15>  C        3.3916750000    -0.0561700000    -2.5705790000
| 16>  N        3.5789140000    -1.1356130000    -3.3882800000
| 17>  N        3.1797320000    -2.1792370000    -2.8347650000
| 18>  O        2.6833740000    -1.8330710000    -1.5614090000
| 19>  H        0.5967730000     0.4531330000     1.0110180000
| 20>  H        0.5946800000    -1.0795860000     0.1305540000
| 21>  H        0.3019680000     0.4338480000    -0.7323250000
| 22>  H        2.9327570000    -0.3177090000     0.6632050000
| 23>  H        2.6535000000     1.1782370000    -0.2140430000
| 24>  H        3.6709780000     0.9420140000    -2.8605620000
| 25> *
| 26>
| 27>                          ****END OF INPUT****
 Total Charge           Charge          ....    0
 Multiplicity           Mult            ....    1
 Number of Electrons    NEL             ....   52
 Basis Dimension        Dim             ....  128

MULLIKEN ATOMIC CHARGES
-----------------------
   0 C :   -0.037795
   1 C :    0.077712
   2 C :    0.033916
   3 C :   -0.028853
   4 N :   -0.088414
   5 N :    0.019334
   6 O :   -0.162560
   7 H :    0.031869
   8 H :    0.047069
   9 H :    0.036131
  10 H :    0.043594
  11 H :    0.022578
  12 H :    0.005417
Sum of atomic charges:    0.0000000

LOEWDIN ATOMIC CHARGES
----------------------
   0 C :   -0.055351
   1 C :   -0.043461
   2 C :    0.006897
   3 C :   -0.087855
   4 N :   -0.049711
   5 N :   -0.008447
   6 O :    0.017228
   7 H :    0.032953
   8 H :    0.033862
   9 H :    0.032310
  10 H :    0.048476
  11 H :    0.042196
  12 H :    0.030901

  Mayer bond orders larger than 0.1
B(  0-C ,  1-C ) :   1.1047 B(  0-C ,  7-H ) :   0.9604 B(  0-C ,  8-H ) :   0.9688
B(  0-C ,  9-H ) :   0.9684 B(  1-C ,  2-C ) :   1.0765 B(  1-C , 10-H ) :   0.9008
B(  1-C , 11-H ) :   0.9226 B(  2-C ,  3-C ) :   1.4985 B(  2-C ,  5-N ) :   0.1112
B(  2-C ,  6-O ) :   1.1987 B(  3-C ,  4-N ) :   1.2950 B(  3-C , 12-H ) :   1.0044
B(  4-N ,  5-N ) :   1.5919 B(  4-N ,  6-O ) :   0.1031 B(  5-N ,  6-O ) :   0.9544

FINAL SINGLE POINT ENERGY      -340.054244952132

DIPOLE MOMENT
-------------
                                X             Y             Z
Electronic contribution:      4.62018      -4.88415      -6.42919
Nuclear contribution   :     -4.95206       6.07040       7.48069
                        -----------------------------------------
Total Dipole Moment    :     -0.33188       1.18625       1.05151
                        -----------------------------------------
Magnitude (a.u.)       :      1.61957
Magnitude (Debye)      :      4.11661

                             ****ORCA TERMINATED NORMALLY****
TOTAL RUN TIME: 0 days 0 hours 0 minutes 6 seconds 898 msec
