                         Program Version 3.0.3 - RELEASE   -
|  1> ! RI PBE def2-SVP def2-SVP/J NBO PAL2
|  2> % maxcore 2000
|  3> % output
|  4>     # printlevel mini
|  5>     print[ P_Basis ] 0
|  6>     print[ P_SCFInfo ] 1
|  7>     print[ P_SCFIterInfo ] 1
|  8>     print[ P_OrbEn ] 0
|  9>     print[ P_Cartesian ] 0
| 10> end
| 11> *xyz 0 1
| 12>  C        1.0536430000     0.1624530000     0.5379010000
| 13>  C        2.3462470000     0.0943910000     0.2303860000
| 14>  C        3.0972970000    -1.1331880000     0.1242870000
| 15>  C        4.4011140000    -1.3830880000    -0.1748590000
| 16>  N        4.5663980000    -2.7367670000    -0.1323010000
| 17>  N        3.4910820000    -3.2993830000     0.1618250000
| 18>  O        2.5100310000    -2.3082060000     0.3377120000
| 19>  H        0.5488570000     1.1180020000     0.6012540000
| 20>  H        0.4691260000    -0.7287120000     0.7332800000
| 21>  H        2.9158580000     0.9973940000     0.0378880000
| 22>  H        5.2073470000    -0.7099860000    -0.4104740000
| 23> *
| 24>
| 25>                          ****END OF INPUT****
 Total Charge           Charge          ....    0
 Multiplicity           Mult            ....    1
 Number of Electrons    NEL             ....   50
 Basis Dimension        Dim             ....  118

MULLIKEN ATOMIC CHARGES
-----------------------
   0 C :    0.008648
   1 C :   -0.020128
   2 C :    0.128597
   3 C :   -0.019928
   4 N :   -0.082974
   5 N :    0.029251
   6 O :   -0.159309
   7 H :    0.040568
   8 H :    0.050715
   9 H :    0.010476
  10 H :    0.014083
Sum of atomic charges:   -0.0000000

LOEWDIN ATOMIC CHARGES
----------------------
   0 C :   -0.006076
   1 C :   -0.046058
   2 C :    0.001005
   3 C :   -0.070120
   4 N :   -0.046577
   5 N :    0.000249
   6 O :    0.021747
   7 H :    0.034553
   8 H :    0.035599
   9 H :    0.042138
  10 H :    0.033541

  Mayer bond orders larger than 0.1
B(  0-C ,  1-C ) :   1.9050 B(  0-C ,  7-H ) :   0.9356 B(  0-C ,  8-H ) :   0.9486
B(  1-C ,  2-C ) :   1.1330 B(  1-C ,  9-H ) :   0.9536 B(  2-C ,  3-C ) :   1.4225
B(  2-C ,  5-N ) :   0.1040 B(  2-C ,  6-O ) :   1.2013 B(  3-C ,  4-N ) :   1.3081
B(  3-C , 10-H ) :   0.9993 B(  4-N ,  5-N ) :   1.5797 B(  4-N ,  6-O ) :   0.1030
B(  5-N ,  6-O ) :   0.9593

FINAL SINGLE POINT ENERGY      -338.833815752734

DIPOLE MOMENT
-------------
                                X             Y             Z
Electronic contribution:      2.56880      -4.91184      -0.32046
Nuclear contribution   :     -2.86933       6.38467       0.30180
                        -----------------------------------------
Total Dipole Moment    :     -0.30053       1.47283      -0.01867
                        -----------------------------------------
Magnitude (a.u.)       :      1.50329
Magnitude (Debye)      :      3.82107

                             ****ORCA TERMINATED NORMALLY****
TOTAL RUN TIME: 0 days 0 hours 0 minutes 5 seconds 990 msec
