                         Program Version 3.0.3 - RELEASE   -
|  1> ! RI PBE def2-SVP def2-SVP/J NBO PAL2
|  2> % maxcore 2000
|  3> % output
|  4>     # printlevel mini
|  5>     print[ P_Basis ] 0
|  6>     print[ P_SCFInfo ] 1
|  7>     print[ P_SCFIterInfo ] 1
|  8>     print[ P_OrbEn ] 0
|  9>     print[ P_Cartesian ] 0
| 10> end
| 11> *xyz 0 1
| 12>  C        0.9883900000     0.0465840000     0.0224910000
| 13>  C        2.1881450000     0.0910860000     0.0241780000
| 14>  C        3.5909570000     0.1655980000     0.0261170000
| 15>  C        4.4624370000     1.2086470000     0.0244340000
| 16>  N        5.7146510000     0.6695990000     0.0279070000
| 17>  N        5.6529760000    -0.5796370000     0.0314540000
| 18>  O        4.3116370000    -0.9598030000     0.0304980000
| 19>  H       -0.0758440000     0.0023710000     0.0210320000
| 20>  H        4.2819620000     2.2691650000     0.0210790000
| 21> *
| 22>
| 23>                          ****END OF INPUT****
 Total Charge           Charge          ....    0
 Multiplicity           Mult            ....    1
 Number of Electrons    NEL             ....   48
 Basis Dimension        Dim             ....  108

MULLIKEN ATOMIC CHARGES
-----------------------
   0 C :   -0.422833
   1 C :    0.456657
   2 C :    0.086529
   3 C :    0.007244
   4 N :   -0.075747
   5 N :    0.036478
   6 O :   -0.139529
   7 H :    0.028124
   8 H :    0.023078
Sum of atomic charges:   -0.0000000

LOEWDIN ATOMIC CHARGES
----------------------
   0 C :    0.000878
   1 C :   -0.030766
   2 C :   -0.011172
   3 C :   -0.048349
   4 N :   -0.042549
   5 N :    0.007208
   6 O :    0.039246
   7 H :    0.046178
   8 H :    0.039325

  Mayer bond orders larger than 0.1
B(  0-C ,  1-C ) :   2.2279 B(  0-C ,  7-H ) :   1.0869 B(  1-C ,  2-C ) :   0.9411
B(  2-C ,  3-C ) :   1.4536 B(  2-C ,  5-N ) :   0.1152 B(  2-C ,  6-O ) :   1.1834
B(  3-C ,  4-N ) :   1.3067 B(  3-C ,  8-H ) :   1.0083 B(  4-N ,  5-N ) :   1.5687
B(  5-N ,  6-O ) :   0.9797

FINAL SINGLE POINT ENERGY      -337.582667724606

DIPOLE MOMENT
-------------
                                X             Y             Z
Electronic contribution:      2.03445      -1.39760       0.00698
Nuclear contribution   :     -3.35498       1.98893      -0.01086
                        -----------------------------------------
Total Dipole Moment    :     -1.32053       0.59134      -0.00388
                        -----------------------------------------
Magnitude (a.u.)       :      1.44689
Magnitude (Debye)      :      3.67770

                             ****ORCA TERMINATED NORMALLY****
TOTAL RUN TIME: 0 days 0 hours 0 minutes 5 seconds 350 msec
