                         Program Version 3.0.3 - RELEASE   -
|  1> ! RI PBE def2-SVP def2-SVP/J NBO PAL2
|  2> % maxcore 2000
|  3> % output
|  4>     # printlevel mini
|  5>     print[ P_Basis ] 0
|  6>     print[ P_SCFInfo ] 1
|  7>     print[ P_SCFIterInfo ] 1
|  8>     print[ P_OrbEn ] 0
|  9>     print[ P_Cartesian ] 0
| 10> end
| 11> *xyz 0 1
| 12>  C        0.9804230000    -0.0846360000    -0.1326590000
| 13>  C        2.4727670000    -0.1062310000     0.1811740000
| 14>  C        2.8877180000     0.9578090000     1.1397870000
| 15>  C        3.3434200000     0.8416600000     2.4100200000
| 16>  O        3.5937100000     2.0413020000     2.9406890000
| 17>  N        3.3031770000     3.0075690000     2.0131610000
| 18>  C        2.8879760000     2.3678760000     0.9582200000
| 19>  H        0.7213870000    -0.8702470000    -0.8457890000
| 20>  H        0.6807770000     0.8723270000    -0.5662740000
| 21>  H        0.3888310000    -0.2367450000     0.7726350000
| 22>  H        3.0409840000     0.0035200000    -0.7484690000
| 23>  H        2.7489150000    -1.0812650000     0.5916560000
| 24>  H        3.5375540000    -0.0081310000     3.0466100000
| 25>  H        2.6004790000     2.9366020000     0.0845390000
| 26> *
| 27>
| 28>                          ****END OF INPUT****
 Total Charge           Charge          ....    0
 Multiplicity           Mult            ....    1
 Number of Electrons    NEL             ....   52
 Basis Dimension        Dim             ....  133

MULLIKEN ATOMIC CHARGES
-----------------------
   0 C :   -0.030508
   1 C :    0.076778
   2 C :   -0.148015
   3 C :    0.116648
   4 O :   -0.147677
   5 N :   -0.023328
   6 C :    0.010686
   7 H :    0.029036
   8 H :    0.027400
   9 H :    0.029065
  10 H :    0.025218
  11 H :    0.005627
  12 H :    0.019065
  13 H :    0.010006
Sum of atomic charges:   -0.0000000

LOEWDIN ATOMIC CHARGES
----------------------
   0 C :   -0.060040
   1 C :   -0.034853
   2 C :   -0.101349
   3 C :    0.019528
   4 O :    0.043466
   5 N :   -0.034660
   6 C :   -0.044310
   7 H :    0.029139
   8 H :    0.026948
   9 H :    0.029325
  10 H :    0.037344
  11 H :    0.032853
  12 H :    0.027044
  13 H :    0.029565

  Mayer bond orders larger than 0.1
B(  0-C ,  1-C ) :   1.1126 B(  0-C ,  7-H ) :   0.9622 B(  0-C ,  8-H ) :   0.9696
B(  0-C ,  9-H ) :   0.9650 B(  1-C ,  2-C ) :   1.0720 B(  1-C , 10-H ) :   0.9164
B(  1-C , 11-H ) :   0.9206 B(  2-C ,  3-C ) :   1.5477 B(  2-C ,  6-C ) :   1.2315
B(  3-C ,  4-O ) :   1.1770 B(  3-C ,  5-N ) :   0.1260 B(  3-C , 12-H ) :   0.9842
B(  4-O ,  5-N ) :   1.0262 B(  5-N ,  6-C ) :   1.6814 B(  6-C , 13-H ) :   0.9832

FINAL SINGLE POINT ENERGY      -324.035564152049

DIPOLE MOMENT
-------------
                                X             Y             Z
Electronic contribution:      4.97755       5.81634       6.12503
Nuclear contribution   :     -5.27712      -6.86008      -6.73084
                        -----------------------------------------
Total Dipole Moment    :     -0.29958      -1.04374      -0.60581
                        -----------------------------------------
Magnitude (a.u.)       :      1.24344
Magnitude (Debye)      :      3.16057

                             ****ORCA TERMINATED NORMALLY****
TOTAL RUN TIME: 0 days 0 hours 0 minutes 6 seconds 212 msec
