                         Program Version 3.0.3 - RELEASE   -
|  1> ! RI PBE def2-SVP def2-SVP/J NBO PAL2
|  2> % maxcore 2000
|  3> % output
|  4>     # printlevel mini
|  5>     print[ P_Basis ] 0
|  6>     print[ P_SCFInfo ] 1
|  7>     print[ P_SCFIterInfo ] 1
|  8>     print[ P_OrbEn ] 0
|  9>     print[ P_Cartesian ] 0
| 10> end
| 11> *xyz 0 1
| 12>  C        1.1790470000     0.0896870000     0.8500170000
| 13>  C        2.2864820000     0.0310920000     0.1151640000
| 14>  C        2.9532480000    -1.1822090000    -0.3131760000
| 15>  C        4.0826250000    -1.2940260000    -1.0617650000
| 16>  O        4.3995210000    -2.5727560000    -1.2569950000
| 17>  N        3.4683130000    -3.3648410000    -0.6292660000
| 18>  C        2.6223150000    -2.5481800000    -0.0772420000
| 19>  H        0.7444180000     1.0415220000     1.1272930000
| 20>  H        0.6694470000    -0.8015450000     1.1991700000
| 21>  H        2.7528190000     0.9587780000    -0.2056840000
| 22>  H        4.7422050000    -0.5658370000    -1.5083740000
| 23>  H        1.7914800000    -2.9572060000     0.4792660000
| 24> *
| 25>
| 26>                          ****END OF INPUT****
 Total Charge           Charge          ....    0
 Multiplicity           Mult            ....    1
 Number of Electrons    NEL             ....   50
 Basis Dimension        Dim             ....  123

MULLIKEN ATOMIC CHARGES
-----------------------
   0 C :   -0.029459
   1 C :    0.018056
   2 C :   -0.058007
   3 C :    0.125018
   4 O :   -0.140474
   5 N :   -0.015481
   6 C :    0.011776
   7 H :    0.031954
   8 H :    0.024313
   9 H :   -0.010045
  10 H :    0.026196
  11 H :    0.016153
Sum of atomic charges:   -0.0000000

LOEWDIN ATOMIC CHARGES
----------------------
   0 C :   -0.045905
   1 C :   -0.027629
   2 C :   -0.104828
   3 C :    0.035164
   4 O :    0.049929
   5 N :   -0.026730
   6 C :   -0.030007
   7 H :    0.029717
   8 H :    0.024192
   9 H :    0.033335
  10 H :    0.030189
  11 H :    0.032574

  Mayer bond orders larger than 0.1
B(  0-C ,  1-C ) :   1.9314 B(  0-C ,  7-H ) :   0.9391 B(  0-C ,  8-H ) :   0.9448
B(  1-C ,  2-C ) :   1.1091 B(  1-C ,  9-H ) :   0.9542 B(  2-C ,  3-C ) :   1.4821
B(  2-C ,  6-C ) :   1.2003 B(  3-C ,  4-O ) :   1.1906 B(  3-C ,  5-N ) :   0.1143
B(  3-C , 10-H ) :   0.9810 B(  4-O ,  5-N ) :   1.0141 B(  5-N ,  6-C ) :   1.7058
B(  6-C , 11-H ) :   0.9781

FINAL SINGLE POINT ENERGY      -322.816490499985

DIPOLE MOMENT
-------------
                                X             Y             Z
Electronic contribution:      3.83690      -4.19651      -2.50112
Nuclear contribution   :     -4.11360       5.17051       2.67028
                        -----------------------------------------
Total Dipole Moment    :     -0.27670       0.97400       0.16916
                        -----------------------------------------
Magnitude (a.u.)       :      1.02657
Magnitude (Debye)      :      2.60934

                             ****ORCA TERMINATED NORMALLY****
TOTAL RUN TIME: 0 days 0 hours 0 minutes 5 seconds 769 msec
