                         Program Version 3.0.3 - RELEASE   -
|  1> ! RI PBE def2-SVP def2-SVP/J NBO PAL2
|  2> % maxcore 2000
|  3> % output
|  4>     # printlevel mini
|  5>     print[ P_Basis ] 0
|  6>     print[ P_SCFInfo ] 1
|  7>     print[ P_SCFIterInfo ] 1
|  8>     print[ P_OrbEn ] 0
|  9>     print[ P_Cartesian ] 0
| 10> end
| 11> *xyz 0 1
| 12>  C        1.0070660000    -0.0364620000     0.0139830000
| 13>  C        2.2085610000    -0.0191320000     0.0153320000
| 14>  C        3.6188520000    -0.0206500000     0.0169070000
| 15>  C        4.4770960000     1.0356610000     0.0180490000
| 16>  O        5.7345420000     0.6098620000     0.0193790000
| 17>  N        5.7519800000    -0.7649730000     0.0191600000
| 18>  C        4.5076970000    -1.1351660000     0.0177060000
| 19>  H       -0.0573010000    -0.0480940000     0.0127850000
| 20>  H        4.3240060000     2.1032040000     0.0180630000
| 21>  H        4.2591120000    -2.1861600000     0.0172460000
| 22> *
| 23>
| 24>                          ****END OF INPUT****
 Total Charge           Charge          ....    0
 Multiplicity           Mult            ....    1
 Number of Electrons    NEL             ....   48
 Basis Dimension        Dim             ....  113

MULLIKEN ATOMIC CHARGES
-----------------------
   0 C :   -0.457214
   1 C :    0.440621
   2 C :   -0.109986
   3 C :    0.150150
   4 O :   -0.132889
   5 N :   -0.011121
   6 C :    0.047188
   7 H :    0.012590
   8 H :    0.037272
   9 H :    0.023390
Sum of atomic charges:   -0.0000000

LOEWDIN ATOMIC CHARGES
----------------------
   0 C :   -0.048961
   1 C :   -0.019754
   2 C :   -0.116775
   3 C :    0.053271
   4 O :    0.058485
   5 N :   -0.023153
   6 C :   -0.017585
   7 H :    0.039046
   8 H :    0.036355
   9 H :    0.039070

  Mayer bond orders larger than 0.1
B(  0-C ,  1-C ) :   2.2553 B(  0-C ,  7-H ) :   1.0927 B(  1-C ,  2-C ) :   0.9620
B(  1-C ,  7-H ) :  -0.1029 B(  2-C ,  3-C ) :   1.4818 B(  2-C ,  6-C ) :   1.2049
B(  3-C ,  4-O ) :   1.2005 B(  3-C ,  5-N ) :   0.1183 B(  3-C ,  8-H ) :   0.9865
B(  4-O ,  5-N ) :   1.0140 B(  5-N ,  6-C ) :   1.6934 B(  6-C ,  9-H ) :   0.9859

FINAL SINGLE POINT ENERGY      -321.571145791421

DIPOLE MOMENT
-------------
                                X             Y             Z
Electronic contribution:      2.34644       0.29170       0.00265
Nuclear contribution   :     -3.18068      -0.02066      -0.00356
                        -----------------------------------------
Total Dipole Moment    :     -0.83424       0.27104      -0.00091
                        -----------------------------------------
Magnitude (a.u.)       :      0.87716
Magnitude (Debye)      :      2.22957

                             ****ORCA TERMINATED NORMALLY****
TOTAL RUN TIME: 0 days 0 hours 0 minutes 5 seconds 144 msec
