                         Program Version 3.0.3 - RELEASE   -
|  1> ! RI PBE def2-SVP def2-SVP/J NBO PAL2
|  2> % maxcore 2000
|  3> % output
|  4>     # printlevel mini
|  5>     print[ P_Basis ] 0
|  6>     print[ P_SCFInfo ] 1
|  7>     print[ P_SCFIterInfo ] 1
|  8>     print[ P_OrbEn ] 0
|  9>     print[ P_Cartesian ] 0
| 10> end
| 11> *xyz 0 1
| 12>  C        0.9904880000     0.1105870000    -0.1222430000
| 13>  C        2.4967560000    -0.1229590000    -0.0743600000
| 14>  C        2.9895500000    -0.4247360000     1.2965030000
| 15>  N        3.4709860000    -1.5858210000     1.6306180000
| 16>  O        3.8003440000    -1.5019870000     2.9382970000
| 17>  N        3.5271250000    -0.2810880000     3.4389990000
| 18>  C        3.0280030000     0.3978300000     2.4544430000
| 19>  H        0.6711180000     0.3352000000    -1.1414980000
| 20>  H        0.6943030000     0.9489850000     0.5125310000
| 21>  H        0.4485070000    -0.7742610000     0.2169740000
| 22>  H        3.0208280000     0.7610280000    -0.4510700000
| 23>  H        2.7732530000    -0.9572000000    -0.7218620000
| 24>  H        2.7220090000     1.4238220000     2.5885680000
| 25> *
| 26>
| 27>                          ****END OF INPUT****
 Total Charge           Charge          ....    0
 Multiplicity           Mult            ....    1
 Number of Electrons    NEL             ....   52
 Basis Dimension        Dim             ....  128

MULLIKEN ATOMIC CHARGES
-----------------------
   0 C :   -0.039909
   1 C :    0.080632
   2 C :   -0.133534
   3 N :    0.009751
   4 O :   -0.112721
   5 N :    0.026995
   6 C :   -0.015695
   7 H :    0.034454
   8 H :    0.028493
   9 H :    0.041531
  10 H :    0.031643
  11 H :    0.031252
  12 H :    0.017109
Sum of atomic charges:   -0.0000000

LOEWDIN ATOMIC CHARGES
----------------------
   0 C :   -0.056769
   1 C :   -0.040196
   2 C :   -0.070804
   3 N :   -0.026315
   4 O :    0.054616
   5 N :   -0.010894
   6 C :   -0.063632
   7 H :    0.033027
   8 H :    0.026876
   9 H :    0.033610
  10 H :    0.041699
  11 H :    0.042945
  12 H :    0.035838

  Mayer bond orders larger than 0.1
B(  0-C ,  1-C ) :   1.1115 B(  0-C ,  7-H ) :   0.9625 B(  0-C ,  8-H ) :   0.9697
B(  0-C ,  9-H ) :   0.9659 B(  1-C ,  2-C ) :   1.0708 B(  1-C , 10-H ) :   0.9148
B(  1-C , 11-H ) :   0.9123 B(  2-C ,  3-N ) :   1.6763 B(  2-C ,  6-C ) :   1.1656
B(  3-N ,  4-O ) :   1.0346 B(  3-N ,  5-N ) :   0.1707 B(  4-O ,  5-N ) :   1.0581
B(  5-N ,  6-C ) :   1.6921 B(  6-C , 12-H ) :   0.9925

FINAL SINGLE POINT ENERGY      -340.034959920583

DIPOLE MOMENT
-------------
                                X             Y             Z
Electronic contribution:      5.93038      -3.48924       7.42355
Nuclear contribution   :     -6.54926       4.41632      -8.30888
                        -----------------------------------------
Total Dipole Moment    :     -0.61888       0.92708      -0.88533
                        -----------------------------------------
Magnitude (a.u.)       :      1.42348
Magnitude (Debye)      :      3.61820

                             ****ORCA TERMINATED NORMALLY****
TOTAL RUN TIME: 0 days 0 hours 0 minutes 6 seconds 530 msec
