                         Program Version 3.0.3 - RELEASE   -
|  1> ! RI PBE def2-SVP def2-SVP/J NBO PAL2
|  2> % maxcore 2000
|  3> % output
|  4>     # printlevel mini
|  5>     print[ P_Basis ] 0
|  6>     print[ P_SCFInfo ] 1
|  7>     print[ P_SCFIterInfo ] 1
|  8>     print[ P_OrbEn ] 0
|  9>     print[ P_Cartesian ] 0
| 10> end
| 11> *xyz 0 1
| 12>  C        1.9729540000    -1.3981890000    -0.2333880000
| 13>  C        2.2208150000    -0.1489540000     0.1451240000
| 14>  C        3.0437130000     0.2167090000     1.2822970000
| 15>  N        3.2486320000     1.4659920000     1.6022430000
| 16>  O        4.0431040000     1.4546890000     2.6885580000
| 17>  N        4.3494100000     0.1948770000     3.0675320000
| 18>  C        3.7506520000    -0.5822010000     2.2238760000
| 19>  H        1.3490700000    -1.6058000000    -1.0933360000
| 20>  H        2.3786600000    -2.2541680000     0.2945280000
| 21>  H        1.8009570000     0.6881230000    -0.4027320000
| 22>  H        3.8351420000    -1.6541770000     2.3053970000
| 23> *
| 24>
| 25>                          ****END OF INPUT****
 Total Charge           Charge          ....    0
 Multiplicity           Mult            ....    1
 Number of Electrons    NEL             ....   50
 Basis Dimension        Dim             ....  118

MULLIKEN ATOMIC CHARGES
-----------------------
   0 C :   -0.025765
   1 C :    0.046271
   2 C :   -0.049330
   3 N :    0.009390
   4 O :   -0.106594
   5 N :    0.030657
   6 C :   -0.016536
   7 H :    0.045040
   8 H :    0.028803
   9 H :    0.012651
  10 H :    0.025413
Sum of atomic charges:   -0.0000000

LOEWDIN ATOMIC CHARGES
----------------------
   0 C :   -0.024535
   1 C :   -0.026042
   2 C :   -0.076936
   3 N :   -0.018253
   4 O :    0.060681
   5 N :   -0.005937
   6 C :   -0.052073
   7 H :    0.035077
   8 H :    0.026691
   9 H :    0.043381
  10 H :    0.037947

  Mayer bond orders larger than 0.1
B(  0-C ,  1-C ) :   1.9161 B(  0-C ,  7-H ) :   0.9416 B(  0-C ,  8-H ) :   0.9462
B(  1-C ,  2-C ) :   1.1055 B(  1-C ,  9-H ) :   0.9504 B(  2-C ,  3-N ) :   1.6100
B(  2-C ,  6-C ) :   1.1517 B(  3-N ,  4-O ) :   1.0470 B(  3-N ,  5-N ) :   0.1642
B(  4-O ,  5-N ) :   1.0490 B(  5-N ,  6-C ) :   1.7071 B(  6-C , 10-H ) :   0.9867

FINAL SINGLE POINT ENERGY      -338.813778166482

DIPOLE MOMENT
-------------
                                X             Y             Z
Electronic contribution:      2.93181       4.18881       4.13575
Nuclear contribution   :     -3.40301      -5.23234      -4.82052
                        -----------------------------------------
Total Dipole Moment    :     -0.47120      -1.04354      -0.68477
                        -----------------------------------------
Magnitude (a.u.)       :      1.33413
Magnitude (Debye)      :      3.39109

                             ****ORCA TERMINATED NORMALLY****
TOTAL RUN TIME: 0 days 0 hours 0 minutes 5 seconds 677 msec
