                         Program Version 3.0.3 - RELEASE   -
|  1> ! RI PBE def2-SVP def2-SVP/J NBO PAL2
|  2> % maxcore 2000
|  3> % output
|  4>     # printlevel mini
|  5>     print[ P_Basis ] 0
|  6>     print[ P_SCFInfo ] 1
|  7>     print[ P_SCFIterInfo ] 1
|  8>     print[ P_OrbEn ] 0
|  9>     print[ P_Cartesian ] 0
| 10> end
| 11> *xyz 0 1
| 12>  C        0.9220210000    -0.0253980000     0.0677490000
| 13>  C        2.1215620000    -0.0026570000     0.0682770000
| 14>  C        3.5341200000    -0.0287180000     0.0687880000
| 15>  N        4.2753130000     1.0494520000     0.0713160000
| 16>  O        5.5462790000     0.6188020000     0.0709340000
| 17>  N        5.6260820000    -0.7290930000     0.0681770000
| 18>  C        4.4037520000    -1.1536340000     0.0668090000
| 19>  H       -0.1429580000    -0.0307950000     0.0673120000
| 20>  H        4.1668380000    -2.2053700000     0.0645380000
| 21> *
| 22>
| 23>                          ****END OF INPUT****
 Total Charge           Charge          ....    0
 Multiplicity           Mult            ....    1
 Number of Electrons    NEL             ....   48
 Basis Dimension        Dim             ....  108

MULLIKEN ATOMIC CHARGES
-----------------------
   0 C :   -0.439247
   1 C :    0.476021
   2 C :   -0.081711
   3 N :    0.028289
   4 O :   -0.100894
   5 N :    0.038677
   6 C :    0.027280
   7 H :    0.023581
   8 H :    0.028003
Sum of atomic charges:   -0.0000000

LOEWDIN ATOMIC CHARGES
----------------------
   0 C :   -0.011231
   1 C :   -0.021525
   2 C :   -0.087301
   3 N :    0.000351
   4 O :    0.069734
   5 N :   -0.001203
   6 C :   -0.037588
   7 H :    0.044373
   8 H :    0.044390

  Mayer bond orders larger than 0.1
B(  0-C ,  1-C ) :   2.2582 B(  0-C ,  7-H ) :   1.0902 B(  1-C ,  2-C ) :   0.9443
B(  1-C ,  7-H ) :  -0.1015 B(  2-C ,  3-N ) :   1.6004 B(  2-C ,  6-C ) :   1.1680
B(  3-N ,  4-O ) :   1.0497 B(  3-N ,  5-N ) :   0.1700 B(  4-O ,  5-N ) :   1.0493
B(  5-N ,  6-C ) :   1.6947 B(  6-C ,  8-H ) :   0.9948

FINAL SINGLE POINT ENERGY      -337.563615010115

DIPOLE MOMENT
-------------
                                X             Y             Z
Electronic contribution:      2.43751       1.28877       0.00358
Nuclear contribution   :     -3.43584      -2.03838      -0.00559
                        -----------------------------------------
Total Dipole Moment    :     -0.99833      -0.74961      -0.00201
                        -----------------------------------------
Magnitude (a.u.)       :      1.24843
Magnitude (Debye)      :      3.17326

                             ****ORCA TERMINATED NORMALLY****
TOTAL RUN TIME: 0 days 0 hours 0 minutes 4 seconds 720 msec
