                         Program Version 3.0.3 - RELEASE   -
|  1> ! RI PBE def2-SVP def2-SVP/J NBO PAL2
|  2> % maxcore 2000
|  3> % output
|  4>     # printlevel mini
|  5>     print[ P_Basis ] 0
|  6>     print[ P_SCFInfo ] 1
|  7>     print[ P_SCFIterInfo ] 1
|  8>     print[ P_OrbEn ] 0
|  9>     print[ P_Cartesian ] 0
| 10> end
| 11> *xyz 0 1
| 12>  C        0.9105810000     0.2000380000     0.0231560000
| 13>  C        2.3938660000    -0.0608940000    -0.2113370000
| 14>  C        2.8534600000    -1.3427430000     0.3850280000
| 15>  C        3.3670570000    -2.4433100000    -0.2066520000
| 16>  O        3.6321950000    -3.3675990000     0.7579690000
| 17>  C        3.2574340000    -2.7669600000     1.8974940000
| 18>  N        2.7912860000    -1.5788850000     1.7512980000
| 19>  H        0.6173300000     1.1697270000    -0.3847220000
| 20>  H        0.6860530000     0.1952330000     1.0910920000
| 21>  H        0.2977260000    -0.5690900000    -0.4526510000
| 22>  H        2.9791720000     0.7548200000     0.2259460000
| 23>  H        2.6149170000    -0.0678250000    -1.2821940000
| 24>  H        3.5970250000    -2.7191990000    -1.2214330000
| 25>  H        3.3827980000    -3.3282940000     2.8106960000
| 26> *
| 27>
| 28>                          ****END OF INPUT****
 Total Charge           Charge          ....    0
 Multiplicity           Mult            ....    1
 Number of Electrons    NEL             ....   52
 Basis Dimension        Dim             ....  133

MULLIKEN ATOMIC CHARGES
-----------------------
   0 C :   -0.028064
   1 C :    0.109380
   2 C :   -0.124995
   3 C :    0.066858
   4 O :   -0.159020
   5 C :    0.137201
   6 N :   -0.128088
   7 H :    0.018370
   8 H :    0.039488
   9 H :    0.019855
  10 H :    0.024652
  11 H :   -0.002561
  12 H :    0.003885
  13 H :    0.023038
Sum of atomic charges:   -0.0000000

LOEWDIN ATOMIC CHARGES
----------------------
   0 C :   -0.059279
   1 C :   -0.041629
   2 C :   -0.052015
   3 C :   -0.008080
   4 O :    0.030962
   5 C :    0.030553
   6 N :   -0.098358
   7 H :    0.026255
   8 H :    0.031215
   9 H :    0.026292
  10 H :    0.039707
  11 H :    0.031163
  12 H :    0.023071
  13 H :    0.020143

  Mayer bond orders larger than 0.1
B(  0-C ,  1-C ) :   1.1155 B(  0-C ,  7-H ) :   0.9607 B(  0-C ,  8-H ) :   0.9676
B(  0-C ,  9-H ) :   0.9650 B(  1-C ,  2-C ) :   1.0811 B(  1-C , 10-H ) :   0.9040
B(  1-C , 11-H ) :   0.9131 B(  2-C ,  3-C ) :   1.5790 B(  2-C ,  6-N ) :   1.3092
B(  3-C ,  4-O ) :   1.1265 B(  3-C , 12-H ) :   0.9915 B(  4-O ,  5-C ) :   1.1892
B(  5-C ,  6-N ) :   1.7130 B(  5-C , 13-H ) :   0.9740

FINAL SINGLE POINT ENERGY      -324.074748561040

DIPOLE MOMENT
-------------
                                X             Y             Z
Electronic contribution:      4.71298      -6.49742       2.86440
Nuclear contribution   :     -4.60924       6.35138      -3.31926
                        -----------------------------------------
Total Dipole Moment    :      0.10374      -0.14605      -0.45486
                        -----------------------------------------
Magnitude (a.u.)       :      0.48887
Magnitude (Debye)      :      1.24260

                             ****ORCA TERMINATED NORMALLY****
TOTAL RUN TIME: 0 days 0 hours 0 minutes 6 seconds 450 msec
