                         Program Version 3.0.3 - RELEASE   -
|  1> ! RI PBE def2-SVP def2-SVP/J NBO PAL2
|  2> % maxcore 2000
|  3> % output
|  4>     # printlevel mini
|  5>     print[ P_Basis ] 0
|  6>     print[ P_SCFInfo ] 1
|  7>     print[ P_SCFIterInfo ] 1
|  8>     print[ P_OrbEn ] 0
|  9>     print[ P_Cartesian ] 0
| 10> end
| 11> *xyz 0 1
| 12>  C        1.5930310000    -0.3352160000     0.9756580000
| 13>  C        2.4370790000     0.0674520000     0.0304070000
| 14>  C        3.0726580000    -0.8180140000    -0.9232830000
| 15>  C        3.9415910000    -0.5067850000    -1.9174570000
| 16>  O        4.2815320000    -1.6511800000    -2.5640480000
| 17>  C        3.5915720000    -2.6095610000    -1.9193240000
| 18>  N        2.8647410000    -2.1911510000    -0.9498210000
| 19>  H        1.1456420000     0.3708760000     1.6638190000
| 20>  H        1.3329000000    -1.3820900000     1.0791870000
| 21>  H        2.6894480000     1.1199660000    -0.0625360000
| 22>  H        4.3864540000     0.4067660000    -2.2729500000
| 23>  H        3.7147320000    -3.6209750000    -2.2750520000
| 24> *
| 25>
| 26>                          ****END OF INPUT****
 Total Charge           Charge          ....    0
 Multiplicity           Mult            ....    1
 Number of Electrons    NEL             ....   50
 Basis Dimension        Dim             ....  123

MULLIKEN ATOMIC CHARGES
-----------------------
   0 C :   -0.008533
   1 C :    0.000679
   2 C :   -0.021324
   3 C :    0.071188
   4 O :   -0.156285
   5 C :    0.144811
   6 N :   -0.115769
   7 H :    0.025094
   8 H :    0.035886
   9 H :   -0.014765
  10 H :    0.012152
  11 H :    0.026865
Sum of atomic charges:   -0.0000000

LOEWDIN ATOMIC CHARGES
----------------------
   0 C :   -0.033005
   1 C :   -0.042281
   2 C :   -0.055131
   3 C :    0.008752
   4 O :    0.033944
   5 C :    0.038242
   6 N :   -0.087231
   7 H :    0.026527
   8 H :    0.030292
   9 H :    0.031645
  10 H :    0.025794
  11 H :    0.022453

  Mayer bond orders larger than 0.1
B(  0-C ,  1-C ) :   1.9273 B(  0-C ,  7-H ) :   0.9355 B(  0-C ,  8-H ) :   0.9404
B(  1-C ,  2-C ) :   1.1246 B(  1-C ,  9-H ) :   0.9471 B(  2-C ,  3-C ) :   1.5020
B(  2-C ,  6-N ) :   1.3153 B(  3-C ,  4-O ) :   1.1401 B(  3-C , 10-H ) :   0.9880
B(  4-O ,  5-C ) :   1.1705 B(  5-C ,  6-N ) :   1.7333 B(  5-C , 11-H ) :   0.9734

FINAL SINGLE POINT ENERGY      -322.855834773617

DIPOLE MOMENT
-------------
                                X             Y             Z
Electronic contribution:      2.53769      -2.21642      -3.53692
Nuclear contribution   :     -2.22441       2.53451       3.22295
                        -----------------------------------------
Total Dipole Moment    :      0.31328       0.31809      -0.31397
                        -----------------------------------------
Magnitude (a.u.)       :      0.54581
Magnitude (Debye)      :      1.38733

                             ****ORCA TERMINATED NORMALLY****
TOTAL RUN TIME: 0 days 0 hours 0 minutes 5 seconds 968 msec
