                         Program Version 3.0.3 - RELEASE   -
|  1> ! RI PBE def2-SVP def2-SVP/J NBO PAL2
|  2> % maxcore 2000
|  3> % output
|  4>     # printlevel mini
|  5>     print[ P_Basis ] 0
|  6>     print[ P_SCFInfo ] 1
|  7>     print[ P_SCFIterInfo ] 1
|  8>     print[ P_OrbEn ] 0
|  9>     print[ P_Cartesian ] 0
| 10> end
| 11> *xyz 0 1
| 12>  C        0.9180620000     0.0638580000     0.0402910000
| 13>  C        2.1191730000     0.0695320000     0.0426190000
| 14>  C        3.5324430000     0.0888950000     0.0453260000
| 15>  C        4.3568260000     1.1668640000     0.0430540000
| 16>  O        5.6324480000     0.7192890000     0.0471740000
| 17>  C        5.5183220000    -0.6228890000     0.0518010000
| 18>  N        4.3134090000    -1.0613920000     0.0510210000
| 19>  H       -0.1461910000     0.0518580000     0.0382600000
| 20>  H        4.2006300000     2.2314380000     0.0389010000
| 21>  H        6.4356770000    -1.1907550000     0.0556540000
| 22> *
| 23>
| 24>                          ****END OF INPUT****
 Total Charge           Charge          ....    0
 Multiplicity           Mult            ....    1
 Number of Electrons    NEL             ....   48
 Basis Dimension        Dim             ....  113

MULLIKEN ATOMIC CHARGES
-----------------------
   0 C :   -0.472714
   1 C :    0.480753
   2 C :   -0.069533
   3 C :    0.099639
   4 O :   -0.143505
   5 C :    0.143977
   6 N :   -0.104540
   7 H :    0.010788
   8 H :    0.022678
   9 H :    0.032458
Sum of atomic charges:   -0.0000000

LOEWDIN ATOMIC CHARGES
----------------------
   0 C :   -0.043523
   1 C :   -0.016893
   2 C :   -0.069538
   3 C :    0.028225
   4 O :    0.042677
   5 C :    0.038894
   6 N :   -0.075238
   7 H :    0.038286
   8 H :    0.031802
   9 H :    0.025308

  Mayer bond orders larger than 0.1
B(  0-C ,  1-C ) :   2.2421 B(  0-C ,  7-H ) :   1.0943 B(  1-C ,  2-C ) :   0.9370
B(  1-C ,  7-H ) :  -0.1053 B(  2-C ,  3-C ) :   1.5213 B(  2-C ,  6-N ) :   1.3187
B(  3-C ,  4-O ) :   1.1573 B(  3-C ,  8-H ) :   0.9946 B(  4-O ,  5-C ) :   1.1660
B(  5-C ,  6-N ) :   1.7304 B(  5-C ,  9-H ) :   0.9721

FINAL SINGLE POINT ENERGY      -321.606153931039

DIPOLE MOMENT
-------------
                                X             Y             Z
Electronic contribution:      1.22701      -0.22823       0.00307
Nuclear contribution   :     -0.97297       0.81826      -0.00485
                        -----------------------------------------
Total Dipole Moment    :      0.25404       0.59003      -0.00178
                        -----------------------------------------
Magnitude (a.u.)       :      0.64240
Magnitude (Debye)      :      1.63284

                             ****ORCA TERMINATED NORMALLY****
TOTAL RUN TIME: 0 days 0 hours 0 minutes 5 seconds 464 msec
