                         Program Version 3.0.3 - RELEASE   -
|  1> ! RI PBE def2-SVP def2-SVP/J NBO PAL2
|  2> % maxcore 2000
|  3> % output
|  4>     # printlevel mini
|  5>     print[ P_Basis ] 0
|  6>     print[ P_SCFInfo ] 1
|  7>     print[ P_SCFIterInfo ] 1
|  8>     print[ P_OrbEn ] 0
|  9>     print[ P_Cartesian ] 0
| 10> end
| 11> *xyz 0 1
| 12>  C        2.7104950000     1.1050610000     0.6071810000
| 13>  C        2.3222990000    -0.0852050000    -0.2589270000
| 14>  C        3.4769050000    -0.9913680000    -0.6008770000
| 15>  C        4.5972950000    -0.3665060000    -1.4108140000
| 16>  O        5.4954330000    -1.3264930000    -1.8917690000
| 17>  C        3.7844370000    -2.1272520000     0.2883780000
| 18>  N        3.1925880000    -2.3585520000    -1.0326230000
| 19>  H        1.8315300000     1.6984010000     0.8673810000
| 20>  H        3.4108220000     1.7667100000     0.0932130000
| 21>  H        3.1819420000     0.7771140000     1.5370340000
| 22>  H        1.8640550000     0.2708780000    -1.1895530000
| 23>  H        1.5582880000    -0.6778040000     0.2571550000
| 24>  H        5.1624370000     0.3392380000    -0.7954770000
| 25>  H        4.1450320000     0.2046250000    -2.2388020000
| 26>  H        4.9473440000    -2.0959800000    -2.1099150000
| 27>  H        3.1551230000    -2.2670590000     1.1620550000
| 28>  H        4.8073460000    -2.4717750000     0.3899150000
| 29>  H        2.2034400000    -2.5683220000    -0.9625540000
| 30> *
| 31>
| 32>                          ****END OF INPUT****
 Total Charge           Charge          ....    0
 Multiplicity           Mult            ....    1
 Number of Electrons    NEL             ....   56
 Basis Dimension        Dim             ....  153

MULLIKEN ATOMIC CHARGES
-----------------------
   0 C :   -0.011371
   1 C :    0.073797
   2 C :   -0.373384
   3 C :    0.316555
   4 O :   -0.285123
   5 C :    0.091815
   6 N :   -0.195821
   7 H :    0.023292
   8 H :    0.033394
   9 H :    0.020175
  10 H :    0.017340
  11 H :   -0.012513
  12 H :    0.007840
  13 H :   -0.016136
  14 H :    0.148260
  15 H :    0.023982
  16 H :    0.030943
  17 H :    0.106953
Sum of atomic charges:    0.0000000

LOEWDIN ATOMIC CHARGES
----------------------
   0 C :   -0.062322
   1 C :   -0.040070
   2 C :   -0.054524
   3 C :    0.061025
   4 O :   -0.120389
   5 C :    0.008905
   6 N :   -0.092335
   7 H :    0.029731
   8 H :    0.028149
   9 H :    0.027428
  10 H :    0.027713
  11 H :    0.022325
  12 H :    0.019176
  13 H :    0.003422
  14 H :    0.052225
  15 H :    0.015425
  16 H :    0.020041
  17 H :    0.054075

  Mayer bond orders larger than 0.1
B(  0-C ,  1-C ) :   1.1164 B(  0-C ,  7-H ) :   0.9546 B(  0-C ,  8-H ) :   0.9642
B(  0-C ,  9-H ) :   0.9638 B(  1-C ,  2-C ) :   1.0667 B(  1-C , 10-H ) :   0.9205
B(  1-C , 11-H ) :   0.9049 B(  2-C ,  3-C ) :   0.9756 B(  2-C ,  5-C ) :   1.0175
B(  2-C ,  6-N ) :   0.9911 B(  3-C ,  4-O ) :   1.1042 B(  3-C , 12-H ) :   0.9302
B(  3-C , 13-H ) :   0.9156 B(  4-O , 14-H ) :   0.9466 B(  5-C ,  6-N ) :   0.9844
B(  5-C , 15-H ) :   0.9404 B(  5-C , 16-H ) :   0.9309 B(  6-N , 17-H ) :   0.9414

FINAL SINGLE POINT ENERGY      -326.431294310507

DIPOLE MOMENT
-------------
                                X             Y             Z
Electronic contribution:      2.87908      -4.16648      -3.16691
Nuclear contribution   :     -3.91292       4.34548       3.73073
                        -----------------------------------------
Total Dipole Moment    :     -1.03384       0.17899       0.56383
                        -----------------------------------------
Magnitude (a.u.)       :      1.19112
Magnitude (Debye)      :      3.02759

                             ****ORCA TERMINATED NORMALLY****
TOTAL RUN TIME: 0 days 0 hours 0 minutes 8 seconds 33 msec
