                         Program Version 3.0.3 - RELEASE   -
|  1> ! RI PBE def2-SVP def2-SVP/J NBO PAL2
|  2> % maxcore 2000
|  3> % output
|  4>     # printlevel mini
|  5>     print[ P_Basis ] 0
|  6>     print[ P_SCFInfo ] 1
|  7>     print[ P_SCFIterInfo ] 1
|  8>     print[ P_OrbEn ] 0
|  9>     print[ P_Cartesian ] 0
| 10> end
| 11> *xyz 0 1
| 12>  C        1.4717820000     0.6621860000    -0.8975970000
| 13>  C        2.2695630000     0.0181920000    -0.0581770000
| 14>  C        3.1126660000     0.6596790000     1.0101870000
| 15>  C        2.4711120000     0.6757420000     2.4031120000
| 16>  O        1.9862120000     2.0150740000     2.5782300000
| 17>  N        2.6261030000     2.8391620000     1.6813130000
| 18>  C        3.2690450000     2.1422330000     0.8390280000
| 19>  H        0.8760980000     0.1252300000    -1.6261460000
| 20>  H        1.3783880000     1.7432970000    -0.8831080000
| 21>  H        2.3250500000    -1.0673090000    -0.1022980000
| 22>  H        4.0839550000     0.1581980000     1.0430790000
| 23>  H        3.2087160000     0.4735320000     3.1865690000
| 24>  H        1.6252930000    -0.0040410000     2.5061570000
| 25>  H        3.8156180000     2.6374150000     0.0470420000
| 26> *
| 27>
| 28>                          ****END OF INPUT****
 Total Charge           Charge          ....    0
 Multiplicity           Mult            ....    1
 Number of Electrons    NEL             ....   52
 Basis Dimension        Dim             ....  133

MULLIKEN ATOMIC CHARGES
-----------------------
   0 C :   -0.009541
   1 C :   -0.070326
   2 C :   -0.113061
   3 C :    0.260944
   4 O :   -0.272257
   5 N :    0.027662
   6 C :   -0.033550
   7 H :    0.028577
   8 H :    0.042063
   9 H :    0.017418
  10 H :    0.034630
  11 H :    0.025961
  12 H :    0.030500
  13 H :    0.030980
Sum of atomic charges:    0.0000000

LOEWDIN ATOMIC CHARGES
----------------------
   0 C :   -0.049315
   1 C :   -0.032574
   2 C :   -0.073628
   3 C :    0.073304
   4 O :   -0.091644
   5 N :    0.015682
   6 C :   -0.050183
   7 H :    0.029516
   8 H :    0.028029
   9 H :    0.028611
  10 H :    0.044249
  11 H :    0.019895
  12 H :    0.027833
  13 H :    0.030226

  Mayer bond orders larger than 0.1
B(  0-C ,  1-C ) :   2.0221 B(  0-C ,  7-H ) :   0.9446 B(  0-C ,  8-H ) :   0.9250
B(  1-C ,  2-C ) :   1.0053 B(  1-C ,  9-H ) :   0.9573 B(  2-C ,  3-C ) :   1.0469
B(  2-C ,  6-C ) :   0.9645 B(  2-C , 10-H ) :   0.8960 B(  3-C ,  4-O ) :   0.9472
B(  3-C , 11-H ) :   0.9350 B(  3-C , 12-H ) :   0.9427 B(  4-O ,  5-N ) :   0.9989
B(  4-O ,  6-C ) :   0.1107 B(  5-N ,  6-C ) :   1.8789 B(  6-C , 13-H ) :   0.9721

FINAL SINGLE POINT ENERGY      -323.987803478078

DIPOLE MOMENT
-------------
                                X             Y             Z
Electronic contribution:      0.25828       3.62465       2.94547
Nuclear contribution   :      0.19159      -4.68960      -3.40555
                        -----------------------------------------
Total Dipole Moment    :      0.44987      -1.06495      -0.46008
                        -----------------------------------------
Magnitude (a.u.)       :      1.24426
Magnitude (Debye)      :      3.16265

                             ****ORCA TERMINATED NORMALLY****
TOTAL RUN TIME: 0 days 0 hours 0 minutes 6 seconds 741 msec
