                         Program Version 3.0.3 - RELEASE   -
|  1> ! RI PBE def2-SVP def2-SVP/J NBO PAL2
|  2> % maxcore 2000
|  3> % output
|  4>     # printlevel mini
|  5>     print[ P_Basis ] 0
|  6>     print[ P_SCFInfo ] 1
|  7>     print[ P_SCFIterInfo ] 1
|  8>     print[ P_OrbEn ] 0
|  9>     print[ P_Cartesian ] 0
| 10> end
| 11> *xyz 0 1
| 12>  C        0.9282680000    -0.1190210000    -0.2855090000
| 13>  C        2.1180040000    -0.0823600000    -0.1360170000
| 14>  C        3.5557740000    -0.0427080000     0.0487800000
| 15>  C        4.1600990000    -1.3112760000     0.6596050000
| 16>  O        5.1879430000    -0.8402820000     1.5396940000
| 17>  N        4.9382140000     0.4784890000     1.8502580000
| 18>  C        4.0434670000     0.9423570000     1.0840050000
| 19>  H       -0.1275790000    -0.1514490000    -0.4173670000
| 20>  H        4.0278250000     0.2029500000    -0.9124250000
| 21>  H        4.6162100000    -1.9786010000    -0.0700310000
| 22>  H        3.4096500000    -1.8527560000     1.2439960000
| 23>  H        3.7301360000     1.9736370000     1.1727220000
| 24> *
| 25>
| 26>                          ****END OF INPUT****
 Total Charge           Charge          ....    0
 Multiplicity           Mult            ....    1
 Number of Electrons    NEL             ....   50
 Basis Dimension        Dim             ....  123

MULLIKEN ATOMIC CHARGES
-----------------------
   0 C :   -0.483522
   1 C :    0.410790
   2 C :   -0.144714
   3 C :    0.271517
   4 O :   -0.275280
   5 N :    0.037500
   6 C :    0.002318
   7 H :    0.005388
   8 H :    0.064383
   9 H :    0.038730
  10 H :    0.036269
  11 H :    0.036621
Sum of atomic charges:    0.0000000

LOEWDIN ATOMIC CHARGES
----------------------
   0 C :   -0.067402
   1 C :   -0.023489
   2 C :   -0.075276
   3 C :    0.078928
   4 O :   -0.090012
   5 N :    0.021985
   6 C :   -0.035768
   7 H :    0.038324
   8 H :    0.060884
   9 H :    0.031356
  10 H :    0.025426
  11 H :    0.035044

  Mayer bond orders larger than 0.1
B(  0-C ,  1-C ) :   2.3216 B(  0-C ,  7-H ) :   1.1077 B(  1-C ,  2-C ) :   0.9803
B(  1-C ,  7-H ) :  -0.1169 B(  2-C ,  3-C ) :   1.0646 B(  2-C ,  6-C ) :   0.9640
B(  2-C ,  8-H ) :   0.8428 B(  3-C ,  4-O ) :   0.9438 B(  3-C ,  9-H ) :   0.9358
B(  3-C , 10-H ) :   0.9447 B(  4-O ,  5-N ) :   0.9936 B(  4-O ,  6-C ) :   0.1142
B(  5-N ,  6-C ) :   1.9098 B(  6-C , 11-H ) :   0.9733

FINAL SINGLE POINT ENERGY      -322.743304929444

DIPOLE MOMENT
-------------
                                X             Y             Z
Electronic contribution:      1.64643       0.84633       1.55517
Nuclear contribution   :     -2.33741      -0.91544      -2.38366
                        -----------------------------------------
Total Dipole Moment    :     -0.69097      -0.06911      -0.82848
                        -----------------------------------------
Magnitude (a.u.)       :      1.08102
Magnitude (Debye)      :      2.74773

                             ****ORCA TERMINATED NORMALLY****
TOTAL RUN TIME: 0 days 0 hours 0 minutes 5 seconds 767 msec
