                         Program Version 3.0.3 - RELEASE   -
|  1> ! RI PBE def2-SVP def2-SVP/J NBO PAL2
|  2> % maxcore 2000
|  3> % output
|  4>     # printlevel mini
|  5>     print[ P_Basis ] 0
|  6>     print[ P_SCFInfo ] 1
|  7>     print[ P_SCFIterInfo ] 1
|  8>     print[ P_OrbEn ] 0
|  9>     print[ P_Cartesian ] 0
| 10> end
| 11> *xyz 0 1
| 12>  C        0.9621990000     0.0323490000     0.1438010000
| 13>  C        2.4543460000    -0.0881710000     0.1484430000
| 14>  C        3.1226390000    -1.2430070000     0.1363640000
| 15>  C        4.6030730000    -1.4806610000     0.1395040000
| 16>  O        4.7383910000    -2.9117640000     0.1215740000
| 17>  N        3.4991740000    -3.4947670000     0.1088860000
| 18>  C        2.5933330000    -2.5921800000     0.1167550000
| 19>  H        0.6529910000     1.0774450000     0.1549240000
| 20>  H        0.5131480000    -0.4507920000     1.0168880000
| 21>  H        0.5202860000    -0.4299730000    -0.7440660000
| 22>  H        3.0266680000     0.8352160000     0.1627330000
| 23>  H        5.1002110000    -1.1018420000     1.0372940000
| 24>  H        5.1076950000    -1.0788140000    -0.7439820000
| 25>  H        1.5544380000    -2.8911480000     0.1085720000
| 26> *
| 27>
| 28>                          ****END OF INPUT****
 Total Charge           Charge          ....    0
 Multiplicity           Mult            ....    1
 Number of Electrons    NEL             ....   52
 Basis Dimension        Dim             ....  133

MULLIKEN ATOMIC CHARGES
-----------------------
   0 C :    0.030491
   1 C :   -0.129879
   2 C :   -0.163719
   3 C :    0.277875
   4 O :   -0.267243
   5 N :    0.032209
   6 C :    0.007832
   7 H :    0.024331
   8 H :    0.044164
   9 H :    0.043783
  10 H :   -0.008237
  11 H :    0.048036
  12 H :    0.048463
  13 H :    0.011894
Sum of atomic charges:   -0.0000000

LOEWDIN ATOMIC CHARGES
----------------------
   0 C :   -0.068171
   1 C :   -0.044975
   2 C :   -0.083097
   3 C :    0.070264
   4 O :   -0.078330
   5 N :    0.018769
   6 C :   -0.056905
   7 H :    0.034594
   8 H :    0.040058
   9 H :    0.039980
  10 H :    0.025816
  11 H :    0.035631
  12 H :    0.035702
  13 H :    0.030663

  Mayer bond orders larger than 0.1
B(  0-C ,  1-C ) :   1.0856 B(  0-C ,  7-H ) :   0.9564 B(  0-C ,  8-H ) :   0.9504
B(  0-C ,  9-H ) :   0.9504 B(  1-C ,  2-C ) :   1.8060 B(  1-C , 10-H ) :   0.9481
B(  2-C ,  3-C ) :   1.0384 B(  2-C ,  6-C ) :   1.0788 B(  3-C ,  4-O ) :   0.9312
B(  3-C , 11-H ) :   0.9265 B(  3-C , 12-H ) :   0.9267 B(  4-O ,  5-N ) :   1.0154
B(  4-O ,  6-C ) :   0.1007 B(  5-N ,  6-C ) :   1.7958 B(  6-C , 13-H ) :   0.9741

FINAL SINGLE POINT ENERGY      -324.004063158807

DIPOLE MOMENT
-------------
                                X             Y             Z
Electronic contribution:      4.78013      -6.09202      -0.05855
Nuclear contribution   :     -5.23770       7.28048       0.07220
                        -----------------------------------------
Total Dipole Moment    :     -0.45757       1.18846       0.01365
                        -----------------------------------------
Magnitude (a.u.)       :      1.27358
Magnitude (Debye)      :      3.23718

                             ****ORCA TERMINATED NORMALLY****
TOTAL RUN TIME: 0 days 0 hours 0 minutes 6 seconds 637 msec
