                         Program Version 3.0.3 - RELEASE   -
|  1> ! RI PBE def2-SVP def2-SVP/J NBO PAL2
|  2> % maxcore 2000
|  3> % output
|  4>     # printlevel mini
|  5>     print[ P_Basis ] 0
|  6>     print[ P_SCFInfo ] 1
|  7>     print[ P_SCFIterInfo ] 1
|  8>     print[ P_OrbEn ] 0
|  9>     print[ P_Cartesian ] 0
| 10> end
| 11> *xyz 0 1
| 12>  C        2.9411680000     1.3955280000    -0.0934650000
| 13>  C        2.3364150000     0.0044070000    -0.0133030000
| 14>  C        2.9515290000    -0.9931410000    -0.9989220000
| 15>  C        2.3832670000    -2.4060630000    -0.9046270000
| 16>  O        3.3740760000    -3.1767760000    -0.2038090000
| 17>  N        4.5659400000    -2.4884840000    -0.2211610000
| 18>  C        4.3813930000    -1.3188790000    -0.6772080000
| 19>  H        2.4420270000     2.0795120000     0.5958260000
| 20>  H        2.8441000000     1.8112450000    -1.1005010000
| 21>  H        4.0029950000     1.3911690000     0.1638610000
| 22>  H        1.2616050000     0.0605900000    -0.2160940000
| 23>  H        2.4411890000    -0.3949220000     1.0010510000
| 24>  H        2.8566480000    -0.5935250000    -2.0134090000
| 25>  H        2.2357180000    -2.8569510000    -1.8912610000
| 26>  H        1.4521130000    -2.4639560000    -0.3379550000
| 27>  H        5.2273160000    -0.6473640000    -0.7449230000
| 28> *
| 29>
| 30>                          ****END OF INPUT****
 Total Charge           Charge          ....    0
 Multiplicity           Mult            ....    1
 Number of Electrons    NEL             ....   54
 Basis Dimension        Dim             ....  143

MULLIKEN ATOMIC CHARGES
-----------------------
   0 C :   -0.019752
   1 C :    0.004325
   2 C :   -0.210943
   3 C :    0.287168
   4 O :   -0.280365
   5 N :    0.031071
   6 C :   -0.030674
   7 H :    0.030188
   8 H :    0.021139
   9 H :    0.026575
  10 H :    0.020431
  11 H :    0.027916
  12 H :    0.026231
  13 H :    0.022370
  14 H :    0.014743
  15 H :    0.029576
Sum of atomic charges:   -0.0000000

LOEWDIN ATOMIC CHARGES
----------------------
   0 C :   -0.067213
   1 C :   -0.036890
   2 C :   -0.072520
   3 C :    0.069009
   4 O :   -0.096624
   5 N :    0.013210
   6 C :   -0.056516
   7 H :    0.032331
   8 H :    0.026168
   9 H :    0.026873
  10 H :    0.026699
  11 H :    0.029870
  12 H :    0.034609
  13 H :    0.019714
  14 H :    0.023959
  15 H :    0.027321

  Mayer bond orders larger than 0.1
B(  0-C ,  1-C ) :   1.1235 B(  0-C ,  7-H ) :   0.9580 B(  0-C ,  8-H ) :   0.9636
B(  0-C ,  9-H ) :   0.9633 B(  1-C ,  2-C ) :   1.0312 B(  1-C , 10-H ) :   0.9314
B(  1-C , 11-H ) :   0.9352 B(  2-C ,  3-C ) :   1.0592 B(  2-C ,  6-C ) :   0.9722
B(  2-C , 12-H ) :   0.9111 B(  3-C ,  4-O ) :   0.9425 B(  3-C , 13-H ) :   0.9357
B(  3-C , 14-H ) :   0.9361 B(  4-O ,  5-N ) :   0.9953 B(  4-O ,  6-C ) :   0.1144
B(  5-N ,  6-C ) :   1.8982 B(  6-C , 15-H ) :   0.9709

FINAL SINGLE POINT ENERGY      -325.213855959836

DIPOLE MOMENT
-------------
                                X             Y             Z
Electronic contribution:      3.56162      -8.24033       0.11295
Nuclear contribution   :     -4.26873       9.28195      -0.57682
                        -----------------------------------------
Total Dipole Moment    :     -0.70711       1.04163      -0.46387
                        -----------------------------------------
Magnitude (a.u.)       :      1.34170
Magnitude (Debye)      :      3.41034

                             ****ORCA TERMINATED NORMALLY****
TOTAL RUN TIME: 0 days 0 hours 0 minutes 7 seconds 528 msec
