                         Program Version 3.0.3 - RELEASE   -
|  1> ! RI PBE def2-SVP def2-SVP/J NBO PAL2
|  2> % maxcore 2000
|  3> % output
|  4>     # printlevel mini
|  5>     print[ P_Basis ] 0
|  6>     print[ P_SCFInfo ] 1
|  7>     print[ P_SCFIterInfo ] 1
|  8>     print[ P_OrbEn ] 0
|  9>     print[ P_Cartesian ] 0
| 10> end
| 11> *xyz 0 1
| 12>  C        0.8435480000     0.1993920000     0.0301080000
| 13>  C        2.3387920000    -0.0970280000     0.0018770000
| 14>  C        2.7718570000    -0.9899660000     1.1074020000
| 15>  C        3.2813890000    -2.2426590000     1.1180200000
| 16>  O        3.4975870000    -2.6101110000     2.3756600000
| 17>  N        3.1018030000    -1.5341550000     3.1765310000
| 18>  N        2.6905440000    -0.6220630000     2.4305380000
| 19>  H        0.5717050000     0.8868270000    -0.7732970000
| 20>  H        0.5591350000     0.6554320000     0.9799540000
| 21>  H        0.2595660000    -0.7155290000    -0.0919030000
| 22>  H        2.8993050000     0.8404110000     0.0713680000
| 23>  H        2.6170750000    -0.5573870000    -0.9495810000
| 24>  H        3.5308040000    -2.9509530000     0.3452230000
| 25> *
| 26>
| 27>                          ****END OF INPUT****
 Total Charge           Charge          ....    0
 Multiplicity           Mult            ....    1
 Number of Electrons    NEL             ....   52
 Basis Dimension        Dim             ....  128

MULLIKEN ATOMIC CHARGES
-----------------------
   0 C :   -0.033367
   1 C :    0.104016
   2 C :   -0.105312
   3 C :    0.086984
   4 O :   -0.140365
   5 N :    0.023526
   6 N :   -0.101497
   7 H :    0.029570
   8 H :    0.045491
   9 H :    0.024354
  10 H :    0.034000
  11 H :    0.002258
  12 H :    0.030341
Sum of atomic charges:   -0.0000000

LOEWDIN ATOMIC CHARGES
----------------------
   0 C :   -0.058332
   1 C :   -0.040001
   2 C :   -0.080109
   3 C :    0.005862
   4 O :    0.028634
   5 N :   -0.003566
   6 N :   -0.058580
   7 H :    0.030176
   8 H :    0.033800
   9 H :    0.028398
  10 H :    0.044081
  11 H :    0.034544
  12 H :    0.035094

  Mayer bond orders larger than 0.1
B(  0-C ,  1-C ) :   1.1171 B(  0-C ,  7-H ) :   0.9620 B(  0-C ,  8-H ) :   0.9679
B(  0-C ,  9-H ) :   0.9646 B(  1-C ,  2-C ) :   1.0816 B(  1-C , 10-H ) :   0.9056
B(  1-C , 11-H ) :   0.9123 B(  2-C ,  3-C ) :   1.5153 B(  2-C ,  6-N ) :   1.2848
B(  3-C ,  4-O ) :   1.1996 B(  3-C ,  5-N ) :   0.1186 B(  3-C , 12-H ) :   0.9933
B(  4-O ,  5-N ) :   0.9804 B(  4-O ,  6-N ) :   0.1055 B(  5-N ,  6-N ) :   1.5700

FINAL SINGLE POINT ENERGY      -340.051578597381

DIPOLE MOMENT
-------------
                                X             Y             Z
Electronic contribution:      4.96732      -4.77378       7.16431
Nuclear contribution   :     -5.02661       4.64421      -8.58277
                        -----------------------------------------
Total Dipole Moment    :     -0.05929      -0.12957      -1.41846
                        -----------------------------------------
Magnitude (a.u.)       :      1.42559
Magnitude (Debye)      :      3.62357

                             ****ORCA TERMINATED NORMALLY****
TOTAL RUN TIME: 0 days 0 hours 0 minutes 6 seconds 291 msec
