                         Program Version 3.0.3 - RELEASE   -
|  1> ! RI PBE def2-SVP def2-SVP/J NBO PAL2
|  2> % maxcore 2000
|  3> % output
|  4>     # printlevel mini
|  5>     print[ P_Basis ] 0
|  6>     print[ P_SCFInfo ] 1
|  7>     print[ P_SCFIterInfo ] 1
|  8>     print[ P_OrbEn ] 0
|  9>     print[ P_Cartesian ] 0
| 10> end
| 11> *xyz 0 1
| 12>  C        1.0284850000    -0.0219000000    -0.3588350000
| 13>  C        2.1908340000     0.2429440000     0.2293260000
| 14>  C        2.9274830000    -0.6981250000     1.0456410000
| 15>  C        4.1097030000    -0.5702710000     1.7007260000
| 16>  O        4.3850460000    -1.7072210000     2.3201670000
| 17>  N        3.3207570000    -2.5825700000     2.0338030000
| 18>  N        2.5066390000    -1.9839480000     1.3090310000
| 19>  H        0.5262530000     0.7266110000    -0.9581560000
| 20>  H        0.5528690000    -0.9900520000    -0.2555970000
| 21>  H        2.6495210000     1.2201370000     0.1123720000
| 22>  H        4.8173210000     0.2362850000     1.8009110000
| 23> *
| 24>
| 25>                          ****END OF INPUT****
 Total Charge           Charge          ....    0
 Multiplicity           Mult            ....    1
 Number of Electrons    NEL             ....   50
 Basis Dimension        Dim             ....  118

MULLIKEN ATOMIC CHARGES
-----------------------
   0 C :   -0.009124
   1 C :    0.007371
   2 C :   -0.013489
   3 C :    0.099463
   4 O :   -0.138677
   5 N :    0.034934
   6 N :   -0.091810
   7 H :    0.034233
   8 H :    0.046736
   9 H :   -0.007217
  10 H :    0.037580
Sum of atomic charges:   -0.0000000

LOEWDIN ATOMIC CHARGES
----------------------
   0 C :   -0.023205
   1 C :   -0.042087
   2 C :   -0.083422
   3 C :    0.019220
   4 O :    0.030702
   5 N :    0.006716
   6 N :   -0.045631
   7 H :    0.030949
   8 H :    0.033695
   9 H :    0.035277
  10 H :    0.037786

  Mayer bond orders larger than 0.1
B(  0-C ,  1-C ) :   1.9281 B(  0-C ,  7-H ) :   0.9354 B(  0-C ,  8-H ) :   0.9450
B(  1-C ,  2-C ) :   1.1225 B(  1-C ,  9-H ) :   0.9456 B(  2-C ,  3-C ) :   1.4479
B(  2-C ,  6-N ) :   1.2872 B(  3-C ,  4-O ) :   1.2122 B(  3-C ,  5-N ) :   0.1058
B(  3-C , 10-H ) :   0.9882 B(  4-O ,  5-N ) :   0.9637 B(  4-O ,  6-N ) :   0.1047
B(  5-N ,  6-N ) :   1.5942

FINAL SINGLE POINT ENERGY      -338.831668559838

DIPOLE MOMENT
-------------
                                X             Y             Z
Electronic contribution:      3.30514      -3.86468       3.52150
Nuclear contribution   :     -3.03689       5.10551      -3.85560
                        -----------------------------------------
Total Dipole Moment    :      0.26825       1.24083      -0.33409
                        -----------------------------------------
Magnitude (a.u.)       :      1.31272
Magnitude (Debye)      :      3.33667

                             ****ORCA TERMINATED NORMALLY****
TOTAL RUN TIME: 0 days 0 hours 0 minutes 5 seconds 691 msec
