                         Program Version 3.0.3 - RELEASE   -
|  1> ! RI PBE def2-SVP def2-SVP/J NBO PAL2
|  2> % maxcore 2000
|  3> % output
|  4>     # printlevel mini
|  5>     print[ P_Basis ] 0
|  6>     print[ P_SCFInfo ] 1
|  7>     print[ P_SCFIterInfo ] 1
|  8>     print[ P_OrbEn ] 0
|  9>     print[ P_Cartesian ] 0
| 10> end
| 11> *xyz 0 1
| 12>  C        0.9671700000    -0.0333050000    -0.1011930000
| 13>  C        2.1671900000     0.0001030000    -0.0994800000
| 14>  C        3.5756630000     0.0492070000    -0.0975520000
| 15>  C        4.4225690000     1.1117200000    -0.0992980000
| 16>  O        5.6630070000     0.6664330000    -0.0962030000
| 17>  N        5.5838860000    -0.7448120000    -0.0923890000
| 18>  N        4.3852570000    -1.0699260000    -0.0932510000
| 19>  H       -0.0968650000    -0.0703070000    -0.1027190000
| 20>  H        4.2627220000     2.1771780000    -0.1025160000
| 21> *
| 22>
| 23>                          ****END OF INPUT****
 Total Charge           Charge          ....    0
 Multiplicity           Mult            ....    1
 Number of Electrons    NEL             ....   48
 Basis Dimension        Dim             ....  108

MULLIKEN ATOMIC CHARGES
-----------------------
   0 C :   -0.455096
   1 C :    0.477694
   2 C :   -0.056712
   3 C :    0.132815
   4 O :   -0.128913
   5 N :    0.035469
   6 N :   -0.069249
   7 H :    0.019503
   8 H :    0.044489
Sum of atomic charges:   -0.0000000

LOEWDIN ATOMIC CHARGES
----------------------
   0 C :   -0.023396
   1 C :   -0.024380
   2 C :   -0.096272
   3 C :    0.041501
   4 O :    0.037137
   5 N :    0.011142
   6 N :   -0.031644
   7 H :    0.042313
   8 H :    0.043599

  Mayer bond orders larger than 0.1
B(  0-C ,  1-C ) :   2.2409 B(  0-C ,  7-H ) :   1.0918 B(  1-C ,  2-C ) :   0.9361
B(  1-C ,  7-H ) :  -0.1029 B(  2-C ,  3-C ) :   1.4650 B(  2-C ,  6-N ) :   1.2816
B(  3-C ,  4-O ) :   1.2317 B(  3-C ,  5-N ) :   0.1033 B(  3-C ,  8-H ) :   0.9949
B(  4-O ,  5-N ) :   0.9525 B(  4-O ,  6-N ) :   0.1003 B(  5-N ,  6-N ) :   1.5989

FINAL SINGLE POINT ENERGY      -337.581919208910

DIPOLE MOMENT
-------------
                                X             Y             Z
Electronic contribution:      2.60593      -0.90729       0.00632
Nuclear contribution   :     -3.39709       1.95804      -0.01057
                        -----------------------------------------
Total Dipole Moment    :     -0.79117       1.05075      -0.00425
                        -----------------------------------------
Magnitude (a.u.)       :      1.31531
Magnitude (Debye)      :      3.34325

                             ****ORCA TERMINATED NORMALLY****
TOTAL RUN TIME: 0 days 0 hours 0 minutes 5 seconds 654 msec
