                         Program Version 3.0.3 - RELEASE   -
|  1> ! RI PBE def2-SVP def2-SVP/J NBO PAL2
|  2> % maxcore 2000
|  3> % output
|  4>     # printlevel mini
|  5>     print[ P_Basis ] 0
|  6>     print[ P_SCFInfo ] 1
|  7>     print[ P_SCFIterInfo ] 1
|  8>     print[ P_OrbEn ] 0
|  9>     print[ P_Cartesian ] 0
| 10> end
| 11> *xyz 0 1
| 12>  C        2.3144480000     0.9257720000    -0.0859640000
| 13>  C        2.1373750000    -0.5526050000    -0.3967970000
| 14>  C        2.7735010000    -1.4402230000     0.6350910000
| 15>  N        3.0370300000    -2.8468030000     0.3406650000
| 16>  C        4.1614220000    -1.9122890000     0.4751890000
| 17>  C        5.0533440000    -2.2077060000     1.6437480000
| 18>  O        5.7788550000    -3.4002740000     1.4488260000
| 19>  H        1.8348330000     1.5496510000    -0.8429850000
| 20>  H        3.3726740000     1.1957710000    -0.0479710000
| 21>  H        1.8721720000     1.1799820000     0.8808020000
| 22>  H        2.5698530000    -0.7830010000    -1.3777580000
| 23>  H        1.0695130000    -0.7903510000    -0.4642630000
| 24>  H        2.4171950000    -1.2814090000     1.6515590000
| 25>  H        2.8502190000    -3.0321300000    -0.6398360000
| 26>  H        4.6724670000    -1.6244920000    -0.4413460000
| 27>  H        4.4433090000    -2.2623220000     2.5560660000
| 28>  H        5.7900580000    -1.4116160000     1.7783300000
| 29>  H        5.1253330000    -4.0823580000     1.2602440000
| 30> *
| 31>
| 32>                          ****END OF INPUT****
 Total Charge           Charge          ....    0
 Multiplicity           Mult            ....    1
 Number of Electrons    NEL             ....   56
 Basis Dimension        Dim             ....  153

MULLIKEN ATOMIC CHARGES
-----------------------
   0 C :   -0.012759
   1 C :    0.050243
   2 C :   -0.070054
   3 N :   -0.176543
   4 C :   -0.166805
   5 C :    0.319522
   6 O :   -0.298284
   7 H :    0.025359
   8 H :    0.021228
   9 H :    0.022626
  10 H :   -0.011127
  11 H :    0.024087
  12 H :    0.012073
  13 H :    0.104448
  14 H :    0.017330
  15 H :   -0.020262
  16 H :    0.006853
  17 H :    0.152065
Sum of atomic charges:   -0.0000000

LOEWDIN ATOMIC CHARGES
----------------------
   0 C :   -0.061868
   1 C :   -0.049378
   2 C :   -0.001656
   3 N :   -0.106307
   4 C :   -0.029029
   5 C :    0.055401
   6 O :   -0.124226
   7 H :    0.029097
   8 H :    0.026159
   9 H :    0.027536
  10 H :    0.022328
  11 H :    0.029762
  12 H :    0.019242
  13 H :    0.052808
  14 H :    0.015027
  15 H :    0.007003
  16 H :    0.022719
  17 H :    0.065383

  Mayer bond orders larger than 0.1
B(  0-C ,  1-C ) :   1.1107 B(  0-C ,  7-H ) :   0.9569 B(  0-C ,  8-H ) :   0.9682
B(  0-C ,  9-H ) :   0.9662 B(  1-C ,  2-C ) :   1.0635 B(  1-C , 10-H ) :   0.9107
B(  1-C , 11-H ) :   0.9260 B(  2-C ,  3-N ) :   0.9889 B(  2-C ,  4-C ) :   0.9751
B(  2-C , 12-H ) :   0.9196 B(  3-N ,  4-C ) :   0.9679 B(  3-N , 13-H ) :   0.9393
B(  4-C ,  5-C ) :   1.0449 B(  4-C , 14-H ) :   0.9348 B(  5-C ,  6-O ) :   1.0524
B(  5-C , 15-H ) :   0.9099 B(  5-C , 16-H ) :   0.9305 B(  6-O , 17-H ) :   0.9796

FINAL SINGLE POINT ENERGY      -326.427978421979

DIPOLE MOMENT
-------------
                                X             Y             Z
Electronic contribution:      3.19466      -5.92790       1.49574
Nuclear contribution   :     -3.80477       6.46835      -2.02112
                        -----------------------------------------
Total Dipole Moment    :     -0.61011       0.54045      -0.52538
                        -----------------------------------------
Magnitude (a.u.)       :      0.96972
Magnitude (Debye)      :      2.46483

                             ****ORCA TERMINATED NORMALLY****
TOTAL RUN TIME: 0 days 0 hours 0 minutes 7 seconds 819 msec
