                         Program Version 3.0.3 - RELEASE   -
|  1> ! RI PBE def2-SVP def2-SVP/J NBO PAL2
|  2> % maxcore 2000
|  3> % output
|  4>     # printlevel mini
|  5>     print[ P_Basis ] 0
|  6>     print[ P_SCFInfo ] 1
|  7>     print[ P_SCFIterInfo ] 1
|  8>     print[ P_OrbEn ] 0
|  9>     print[ P_Cartesian ] 0
| 10> end
| 11> *xyz 0 1
| 12>  C        0.6081610000     0.0719740000    -0.6946960000
| 13>  C        1.7763690000     0.4423220000    -0.1887970000
| 14>  C        2.9386290000     0.9126180000    -0.9681990000
| 15>  N        2.8550070000     1.2872650000    -2.3550970000
| 16>  C        3.0137360000     2.3569270000    -1.3678910000
| 17>  C        4.3309090000     3.0294820000    -1.3682540000
| 18>  O        4.5241590000     4.1315940000    -0.9325110000
| 19>  H       -0.2019760000    -0.2528980000    -0.0537020000
| 20>  H        0.4120210000     0.0642910000    -1.7622390000
| 21>  H        1.9332590000     0.3984500000     0.8862780000
| 22>  H        3.8819430000     0.4369350000    -0.7051900000
| 23>  H        1.8947520000     1.2709690000    -2.6825110000
| 24>  H        2.1621960000     2.9784690000    -1.1102010000
| 25>  H        5.1503350000     2.4167020000    -1.8029800000
| 26> *
| 27>
| 28>                          ****END OF INPUT****
 Total Charge           Charge          ....    0
 Multiplicity           Mult            ....    1
 Number of Electrons    NEL             ....   52
 Basis Dimension        Dim             ....  133

MULLIKEN ATOMIC CHARGES
-----------------------
   0 C :   -0.054786
   1 C :    0.001106
   2 C :   -0.002844
   3 N :   -0.139238
   4 C :   -0.096483
   5 C :    0.197667
   6 O :   -0.155211
   7 H :    0.038389
   8 H :    0.023127
   9 H :    0.021028
  10 H :    0.035638
  11 H :    0.115946
  12 H :    0.033060
  13 H :   -0.017400
Sum of atomic charges:   -0.0000000

LOEWDIN ATOMIC CHARGES
----------------------
   0 C :   -0.057611
   1 C :   -0.035644
   2 C :    0.011576
   3 N :   -0.068674
   4 C :   -0.026516
   5 C :    0.081767
   6 O :   -0.106251
   7 H :    0.032282
   8 H :    0.020123
   9 H :    0.037477
  10 H :    0.031539
  11 H :    0.060101
  12 H :    0.027974
  13 H :   -0.008144

  Mayer bond orders larger than 0.1
B(  0-C ,  1-C ) :   1.9733 B(  0-C ,  7-H ) :   0.9426 B(  0-C ,  8-H ) :   0.9454
B(  1-C ,  2-C ) :   1.0472 B(  1-C ,  9-H ) :   0.9501 B(  2-C ,  3-N ) :   1.0260
B(  2-C ,  4-C ) :   0.9080 B(  2-C , 10-H ) :   0.9144 B(  3-N ,  4-C ) :   0.9416
B(  3-N , 11-H ) :   0.9318 B(  4-C ,  5-C ) :   0.9714 B(  4-C , 12-H ) :   0.9448
B(  5-C ,  6-O ) :   2.1732 B(  5-C , 13-H ) :   0.9150

FINAL SINGLE POINT ENERGY      -324.006504053346

DIPOLE MOMENT
-------------
                                X             Y             Z
Electronic contribution:      3.77687       3.99231      -0.54279
Nuclear contribution   :     -4.61104      -4.82869       0.67146
                        -----------------------------------------
Total Dipole Moment    :     -0.83417      -0.83638       0.12866
                        -----------------------------------------
Magnitude (a.u.)       :      1.18824
Magnitude (Debye)      :      3.02027

                             ****ORCA TERMINATED NORMALLY****
TOTAL RUN TIME: 0 days 0 hours 0 minutes 5 seconds 954 msec
