                         Program Version 3.0.3 - RELEASE   -
|  1> ! RI PBE def2-SVP def2-SVP/J NBO PAL2
|  2> % maxcore 2000
|  3> % output
|  4>     # printlevel mini
|  5>     print[ P_Basis ] 0
|  6>     print[ P_SCFInfo ] 1
|  7>     print[ P_SCFIterInfo ] 1
|  8>     print[ P_OrbEn ] 0
|  9>     print[ P_Cartesian ] 0
| 10> end
| 11> *xyz 0 1
| 12>  C        3.3875990000    -0.8683050000     0.6696390000
| 13>  C        2.3233690000    -0.0615120000    -0.0573650000
| 14>  C        2.9076600000     0.9741940000    -0.9763250000
| 15>  N        2.1346320000     2.1013230000    -1.4402410000
| 16>  C        3.1955350000     2.3407280000    -0.4530370000
| 17>  C        4.3694880000     3.0820380000    -0.9587500000
| 18>  O        5.1345740000     3.6915560000    -0.2612530000
| 19>  H        2.9352060000    -1.6228380000     1.3160080000
| 20>  H        4.0152580000    -0.2243990000     1.2900490000
| 21>  H        4.0400130000    -1.3866620000    -0.0375750000
| 22>  H        1.6668340000     0.4359240000     0.6658940000
| 23>  H        1.6869280000    -0.7318280000    -0.6463200000
| 24>  H        3.5856180000     0.5830750000    -1.7334830000
| 25>  H        1.2308710000     2.1324420000    -0.9786870000
| 26>  H        2.9315620000     2.5378490000     0.5819080000
| 27>  H        4.5013750000     3.0208180000    -2.0608700000
| 28> *
| 29>
| 30>                          ****END OF INPUT****
 Total Charge           Charge          ....    0
 Multiplicity           Mult            ....    1
 Number of Electrons    NEL             ....   54
 Basis Dimension        Dim             ....  143

MULLIKEN ATOMIC CHARGES
-----------------------
   0 C :   -0.023287
   1 C :    0.043691
   2 C :   -0.070831
   3 N :   -0.138268
   4 C :   -0.102576
   5 C :    0.196545
   6 O :   -0.160167
   7 H :    0.028327
   8 H :    0.032122
   9 H :    0.028143
  10 H :   -0.002592
  11 H :    0.032598
  12 H :    0.027190
  13 H :    0.111877
  14 H :    0.018987
  15 H :   -0.021759
Sum of atomic charges:    0.0000000

LOEWDIN ATOMIC CHARGES
----------------------
   0 C :   -0.062366
   1 C :   -0.048074
   2 C :    0.010783
   3 N :   -0.077239
   4 C :   -0.039908
   5 C :    0.083571
   6 O :   -0.111870
   7 H :    0.030696
   8 H :    0.030191
   9 H :    0.029596
  10 H :    0.024782
  11 H :    0.033801
  12 H :    0.023036
  13 H :    0.059496
  14 H :    0.023183
  15 H :   -0.009680

  Mayer bond orders larger than 0.1
B(  0-C ,  1-C ) :   1.1058 B(  0-C ,  7-H ) :   0.9583 B(  0-C ,  8-H ) :   0.9692
B(  0-C ,  9-H ) :   0.9667 B(  1-C ,  2-C ) :   1.0606 B(  1-C , 10-H ) :   0.9131
B(  1-C , 11-H ) :   0.9293 B(  2-C ,  3-N ) :   0.9946 B(  2-C ,  4-C ) :   0.9282
B(  2-C , 12-H ) :   0.9270 B(  3-N ,  4-C ) :   0.9530 B(  3-N , 13-H ) :   0.9352
B(  4-C ,  5-C ) :   0.9773 B(  4-C , 14-H ) :   0.9377 B(  5-C ,  6-O ) :   2.1742
B(  5-C , 15-H ) :   0.9169

FINAL SINGLE POINT ENERGY      -325.231524285907

DIPOLE MOMENT
-------------
                                X             Y             Z
Electronic contribution:      2.54088       8.03221      -2.29543
Nuclear contribution   :     -3.41415      -9.05314       2.52256
                        -----------------------------------------
Total Dipole Moment    :     -0.87327      -1.02093       0.22713
                        -----------------------------------------
Magnitude (a.u.)       :      1.36253
Magnitude (Debye)      :      3.46328

                             ****ORCA TERMINATED NORMALLY****
TOTAL RUN TIME: 0 days 0 hours 0 minutes 7 seconds 56 msec
