                         Program Version 3.0.3 - RELEASE   -
|  1> ! RI PBE def2-SVP def2-SVP/J NBO PAL2
|  2> % maxcore 2000
|  3> % output
|  4>     # printlevel mini
|  5>     print[ P_Basis ] 0
|  6>     print[ P_SCFInfo ] 1
|  7>     print[ P_SCFIterInfo ] 1
|  8>     print[ P_OrbEn ] 0
|  9>     print[ P_Cartesian ] 0
| 10> end
| 11> *xyz 0 1
| 12>  C        1.3004690000    -0.4634510000     0.3525310000
| 13>  C        2.6645810000     0.1413540000     0.0618130000
| 14>  C        3.1376110000    -0.1466530000    -1.3412720000
| 15>  N        4.4755720000     0.3732680000    -1.7276350000
| 16>  C        4.7744490000    -0.9065300000    -2.4155360000
| 17>  C        3.5815300000    -1.5738580000    -1.7178060000
| 18>  O        2.7310370000    -2.4318660000    -2.4186230000
| 19>  H        0.9946240000    -0.2723260000     1.3831140000
| 20>  H        1.3062970000    -1.5452190000     0.1979600000
| 21>  H        0.5355640000    -0.0420690000    -0.3050300000
| 22>  H        3.4054050000    -0.2510070000     0.7703010000
| 23>  H        2.6357450000     1.2265960000     0.2114780000
| 24>  H        2.3934970000     0.2219220000    -2.0636930000
| 25>  H        5.0534620000     0.4638650000    -0.8990850000
| 26>  H        5.7695080000    -1.3234310000    -2.2461880000
| 27>  H        4.6204700000    -0.8066270000    -3.4968110000
| 28>  H        3.8990030000    -2.1240770000    -0.8267140000
| 29>  H        2.4366040000    -1.9810820000    -3.2155120000
| 30> *
| 31>
| 32>                          ****END OF INPUT****
 Total Charge           Charge          ....    0
 Multiplicity           Mult            ....    1
 Number of Electrons    NEL             ....   56
 Basis Dimension        Dim             ....  153

MULLIKEN ATOMIC CHARGES
-----------------------
   0 C :   -0.026689
   1 C :    0.021902
   2 C :   -0.022206
   3 N :   -0.236996
   4 C :    0.152037
   5 C :    0.026494
   6 O :   -0.240972
   7 H :    0.021148
   8 H :    0.036690
   9 H :    0.020136
  10 H :   -0.008567
  11 H :    0.026399
  12 H :   -0.017200
  13 H :    0.090904
  14 H :    0.011923
  15 H :   -0.001196
  16 H :   -0.008157
  17 H :    0.154351
Sum of atomic charges:   -0.0000000

LOEWDIN ATOMIC CHARGES
----------------------
   0 C :   -0.064539
   1 C :   -0.053823
   2 C :   -0.003605
   3 N :   -0.113796
   4 C :    0.008833
   5 C :    0.024676
   6 O :   -0.099842
   7 H :    0.027897
   8 H :    0.030228
   9 H :    0.026792
  10 H :    0.017684
  11 H :    0.029392
  12 H :    0.011640
  13 H :    0.047059
  14 H :    0.013037
  15 H :    0.012765
  16 H :    0.019045
  17 H :    0.066555

  Mayer bond orders larger than 0.1
B(  0-C ,  1-C ) :   1.1152 B(  0-C ,  7-H ) :   0.9586 B(  0-C ,  8-H ) :   0.9669
B(  0-C ,  9-H ) :   0.9622 B(  1-C ,  2-C ) :   1.0904 B(  1-C , 10-H ) :   0.9059
B(  1-C , 11-H ) :   0.9311 B(  2-C ,  3-N ) :   1.0651 B(  2-C ,  5-C ) :   0.9955
B(  2-C , 12-H ) :   0.8809 B(  3-N ,  4-C ) :   1.0617 B(  3-N , 13-H ) :   0.9356
B(  4-C ,  5-C ) :   1.0611 B(  4-C , 14-H ) :   0.9342 B(  4-C , 15-H ) :   0.9120
B(  5-C ,  6-O ) :   1.1027 B(  5-C , 16-H ) :   0.8755 B(  6-O , 17-H ) :   0.9743

FINAL SINGLE POINT ENERGY      -326.427718548232

DIPOLE MOMENT
-------------
                                X             Y             Z
Electronic contribution:      2.22150      -1.57730      -3.65422
Nuclear contribution   :     -2.19007       1.65737       3.83690
                        -----------------------------------------
Total Dipole Moment    :      0.03143       0.08007       0.18268
                        -----------------------------------------
Magnitude (a.u.)       :      0.20192
Magnitude (Debye)      :      0.51324

                             ****ORCA TERMINATED NORMALLY****
TOTAL RUN TIME: 0 days 0 hours 0 minutes 7 seconds 967 msec
