                         Program Version 3.0.3 - RELEASE   -
|  1> ! RI PBE def2-SVP def2-SVP/J NBO PAL2
|  2> % maxcore 2000
|  3> % output
|  4>     # printlevel mini
|  5>     print[ P_Basis ] 0
|  6>     print[ P_SCFInfo ] 1
|  7>     print[ P_SCFIterInfo ] 1
|  8>     print[ P_OrbEn ] 0
|  9>     print[ P_Cartesian ] 0
| 10> end
| 11> *xyz 0 1
| 12>  C        1.5441560000     0.6080950000     0.5113540000
| 13>  C        2.7574620000     0.2552660000     0.1091950000
| 14>  C        3.1391870000     0.0477580000    -1.3133410000
| 15>  N        4.3802200000     0.7216160000    -1.7694600000
| 16>  C        5.1484940000    -0.5353290000    -1.8525760000
| 17>  C        3.8524700000    -1.2903490000    -1.5978590000
| 18>  O        3.5160320000    -2.4294930000    -1.6189980000
| 19>  H        1.3102250000     0.7366610000     1.5615690000
| 20>  H        0.7406880000     0.7746880000    -0.1987960000
| 21>  H        3.5447030000     0.0961910000     0.8449670000
| 22>  H        2.2822940000     0.2318630000    -1.9706790000
| 23>  H        4.7419990000     1.3946920000    -1.1071150000
| 24>  H        5.8815600000    -0.7061340000    -1.0538230000
| 25>  H        5.6307890000    -0.7195260000    -2.8168260000
| 26> *
| 27>
| 28>                          ****END OF INPUT****
 Total Charge           Charge          ....    0
 Multiplicity           Mult            ....    1
 Number of Electrons    NEL             ....   52
 Basis Dimension        Dim             ....  133

MULLIKEN ATOMIC CHARGES
-----------------------
   0 C :   -0.019646
   1 C :    0.022526
   2 C :   -0.032239
   3 N :   -0.221891
   4 C :    0.114840
   5 C :   -0.022203
   6 O :   -0.101531
   7 H :    0.027764
   8 H :    0.027804
   9 H :   -0.007574
  10 H :    0.025037
  11 H :    0.098477
  12 H :    0.043238
  13 H :    0.045397
Sum of atomic charges:   -0.0000000

LOEWDIN ATOMIC CHARGES
----------------------
   0 C :   -0.043364
   1 C :   -0.043207
   2 C :   -0.016513
   3 N :   -0.098800
   4 C :   -0.006227
   5 C :    0.057685
   6 O :   -0.076982
   7 H :    0.028731
   8 H :    0.026762
   9 H :    0.025242
  10 H :    0.033057
  11 H :    0.050585
  12 H :    0.031015
  13 H :    0.032015

  Mayer bond orders larger than 0.1
B(  0-C ,  1-C ) :   1.9700 B(  0-C ,  7-H ) :   0.9343 B(  0-C ,  8-H ) :   0.9540
B(  1-C ,  2-C ) :   1.0347 B(  1-C ,  9-H ) :   0.9400 B(  2-C ,  3-N ) :   1.0562
B(  2-C ,  4-C ) :  -0.1027 B(  2-C ,  5-C ) :   0.8748 B(  2-C , 10-H ) :   0.8933
B(  3-N ,  4-C ) :   1.0529 B(  3-N , 11-H ) :   0.9292 B(  4-C ,  5-C ) :   0.9470
B(  4-C , 12-H ) :   0.9142 B(  4-C , 13-H ) :   0.9160 B(  5-C ,  6-O ) :   2.2746

FINAL SINGLE POINT ENERGY      -324.014096641959

DIPOLE MOMENT
-------------
                                X             Y             Z
Electronic contribution:      0.65508      -3.53460      -2.18228
Nuclear contribution   :     -0.30632       4.23707       2.65655
                        -----------------------------------------
Total Dipole Moment    :      0.34876       0.70247       0.47427
                        -----------------------------------------
Magnitude (a.u.)       :      0.91653
Magnitude (Debye)      :      2.32964

                             ****ORCA TERMINATED NORMALLY****
TOTAL RUN TIME: 0 days 0 hours 0 minutes 6 seconds 632 msec
