                         Program Version 3.0.3 - RELEASE   -
|  1> ! RI PBE def2-SVP def2-SVP/J NBO PAL2
|  2> % maxcore 2000
|  3> % output
|  4>     # printlevel mini
|  5>     print[ P_Basis ] 0
|  6>     print[ P_SCFInfo ] 1
|  7>     print[ P_SCFIterInfo ] 1
|  8>     print[ P_OrbEn ] 0
|  9>     print[ P_Cartesian ] 0
| 10> end
| 11> *xyz 0 1
| 12>  C        0.7610490000     0.0862170000    -0.0167040000
| 13>  C        2.2796390000     0.1269770000    -0.0408390000
| 14>  C        2.9400980000     0.0618400000    -1.4008290000
| 15>  N        4.3740710000     0.2131370000    -1.4110180000
| 16>  C        2.4195410000    -0.8484550000    -2.4841090000
| 17>  C        2.3116390000     0.6410500000    -2.6409990000
| 18>  O        3.1249770000     1.3055380000    -3.5398530000
| 19>  H        0.3977280000     0.1364830000     1.0117710000
| 20>  H        0.3710650000    -0.8357040000    -0.4539290000
| 21>  H        0.3234540000     0.9277790000    -0.5580430000
| 22>  H        2.6730100000    -0.6995370000     0.5652420000
| 23>  H        2.6175740000     1.0491710000     0.4499650000
| 24>  H        4.8431600000    -0.6406930000    -1.1360610000
| 25>  H        4.6628750000     0.9458080000    -0.7730750000
| 26>  H        1.5205840000    -1.4211580000    -2.2917080000
| 27>  H        3.1573910000    -1.3456520000    -3.1033070000
| 28>  H        1.3274540000     1.0889450000    -2.5727000000
| 29>  H        4.0277810000     1.1203740000    -3.2313830000
| 30> *
| 31>
| 32>                          ****END OF INPUT****
 Total Charge           Charge          ....    0
 Multiplicity           Mult            ....    1
 Number of Electrons    NEL             ....   56
 Basis Dimension        Dim             ....  153

MULLIKEN ATOMIC CHARGES
-----------------------
   0 C :   -0.042865
   1 C :    0.103402
   2 C :   -0.245968
   3 N :   -0.146112
   4 C :   -0.004856
   5 C :    0.102577
   6 O :   -0.229184
   7 H :    0.018096
   8 H :    0.024413
   9 H :    0.030400
  10 H :   -0.000678
  11 H :    0.001477
  12 H :    0.104152
  13 H :    0.096369
  14 H :    0.024989
  15 H :    0.021392
  16 H :    0.011545
  17 H :    0.130851
Sum of atomic charges:   -0.0000000

LOEWDIN ATOMIC CHARGES
----------------------
   0 C :   -0.066010
   1 C :   -0.045814
   2 C :   -0.054286
   3 N :   -0.055182
   4 C :   -0.069468
   5 C :    0.038189
   6 O :   -0.100239
   7 H :    0.030397
   8 H :    0.025678
   9 H :    0.026776
  10 H :    0.021441
  11 H :    0.022744
  12 H :    0.058734
  13 H :    0.056826
  14 H :    0.023857
  15 H :    0.028300
  16 H :    0.014490
  17 H :    0.043566

  Mayer bond orders larger than 0.1
B(  0-C ,  1-C ) :   1.1162 B(  0-C ,  7-H ) :   0.9534 B(  0-C ,  8-H ) :   0.9623
B(  0-C ,  9-H ) :   0.9596 B(  1-C ,  2-C ) :   1.0248 B(  1-C , 10-H ) :   0.9188
B(  1-C , 11-H ) :   0.9203 B(  2-C ,  3-N ) :   1.1381 B(  2-C ,  4-C ) :   0.9634
B(  2-C ,  5-C ) :   0.8875 B(  3-N , 12-H ) :   0.9625 B(  3-N , 13-H ) :   0.9635
B(  3-N , 17-H ) :   0.1276 B(  4-C ,  5-C ) :   0.9424 B(  4-C , 14-H ) :   0.9305
B(  4-C , 15-H ) :   0.9226 B(  5-C ,  6-O ) :   1.1742 B(  5-C , 16-H ) :   0.9508
B(  6-O , 17-H ) :   0.9346

FINAL SINGLE POINT ENERGY      -326.436783663799

DIPOLE MOMENT
-------------
                                X             Y             Z
Electronic contribution:      3.09241       1.83196      -4.65738
Nuclear contribution   :     -2.80843      -2.23091       5.73405
                        -----------------------------------------
Total Dipole Moment    :      0.28398      -0.39895       1.07667
                        -----------------------------------------
Magnitude (a.u.)       :      1.18281
Magnitude (Debye)      :      3.00646

                             ****ORCA TERMINATED NORMALLY****
TOTAL RUN TIME: 0 days 0 hours 0 minutes 8 seconds 66 msec
