                         Program Version 3.0.3 - RELEASE   -
|  1> ! RI PBE def2-SVP def2-SVP/J NBO PAL2
|  2> % maxcore 2000
|  3> % output
|  4>     # printlevel mini
|  5>     print[ P_Basis ] 0
|  6>     print[ P_SCFInfo ] 1
|  7>     print[ P_SCFIterInfo ] 1
|  8>     print[ P_OrbEn ] 0
|  9>     print[ P_Cartesian ] 0
| 10> end
| 11> *xyz 0 1
| 12>  C        3.1371740000     0.1862210000    -1.1834980000
| 13>  C        2.3140820000    -0.1119950000     0.0585630000
| 14>  C        3.0669870000    -0.9660580000     1.0669650000
| 15>  N        2.3332160000    -1.3525600000     2.2956350000
| 16>  C        2.2509720000    -2.7739520000     1.9007910000
| 17>  C        3.1475500000    -2.4509150000     0.7127510000
| 18>  O        3.6779020000    -3.0878380000    -0.1432910000
| 19>  H        2.5656870000     0.7834790000    -1.8966910000
| 20>  H        3.4445750000    -0.7356670000    -1.6812020000
| 21>  H        4.0417760000     0.7447210000    -0.9295040000
| 22>  H        1.3819360000    -0.6189800000    -0.2183070000
| 23>  H        2.0261370000     0.8222580000     0.5543560000
| 24>  H        4.0423160000    -0.5134380000     1.2846540000
| 25>  H        1.4309200000    -0.9020810000     2.3744040000
| 26>  H        1.2614930000    -3.1349020000     1.5954760000
| 27>  H        2.6704570000    -3.4745940000     2.6285990000
| 28> *
| 29>
| 30>                          ****END OF INPUT****
 Total Charge           Charge          ....    0
 Multiplicity           Mult            ....    1
 Number of Electrons    NEL             ....   54
 Basis Dimension        Dim             ....  143

MULLIKEN ATOMIC CHARGES
-----------------------
   0 C :   -0.033076
   1 C :    0.041390
   2 C :   -0.073508
   3 N :   -0.226387
   4 C :    0.117191
   5 C :   -0.032932
   6 O :   -0.118967
   7 H :    0.028216
   8 H :    0.040319
   9 H :    0.026703
  10 H :   -0.004714
  11 H :    0.025309
  12 H :    0.031093
  13 H :    0.094161
  14 H :    0.037712
  15 H :    0.047489
Sum of atomic charges:   -0.0000000

LOEWDIN ATOMIC CHARGES
----------------------
   0 C :   -0.065089
   1 C :   -0.044400
   2 C :   -0.019732
   3 N :   -0.105971
   4 C :   -0.005857
   5 C :    0.052003
   6 O :   -0.090483
   7 H :    0.030498
   8 H :    0.032137
   9 H :    0.028370
  10 H :    0.022123
  11 H :    0.028874
  12 H :    0.027939
  13 H :    0.048060
  14 H :    0.028856
  15 H :    0.032672

  Mayer bond orders larger than 0.1
B(  0-C ,  1-C ) :   1.1121 B(  0-C ,  7-H ) :   0.9564 B(  0-C ,  8-H ) :   0.9624
B(  0-C ,  9-H ) :   0.9642 B(  1-C ,  2-C ) :   1.0583 B(  1-C , 10-H ) :   0.9165
B(  1-C , 11-H ) :   0.9304 B(  2-C ,  3-N ) :   1.0699 B(  2-C ,  4-C ) :  -0.1044
B(  2-C ,  5-C ) :   0.9061 B(  2-C , 12-H ) :   0.8923 B(  3-N ,  4-C ) :   1.0593
B(  3-N , 13-H ) :   0.9336 B(  4-C ,  5-C ) :   0.9720 B(  4-C , 14-H ) :   0.9181
B(  4-C , 15-H ) :   0.9145 B(  5-C ,  6-O ) :   2.2303

FINAL SINGLE POINT ENERGY      -325.239236815665

DIPOLE MOMENT
-------------
                                X             Y             Z
Electronic contribution:      1.80265      -5.51592       2.15700
Nuclear contribution   :     -2.53463       6.06526      -1.99695
                        -----------------------------------------
Total Dipole Moment    :     -0.73198       0.54934       0.16005
                        -----------------------------------------
Magnitude (a.u.)       :      0.92908
Magnitude (Debye)      :      2.36153

                             ****ORCA TERMINATED NORMALLY****
TOTAL RUN TIME: 0 days 0 hours 0 minutes 7 seconds 718 msec
