                         Program Version 3.0.3 - RELEASE   -
|  1> ! RI PBE def2-SVP def2-SVP/J NBO PAL2
|  2> % maxcore 2000
|  3> % output
|  4>     # printlevel mini
|  5>     print[ P_Basis ] 0
|  6>     print[ P_SCFInfo ] 1
|  7>     print[ P_SCFIterInfo ] 1
|  8>     print[ P_OrbEn ] 0
|  9>     print[ P_Cartesian ] 0
| 10> end
| 11> *xyz 0 1
| 12>  C        0.9637190000     0.1408350000     0.0857430000
| 13>  C        2.4731580000     0.0416470000    -0.1133720000
| 14>  C        2.9942420000    -1.3361250000     0.0465640000
| 15>  N        3.5343480000    -2.1004060000    -0.8420070000
| 16>  C        3.8249530000    -3.2720800000    -0.1703430000
| 17>  C        3.4360550000    -3.1497630000     1.1131280000
| 18>  O        2.8998630000    -1.9101100000     1.2673170000
| 19>  H        0.6304660000     1.1728200000    -0.0390080000
| 20>  H        0.6763890000    -0.1888140000     1.0857640000
| 21>  H        0.4334330000    -0.4777520000    -0.6410760000
| 22>  H        2.9838450000     0.6981300000     0.5987970000
| 23>  H        2.7537460000     0.3673800000    -1.1156920000
| 24>  H        4.2910580000    -4.1123090000    -0.6594400000
| 25>  H        3.4610150000    -3.7843730000     1.9820340000
| 26> *
| 27>
| 28>                          ****END OF INPUT****
 Total Charge           Charge          ....    0
 Multiplicity           Mult            ....    1
 Number of Electrons    NEL             ....   52
 Basis Dimension        Dim             ....  133

MULLIKEN ATOMIC CHARGES
-----------------------
   0 C :   -0.039747
   1 C :    0.091344
   2 C :   -0.044948
   3 N :   -0.114984
   4 C :    0.014048
   5 C :    0.097127
   6 O :   -0.169133
   7 H :    0.026360
   8 H :    0.031858
   9 H :    0.035216
  10 H :    0.030991
  11 H :    0.024417
  12 H :    0.003729
  13 H :    0.013722
Sum of atomic charges:   -0.0000000

LOEWDIN ATOMIC CHARGES
----------------------
   0 C :   -0.057663
   1 C :   -0.049671
   2 C :    0.015430
   3 N :   -0.106161
   4 C :   -0.047887
   5 C :   -0.002468
   6 O :    0.023842
   7 H :    0.029532
   8 H :    0.028166
   9 H :    0.031344
  10 H :    0.041961
  11 H :    0.045227
  12 H :    0.024575
  13 H :    0.023773

  Mayer bond orders larger than 0.1
B(  0-C ,  1-C ) :   1.1116 B(  0-C ,  7-H ) :   0.9633 B(  0-C ,  8-H ) :   0.9686
B(  0-C ,  9-H ) :   0.9680 B(  1-C ,  2-C ) :   1.0666 B(  1-C , 10-H ) :   0.9065
B(  1-C , 11-H ) :   0.9122 B(  2-C ,  3-N ) :   1.7457 B(  2-C ,  6-O ) :   1.1719
B(  3-N ,  4-C ) :   1.2989 B(  4-C ,  5-C ) :   1.5860 B(  4-C , 12-H ) :   0.9847
B(  5-C ,  6-O ) :   1.1217 B(  5-C , 13-H ) :   0.9863

FINAL SINGLE POINT ENERGY      -324.077168228128

DIPOLE MOMENT
-------------
                                X             Y             Z
Electronic contribution:      4.15301      -4.65211       0.79843
Nuclear contribution   :     -4.35081       4.69914      -0.29109
                        -----------------------------------------
Total Dipole Moment    :     -0.19781       0.04703       0.50734
                        -----------------------------------------
Magnitude (a.u.)       :      0.54657
Magnitude (Debye)      :      1.38926

                             ****ORCA TERMINATED NORMALLY****
TOTAL RUN TIME: 0 days 0 hours 0 minutes 6 seconds 435 msec
