                         Program Version 3.0.3 - RELEASE   -
|  1> ! RI PBE def2-SVP def2-SVP/J NBO PAL2
|  2> % maxcore 2000
|  3> % output
|  4>     # printlevel mini
|  5>     print[ P_Basis ] 0
|  6>     print[ P_SCFInfo ] 1
|  7>     print[ P_SCFIterInfo ] 1
|  8>     print[ P_OrbEn ] 0
|  9>     print[ P_Cartesian ] 0
| 10> end
| 11> *xyz 0 1
| 12>  C        1.0324680000     0.0119550000    -0.1112660000
| 13>  C        2.3065780000     0.0447240000     0.2698900000
| 14>  C        3.0702630000    -1.0998170000     0.7048810000
| 15>  N        4.3108440000    -1.1101440000     1.0836020000
| 16>  C        4.5716190000    -2.4234030000     1.3955200000
| 17>  C        3.4561720000    -3.1546100000     1.1866950000
| 18>  O        2.4857530000    -2.3182480000     0.7434900000
| 19>  H        0.5243410000     0.9145610000    -0.4256920000
| 20>  H        0.4648920000    -0.9111160000    -0.1199030000
| 21>  H        2.8702410000     0.9706670000     0.2768440000
| 22>  H        5.5373900000    -2.7498650000     1.7466570000
| 23>  H        3.1957380000    -4.1937050000     1.2919830000
| 24> *
| 25>
| 26>                          ****END OF INPUT****
 Total Charge           Charge          ....    0
 Multiplicity           Mult            ....    1
 Number of Electrons    NEL             ....   50
 Basis Dimension        Dim             ....  123

MULLIKEN ATOMIC CHARGES
-----------------------
   0 C :   -0.006543
   1 C :   -0.006089
   2 C :    0.051403
   3 N :   -0.112711
   4 C :    0.018644
   5 C :    0.109646
   6 O :   -0.160904
   7 H :    0.033508
   8 H :    0.035834
   9 H :    0.012048
  10 H :    0.006977
  11 H :    0.018187
Sum of atomic charges:   -0.0000000

LOEWDIN ATOMIC CHARGES
----------------------
   0 C :   -0.029609
   1 C :   -0.043859
   2 C :    0.009148
   3 N :   -0.093218
   4 C :   -0.043054
   5 C :    0.009786
   6 O :    0.033146
   7 H :    0.031189
   8 H :    0.028797
   9 H :    0.045033
  10 H :    0.026448
  11 H :    0.026194

  Mayer bond orders larger than 0.1
B(  0-C ,  1-C ) :   1.8951 B(  0-C ,  7-H ) :   0.9337 B(  0-C ,  8-H ) :   0.9478
B(  1-C ,  2-C ) :   1.1215 B(  1-C ,  9-H ) :   0.9483 B(  2-C ,  3-N ) :   1.6670
B(  2-C ,  6-O ) :   1.1799 B(  3-N ,  4-C ) :   1.3258 B(  4-C ,  5-C ) :   1.5539
B(  4-C , 10-H ) :   0.9846 B(  5-C ,  6-O ) :   1.1314 B(  5-C , 11-H ) :   0.9858

FINAL SINGLE POINT ENERGY      -322.858279399840

DIPOLE MOMENT
-------------
                                X             Y             Z
Electronic contribution:      1.95482      -1.66667       0.89191
Nuclear contribution   :     -2.30581       1.20461      -0.91411
                        -----------------------------------------
Total Dipole Moment    :     -0.35099      -0.46205      -0.02220
                        -----------------------------------------
Magnitude (a.u.)       :      0.58067
Magnitude (Debye)      :      1.47595

                             ****ORCA TERMINATED NORMALLY****
TOTAL RUN TIME: 0 days 0 hours 0 minutes 5 seconds 775 msec
