                         Program Version 3.0.3 - RELEASE   -
|  1> ! RI PBE def2-SVP def2-SVP/J NBO PAL2
|  2> % maxcore 2000
|  3> % output
|  4>     # printlevel mini
|  5>     print[ P_Basis ] 0
|  6>     print[ P_SCFInfo ] 1
|  7>     print[ P_SCFIterInfo ] 1
|  8>     print[ P_OrbEn ] 0
|  9>     print[ P_Cartesian ] 0
| 10> end
| 11> *xyz 0 1
| 12>  C        1.0987080000    -0.0491570000    -0.0456740000
| 13>  C        2.2975570000     0.0111620000    -0.0485860000
| 14>  C        3.7065920000     0.0796220000    -0.0520040000
| 15>  N        4.4587610000     1.1346270000    -0.0556510000
| 16>  C        5.7406240000     0.6424790000    -0.0577720000
| 17>  C        5.6961460000    -0.7082570000    -0.0552560000
| 18>  O        4.3972200000    -1.0846950000    -0.0515450000
| 19>  H        0.0350460000    -0.0963300000    -0.0431020000
| 20>  H        6.6017310000     1.2912210000    -0.0609470000
| 21>  H        6.4314240000    -1.4944710000    -0.0555740000
| 22> *
| 23>
| 24>                          ****END OF INPUT****
 Total Charge           Charge          ....    0
 Multiplicity           Mult            ....    1
 Number of Electrons    NEL             ....   48
 Basis Dimension        Dim             ....  113

MULLIKEN ATOMIC CHARGES
-----------------------
   0 C :   -0.456877
   1 C :    0.474311
   2 C :    0.040341
   3 N :   -0.102389
   4 C :    0.024040
   5 C :    0.114119
   6 O :   -0.146268
   7 H :    0.019444
   8 H :    0.010785
   9 H :    0.022494
Sum of atomic charges:   -0.0000000

LOEWDIN ATOMIC CHARGES
----------------------
   0 C :   -0.015650
   1 C :   -0.026903
   2 C :   -0.003668
   3 N :   -0.073662
   4 C :   -0.041387
   5 C :    0.014856
   6 O :    0.046436
   7 H :    0.041881
   8 H :    0.029022
   9 H :    0.029075

  Mayer bond orders larger than 0.1
B(  0-C ,  1-C ) :   2.2415 B(  0-C ,  7-H ) :   1.0888 B(  1-C ,  2-C ) :   0.9123
B(  1-C ,  7-H ) :  -0.1002 B(  2-C ,  3-N ) :   1.6782 B(  2-C ,  6-O ) :   1.1801
B(  3-N ,  4-C ) :   1.3279 B(  4-C ,  5-C ) :   1.5427 B(  4-C ,  8-H ) :   0.9822
B(  5-C ,  6-O ) :   1.1480 B(  5-C ,  9-H ) :   0.9844

FINAL SINGLE POINT ENERGY      -321.605327420867

DIPOLE MOMENT
-------------
                                X             Y             Z
Electronic contribution:     -0.86701      -0.31495       0.00263
Nuclear contribution   :      1.12272      -0.22832      -0.00222
                        -----------------------------------------
Total Dipole Moment    :      0.25571      -0.54327       0.00040
                        -----------------------------------------
Magnitude (a.u.)       :      0.60044
Magnitude (Debye)      :      1.52620

                             ****ORCA TERMINATED NORMALLY****
TOTAL RUN TIME: 0 days 0 hours 0 minutes 5 seconds 145 msec
