                         Program Version 3.0.3 - RELEASE   -
|  1> ! RI PBE def2-SVP def2-SVP/J NBO PAL2
|  2> % maxcore 2000
|  3> % output
|  4>     # printlevel mini
|  5>     print[ P_Basis ] 0
|  6>     print[ P_SCFInfo ] 1
|  7>     print[ P_SCFIterInfo ] 1
|  8>     print[ P_OrbEn ] 0
|  9>     print[ P_Cartesian ] 0
| 10> end
| 11> *xyz 0 1
| 12>  C        0.8670180000     0.1340120000     0.0029140000
| 13>  C        2.3793020000    -0.0714790000     0.0385940000
| 14>  C        2.8043050000    -0.9977540000     1.1137550000
| 15>  N        3.2813430000    -2.1977550000     1.0083690000
| 16>  C        3.4593850000    -2.5445550000     2.3165360000
| 17>  N        3.1221610000    -1.6369490000     3.1781980000
| 18>  O        2.6822160000    -0.5973580000     2.3798470000
| 19>  H        0.6008400000     0.8223450000    -0.8007550000
| 20>  H        0.5044860000     0.5522110000     0.9432490000
| 21>  H        0.3491230000    -0.8106410000    -0.1729640000
| 22>  H        2.8825510000     0.8883240000     0.1877130000
| 23>  H        2.7366060000    -0.4909400000    -0.9023180000
| 24>  H        3.8520650000    -3.4988600000     2.6355620000
| 25> *
| 26>
| 27>                          ****END OF INPUT****
 Total Charge           Charge          ....    0
 Multiplicity           Mult            ....    1
 Number of Electrons    NEL             ....   52
 Basis Dimension        Dim             ....  128

MULLIKEN ATOMIC CHARGES
-----------------------
   0 C :   -0.046740
   1 C :    0.084652
   2 C :    0.003389
   3 N :   -0.144542
   4 C :    0.059767
   5 N :   -0.019079
   6 O :   -0.152397
   7 H :    0.036799
   8 H :    0.044082
   9 H :    0.039438
  10 H :    0.039250
  11 H :    0.033869
  12 H :    0.021510
Sum of atomic charges:    0.0000000

LOEWDIN ATOMIC CHARGES
----------------------
   0 C :   -0.054368
   1 C :   -0.047458
   2 C :    0.024540
   3 N :   -0.118534
   4 C :   -0.023161
   5 N :   -0.041235
   6 O :    0.036063
   7 H :    0.033652
   8 H :    0.032748
   9 H :    0.033388
  10 H :    0.047570
  11 H :    0.048209
  12 H :    0.028587

  Mayer bond orders larger than 0.1
B(  0-C ,  1-C ) :   1.1117 B(  0-C ,  7-H ) :   0.9630 B(  0-C ,  8-H ) :   0.9684
B(  0-C ,  9-H ) :   0.9669 B(  1-C ,  2-C ) :   1.0699 B(  1-C , 10-H ) :   0.9028
B(  1-C , 11-H ) :   0.9138 B(  2-C ,  3-N ) :   1.6871 B(  2-C ,  5-N ) :   0.1009
B(  2-C ,  6-O ) :   1.2031 B(  3-N ,  4-C ) :   1.2999 B(  4-C ,  5-N ) :   1.7033
B(  4-C , 12-H ) :   0.9723 B(  5-N ,  6-O ) :   1.0008

FINAL SINGLE POINT ENERGY      -340.076018818040

DIPOLE MOMENT
-------------
                                X             Y             Z
Electronic contribution:      4.31648      -3.48656       5.59842
Nuclear contribution   :     -4.53725       3.79287      -6.25642
                        -----------------------------------------
Total Dipole Moment    :     -0.22077       0.30632      -0.65800
                        -----------------------------------------
Magnitude (a.u.)       :      0.75864
Magnitude (Debye)      :      1.92830

                             ****ORCA TERMINATED NORMALLY****
TOTAL RUN TIME: 0 days 0 hours 0 minutes 6 seconds 375 msec
