                         Program Version 3.0.3 - RELEASE   -
|  1> ! RI PBE def2-SVP def2-SVP/J NBO PAL2
|  2> % maxcore 2000
|  3> % output
|  4>     # printlevel mini
|  5>     print[ P_Basis ] 0
|  6>     print[ P_SCFInfo ] 1
|  7>     print[ P_SCFIterInfo ] 1
|  8>     print[ P_OrbEn ] 0
|  9>     print[ P_Cartesian ] 0
| 10> end
| 11> *xyz 0 1
| 12>  C        2.8473890000    -1.0210520000     0.4055930000
| 13>  C        2.2632820000     0.0725930000    -0.0735640000
| 14>  C        2.9148830000     1.0251650000    -0.9456270000
| 15>  N        2.3999030000     2.1090610000    -1.4456110000
| 16>  C        3.4402630000     2.6023370000    -2.1725010000
| 17>  N        4.5246810000     1.8900410000    -2.1365030000
| 18>  O        4.1824680000     0.8335230000    -1.3183330000
| 19>  H        2.3071800000    -1.6977950000     1.0554190000
| 20>  H        3.8741290000    -1.2701930000     0.1645440000
| 21>  H        1.2368070000     0.3232970000     0.1663640000
| 22>  H        3.3916150000     3.5166220000    -2.7453910000
| 23> *
| 24>
| 25>                          ****END OF INPUT****
 Total Charge           Charge          ....    0
 Multiplicity           Mult            ....    1
 Number of Electrons    NEL             ....   50
 Basis Dimension        Dim             ....  118

MULLIKEN ATOMIC CHARGES
-----------------------
   0 C :    0.004999
   1 C :   -0.004922
   2 C :    0.094787
   3 N :   -0.136932
   4 C :    0.060492
   5 N :   -0.011444
   6 O :   -0.150419
   7 H :    0.045226
   8 H :    0.049873
   9 H :    0.022174
  10 H :    0.026166
Sum of atomic charges:   -0.0000000

LOEWDIN ATOMIC CHARGES
----------------------
   0 C :   -0.002029
   1 C :   -0.043128
   2 C :    0.015881
   3 N :   -0.107119
   4 C :   -0.020620
   5 N :   -0.033367
   6 O :    0.040826
   7 H :    0.036045
   8 H :    0.035264
   9 H :    0.048078
  10 H :    0.030168

  Mayer bond orders larger than 0.1
B(  0-C ,  1-C ) :   1.8959 B(  0-C ,  7-H ) :   0.9376 B(  0-C ,  8-H ) :   0.9484
B(  1-C ,  2-C ) :   1.1143 B(  1-C ,  9-H ) :   0.9493 B(  2-C ,  3-N ) :   1.6292
B(  2-C ,  6-O ) :   1.2079 B(  3-N ,  4-C ) :   1.3194 B(  4-C ,  5-N ) :   1.6891
B(  4-C , 10-H ) :   0.9719 B(  5-N ,  6-O ) :   1.0060

FINAL SINGLE POINT ENERGY      -338.854999502980

DIPOLE MOMENT
-------------
                                X             Y             Z
Electronic contribution:      1.66688       2.79725      -2.46242
Nuclear contribution   :     -2.04781      -3.17461       2.85792
                        -----------------------------------------
Total Dipole Moment    :     -0.38093      -0.37736       0.39550
                        -----------------------------------------
Magnitude (a.u.)       :      0.66628
Magnitude (Debye)      :      1.69356

                             ****ORCA TERMINATED NORMALLY****
TOTAL RUN TIME: 0 days 0 hours 0 minutes 5 seconds 969 msec
