                         Program Version 3.0.3 - RELEASE   -
|  1> ! RI PBE def2-SVP def2-SVP/J NBO PAL2
|  2> % maxcore 2000
|  3> % output
|  4>     # printlevel mini
|  5>     print[ P_Basis ] 0
|  6>     print[ P_SCFInfo ] 1
|  7>     print[ P_SCFIterInfo ] 1
|  8>     print[ P_OrbEn ] 0
|  9>     print[ P_Cartesian ] 0
| 10> end
| 11> *xyz 0 1
| 12>  C        0.9239730000    -0.0542360000     0.0557830000
| 13>  C        2.1214250000     0.0103700000     0.0530320000
| 14>  C        3.5307230000     0.0788540000     0.0498130000
| 15>  N        4.2889670000     1.1317570000     0.0457330000
| 16>  C        5.5304800000     0.5722510000     0.0443310000
| 17>  N        5.5491420000    -0.7266150000     0.0473040000
| 18>  O        4.2196750000    -1.0691830000     0.0509820000
| 19>  H       -0.1400340000    -0.1064930000     0.0582140000
| 20>  H        6.4446490000     1.1471040000     0.0410170000
| 21> *
| 22>
| 23>                          ****END OF INPUT****
 Total Charge           Charge          ....    0
 Multiplicity           Mult            ....    1
 Number of Electrons    NEL             ....   48
 Basis Dimension        Dim             ....  108

MULLIKEN ATOMIC CHARGES
-----------------------
   0 C :   -0.429718
   1 C :    0.475385
   2 C :    0.088412
   3 N :   -0.129219
   4 C :    0.075158
   5 N :   -0.005130
   6 O :   -0.132735
   7 H :    0.030341
   8 H :    0.027506
Sum of atomic charges:   -0.0000000

LOEWDIN ATOMIC CHARGES
----------------------
   0 C :    0.013404
   1 C :   -0.026782
   2 C :    0.005580
   3 N :   -0.086220
   4 C :   -0.015649
   5 N :   -0.026280
   6 O :    0.056075
   7 H :    0.047064
   8 H :    0.032808

  Mayer bond orders larger than 0.1
B(  0-C ,  1-C ) :   2.2463 B(  0-C ,  7-H ) :   1.0853 B(  1-C ,  2-C ) :   0.9154
B(  2-C ,  3-N ) :   1.6443 B(  2-C ,  5-N ) :   0.1042 B(  2-C ,  6-O ) :   1.1988
B(  3-N ,  4-C ) :   1.3140 B(  4-C ,  5-N ) :   1.6759 B(  4-C ,  8-H ) :   0.9718
B(  5-N ,  6-O ) :   1.0191

FINAL SINGLE POINT ENERGY      -337.600855790206

DIPOLE MOMENT
-------------
                                X             Y             Z
Electronic contribution:      0.61159      -0.84840       0.00066
Nuclear contribution   :     -1.18874       1.02515       0.00021
                        -----------------------------------------
Total Dipole Moment    :     -0.57715       0.17675       0.00087
                        -----------------------------------------
Magnitude (a.u.)       :      0.60361
Magnitude (Debye)      :      1.53424

                             ****ORCA TERMINATED NORMALLY****
TOTAL RUN TIME: 0 days 0 hours 0 minutes 5 seconds 381 msec
