                         Program Version 3.0.3 - RELEASE   -
|  1> ! RI PBE def2-SVP def2-SVP/J NBO PAL2
|  2> % maxcore 2000
|  3> % output
|  4>     # printlevel mini
|  5>     print[ P_Basis ] 0
|  6>     print[ P_SCFInfo ] 1
|  7>     print[ P_SCFIterInfo ] 1
|  8>     print[ P_OrbEn ] 0
|  9>     print[ P_Cartesian ] 0
| 10> end
| 11> *xyz 0 1
| 12>  C        0.8190270000     0.3956380000    -0.2053720000
| 13>  C        2.2955260000     0.0682710000    -0.0472150000
| 14>  C        2.9578060000     0.4769270000     1.2681450000
| 15>  N        4.3649910000     0.1263780000     1.3327570000
| 16>  C        2.6659620000     1.9145770000     1.7270750000
| 17>  O        1.7639040000     1.4565740000     2.7415520000
| 18>  C        2.1767160000     0.0999420000     2.5371620000
| 19>  H        0.4577630000     0.0582370000    -1.1793150000
| 20>  H        0.6296840000     1.4689140000    -0.1389630000
| 21>  H        0.2089980000    -0.0918570000     0.5577770000
| 22>  H        2.8612020000     0.5405020000    -0.8607260000
| 23>  H        2.4425180000    -1.0128210000    -0.1673270000
| 24>  H        4.8664760000     0.5635990000     0.5662040000
| 25>  H        4.4787420000    -0.8745230000     1.2082120000
| 26>  H        2.1746200000     2.5813130000     1.0118630000
| 27>  H        3.5447870000     2.4085720000     2.1547840000
| 28>  H        1.3235340000    -0.5754000000     2.4210760000
| 29>  H        2.8266230000    -0.2551330000     3.3439100000
| 30> *
| 31>
| 32>                          ****END OF INPUT****
 Total Charge           Charge          ....    0
 Multiplicity           Mult            ....    1
 Number of Electrons    NEL             ....   56
 Basis Dimension        Dim             ....  153

MULLIKEN ATOMIC CHARGES
-----------------------
   0 C :   -0.017331
   1 C :    0.043996
   2 C :   -0.433303
   3 N :   -0.118695
   4 C :    0.334642
   5 O :   -0.369434
   6 C :    0.328371
   7 H :    0.016861
   8 H :    0.025829
   9 H :    0.028688
  10 H :   -0.000971
  11 H :    0.002447
  12 H :    0.086470
  13 H :    0.086373
  14 H :   -0.000129
  15 H :   -0.007507
  16 H :    0.001594
  17 H :   -0.007901
Sum of atomic charges:   -0.0000000

LOEWDIN ATOMIC CHARGES
----------------------
   0 C :   -0.067879
   1 C :   -0.053988
   2 C :   -0.044766
   3 N :   -0.084508
   4 C :    0.088916
   5 O :   -0.179768
   6 C :    0.088488
   7 H :    0.028762
   8 H :    0.027735
   9 H :    0.028467
  10 H :    0.020715
  11 H :    0.021005
  12 H :    0.051023
  13 H :    0.050807
  14 H :    0.003746
  15 H :    0.008770
  16 H :    0.003965
  17 H :    0.008511

  Mayer bond orders larger than 0.1
B(  0-C ,  1-C ) :   1.1075 B(  0-C ,  7-H ) :   0.9529 B(  0-C ,  8-H ) :   0.9589
B(  0-C ,  9-H ) :   0.9580 B(  1-C ,  2-C ) :   0.9970 B(  1-C , 10-H ) :   0.9209
B(  1-C , 11-H ) :   0.9253 B(  2-C ,  3-N ) :   1.0957 B(  2-C ,  4-C ) :   1.0571
B(  2-C ,  6-C ) :   1.0548 B(  3-N , 12-H ) :   0.9653 B(  3-N , 13-H ) :   0.9658
B(  4-C ,  5-O ) :   1.0313 B(  4-C , 14-H ) :   0.9285 B(  4-C , 15-H ) :   0.9054
B(  5-O ,  6-C ) :   1.0327 B(  6-C , 16-H ) :   0.9300 B(  6-C , 17-H ) :   0.9061

FINAL SINGLE POINT ENERGY      -326.424050060663

DIPOLE MOMENT
-------------
                                X             Y             Z
Electronic contribution:      1.24237       1.65926       4.47345
Nuclear contribution   :     -0.92832      -2.15162      -5.37998
                        -----------------------------------------
Total Dipole Moment    :      0.31405      -0.49235      -0.90653
                        -----------------------------------------
Magnitude (a.u.)       :      1.07835
Magnitude (Debye)      :      2.74094

                             ****ORCA TERMINATED NORMALLY****
TOTAL RUN TIME: 0 days 0 hours 0 minutes 7 seconds 741 msec
