                         Program Version 3.0.3 - RELEASE   -
|  1> ! RI PBE def2-SVP def2-SVP/J NBO PAL2
|  2> % maxcore 2000
|  3> % output
|  4>     # printlevel mini
|  5>     print[ P_Basis ] 0
|  6>     print[ P_SCFInfo ] 1
|  7>     print[ P_SCFIterInfo ] 1
|  8>     print[ P_OrbEn ] 0
|  9>     print[ P_Cartesian ] 0
| 10> end
| 11> *xyz 0 1
| 12>  C        0.9785250000    -0.0389040000     0.0727140000
| 13>  C        2.4820420000     0.2075030000     0.0388930000
| 14>  C        2.9377720000     0.7415650000    -1.2691550000
| 15>  N        3.5103860000     1.9025800000    -1.3947950000
| 16>  O        3.7611950000     2.0056850000    -2.7529720000
| 17>  C        3.3071420000     0.8869360000    -3.2964250000
| 18>  N        2.7878870000     0.0623040000    -2.4566050000
| 19>  H        0.6844110000    -0.4678840000     1.0321980000
| 20>  H        0.6812800000    -0.7302670000    -0.7174160000
| 21>  H        0.4263220000     0.8929980000    -0.0656220000
| 22>  H        3.0141300000    -0.7308960000     0.2233110000
| 23>  H        2.7821580000     0.9120120000     0.8166100000
| 24>  H        3.4146580000     0.7755880000    -4.3658270000
| 25> *
| 26>
| 27>                          ****END OF INPUT****
 Total Charge           Charge          ....    0
 Multiplicity           Mult            ....    1
 Number of Electrons    NEL             ....   52
 Basis Dimension        Dim             ....  128

MULLIKEN ATOMIC CHARGES
-----------------------
   0 C :   -0.042475
   1 C :    0.117589
   2 C :   -0.156783
   3 N :   -0.008508
   4 O :   -0.136914
   5 C :    0.182870
   6 N :   -0.146033
   7 H :    0.027406
   8 H :    0.044014
   9 H :    0.030855
  10 H :    0.033014
  11 H :    0.016934
  12 H :    0.038031
Sum of atomic charges:    0.0000000

LOEWDIN ATOMIC CHARGES
----------------------
   0 C :   -0.056582
   1 C :   -0.042028
   2 C :   -0.038895
   3 N :   -0.047887
   4 O :    0.043319
   5 C :    0.042899
   6 N :   -0.108941
   7 H :    0.030625
   8 H :    0.032285
   9 H :    0.030458
  10 H :    0.045322
  11 H :    0.040154
  12 H :    0.029268

  Mayer bond orders larger than 0.1
B(  0-C ,  1-C ) :   1.1131 B(  0-C ,  7-H ) :   0.9615 B(  0-C ,  8-H ) :   0.9679
B(  0-C ,  9-H ) :   0.9659 B(  1-C ,  2-C ) :   1.0778 B(  1-C , 10-H ) :   0.9036
B(  1-C , 11-H ) :   0.9051 B(  2-C ,  3-N ) :   1.7072 B(  2-C ,  6-N ) :   1.2919
B(  3-N ,  4-O ) :   0.9895 B(  3-N ,  5-C ) :   0.1024 B(  4-O ,  5-C ) :   1.2235
B(  5-C ,  6-N ) :   1.6858 B(  5-C , 12-H ) :   0.9698

FINAL SINGLE POINT ENERGY      -340.074893060085

DIPOLE MOMENT
-------------
                                X             Y             Z
Electronic contribution:      5.31696       3.71697      -6.09998
Nuclear contribution   :     -5.49925      -4.06632       5.96222
                        -----------------------------------------
Total Dipole Moment    :     -0.18230      -0.34935      -0.13777
                        -----------------------------------------
Magnitude (a.u.)       :      0.41744
Magnitude (Debye)      :      1.06105

                             ****ORCA TERMINATED NORMALLY****
TOTAL RUN TIME: 0 days 0 hours 0 minutes 5 seconds 891 msec
