                         Program Version 3.0.3 - RELEASE   -
|  1> ! RI PBE def2-SVP def2-SVP/J NBO PAL2
|  2> % maxcore 2000
|  3> % output
|  4>     # printlevel mini
|  5>     print[ P_Basis ] 0
|  6>     print[ P_SCFInfo ] 1
|  7>     print[ P_SCFIterInfo ] 1
|  8>     print[ P_OrbEn ] 0
|  9>     print[ P_Cartesian ] 0
| 10> end
| 11> *xyz 0 1
| 12>  C        1.3585400000    -0.1909450000     0.7853140000
| 13>  C        2.3025450000     0.0934350000    -0.1043660000
| 14>  C        2.9557500000    -0.9199440000    -0.9115620000
| 15>  N        3.8817980000    -0.6141450000    -1.7799000000
| 16>  O        4.2389750000    -1.8294260000    -2.3257790000
| 17>  C        3.4855080000    -2.7418910000    -1.7245780000
| 18>  N        2.6762030000    -2.2668220000    -0.8477830000
| 19>  H        0.8908960000     0.5898440000     1.3719280000
| 20>  H        1.0333170000    -1.2122300000     0.9456650000
| 21>  H        2.6373090000     1.1105880000    -0.2748180000
| 22>  H        3.6225780000    -3.7711760000    -2.0231110000
| 23> *
| 24>
| 25>                          ****END OF INPUT****
 Total Charge           Charge          ....    0
 Multiplicity           Mult            ....    1
 Number of Electrons    NEL             ....   50
 Basis Dimension        Dim             ....  118

MULLIKEN ATOMIC CHARGES
-----------------------
   0 C :    0.008736
   1 C :    0.026211
   2 C :   -0.067931
   3 N :   -0.011175
   4 O :   -0.134076
   5 C :    0.194123
   6 N :   -0.136840
   7 H :    0.034717
   8 H :    0.044719
   9 H :    0.003235
  10 H :    0.038282
Sum of atomic charges:   -0.0000000

LOEWDIN ATOMIC CHARGES
----------------------
   0 C :   -0.008114
   1 C :   -0.039182
   2 C :   -0.045418
   3 N :   -0.040437
   4 O :    0.047368
   5 C :    0.049077
   6 N :   -0.099963
   7 H :    0.031833
   8 H :    0.033681
   9 H :    0.040766
  10 H :    0.030388

  Mayer bond orders larger than 0.1
B(  0-C ,  1-C ) :   1.9165 B(  0-C ,  7-H ) :   0.9339 B(  0-C ,  8-H ) :   0.9412
B(  1-C ,  2-C ) :   1.1079 B(  1-C ,  9-H ) :   0.9446 B(  2-C ,  3-N ) :   1.6448
B(  2-C ,  6-N ) :   1.3100 B(  3-N ,  4-O ) :   1.0037 B(  4-O ,  5-C ) :   1.2066
B(  5-C ,  6-N ) :   1.6978 B(  5-C , 10-H ) :   0.9691

FINAL SINGLE POINT ENERGY      -338.853897255539

DIPOLE MOMENT
-------------
                                X             Y             Z
Electronic contribution:      3.36254      -1.86233      -3.62444
Nuclear contribution   :     -3.59788       1.52054       3.80279
                        -----------------------------------------
Total Dipole Moment    :     -0.23533      -0.34179       0.17835
                        -----------------------------------------
Magnitude (a.u.)       :      0.45168
Magnitude (Debye)      :      1.14807

                             ****ORCA TERMINATED NORMALLY****
TOTAL RUN TIME: 0 days 0 hours 0 minutes 5 seconds 462 msec
