                         Program Version 3.0.3 - RELEASE   -
|  1> ! RI PBE def2-SVP def2-SVP/J NBO PAL2
|  2> % maxcore 2000
|  3> % output
|  4>     # printlevel mini
|  5>     print[ P_Basis ] 0
|  6>     print[ P_SCFInfo ] 1
|  7>     print[ P_SCFIterInfo ] 1
|  8>     print[ P_OrbEn ] 0
|  9>     print[ P_Cartesian ] 0
| 10> end
| 11> *xyz 0 1
| 12>  C        0.9579520000     0.0427610000     0.0779110000
| 13>  C        2.1568250000     0.0500570000     0.0782290000
| 14>  C        3.5736120000     0.0424380000     0.0785920000
| 15>  N        4.2751940000     1.1462890000     0.0796890000
| 16>  O        5.5738810000     0.6995960000     0.0796770000
| 17>  C        5.5209560000    -0.6270980000     0.0785830000
| 18>  N        4.3285690000    -1.1076650000     0.0778830000
| 19>  H       -0.1069350000     0.0388740000     0.0776300000
| 20>  H        6.4595470000    -1.1618410000     0.0784070000
| 21> *
| 22>
| 23>                          ****END OF INPUT****
 Total Charge           Charge          ....    0
 Multiplicity           Mult            ....    1
 Number of Electrons    NEL             ....   48
 Basis Dimension        Dim             ....  108

MULLIKEN ATOMIC CHARGES
-----------------------
   0 C :   -0.450948
   1 C :    0.502036
   2 C :   -0.067414
   3 N :    0.000702
   4 O :   -0.124177
   5 C :    0.202977
   6 N :   -0.126688
   7 H :    0.022546
   8 H :    0.040965
Sum of atomic charges:   -0.0000000

LOEWDIN ATOMIC CHARGES
----------------------
   0 C :   -0.005721
   1 C :   -0.016350
   2 C :   -0.055546
   3 N :   -0.021135
   4 O :    0.056349
   5 C :    0.050939
   6 N :   -0.085561
   7 H :    0.043652
   8 H :    0.033372

  Mayer bond orders larger than 0.1
B(  0-C ,  1-C ) :   2.2640 B(  0-C ,  7-H ) :   1.0893 B(  1-C ,  2-C ) :   0.9289
B(  1-C ,  7-H ) :  -0.1007 B(  2-C ,  3-N ) :   1.6329 B(  2-C ,  6-N ) :   1.3217
B(  3-N ,  4-O ) :   1.0095 B(  3-N ,  5-C ) :   0.1007 B(  4-O ,  5-C ) :   1.2031
B(  5-C ,  6-N ) :   1.6885 B(  5-C ,  8-H ) :   0.9691

FINAL SINGLE POINT ENERGY      -337.599475105186

DIPOLE MOMENT
-------------
                                X             Y             Z
Electronic contribution:      1.35638       0.77170       0.00096
Nuclear contribution   :     -1.24490      -1.13790      -0.00124
                        -----------------------------------------
Total Dipole Moment    :      0.11147      -0.36620      -0.00028
                        -----------------------------------------
Magnitude (a.u.)       :      0.38279
Magnitude (Debye)      :      0.97298

                             ****ORCA TERMINATED NORMALLY****
TOTAL RUN TIME: 0 days 0 hours 0 minutes 4 seconds 885 msec
