                         Program Version 3.0.3 - RELEASE   -
|  1> ! RI PBE def2-SVP def2-SVP/J NBO PAL2
|  2> % maxcore 2000
|  3> % output
|  4>     # printlevel mini
|  5>     print[ P_Basis ] 0
|  6>     print[ P_SCFInfo ] 1
|  7>     print[ P_SCFIterInfo ] 1
|  8>     print[ P_OrbEn ] 0
|  9>     print[ P_Cartesian ] 0
| 10> end
| 11> *xyz 0 1
| 12>  C        1.0346700000    -0.0666940000    -0.1562670000
| 13>  C        2.5441630000     0.0505790000     0.0302900000
| 14>  C        2.9740940000     1.3973540000     0.4630790000
| 15>  N        3.5421830000     1.7475070000     1.5636170000
| 16>  N        3.7331700000     3.1177400000     1.4941170000
| 17>  C        3.2640030000     3.4792990000     0.3591820000
| 18>  O        2.7631690000     2.4554100000    -0.3586960000
| 19>  H        0.7713640000    -1.0772230000    -0.4727940000
| 20>  H        0.6748320000     0.6295750000    -0.9158000000
| 21>  H        0.5088680000     0.1450110000     0.7766520000
| 22>  H        3.0565040000    -0.1978650000    -0.9047360000
| 23>  H        2.8983810000    -0.6469220000     0.7905090000
| 24>  H        3.2273200000     4.4687290000    -0.0673430000
| 25> *
| 26>
| 27>                          ****END OF INPUT****
 Total Charge           Charge          ....    0
 Multiplicity           Mult            ....    1
 Number of Electrons    NEL             ....   52
 Basis Dimension        Dim             ....  128

MULLIKEN ATOMIC CHARGES
-----------------------
   0 C :   -0.048861
   1 C :    0.088056
   2 C :   -0.034999
   3 N :   -0.099546
   4 N :   -0.097837
   5 C :    0.146589
   6 O :   -0.167242
   7 H :    0.032958
   8 H :    0.039445
   9 H :    0.040678
  10 H :    0.035859
  11 H :    0.038032
  12 H :    0.026867
Sum of atomic charges:    0.0000000

LOEWDIN ATOMIC CHARGES
----------------------
   0 C :   -0.057265
   1 C :   -0.047901
   2 C :    0.003483
   3 N :   -0.086803
   4 N :   -0.073207
   5 C :    0.018914
   6 O :    0.022735
   7 H :    0.033298
   8 H :    0.030147
   9 H :    0.033706
  10 H :    0.045602
  11 H :    0.050481
  12 H :    0.026809

  Mayer bond orders larger than 0.1
B(  0-C ,  1-C ) :   1.1071 B(  0-C ,  7-H ) :   0.9616 B(  0-C ,  8-H ) :   0.9698
B(  0-C ,  9-H ) :   0.9681 B(  1-C ,  2-C ) :   1.0805 B(  1-C , 10-H ) :   0.9034
B(  1-C , 11-H ) :   0.9104 B(  2-C ,  3-N ) :   1.7590 B(  2-C ,  6-O ) :   1.1389
B(  3-N ,  4-N ) :   1.1427 B(  4-N ,  5-C ) :   1.7629 B(  5-C ,  6-O ) :   1.1374
B(  5-C , 12-H ) :   0.9820

FINAL SINGLE POINT ENERGY      -340.083563259730

DIPOLE MOMENT
-------------
                                X             Y             Z
Electronic contribution:      4.68895       6.28019       2.14733
Nuclear contribution   :     -5.33608      -6.57143      -3.30682
                        -----------------------------------------
Total Dipole Moment    :     -0.64714      -0.29123      -1.15950
                        -----------------------------------------
Magnitude (a.u.)       :      1.35943
Magnitude (Debye)      :      3.45539

                             ****ORCA TERMINATED NORMALLY****
TOTAL RUN TIME: 0 days 0 hours 0 minutes 6 seconds 115 msec
