                         Program Version 3.0.3 - RELEASE   -
|  1> ! RI PBE def2-SVP def2-SVP/J NBO PAL2
|  2> % maxcore 2000
|  3> % output
|  4>     # printlevel mini
|  5>     print[ P_Basis ] 0
|  6>     print[ P_SCFInfo ] 1
|  7>     print[ P_SCFIterInfo ] 1
|  8>     print[ P_OrbEn ] 0
|  9>     print[ P_Cartesian ] 0
| 10> end
| 11> *xyz 0 1
| 12>  C        2.2467060000    -1.4424600000    -0.1761610000
| 13>  C        2.1309000000    -0.1574170000     0.1440870000
| 14>  C        2.8423750000     0.4834910000     1.2220740000
| 15>  N        2.7696790000     1.7248430000     1.5781030000
| 16>  N        3.6216170000     1.8779520000     2.6508840000
| 17>  C        4.1405470000     0.7231400000     2.8566900000
| 18>  O        3.7029480000    -0.2167030000     1.9995670000
| 19>  H        1.6822250000    -1.8610770000    -0.9994610000
| 20>  H        2.9035180000    -2.1091890000     0.3700590000
| 21>  H        1.4738230000     0.5089340000    -0.4026250000
| 22>  H        4.8568530000     0.4346860000     3.6089650000
| 23> *
| 24>
| 25>                          ****END OF INPUT****
 Total Charge           Charge          ....    0
 Multiplicity           Mult            ....    1
 Number of Electrons    NEL             ....   50
 Basis Dimension        Dim             ....  118

MULLIKEN ATOMIC CHARGES
-----------------------
   0 C :   -0.002442
   1 C :    0.002004
   2 C :    0.055427
   3 N :   -0.095790
   4 N :   -0.092255
   5 C :    0.151283
   6 O :   -0.158222
   7 H :    0.041103
   8 H :    0.041167
   9 H :    0.024300
  10 H :    0.033426
Sum of atomic charges:   -0.0000000

LOEWDIN ATOMIC CHARGES
----------------------
   0 C :   -0.015077
   1 C :   -0.042318
   2 C :   -0.002844
   3 N :   -0.074568
   4 N :   -0.068491
   5 C :    0.027124
   6 O :    0.030941
   7 H :    0.034923
   8 H :    0.031311
   9 H :    0.049816
  10 H :    0.029182

  Mayer bond orders larger than 0.1
B(  0-C ,  1-C ) :   1.8967 B(  0-C ,  7-H ) :   0.9351 B(  0-C ,  8-H ) :   0.9509
B(  1-C ,  2-C ) :   1.1266 B(  1-C ,  9-H ) :   0.9468 B(  2-C ,  3-N ) :   1.6835
B(  2-C ,  6-O ) :   1.1513 B(  3-N ,  4-N ) :   1.1614 B(  4-N ,  5-C ) :   1.7411
B(  5-C ,  6-O ) :   1.1427 B(  5-C , 10-H ) :   0.9812

FINAL SINGLE POINT ENERGY      -338.863078688045

DIPOLE MOMENT
-------------
                                X             Y             Z
Electronic contribution:      1.52798       3.08412       2.92413
Nuclear contribution   :     -1.31683      -4.36527      -3.13025
                        -----------------------------------------
Total Dipole Moment    :      0.21115      -1.28114      -0.20612
                        -----------------------------------------
Magnitude (a.u.)       :      1.31469
Magnitude (Debye)      :      3.34167

                             ****ORCA TERMINATED NORMALLY****
TOTAL RUN TIME: 0 days 0 hours 0 minutes 5 seconds 497 msec
