                         Program Version 3.0.3 - RELEASE   -
|  1> ! RI PBE def2-SVP def2-SVP/J NBO PAL2
|  2> % maxcore 2000
|  3> % output
|  4>     # printlevel mini
|  5>     print[ P_Basis ] 0
|  6>     print[ P_SCFInfo ] 1
|  7>     print[ P_SCFIterInfo ] 1
|  8>     print[ P_OrbEn ] 0
|  9>     print[ P_Cartesian ] 0
| 10> end
| 11> *xyz 0 1
| 12>  C        1.0699850000     0.0337120000     0.0443840000
| 13>  C        2.2682940000     0.0879640000     0.0447880000
| 14>  C        3.6744810000     0.1552960000     0.0452650000
| 15>  N        4.4312640000     1.2046770000     0.0464910000
| 16>  N        5.7267500000     0.7452970000     0.0464290000
| 17>  C        5.6534920000    -0.5370000000     0.0451600000
| 18>  O        4.3915570000    -0.9959750000     0.0443480000
| 19>  H        0.0057140000    -0.0084160000     0.0440300000
| 20>  H        6.4572530000    -1.2555560000     0.0446940000
| 21> *
| 22>
| 23>                          ****END OF INPUT****
 Total Charge           Charge          ....    0
 Multiplicity           Mult            ....    1
 Number of Electrons    NEL             ....   48
 Basis Dimension        Dim             ....  108

MULLIKEN ATOMIC CHARGES
-----------------------
   0 C :   -0.434051
   1 C :    0.468066
   2 C :    0.056059
   3 N :   -0.084671
   4 N :   -0.086017
   5 C :    0.158825
   6 O :   -0.143118
   7 H :    0.027935
   8 H :    0.036971
Sum of atomic charges:    0.0000000

LOEWDIN ATOMIC CHARGES
----------------------
   0 C :    0.006084
   1 C :   -0.028910
   2 C :   -0.013138
   3 N :   -0.055051
   4 N :   -0.063737
   5 C :    0.031991
   6 O :    0.044399
   7 H :    0.045962
   8 H :    0.032400

  Mayer bond orders larger than 0.1
B(  0-C ,  1-C ) :   2.2462 B(  0-C ,  7-H ) :   1.0862 B(  1-C ,  2-C ) :   0.9275
B(  2-C ,  3-N ) :   1.6816 B(  2-C ,  6-O ) :   1.1549 B(  3-N ,  4-N ) :   1.1644
B(  4-N ,  5-C ) :   1.7273 B(  5-C ,  6-O ) :   1.1580 B(  5-C ,  8-H ) :   0.9813

FINAL SINGLE POINT ENERGY      -337.608983246380

DIPOLE MOMENT
-------------
                                X             Y             Z
Electronic contribution:      0.78790       0.20681       0.00043
Nuclear contribution   :     -1.32123      -1.33098      -0.00168
                        -----------------------------------------
Total Dipole Moment    :     -0.53333      -1.12418      -0.00126
                        -----------------------------------------
Magnitude (a.u.)       :      1.24427
Magnitude (Debye)      :      3.16269

                             ****ORCA TERMINATED NORMALLY****
TOTAL RUN TIME: 0 days 0 hours 0 minutes 5 seconds 182 msec
