                         Program Version 3.0.3 - RELEASE   -
|  1> ! RI PBE def2-SVP def2-SVP/J NBO PAL2
|  2> % maxcore 2000
|  3> % output
|  4>     # printlevel mini
|  5>     print[ P_Basis ] 0
|  6>     print[ P_SCFInfo ] 1
|  7>     print[ P_SCFIterInfo ] 1
|  8>     print[ P_OrbEn ] 0
|  9>     print[ P_Cartesian ] 0
| 10> end
| 11> *xyz 0 1
| 12>  C        1.6641810000     0.8748170000     0.6614420000
| 13>  C        2.2633900000    -0.0262940000    -0.1155620000
| 14>  C        2.9221700000     0.2874110000    -1.3613450000
| 15>  N        3.4751340000    -0.6389880000    -2.0494560000
| 16>  O        4.0368680000    -0.1322030000    -3.1832400000
| 17>  C        3.8260390000     1.2948880000    -3.2462330000
| 18>  C        3.0467500000     1.6468530000    -1.9868150000
| 19>  H        1.1840200000     0.5856220000     1.5877200000
| 20>  H        1.6328650000     1.9270660000     0.4002680000
| 21>  H        2.2831630000    -1.0747880000     0.1646670000
| 22>  H        3.2786900000     1.5106930000    -4.1659630000
| 23>  H        4.8055450000     1.7746470000    -3.2952450000
| 24>  H        2.0644630000     2.0790580000    -2.1931290000
| 25>  H        3.5788200000     2.3379190000    -1.3283080000
| 26> *
| 27>
| 28>                          ****END OF INPUT****
 Total Charge           Charge          ....    0
 Multiplicity           Mult            ....    1
 Number of Electrons    NEL             ....   52
 Basis Dimension        Dim             ....  133

MULLIKEN ATOMIC CHARGES
-----------------------
   0 C :   -0.044383
   1 C :    0.050856
   2 C :   -0.181450
   3 N :    0.029549
   4 O :   -0.266244
   5 C :    0.212792
   6 C :   -0.007612
   7 H :    0.030997
   8 H :    0.022858
   9 H :   -0.000457
  10 H :    0.030750
  11 H :    0.033411
  12 H :    0.044097
  13 H :    0.044836
Sum of atomic charges:   -0.0000000

LOEWDIN ATOMIC CHARGES
----------------------
   0 C :   -0.054152
   1 C :   -0.032472
   2 C :   -0.069194
   3 N :    0.007655
   4 O :   -0.081357
   5 C :    0.066749
   6 C :   -0.060849
   7 H :    0.029108
   8 H :    0.021876
   9 H :    0.039187
  10 H :    0.024215
  11 H :    0.024859
  12 H :    0.042213
  13 H :    0.042163

  Mayer bond orders larger than 0.1
B(  0-C ,  1-C ) :   1.8638 B(  0-C ,  3-N ) :   0.1074 B(  0-C ,  7-H ) :   0.9379
B(  0-C ,  8-H ) :   0.9433 B(  1-C ,  2-C ) :   1.1436 B(  1-C ,  9-H ) :   0.9526
B(  2-C ,  3-N ) :   1.7879 B(  2-C ,  4-O ) :   0.1137 B(  2-C ,  6-C ) :   1.0269
B(  3-N ,  4-O ) :   1.0038 B(  4-O ,  5-C ) :   0.9347 B(  5-C ,  6-C ) :   1.1144
B(  5-C , 10-H ) :   0.9449 B(  5-C , 11-H ) :   0.9444 B(  6-C , 12-H ) :   0.9071
B(  6-C , 13-H ) :   0.9074

FINAL SINGLE POINT ENERGY      -324.005523809155

DIPOLE MOMENT
-------------
                                X             Y             Z
Electronic contribution:      2.12081      -4.20965      -2.43561
Nuclear contribution   :     -2.40753       5.37314       2.59085
                        -----------------------------------------
Total Dipole Moment    :     -0.28671       1.16349       0.15524
                        -----------------------------------------
Magnitude (a.u.)       :      1.20831
Magnitude (Debye)      :      3.07129

                             ****ORCA TERMINATED NORMALLY****
TOTAL RUN TIME: 0 days 0 hours 0 minutes 7 seconds 73 msec
