                         Program Version 3.0.3 - RELEASE   -
|  1> ! RI PBE def2-SVP def2-SVP/J NBO PAL2
|  2> % maxcore 2000
|  3> % output
|  4>     # printlevel mini
|  5>     print[ P_Basis ] 0
|  6>     print[ P_SCFInfo ] 1
|  7>     print[ P_SCFIterInfo ] 1
|  8>     print[ P_OrbEn ] 0
|  9>     print[ P_Cartesian ] 0
| 10> end
| 11> *xyz 0 1
| 12>  C        0.9704940000    -0.0677580000     0.2315420000
| 13>  C        2.1655420000    -0.0783290000     0.1026230000
| 14>  C        3.5690790000    -0.0016500000    -0.0411360000
| 15>  N        4.2895740000    -1.0446110000    -0.2177850000
| 16>  O        5.6004910000    -0.7033610000    -0.3264240000
| 17>  C        5.7611810000     0.7287440000    -0.2079010000
| 18>  C        4.3563010000     1.2799940000    -0.0043320000
| 19>  H       -0.0879230000    -0.0822750000     0.3446550000
| 20>  H        6.2359660000     1.0855680000    -1.1235950000
| 21>  H        6.4255910000     0.9186050000     0.6369350000
| 22>  H        4.0339320000     1.9598250000    -0.7956450000
| 23>  H        4.2217830000     1.7942480000     0.9494620000
| 24> *
| 25>
| 26>                          ****END OF INPUT****
 Total Charge           Charge          ....    0
 Multiplicity           Mult            ....    1
 Number of Electrons    NEL             ....   50
 Basis Dimension        Dim             ....  123

MULLIKEN ATOMIC CHARGES
-----------------------
   0 C :   -0.442737
   1 C :    0.466837
   2 C :   -0.211270
   3 N :    0.050909
   4 O :   -0.260966
   5 C :    0.195982
   6 C :    0.005668
   7 H :    0.012960
   8 H :    0.038753
   9 H :    0.041395
  10 H :    0.052590
  11 H :    0.049878
Sum of atomic charges:   -0.0000000

LOEWDIN ATOMIC CHARGES
----------------------
   0 C :   -0.042614
   1 C :   -0.021096
   2 C :   -0.085839
   3 N :    0.025621
   4 O :   -0.075608
   5 C :    0.065571
   6 C :   -0.048918
   7 H :    0.039157
   8 H :    0.026435
   9 H :    0.026963
  10 H :    0.045422
  11 H :    0.044905

  Mayer bond orders larger than 0.1
B(  0-C ,  1-C ) :   2.2459 B(  0-C ,  7-H ) :   1.0908 B(  1-C ,  2-C ) :   1.0181
B(  1-C ,  7-H ) :  -0.1010 B(  2-C ,  3-N ) :   1.7991 B(  2-C ,  4-O ) :   0.1309
B(  2-C ,  6-C ) :   1.0222 B(  3-N ,  4-O ) :   1.0077 B(  4-O ,  5-C ) :   0.9275
B(  5-C ,  6-C ) :   1.1015 B(  5-C ,  8-H ) :   0.9456 B(  5-C ,  9-H ) :   0.9459
B(  6-C , 10-H ) :   0.9187 B(  6-C , 11-H ) :   0.9187

FINAL SINGLE POINT ENERGY      -322.754406767674

DIPOLE MOMENT
-------------
                                X             Y             Z
Electronic contribution:     -1.21766      -3.91350      -0.23722
Nuclear contribution   :      1.18308       5.20047       0.36622
                        -----------------------------------------
Total Dipole Moment    :     -0.03458       1.28697       0.12901
                        -----------------------------------------
Magnitude (a.u.)       :      1.29388
Magnitude (Debye)      :      3.28878

                             ****ORCA TERMINATED NORMALLY****
TOTAL RUN TIME: 0 days 0 hours 0 minutes 6 seconds 288 msec
