                         Program Version 3.0.3 - RELEASE   -
|  1> ! RI PBE def2-SVP def2-SVP/J NBO PAL2
|  2> % maxcore 2000
|  3> % output
|  4>     # printlevel mini
|  5>     print[ P_Basis ] 0
|  6>     print[ P_SCFInfo ] 1
|  7>     print[ P_SCFIterInfo ] 1
|  8>     print[ P_OrbEn ] 0
|  9>     print[ P_Cartesian ] 0
| 10> end
| 11> *xyz 0 1
| 12>  C        3.9367000000     0.4325860000     0.6579960000
| 13>  C        2.6281810000    -0.0828500000     0.0672150000
| 14>  C        2.8226210000    -0.9843830000    -1.1005920000
| 15>  N        2.4376920000    -2.1960750000    -1.0736280000
| 16>  O        2.7008890000    -2.8127670000    -2.2819710000
| 17>  C        3.5498530000    -1.9562840000    -3.0609820000
| 18>  C        3.4085440000    -0.5843040000    -2.4263240000
| 19>  H        3.7410090000     1.0845230000     1.5115890000
| 20>  H        4.5110270000     1.0086420000    -0.0715310000
| 21>  H        4.5612280000    -0.3949640000     1.0012110000
| 22>  H        2.0124860000     0.7687750000    -0.2472220000
| 23>  H        2.0595250000    -0.6298550000     0.8218350000
| 24>  H        3.2206820000    -2.0122490000    -4.0986360000
| 25>  H        4.5779260000    -2.3288080000    -2.9887610000
| 26>  H        2.7112980000     0.0739830000    -2.9574690000
| 27>  H        4.3573280000    -0.0541620000    -2.3337000000
| 28> *
| 29>
| 30>                          ****END OF INPUT****
 Total Charge           Charge          ....    0
 Multiplicity           Mult            ....    1
 Number of Electrons    NEL             ....   54
 Basis Dimension        Dim             ....  143

MULLIKEN ATOMIC CHARGES
-----------------------
   0 C :   -0.051113
   1 C :    0.079387
   2 C :   -0.250683
   3 N :    0.036736
   4 O :   -0.282868
   5 C :    0.200258
   6 C :    0.004102
   7 H :    0.031890
   8 H :    0.026985
   9 H :    0.034770
  10 H :    0.021394
  11 H :    0.023435
  12 H :    0.027655
  13 H :    0.024807
  14 H :    0.038192
  15 H :    0.035054
Sum of atomic charges:   -0.0000000

LOEWDIN ATOMIC CHARGES
----------------------
   0 C :   -0.063980
   1 C :   -0.043295
   2 C :   -0.063497
   3 N :   -0.004161
   4 O :   -0.103751
   5 C :    0.060810
   6 C :   -0.064436
   7 H :    0.031460
   8 H :    0.024016
   9 H :    0.030872
  10 H :    0.035790
  11 H :    0.039982
  12 H :    0.025222
  13 H :    0.017364
  14 H :    0.040019
  15 H :    0.037587

  Mayer bond orders larger than 0.1
B(  0-C ,  1-C ) :   1.1084 B(  0-C ,  7-H ) :   0.9594 B(  0-C ,  8-H ) :   0.9670
B(  0-C ,  9-H ) :   0.9646 B(  1-C ,  2-C ) :   1.0889 B(  1-C , 10-H ) :   0.9116
B(  1-C , 11-H ) :   0.9101 B(  2-C ,  3-N ) :   1.9063 B(  2-C ,  4-O ) :   0.1154
B(  2-C ,  6-C ) :   1.0106 B(  3-N ,  4-O ) :   0.9694 B(  4-O ,  5-C ) :   0.9498
B(  5-C ,  6-C ) :   1.1073 B(  5-C , 12-H ) :   0.9426 B(  5-C , 13-H ) :   0.9434
B(  6-C , 14-H ) :   0.8964 B(  6-C , 15-H ) :   0.9256

FINAL SINGLE POINT ENERGY      -325.221609440954

DIPOLE MOMENT
-------------
                                X             Y             Z
Electronic contribution:     -3.17638      -6.41350      -2.71949
Nuclear contribution   :      3.74300       7.55420       2.39546
                        -----------------------------------------
Total Dipole Moment    :      0.56662       1.14071      -0.32403
                        -----------------------------------------
Magnitude (a.u.)       :      1.31425
Magnitude (Debye)      :      3.34057

                             ****ORCA TERMINATED NORMALLY****
TOTAL RUN TIME: 0 days 0 hours 0 minutes 7 seconds 412 msec
