                         Program Version 3.0.3 - RELEASE   -
|  1> ! RI PBE def2-SVP def2-SVP/J NBO PAL2
|  2> % maxcore 2000
|  3> % output
|  4>     # printlevel mini
|  5>     print[ P_Basis ] 0
|  6>     print[ P_SCFInfo ] 1
|  7>     print[ P_SCFIterInfo ] 1
|  8>     print[ P_OrbEn ] 0
|  9>     print[ P_Cartesian ] 0
| 10> end
| 11> *xyz 0 1
| 12>  C        1.5102850000     0.5243190000    -0.8177910000
| 13>  C        2.4171530000     0.0218540000     0.0147470000
| 14>  C        3.1705520000     0.8232240000     0.9476130000
| 15>  N        4.0431240000     0.3574600000     1.7521710000
| 16>  O        4.5355070000     1.4413220000     2.4726940000
| 17>  C        3.8666840000     2.6076570000     2.0162090000
| 18>  O        2.9759200000     2.1606780000     1.0122870000
| 19>  H        0.9685300000    -0.1168010000    -1.5014370000
| 20>  H        1.2872160000     1.5842420000    -0.8372630000
| 21>  H        2.6484350000    -1.0362450000     0.0430220000
| 22>  H        4.5865510000     3.3148390000     1.5882530000
| 23>  H        3.3037330000     3.0677610000     2.8364850000
| 24> *
| 25>
| 26>                          ****END OF INPUT****
 Total Charge           Charge          ....    0
 Multiplicity           Mult            ....    1
 Number of Electrons    NEL             ....   52
 Basis Dimension        Dim             ....  123

MULLIKEN ATOMIC CHARGES
-----------------------
   0 C :   -0.007171
   1 C :   -0.001709
   2 C :    0.024854
   3 N :    0.018102
   4 O :   -0.277046
   5 C :    0.346050
   6 O :   -0.270712
   7 H :    0.036656
   8 H :    0.040172
   9 H :    0.019670
  10 H :    0.035897
  11 H :    0.035237
Sum of atomic charges:   -0.0000000

LOEWDIN ATOMIC CHARGES
----------------------
   0 C :   -0.025223
   1 C :   -0.045848
   2 C :   -0.016748
   3 N :   -0.029477
   4 O :   -0.094419
   5 C :    0.158857
   6 O :   -0.077583
   7 H :    0.032583
   8 H :    0.031027
   9 H :    0.046447
  10 H :    0.010250
  11 H :    0.010133

  Mayer bond orders larger than 0.1
B(  0-C ,  1-C ) :   1.8796 B(  0-C ,  3-N ) :   0.1105 B(  0-C ,  7-H ) :   0.9359
B(  0-C ,  8-H ) :   0.9482 B(  1-C ,  2-C ) :   1.1303 B(  1-C ,  9-H ) :   0.9481
B(  2-C ,  3-N ) :   1.7570 B(  2-C ,  6-O ) :   1.1349 B(  3-N ,  4-O ) :   0.9564
B(  4-O ,  5-C ) :   0.9852 B(  5-C ,  6-O ) :   0.9924 B(  5-C , 10-H ) :   0.9452
B(  5-C , 11-H ) :   0.9451

FINAL SINGLE POINT ENERGY      -359.863663471676

DIPOLE MOMENT
-------------
                                X             Y             Z
Electronic contribution:      2.69811      -0.26782       2.71843
Nuclear contribution   :     -3.19213       0.85459      -3.11133
                        -----------------------------------------
Total Dipole Moment    :     -0.49402       0.58677      -0.39290
                        -----------------------------------------
Magnitude (a.u.)       :      0.86181
Magnitude (Debye)      :      2.19056

                             ****ORCA TERMINATED NORMALLY****
TOTAL RUN TIME: 0 days 0 hours 0 minutes 5 seconds 888 msec
