                         Program Version 3.0.3 - RELEASE   -
|  1> ! RI PBE def2-SVP def2-SVP/J NBO PAL2
|  2> % maxcore 2000
|  3> % output
|  4>     # printlevel mini
|  5>     print[ P_Basis ] 0
|  6>     print[ P_SCFInfo ] 1
|  7>     print[ P_SCFIterInfo ] 1
|  8>     print[ P_OrbEn ] 0
|  9>     print[ P_Cartesian ] 0
| 10> end
| 11> *xyz 0 1
| 12>  C        1.1791970000     0.0620170000     0.1454160000
| 13>  C        2.3746650000     0.0174920000     0.0594780000
| 14>  C        3.7818060000    -0.0114210000    -0.0447140000
| 15>  N        4.5003880000    -1.0604570000     0.0357470000
| 16>  O        5.8136330000    -0.6418760000    -0.1190320000
| 17>  C        5.8112760000     0.7697740000    -0.3014250000
| 18>  O        4.4489680000     1.1508830000    -0.2460670000
| 19>  H        0.1174820000     0.0923450000     0.2229310000
| 20>  H        6.2306130000     1.0248370000    -1.2809920000
| 21>  H        6.3679810000     1.2561060000     0.5072790000
| 22> *
| 23>
| 24>                          ****END OF INPUT****
 Total Charge           Charge          ....    0
 Multiplicity           Mult            ....    1
 Number of Electrons    NEL             ....   50
 Basis Dimension        Dim             ....  113

MULLIKEN ATOMIC CHARGES
-----------------------
   0 C :   -0.430948
   1 C :    0.472482
   2 C :    0.006129
   3 N :    0.029278
   4 O :   -0.270864
   5 C :    0.348154
   6 O :   -0.258393
   7 H :    0.024415
   8 H :    0.037754
   9 H :    0.041993
Sum of atomic charges:   -0.0000000

LOEWDIN ATOMIC CHARGES
----------------------
   0 C :   -0.003852
   1 C :   -0.026062
   2 C :   -0.028965
   3 N :   -0.011490
   4 O :   -0.089553
   5 C :    0.161485
   6 O :   -0.070213
   7 H :    0.044286
   8 H :    0.011765
   9 H :    0.012599

  Mayer bond orders larger than 0.1
B(  0-C ,  1-C ) :   2.2525 B(  0-C ,  7-H ) :   1.0863 B(  1-C ,  2-C ) :   0.9444
B(  2-C ,  3-N ) :   1.7655 B(  2-C ,  4-O ) :   0.1142 B(  2-C ,  6-O ) :   1.1444
B(  3-N ,  4-O ) :   0.9543 B(  4-O ,  5-C ) :   0.9746 B(  5-C ,  6-O ) :   0.9909
B(  5-C ,  8-H ) :   0.9450 B(  5-C ,  9-H ) :   0.9456

FINAL SINGLE POINT ENERGY      -358.607704998599

DIPOLE MOMENT
-------------
                                X             Y             Z
Electronic contribution:     -0.60277      -1.25805       0.21251
Nuclear contribution   :      0.42439       2.05959      -0.29906
                        -----------------------------------------
Total Dipole Moment    :     -0.17838       0.80154      -0.08656
                        -----------------------------------------
Magnitude (a.u.)       :      0.82570
Magnitude (Debye)      :      2.09875

                             ****ORCA TERMINATED NORMALLY****
TOTAL RUN TIME: 0 days 0 hours 0 minutes 5 seconds 609 msec
