                         Program Version 3.0.3 - RELEASE   -
|  1> ! RI PBE def2-SVP def2-SVP/J NBO PAL2
|  2> % maxcore 2000
|  3> % output
|  4>     # printlevel mini
|  5>     print[ P_Basis ] 0
|  6>     print[ P_SCFInfo ] 1
|  7>     print[ P_SCFIterInfo ] 1
|  8>     print[ P_OrbEn ] 0
|  9>     print[ P_Cartesian ] 0
| 10> end
| 11> *xyz 0 1
| 12>  C        1.0141930000     0.2097790000     0.0437780000
| 13>  C        2.4973440000    -0.1371220000    -0.0190900000
| 14>  C        3.0806530000    -0.4298970000     1.3082890000
| 15>  N        3.6168780000    -1.5267040000     1.6605780000
| 16>  O        4.1031060000    -1.3107730000     2.9678120000
| 17>  C        3.4835230000    -0.1347370000     3.4228470000
| 18>  O        3.0872780000     0.5490510000     2.2445890000
| 19>  H        0.6357910000     0.4316620000    -0.9554300000
| 20>  H        0.8407020000     1.0832920000     0.6741660000
| 21>  H        0.4358900000    -0.6233880000     0.4480330000
| 22>  H        3.0576890000     0.6984950000    -0.4523510000
| 23>  H        2.6732150000    -1.0102380000    -0.6486550000
| 24>  H        4.1950810000     0.4695220000     3.9877950000
| 25>  H        2.5872670000    -0.3642310000     4.0208480000
| 26> *
| 27>
| 28>                          ****END OF INPUT****
 Total Charge           Charge          ....    0
 Multiplicity           Mult            ....    1
 Number of Electrons    NEL             ....   54
 Basis Dimension        Dim             ....  133

MULLIKEN ATOMIC CHARGES
-----------------------
   0 C :   -0.041732
   1 C :    0.071808
   2 C :   -0.061000
   3 N :    0.004541
   4 O :   -0.281074
   5 C :    0.338828
   6 O :   -0.270204
   7 H :    0.030825
   8 H :    0.039479
   9 H :    0.036231
  10 H :    0.037925
  11 H :    0.034704
  12 H :    0.043247
  13 H :    0.016422
Sum of atomic charges:   -0.0000000

LOEWDIN ATOMIC CHARGES
----------------------
   0 C :   -0.058404
   1 C :   -0.045600
   2 C :   -0.011468
   3 N :   -0.047254
   4 O :   -0.106611
   5 C :    0.146925
   6 O :   -0.082979
   7 H :    0.032112
   8 H :    0.030715
   9 H :    0.031670
  10 H :    0.046451
  11 H :    0.047685
  12 H :    0.019373
  13 H :   -0.002616

  Mayer bond orders larger than 0.1
B(  0-C ,  1-C ) :   1.1055 B(  0-C ,  7-H ) :   0.9608 B(  0-C ,  8-H ) :   0.9678
B(  0-C ,  9-H ) :   0.9676 B(  1-C ,  2-C ) :   1.0796 B(  1-C , 10-H ) :   0.8995
B(  1-C , 11-H ) :   0.9157 B(  2-C ,  3-N ) :   1.8370 B(  2-C ,  4-O ) :   0.1020
B(  2-C ,  6-O ) :   1.1223 B(  3-N ,  4-O ) :   0.9219 B(  4-O ,  5-C ) :   1.0212
B(  5-C ,  6-O ) :   0.9870 B(  5-C , 12-H ) :   0.9534 B(  5-C , 13-H ) :   0.9282

FINAL SINGLE POINT ENERGY      -361.083778531663

DIPOLE MOMENT
-------------
                                X             Y             Z
Electronic contribution:      5.46410      -2.35012       4.34515
Nuclear contribution   :     -6.01278       3.15613      -4.43717
                        -----------------------------------------
Total Dipole Moment    :     -0.54868       0.80600      -0.09202
                        -----------------------------------------
Magnitude (a.u.)       :      0.97937
Magnitude (Debye)      :      2.48936

                             ****ORCA TERMINATED NORMALLY****
TOTAL RUN TIME: 0 days 0 hours 0 minutes 6 seconds 584 msec
