                         Program Version 3.0.3 - RELEASE   -
|  1> ! RI PBE def2-SVP def2-SVP/J NBO PAL2
|  2> % maxcore 2000
|  3> % output
|  4>     # printlevel mini
|  5>     print[ P_Basis ] 0
|  6>     print[ P_SCFInfo ] 1
|  7>     print[ P_SCFIterInfo ] 1
|  8>     print[ P_OrbEn ] 0
|  9>     print[ P_Cartesian ] 0
| 10> end
| 11> *xyz 0 1
| 12>  C        2.8023320000     1.1539670000    -0.5622430000
| 13>  C        2.2142340000    -0.2338790000    -0.3585570000
| 14>  C        2.9289130000    -0.9979370000     0.7159740000
| 15>  O        2.6941850000    -2.3980100000     0.7806770000
| 16>  C        4.0002490000    -1.9447540000     0.4247250000
| 17>  C        5.0866380000    -2.2632500000     1.4036960000
| 18>  N        5.4815780000    -3.6542990000     1.2584110000
| 19>  H        2.2595860000     1.7014600000    -1.3352030000
| 20>  H        3.8510950000     1.0989090000    -0.8651220000
| 21>  H        2.7532830000     1.7452850000     0.3562160000
| 22>  H        2.2574040000    -0.8121330000    -1.2859850000
| 23>  H        1.1558350000    -0.1557710000    -0.0871680000
| 24>  H        2.9469900000    -0.5143730000     1.6947310000
| 25>  H        4.2542800000    -2.1265720000    -0.6195980000
| 26>  H        4.7331690000    -1.9939520000     2.4108240000
| 27>  H        5.9535870000    -1.6316640000     1.1807500000
| 28>  H        4.6981140000    -4.2557290000     1.4844690000
| 29>  H        6.2303060000    -3.8851990000     1.8984910000
| 30> *
| 31>
| 32>                          ****END OF INPUT****
 Total Charge           Charge          ....    0
 Multiplicity           Mult            ....    1
 Number of Electrons    NEL             ....   56
 Basis Dimension        Dim             ....  153

MULLIKEN ATOMIC CHARGES
-----------------------
   0 C :   -0.042608
   1 C :    0.065990
   2 C :    0.012988
   3 O :   -0.285468
   4 C :   -0.004761
   5 C :    0.183746
   6 N :   -0.224192
   7 H :    0.028821
   8 H :    0.025392
   9 H :    0.024020
  10 H :    0.005562
  11 H :    0.021604
  12 H :    0.003343
  13 H :    0.009843
  14 H :   -0.018877
  15 H :    0.010957
  16 H :    0.096261
  17 H :    0.087379
Sum of atomic charges:   -0.0000000

LOEWDIN ATOMIC CHARGES
----------------------
   0 C :   -0.065820
   1 C :   -0.050465
   2 C :    0.039449
   3 O :   -0.160281
   4 C :    0.035899
   5 C :   -0.000209
   6 N :   -0.109877
   7 H :    0.030054
   8 H :    0.026912
   9 H :    0.026063
  10 H :    0.030331
  11 H :    0.032369
  12 H :    0.011038
  13 H :    0.015421
  14 H :    0.004444
  15 H :    0.027476
  16 H :    0.054989
  17 H :    0.052208

  Mayer bond orders larger than 0.1
B(  0-C ,  1-C ) :   1.1062 B(  0-C ,  7-H ) :   0.9588 B(  0-C ,  8-H ) :   0.9670
B(  0-C ,  9-H ) :   0.9662 B(  1-C ,  2-C ) :   1.0529 B(  1-C , 10-H ) :   0.9184
B(  1-C , 11-H ) :   0.9189 B(  2-C ,  3-O ) :   0.9941 B(  2-C ,  4-C ) :   1.0281
B(  2-C , 12-H ) :   0.9202 B(  3-O ,  4-C ) :   0.9736 B(  4-C ,  5-C ) :   1.0522
B(  4-C , 13-H ) :   0.9241 B(  5-C ,  6-N ) :   1.0766 B(  5-C , 14-H ) :   0.9028
B(  5-C , 15-H ) :   0.9213 B(  6-N , 16-H ) :   0.9696 B(  6-N , 17-H ) :   0.9658

FINAL SINGLE POINT ENERGY      -326.429669484482

DIPOLE MOMENT
-------------
                                X             Y             Z
Electronic contribution:     -0.90739      -4.82137       1.34453
Nuclear contribution   :      1.21973       5.31723      -1.01813
                        -----------------------------------------
Total Dipole Moment    :      0.31234       0.49587       0.32640
                        -----------------------------------------
Magnitude (a.u.)       :      0.67080
Magnitude (Debye)      :      1.70505

                             ****ORCA TERMINATED NORMALLY****
TOTAL RUN TIME: 0 days 0 hours 0 minutes 7 seconds 726 msec
