                         Program Version 3.0.3 - RELEASE   -
|  1> ! RI PBE def2-SVP def2-SVP/J NBO PAL2
|  2> % maxcore 2000
|  3> % output
|  4>     # printlevel mini
|  5>     print[ P_Basis ] 0
|  6>     print[ P_SCFInfo ] 1
|  7>     print[ P_SCFIterInfo ] 1
|  8>     print[ P_OrbEn ] 0
|  9>     print[ P_Cartesian ] 0
| 10> end
| 11> *xyz 0 1
| 12>  C        2.5384680000    -0.7992270000    -0.5486060000
| 13>  C        1.9182760000     0.0987020000     0.2028040000
| 14>  C        2.6145220000     1.0109330000     1.1303670000
| 15>  O        4.0259060000     0.9731760000     1.1624210000
| 16>  C        3.4298550000     2.1367580000     0.6269540000
| 17>  C        3.5631770000     3.3507940000     1.3948600000
| 18>  N        3.6509470000     4.3324390000     1.9869130000
| 19>  H        1.9859850000    -1.4499370000    -1.2148220000
| 20>  H        3.6161350000    -0.9112770000    -0.5094360000
| 21>  H        0.8364460000     0.1970000000     0.1787410000
| 22>  H        2.1518410000     1.1567170000     2.1054670000
| 23>  H        3.5271300000     2.2617120000    -0.4482540000
| 24> *
| 25>
| 26>                          ****END OF INPUT****
 Total Charge           Charge          ....    0
 Multiplicity           Mult            ....    1
 Number of Electrons    NEL             ....   50
 Basis Dimension        Dim             ....  123

MULLIKEN ATOMIC CHARGES
-----------------------
   0 C :   -0.023315
   1 C :   -0.045401
   2 C :    0.118653
   3 O :   -0.228130
   4 C :   -0.028921
   5 C :   -0.076914
   6 N :    0.060963
   7 H :    0.039417
   8 H :    0.045791
   9 H :    0.025066
  10 H :    0.043805
  11 H :    0.068986
Sum of atomic charges:   -0.0000000

LOEWDIN ATOMIC CHARGES
----------------------
   0 C :   -0.031489
   1 C :   -0.052281
   2 C :    0.067401
   3 O :   -0.104659
   4 C :    0.027778
   5 C :   -0.048881
   6 N :   -0.036002
   7 H :    0.032349
   8 H :    0.030752
   9 H :    0.038050
  10 H :    0.032823
  11 H :    0.044159

  Mayer bond orders larger than 0.1
B(  0-C ,  1-C ) :   1.9790 B(  0-C ,  7-H ) :   0.9445 B(  0-C ,  8-H ) :   0.9446
B(  1-C ,  2-C ) :   1.0452 B(  1-C ,  9-H ) :   0.9504 B(  2-C ,  3-O ) :   0.9815
B(  2-C ,  4-C ) :   1.0256 B(  2-C , 10-H ) :   0.9177 B(  3-O ,  4-C ) :   1.0661
B(  4-C ,  5-C ) :   1.0390 B(  4-C , 11-H ) :   0.9161 B(  5-C ,  6-N ) :   3.0326

FINAL SINGLE POINT ENERGY      -322.795328469918

DIPOLE MOMENT
-------------
                                X             Y             Z
Electronic contribution:      2.52724       5.10991       3.03454
Nuclear contribution   :     -3.24960      -6.07508      -3.84247
                        -----------------------------------------
Total Dipole Moment    :     -0.72237      -0.96517      -0.80793
                        -----------------------------------------
Magnitude (a.u.)       :      1.45125
Magnitude (Debye)      :      3.68878

                             ****ORCA TERMINATED NORMALLY****
TOTAL RUN TIME: 0 days 0 hours 0 minutes 5 seconds 681 msec
