                         Program Version 3.0.3 - RELEASE   -
|  1> ! RI PBE def2-SVP def2-SVP/J NBO PAL2
|  2> % maxcore 2000
|  3> % output
|  4>     # printlevel mini
|  5>     print[ P_Basis ] 0
|  6>     print[ P_SCFInfo ] 1
|  7>     print[ P_SCFIterInfo ] 1
|  8>     print[ P_OrbEn ] 0
|  9>     print[ P_Cartesian ] 0
| 10> end
| 11> *xyz 0 1
| 12>  C        0.9398010000     0.0015300000     0.0230840000
| 13>  C        2.1383000000     0.0390680000     0.0413270000
| 14>  C        3.5704180000     0.0863450000     0.1000210000
| 15>  O        4.3008040000    -0.5915760000    -0.9120350000
| 16>  C        4.3414700000     0.8175780000    -0.9257370000
| 17>  C        5.5947050000     1.4418010000    -0.5761730000
| 18>  N        6.5825770000     1.9622500000    -0.3034410000
| 19>  H       -0.1243720000    -0.0357300000     0.0005760000
| 20>  H        4.0090660000     0.0122180000     1.0922450000
| 21>  H        3.8003220000     1.2975170000    -1.7365660000
| 22> *
| 23>
| 24>                          ****END OF INPUT****
 Total Charge           Charge          ....    0
 Multiplicity           Mult            ....    1
 Number of Electrons    NEL             ....   48
 Basis Dimension        Dim             ....  113

MULLIKEN ATOMIC CHARGES
-----------------------
   0 C :   -0.412556
   1 C :    0.435264
   2 C :    0.045092
   3 O :   -0.216150
   4 C :   -0.002889
   5 C :   -0.080953
   6 N :    0.067082
   7 H :    0.021205
   8 H :    0.069481
   9 H :    0.074425
Sum of atomic charges:    0.0000000

LOEWDIN ATOMIC CHARGES
----------------------
   0 C :   -0.024121
   1 C :   -0.034409
   2 C :    0.060104
   3 O :   -0.097723
   4 C :    0.036613
   5 C :   -0.048276
   6 N :   -0.029318
   7 H :    0.043390
   8 H :    0.045538
   9 H :    0.048202

  Mayer bond orders larger than 0.1
B(  0-C ,  1-C ) :   2.3301 B(  0-C ,  7-H ) :   1.0883 B(  1-C ,  2-C ) :   0.9541
B(  2-C ,  3-O ) :   0.9942 B(  2-C ,  4-C ) :   1.0211 B(  2-C ,  8-H ) :   0.9206
B(  3-O ,  4-C ) :   1.0611 B(  4-C ,  5-C ) :   1.0332 B(  4-C ,  9-H ) :   0.9224
B(  5-C ,  6-N ) :   3.0350

FINAL SINGLE POINT ENERGY      -321.545246742184

DIPOLE MOMENT
-------------
                                X             Y             Z
Electronic contribution:      2.51031       0.18608      -0.42324
Nuclear contribution   :     -3.89603      -0.26349       0.46370
                        -----------------------------------------
Total Dipole Moment    :     -1.38572      -0.07742       0.04046
                        -----------------------------------------
Magnitude (a.u.)       :      1.38848
Magnitude (Debye)      :      3.52922

                             ****ORCA TERMINATED NORMALLY****
TOTAL RUN TIME: 0 days 0 hours 0 minutes 5 seconds 361 msec
