                         Program Version 3.0.3 - RELEASE   -
|  1> ! RI PBE def2-SVP def2-SVP/J NBO PAL2
|  2> % maxcore 2000
|  3> % output
|  4>     # printlevel mini
|  5>     print[ P_Basis ] 0
|  6>     print[ P_SCFInfo ] 1
|  7>     print[ P_SCFIterInfo ] 1
|  8>     print[ P_OrbEn ] 0
|  9>     print[ P_Cartesian ] 0
| 10> end
| 11> *xyz 0 1
| 12>  C        1.0473760000     0.0513060000    -0.1914890000
| 13>  C        2.5514120000     0.1018630000     0.0273270000
| 14>  C        3.2196930000     1.0917390000    -0.8765440000
| 15>  O        4.6212590000     0.9862190000    -1.0503500000
| 16>  C        3.8010000000     0.6845300000    -2.1637930000
| 17>  C        3.8519730000     1.6012610000    -3.2771960000
| 18>  N        3.8722810000     2.3148990000    -4.1784580000
| 19>  H        0.5795160000    -0.6550020000     0.4961360000
| 20>  H        0.8029670000    -0.2608500000    -1.2097240000
| 21>  H        0.5878140000     1.0287970000    -0.0246670000
| 22>  H        3.0035360000    -0.8813590000    -0.1323520000
| 23>  H        2.7728660000     0.3833780000     1.0622150000
| 24>  H        2.8658590000     2.1205810000    -0.8114570000
| 25>  H        3.7665570000    -0.3643710000    -2.4493600000
| 26> *
| 27>
| 28>                          ****END OF INPUT****
 Total Charge           Charge          ....    0
 Multiplicity           Mult            ....    1
 Number of Electrons    NEL             ....   52
 Basis Dimension        Dim             ....  133

MULLIKEN ATOMIC CHARGES
-----------------------
   0 C :   -0.029572
   1 C :    0.051211
   2 C :    0.038623
   3 O :   -0.235219
   4 C :   -0.042122
   5 C :   -0.075051
   6 N :    0.059161
   7 H :    0.036384
   8 H :    0.028134
   9 H :    0.029959
  10 H :    0.012305
  11 H :    0.034549
  12 H :    0.031672
  13 H :    0.059968
Sum of atomic charges:    0.0000000

LOEWDIN ATOMIC CHARGES
----------------------
   0 C :   -0.060240
   1 C :   -0.049259
   2 C :    0.066950
   3 O :   -0.115196
   4 C :    0.015742
   5 C :   -0.048398
   6 N :   -0.041210
   7 H :    0.034328
   8 H :    0.028860
   9 H :    0.030012
  10 H :    0.033223
  11 H :    0.039358
  12 H :    0.025227
  13 H :    0.040602

  Mayer bond orders larger than 0.1
B(  0-C ,  1-C ) :   1.1024 B(  0-C ,  7-H ) :   0.9591 B(  0-C ,  8-H ) :   0.9683
B(  0-C ,  9-H ) :   0.9670 B(  1-C ,  2-C ) :   1.0530 B(  1-C , 10-H ) :   0.9169
B(  1-C , 11-H ) :   0.9202 B(  2-C ,  3-O ) :   0.9676 B(  2-C ,  4-C ) :   1.0389
B(  2-C , 12-H ) :   0.9282 B(  3-O ,  4-C ) :   1.0771 B(  4-C ,  5-C ) :   1.0316
B(  4-C , 13-H ) :   0.9170 B(  5-C ,  6-N ) :   3.0400

FINAL SINGLE POINT ENERGY      -324.020434371794

DIPOLE MOMENT
-------------
                                X             Y             Z
Electronic contribution:      7.06210       4.01596      -6.61655
Nuclear contribution   :     -7.88766      -4.92621       7.68244
                        -----------------------------------------
Total Dipole Moment    :     -0.82556      -0.91024       1.06589
                        -----------------------------------------
Magnitude (a.u.)       :      1.62672
Magnitude (Debye)      :      4.13479

                             ****ORCA TERMINATED NORMALLY****
TOTAL RUN TIME: 0 days 0 hours 0 minutes 6 seconds 80 msec
