                         Program Version 3.0.3 - RELEASE   -
|  1> ! RI PBE def2-SVP def2-SVP/J NBO PAL2
|  2> % maxcore 2000
|  3> % output
|  4>     # printlevel mini
|  5>     print[ P_Basis ] 0
|  6>     print[ P_SCFInfo ] 1
|  7>     print[ P_SCFIterInfo ] 1
|  8>     print[ P_OrbEn ] 0
|  9>     print[ P_Cartesian ] 0
| 10> end
| 11> *xyz 0 1
| 12>  C        3.0745970000    -1.2747610000     0.4642570000
| 13>  C        2.4414080000    -0.0324020000    -0.1410060000
| 14>  C        3.3485050000     1.1670800000    -0.0586510000
| 15>  O        2.7521670000     2.3635810000    -0.5868750000
| 16>  C        3.2001310000     3.1302020000     0.5377840000
| 17>  C        3.5827040000     1.8636980000     1.3031230000
| 18>  N        4.8512160000     1.8719080000     1.9742670000
| 19>  H        2.4054490000    -2.1340440000     0.3906730000
| 20>  H        3.3051870000    -1.1304910000     1.5237150000
| 21>  H        4.0062180000    -1.5359350000    -0.0451570000
| 22>  H        1.5017980000     0.2071170000     0.3680840000
| 23>  H        2.1895840000    -0.2084860000    -1.1921180000
| 24>  H        4.3055520000     0.9575900000    -0.5656030000
| 25>  H        2.4116080000     3.7641620000     0.9511470000
| 26>  H        4.0700280000     3.7526500000     0.2883850000
| 27>  H        2.8091330000     1.5761650000     2.0206490000
| 28>  H        5.6111460000     2.0285110000     1.3231420000
| 29>  H        5.0288690000     0.9997750000     2.4545850000
| 30> *
| 31>
| 32>                          ****END OF INPUT****
 Total Charge           Charge          ....    0
 Multiplicity           Mult            ....    1
 Number of Electrons    NEL             ....   56
 Basis Dimension        Dim             ....  153

MULLIKEN ATOMIC CHARGES
-----------------------
   0 C :   -0.049624
   1 C :    0.058636
   2 C :    0.107112
   3 O :   -0.347275
   4 C :    0.255213
   5 C :   -0.139407
   6 N :   -0.131158
   7 H :    0.032026
   8 H :    0.017994
   9 H :    0.020822
  10 H :    0.001993
  11 H :    0.019286
  12 H :   -0.036354
  13 H :    0.015584
  14 H :   -0.007964
  15 H :    0.004102
  16 H :    0.086346
  17 H :    0.092668
Sum of atomic charges:    0.0000000

LOEWDIN ATOMIC CHARGES
----------------------
   0 C :   -0.067920
   1 C :   -0.053990
   2 C :    0.045243
   3 O :   -0.177445
   4 C :    0.081277
   5 C :   -0.019440
   6 N :   -0.085260
   7 H :    0.031589
   8 H :    0.022120
   9 H :    0.025792
  10 H :    0.024264
  11 H :    0.031319
  12 H :   -0.001887
  13 H :    0.011879
  14 H :    0.005360
  15 H :    0.023584
  16 H :    0.049571
  17 H :    0.053944

  Mayer bond orders larger than 0.1
B(  0-C ,  1-C ) :   1.1041 B(  0-C ,  7-H ) :   0.9600 B(  0-C ,  8-H ) :   0.9648
B(  0-C ,  9-H ) :   0.9625 B(  1-C ,  2-C ) :   1.0717 B(  1-C , 10-H ) :   0.9138
B(  1-C , 11-H ) :   0.9204 B(  2-C ,  3-O ) :   1.0479 B(  2-C ,  5-C ) :   0.9989
B(  2-C , 12-H ) :   0.8873 B(  3-O ,  4-C ) :   1.0260 B(  4-C ,  5-C ) :   1.0726
B(  4-C , 13-H ) :   0.9379 B(  4-C , 14-H ) :   0.9182 B(  5-C ,  6-N ) :   1.1488
B(  5-C , 15-H ) :   0.8952 B(  6-N , 16-H ) :   0.9578 B(  6-N , 17-H ) :   0.9682

FINAL SINGLE POINT ENERGY      -326.431114893540

DIPOLE MOMENT
-------------
                                X             Y             Z
Electronic contribution:     -0.45936       4.94355      -1.49109
Nuclear contribution   :      0.84508      -5.54827       1.82792
                        -----------------------------------------
Total Dipole Moment    :      0.38572      -0.60473       0.33683
                        -----------------------------------------
Magnitude (a.u.)       :      0.79242
Magnitude (Debye)      :      2.01417

                             ****ORCA TERMINATED NORMALLY****
TOTAL RUN TIME: 0 days 0 hours 0 minutes 8 seconds 10 msec
