                         Program Version 3.0.3 - RELEASE   -
|  1> ! RI PBE def2-SVP def2-SVP/J NBO PAL2
|  2> % maxcore 2000
|  3> % output
|  4>     # printlevel mini
|  5>     print[ P_Basis ] 0
|  6>     print[ P_SCFInfo ] 1
|  7>     print[ P_SCFIterInfo ] 1
|  8>     print[ P_OrbEn ] 0
|  9>     print[ P_Cartesian ] 0
| 10> end
| 11> *xyz 0 1
| 12>  C        2.6310020000    -0.3816490000    -1.5913400000
| 13>  C        2.4480600000     0.0429530000    -0.1439800000
| 14>  C        2.9748230000    -0.9045900000     0.9049260000
| 15>  O        2.8641890000    -0.3908860000     2.2052070000
| 16>  C        2.8530440000    -2.4022830000     0.7859970000
| 17>  C        4.2030630000    -1.7520950000     0.7219570000
| 18>  N        5.1510700000    -1.9775890000     1.7723040000
| 19>  H        2.1965210000     0.3628320000    -2.2614270000
| 20>  H        2.1407780000    -1.3349300000    -1.8026200000
| 21>  H        3.6860840000    -0.4793850000    -1.8565210000
| 22>  H        1.3778870000     0.2004240000     0.0492070000
| 23>  H        2.9314410000     1.0119120000     0.0218310000
| 24>  H        1.9361220000    -0.4089730000     2.4561150000
| 25>  H        2.4424820000    -2.8433370000    -0.1141370000
| 26>  H        2.6168640000    -2.9336000000     1.7017120000
| 27>  H        4.6647410000    -1.7287030000    -0.2588800000
| 28>  H        4.6822300000    -1.8754530000     2.6656080000
| 29>  H        5.8607100000    -1.2535380000     1.7484310000
| 30> *
| 31>
| 32>                          ****END OF INPUT****
 Total Charge           Charge          ....    0
 Multiplicity           Mult            ....    1
 Number of Electrons    NEL             ....   56
 Basis Dimension        Dim             ....  153

MULLIKEN ATOMIC CHARGES
-----------------------
   0 C :   -0.053674
   1 C :    0.098928
   2 C :   -0.087416
   3 O :   -0.242228
   4 C :   -0.000057
   5 C :   -0.072349
   6 N :   -0.109070
   7 H :    0.023080
   8 H :    0.021926
   9 H :    0.030045
  10 H :   -0.008763
  11 H :    0.010466
  12 H :    0.157966
  13 H :    0.024850
  14 H :    0.019318
  15 H :    0.018075
  16 H :    0.077706
  17 H :    0.091198
Sum of atomic charges:   -0.0000000

LOEWDIN ATOMIC CHARGES
----------------------
   0 C :   -0.067014
   1 C :   -0.048976
   2 C :   -0.013693
   3 O :   -0.090784
   4 C :   -0.068106
   5 C :   -0.009963
   6 N :   -0.081476
   7 H :    0.031578
   8 H :    0.025233
   9 H :    0.025838
  10 H :    0.019639
  11 H :    0.027964
  12 H :    0.072039
  13 H :    0.023272
  14 H :    0.027282
  15 H :    0.020859
  16 H :    0.048157
  17 H :    0.058149

  Mayer bond orders larger than 0.1
B(  0-C ,  1-C ) :   1.1104 B(  0-C ,  7-H ) :   0.9527 B(  0-C ,  8-H ) :   0.9607
B(  0-C ,  9-H ) :   0.9615 B(  1-C ,  2-C ) :   1.0371 B(  1-C , 10-H ) :   0.9110
B(  1-C , 11-H ) :   0.9211 B(  2-C ,  3-O ) :   1.0827 B(  2-C ,  4-C ) :   0.9640
B(  2-C ,  5-C ) :   0.8626 B(  3-O , 12-H ) :   0.9792 B(  4-C ,  5-C ) :   0.9714
B(  4-C , 13-H ) :   0.9282 B(  4-C , 14-H ) :   0.9261 B(  5-C ,  6-N ) :   1.1853
B(  5-C , 15-H ) :   0.9395 B(  6-N , 16-H ) :   0.9474 B(  6-N , 17-H ) :   0.9662

FINAL SINGLE POINT ENERGY      -326.431352015921

DIPOLE MOMENT
-------------
                                X             Y             Z
Electronic contribution:      1.15210      -0.28763       4.86435
Nuclear contribution   :     -1.70058       0.65935      -4.97206
                        -----------------------------------------
Total Dipole Moment    :     -0.54848       0.37172      -0.10772
                        -----------------------------------------
Magnitude (a.u.)       :      0.67127
Magnitude (Debye)      :      1.70624

                             ****ORCA TERMINATED NORMALLY****
TOTAL RUN TIME: 0 days 0 hours 0 minutes 7 seconds 976 msec
