                         Program Version 3.0.3 - RELEASE   -
|  1> ! RI PBE def2-SVP def2-SVP/J NBO PAL2
|  2> % maxcore 2000
|  3> % output
|  4>     # printlevel mini
|  5>     print[ P_Basis ] 0
|  6>     print[ P_SCFInfo ] 1
|  7>     print[ P_SCFIterInfo ] 1
|  8>     print[ P_OrbEn ] 0
|  9>     print[ P_Cartesian ] 0
| 10> end
| 11> *xyz 0 1
| 12>  C        2.8739620000    -0.5869020000     1.4794320000
| 13>  C        2.5520910000    -0.0445240000     0.0982460000
| 14>  C        3.0713450000    -0.8417390000    -1.0753080000
| 15>  O        2.6523260000    -0.1505000000    -2.2328160000
| 16>  C        4.5611590000    -1.2428250000    -1.1670410000
| 17>  N        4.1294230000    -2.5044090000    -1.7937680000
| 18>  C        2.7924310000    -2.3574240000    -1.1924200000
| 19>  H        2.4523490000     0.0645410000     2.2477480000
| 20>  H        3.9505200000    -0.6436820000     1.6574680000
| 21>  H        2.4572020000    -1.5847600000     1.6359290000
| 22>  H        2.9462040000     0.9719020000    -0.0057470000
| 23>  H        1.4674660000     0.0400880000    -0.0270370000
| 24>  H        2.9756680000    -0.6462100000    -2.9928300000
| 25>  H        5.0248290000    -1.3675830000    -0.1809140000
| 26>  H        5.1937360000    -0.6031610000    -1.7888510000
| 27>  H        4.6475770000    -3.3326110000    -1.5321330000
| 28>  H        2.6847210000    -2.8422290000    -0.2144790000
| 29>  H        1.9554030000    -2.6438710000    -1.8353080000
| 30> *
| 31>
| 32>                          ****END OF INPUT****
 Total Charge           Charge          ....    0
 Multiplicity           Mult            ....    1
 Number of Electrons    NEL             ....   56
 Basis Dimension        Dim             ....  153

MULLIKEN ATOMIC CHARGES
-----------------------
   0 C :   -0.037725
   1 C :    0.073311
   2 C :   -0.252421
   3 O :   -0.233683
   4 C :    0.193678
   5 N :   -0.283322
   6 C :    0.204145
   7 H :    0.022474
   8 H :    0.021607
   9 H :    0.018071
  10 H :    0.015589
  11 H :    0.020092
  12 H :    0.154789
  13 H :   -0.005768
  14 H :    0.005571
  15 H :    0.092353
  16 H :   -0.010648
  17 H :    0.001887
Sum of atomic charges:    0.0000000

LOEWDIN ATOMIC CHARGES
----------------------
   0 C :   -0.069095
   1 C :   -0.049143
   2 C :    0.020341
   3 O :   -0.098602
   4 C :    0.013026
   5 N :   -0.116743
   6 C :    0.014810
   7 H :    0.031983
   8 H :    0.021978
   9 H :    0.021617
  10 H :    0.031889
  11 H :    0.032513
  12 H :    0.069973
  13 H :    0.005750
  14 H :    0.009002
  15 H :    0.047474
  16 H :    0.004901
  17 H :    0.008329

  Mayer bond orders larger than 0.1
B(  0-C ,  1-C ) :   1.1100 B(  0-C ,  7-H ) :   0.9523 B(  0-C ,  8-H ) :   0.9619
B(  0-C ,  9-H ) :   0.9588 B(  1-C ,  2-C ) :   1.0338 B(  1-C , 10-H ) :   0.9203
B(  1-C , 11-H ) :   0.9224 B(  2-C ,  3-O ) :   1.0860 B(  2-C ,  4-C ) :   1.0127
B(  2-C ,  6-C ) :   1.0108 B(  3-O , 12-H ) :   0.9665 B(  4-C ,  5-N ) :   1.0360
B(  4-C , 13-H ) :   0.9157 B(  4-C , 14-H ) :   0.9215 B(  5-N ,  6-C ) :   1.0402
B(  5-N , 15-H ) :   0.9399 B(  6-C , 16-H ) :   0.9143 B(  6-C , 17-H ) :   0.9207

FINAL SINGLE POINT ENERGY      -326.428855646747

DIPOLE MOMENT
-------------
                                X             Y             Z
Electronic contribution:      0.09029      -0.01907      -5.49270
Nuclear contribution   :      0.20894      -0.46664       5.92213
                        -----------------------------------------
Total Dipole Moment    :      0.29923      -0.48571       0.42943
                        -----------------------------------------
Magnitude (a.u.)       :      0.71405
Magnitude (Debye)      :      1.81496

                             ****ORCA TERMINATED NORMALLY****
TOTAL RUN TIME: 0 days 0 hours 0 minutes 8 seconds 110 msec
