                         Program Version 3.0.3 - RELEASE   -
|  1> ! RI PBE def2-SVP def2-SVP/J NBO PAL2
|  2> % maxcore 2000
|  3> % output
|  4>     # printlevel mini
|  5>     print[ P_Basis ] 0
|  6>     print[ P_SCFInfo ] 1
|  7>     print[ P_SCFIterInfo ] 1
|  8>     print[ P_OrbEn ] 0
|  9>     print[ P_Cartesian ] 0
| 10> end
| 11> *xyz 0 1
| 12>  C        2.0409360000     0.9516510000     0.7337490000
| 13>  C        2.0217000000    -0.1363630000    -0.0187400000
| 14>  C        3.0323300000    -1.2154460000     0.1180780000
| 15>  O        2.4208470000    -2.4854760000     0.3802380000
| 16>  C        3.0691640000    -3.3249610000    -0.4442220000
| 17>  N        3.8439790000    -2.8062050000    -1.2989010000
| 18>  O        3.7331990000    -1.4192800000    -1.1011680000
| 19>  H        1.3067170000     1.7390850000     0.6144980000
| 20>  H        2.7988120000     1.0942240000     1.4976450000
| 21>  H        1.2738000000    -0.2887210000    -0.7911640000
| 22>  H        3.7427870000    -1.0030820000     0.9322880000
| 23>  H        2.8811280000    -4.3842360000    -0.3537910000
| 24> *
| 25>
| 26>                          ****END OF INPUT****
 Total Charge           Charge          ....    0
 Multiplicity           Mult            ....    1
 Number of Electrons    NEL             ....   52
 Basis Dimension        Dim             ....  123

MULLIKEN ATOMIC CHARGES
-----------------------
   0 C :   -0.021229
   1 C :    0.002907
   2 C :    0.288514
   3 O :   -0.255646
   4 C :    0.116762
   5 N :    0.000607
   6 O :   -0.273323
   7 H :    0.043031
   8 H :    0.036635
   9 H :    0.012471
  10 H :    0.003742
  11 H :    0.045530
Sum of atomic charges:    0.0000000

LOEWDIN ATOMIC CHARGES
----------------------
   0 C :   -0.020654
   1 C :   -0.046144
   2 C :    0.128268
   3 O :   -0.072945
   4 C :    0.006364
   5 N :   -0.032164
   6 O :   -0.099300
   7 H :    0.034268
   8 H :    0.029215
   9 H :    0.035082
  10 H :    0.004646
  11 H :    0.033364

  Mayer bond orders larger than 0.1
B(  0-C ,  1-C ) :   1.9664 B(  0-C ,  7-H ) :   0.9409 B(  0-C ,  8-H ) :   0.9520
B(  1-C ,  2-C ) :   1.0410 B(  1-C ,  9-H ) :   0.9468 B(  2-C ,  3-O ) :   0.9712
B(  2-C ,  6-O ) :   1.0000 B(  2-C , 10-H ) :   0.9114 B(  3-O ,  4-C ) :   1.1110
B(  3-O ,  5-N ) :   0.1070 B(  4-C ,  5-N ) :   1.8532 B(  4-C , 11-H ) :   0.9674
B(  5-N ,  6-O ) :   0.9364

FINAL SINGLE POINT ENERGY      -359.853616167923

DIPOLE MOMENT
-------------
                                X             Y             Z
Electronic contribution:      1.74258      -4.23087      -2.13481
Nuclear contribution   :     -2.29017       4.38468       2.86799
                        -----------------------------------------
Total Dipole Moment    :     -0.54759       0.15382       0.73319
                        -----------------------------------------
Magnitude (a.u.)       :      0.92794
Magnitude (Debye)      :      2.35864

                             ****ORCA TERMINATED NORMALLY****
TOTAL RUN TIME: 0 days 0 hours 0 minutes 5 seconds 728 msec
