                         Program Version 3.0.3 - RELEASE   -
|  1> ! RI PBE def2-SVP def2-SVP/J NBO PAL2
|  2> % maxcore 2000
|  3> % output
|  4>     # printlevel mini
|  5>     print[ P_Basis ] 0
|  6>     print[ P_SCFInfo ] 1
|  7>     print[ P_SCFIterInfo ] 1
|  8>     print[ P_OrbEn ] 0
|  9>     print[ P_Cartesian ] 0
| 10> end
| 11> *xyz 0 1
| 12>  C        1.0180290000    -0.0268790000    -0.0814540000
| 13>  C        2.2163670000    -0.0349830000    -0.0985330000
| 14>  C        3.6798550000    -0.0278320000    -0.0750770000
| 15>  O        4.2073430000    -1.1444810000    -0.7909550000
| 16>  C        4.6740900000    -0.5928860000    -1.9277980000
| 17>  N        4.7023840000     0.6695080000    -1.9816300000
| 18>  O        4.2239650000     1.1054010000    -0.7337650000
| 19>  H       -0.0470360000    -0.0171690000    -0.0776200000
| 20>  H        4.0510960000    -0.0564970000     0.9526330000
| 21>  H        5.0122170000    -1.2489820000    -2.7150090000
| 22> *
| 23>
| 24>                          ****END OF INPUT****
 Total Charge           Charge          ....    0
 Multiplicity           Mult            ....    1
 Number of Electrons    NEL             ....   50
 Basis Dimension        Dim             ....  113

MULLIKEN ATOMIC CHARGES
-----------------------
   0 C :   -0.456102
   1 C :    0.427682
   2 C :    0.261849
   3 O :   -0.242277
   4 C :    0.126002
   5 N :    0.009238
   6 O :   -0.251508
   7 H :    0.018872
   8 H :    0.054263
   9 H :    0.051981
Sum of atomic charges:   -0.0000000

LOEWDIN ATOMIC CHARGES
----------------------
   0 C :   -0.022869
   1 C :   -0.050201
   2 C :    0.118425
   3 O :   -0.061744
   4 C :    0.012463
   5 N :   -0.026361
   6 O :   -0.085854
   7 H :    0.042295
   8 H :    0.037662
   9 H :    0.036186

  Mayer bond orders larger than 0.1
B(  0-C ,  1-C ) :   2.3815 B(  0-C ,  7-H ) :   1.0911 B(  1-C ,  2-C ) :   0.8984
B(  1-C ,  7-H ) :  -0.1019 B(  2-C ,  3-O ) :   1.0177 B(  2-C ,  6-O ) :   1.0628
B(  2-C ,  8-H ) :   0.9076 B(  3-O ,  4-C ) :   1.1007 B(  3-O ,  5-N ) :   0.1017
B(  4-C ,  5-N ) :   1.8457 B(  4-C ,  9-H ) :   0.9658 B(  5-N ,  6-O ) :   0.9327

FINAL SINGLE POINT ENERGY      -358.601287401298

DIPOLE MOMENT
-------------
                                X             Y             Z
Electronic contribution:      1.26023       0.47318      -0.33080
Nuclear contribution   :     -1.63660      -1.21490       0.59530
                        -----------------------------------------
Total Dipole Moment    :     -0.37637      -0.74171       0.26449
                        -----------------------------------------
Magnitude (a.u.)       :      0.87278
Magnitude (Debye)      :      2.21843

                             ****ORCA TERMINATED NORMALLY****
TOTAL RUN TIME: 0 days 0 hours 0 minutes 5 seconds 660 msec
