                         Program Version 3.0.3 - RELEASE   -
|  1> ! RI PBE def2-SVP def2-SVP/J NBO PAL2
|  2> % maxcore 2000
|  3> % output
|  4>     # printlevel mini
|  5>     print[ P_Basis ] 0
|  6>     print[ P_SCFInfo ] 1
|  7>     print[ P_SCFIterInfo ] 1
|  8>     print[ P_OrbEn ] 0
|  9>     print[ P_Cartesian ] 0
| 10> end
| 11> *xyz 0 1
| 12>  C        0.9118860000    -0.0232930000    -0.0429920000
| 13>  C        2.4246070000     0.0357630000    -0.1686400000
| 14>  C        3.0244910000     1.0930120000     0.7239030000
| 15>  O        4.4501580000     1.1177780000     0.6132720000
| 16>  C        4.7324750000     2.3563510000     0.1815510000
| 17>  N        3.7581530000     3.1417870000     0.0027350000
| 18>  O        2.6148860000     2.4050190000     0.3417060000
| 19>  H        0.4994810000    -0.7956700000    -0.6940920000
| 20>  H        0.4598030000     0.9305930000    -0.3205570000
| 21>  H        0.6076080000    -0.2554480000     0.9814010000
| 22>  H        2.7228540000     0.2567350000    -1.1979040000
| 23>  H        2.8741860000    -0.9240810000     0.1042080000
| 24>  H        2.7633410000     0.9308820000     1.7791540000
| 25>  H        5.7652720000     2.6169810000     0.0072540000
| 26> *
| 27>
| 28>                          ****END OF INPUT****
 Total Charge           Charge          ....    0
 Multiplicity           Mult            ....    1
 Number of Electrons    NEL             ....   54
 Basis Dimension        Dim             ....  133

MULLIKEN ATOMIC CHARGES
-----------------------
   0 C :   -0.031075
   1 C :    0.029486
   2 C :    0.228889
   3 O :   -0.254546
   4 C :    0.122440
   5 N :   -0.003709
   6 O :   -0.282011
   7 H :    0.030113
   8 H :    0.042409
   9 H :    0.021658
  10 H :    0.014161
  11 H :    0.024623
  12 H :    0.014177
  13 H :    0.043386
Sum of atomic charges:   -0.0000000

LOEWDIN ATOMIC CHARGES
----------------------
   0 C :   -0.061897
   1 C :   -0.064029
   2 C :    0.130180
   3 O :   -0.070175
   4 C :    0.004524
   5 N :   -0.034989
   6 O :   -0.103777
   7 H :    0.032290
   8 H :    0.033204
   9 H :    0.026989
  10 H :    0.032674
  11 H :    0.034426
  12 H :    0.008040
  13 H :    0.032540

  Mayer bond orders larger than 0.1
B(  0-C ,  1-C ) :   1.1111 B(  0-C ,  7-H ) :   0.9610 B(  0-C ,  8-H ) :   0.9645
B(  0-C ,  9-H ) :   0.9658 B(  1-C ,  2-C ) :   1.0507 B(  1-C , 10-H ) :   0.9092
B(  1-C , 11-H ) :   0.9243 B(  2-C ,  3-O ) :   0.9884 B(  2-C ,  6-O ) :   1.0038
B(  2-C , 12-H ) :   0.9204 B(  3-O ,  4-C ) :   1.1122 B(  3-O ,  5-N ) :   0.1091
B(  4-C ,  5-N ) :   1.8431 B(  4-C , 13-H ) :   0.9684 B(  5-N ,  6-O ) :   0.9438

FINAL SINGLE POINT ENERGY      -361.082281127530

DIPOLE MOMENT
-------------
                                X             Y             Z
Electronic contribution:      5.94565       5.93911       1.05318
Nuclear contribution   :     -5.70519      -6.79237      -0.95499
                        -----------------------------------------
Total Dipole Moment    :      0.24046      -0.85326       0.09819
                        -----------------------------------------
Magnitude (a.u.)       :      0.89192
Magnitude (Debye)      :      2.26707

                             ****ORCA TERMINATED NORMALLY****
TOTAL RUN TIME: 0 days 0 hours 0 minutes 6 seconds 713 msec
