                         Program Version 3.0.3 - RELEASE   -
|  1> ! RI PBE def2-SVP def2-SVP/J NBO PAL2
|  2> % maxcore 2000
|  3> % output
|  4>     # printlevel mini
|  5>     print[ P_Basis ] 0
|  6>     print[ P_SCFInfo ] 1
|  7>     print[ P_SCFIterInfo ] 1
|  8>     print[ P_OrbEn ] 0
|  9>     print[ P_Cartesian ] 0
| 10> end
| 11> *xyz 0 1
| 12>  C        1.0187320000    -0.0193290000     0.1557090000
| 13>  C        2.4882940000    -0.0822850000    -0.0567200000
| 14>  C        3.1538090000    -0.5384150000    -1.1288030000
| 15>  C        2.5281170000    -1.0939800000    -2.3674370000
| 16>  C        4.6064300000    -0.4887740000    -1.0834750000
| 17>  N        5.3076660000    -0.9027880000    -2.0610700000
| 18>  O        6.6594790000    -0.7642540000    -1.8081080000
| 19>  H        0.7006460000     1.0120090000     0.3415030000
| 20>  H        0.7334930000    -0.5924780000     1.0442480000
| 21>  H        0.4460310000    -0.4008500000    -0.6885920000
| 22>  H        3.0912470000     0.2919560000     0.7691580000
| 23>  H        1.4410750000    -1.0940460000    -2.3165360000
| 24>  H        2.8711620000    -2.1170140000    -2.5405760000
| 25>  H        2.8382240000    -0.5164670000    -3.2418350000
| 26>  H        5.0909030000    -0.0876220000    -0.1906550000
| 27>  H        7.0669830000    -1.1065640000    -2.6083110000
| 28> *
| 29>
| 30>                          ****END OF INPUT****
 Total Charge           Charge          ....    0
 Multiplicity           Mult            ....    1
 Number of Electrons    NEL             ....   54
 Basis Dimension        Dim             ....  143

MULLIKEN ATOMIC CHARGES
-----------------------
   0 C :    0.058096
   1 C :   -0.149104
   2 C :   -0.080484
   3 C :    0.094655
   4 C :   -0.004816
   5 N :   -0.049142
   6 O :   -0.169403
   7 H :    0.033704
   8 H :    0.033851
   9 H :    0.020839
  10 H :   -0.006695
  11 H :    0.008279
  12 H :    0.029611
  13 H :    0.029446
  14 H :   -0.019170
  15 H :    0.170333
Sum of atomic charges:   -0.0000000

LOEWDIN ATOMIC CHARGES
----------------------
   0 C :   -0.065664
   1 C :   -0.034958
   2 C :   -0.054092
   3 C :   -0.056497
   4 C :   -0.036893
   5 N :   -0.023973
   6 O :   -0.049328
   7 H :    0.040362
   8 H :    0.040522
   9 H :    0.029670
  10 H :    0.023519
  11 H :    0.025600
  12 H :    0.040819
  13 H :    0.040438
  14 H :    0.007159
  15 H :    0.073315

  Mayer bond orders larger than 0.1
B(  0-C ,  1-C ) :   1.0969 B(  0-C ,  7-H ) :   0.9389 B(  0-C ,  8-H ) :   0.9386
B(  0-C ,  9-H ) :   0.9534 B(  1-C ,  2-C ) :   1.7802 B(  1-C ,  5-N ) :   0.1034
B(  1-C , 10-H ) :   0.9404 B(  2-C ,  3-C ) :   1.1228 B(  2-C ,  4-C ) :   1.0894
B(  3-C , 11-H ) :   0.9428 B(  3-C , 12-H ) :   0.9280 B(  3-C , 13-H ) :   0.9295
B(  4-C ,  5-N ) :   1.8374 B(  4-C ,  6-O ) :   0.1011 B(  4-C , 14-H ) :   0.9463
B(  5-N ,  6-O ) :   0.9912 B(  6-O , 15-H ) :   0.9755

FINAL SINGLE POINT ENERGY      -325.209141788309

DIPOLE MOMENT
-------------
                                X             Y             Z
Electronic contribution:      8.55949      -0.46273      -1.45311
Nuclear contribution   :     -8.77432       0.45760       1.45473
                        -----------------------------------------
Total Dipole Moment    :     -0.21483      -0.00512       0.00161
                        -----------------------------------------
Magnitude (a.u.)       :      0.21490
Magnitude (Debye)      :      0.54623

                             ****ORCA TERMINATED NORMALLY****
TOTAL RUN TIME: 0 days 0 hours 0 minutes 7 seconds 105 msec
