                         Program Version 3.0.3 - RELEASE   -
|  1> ! RI PBE def2-SVP def2-SVP/J NBO PAL2
|  2> % maxcore 2000
|  3> % output
|  4>     # printlevel mini
|  5>     print[ P_Basis ] 0
|  6>     print[ P_SCFInfo ] 1
|  7>     print[ P_SCFIterInfo ] 1
|  8>     print[ P_OrbEn ] 0
|  9>     print[ P_Cartesian ] 0
| 10> end
| 11> *xyz 0 1
| 12>  C        0.8891960000     0.1909810000     0.2082430000
| 13>  C        2.3719400000     0.2106920000     0.0766250000
| 14>  C        3.0947850000     0.1363110000    -1.0450320000
| 15>  C        2.5522430000     0.0563840000    -2.4343030000
| 16>  C        4.5895990000     0.2295620000    -0.9871920000
| 17>  N        5.1910820000    -0.2442490000     0.1391860000
| 18>  O        5.2309480000     0.7201770000    -1.8961240000
| 19>  H        0.5768060000    -0.6137240000     0.8817540000
| 20>  H        0.3760530000     0.0516310000    -0.7419510000
| 21>  H        0.5311700000     1.1236970000     0.6561600000
| 22>  H        2.9097110000     0.3367640000     1.0138860000
| 23>  H        1.4681980000     0.1474520000    -2.4664440000
| 24>  H        2.8337200000    -0.8894130000    -2.9071420000
| 25>  H        2.9968040000     0.8477780000    -3.0406820000
| 26>  H        4.7092860000    -0.8804490000     0.7469390000
| 27>  H        6.1967690000    -0.2495960000     0.1435770000
| 28> *
| 29>
| 30>                          ****END OF INPUT****
 Total Charge           Charge          ....    0
 Multiplicity           Mult            ....    1
 Number of Electrons    NEL             ....   54
 Basis Dimension        Dim             ....  143

MULLIKEN ATOMIC CHARGES
-----------------------
   0 C :    0.051488
   1 C :   -0.139719
   2 C :   -0.147016
   3 C :    0.067063
   4 C :    0.037521
   5 N :   -0.059977
   6 O :   -0.203403
   7 H :    0.033590
   8 H :    0.022299
   9 H :    0.037933
  10 H :   -0.012900
  11 H :    0.007987
  12 H :    0.029674
  13 H :    0.050650
  14 H :    0.110228
  15 H :    0.114583
Sum of atomic charges:    0.0000000

LOEWDIN ATOMIC CHARGES
----------------------
   0 C :   -0.065119
   1 C :   -0.039684
   2 C :   -0.072535
   3 C :   -0.055178
   4 C :    0.028816
   5 N :    0.009237
   6 O :   -0.188187
   7 H :    0.039955
   8 H :    0.030310
   9 H :    0.041658
  10 H :    0.019032
  11 H :    0.025517
  12 H :    0.040668
  13 H :    0.045903
  14 H :    0.067344
  15 H :    0.072262

  Mayer bond orders larger than 0.1
B(  0-C ,  1-C ) :   1.1002 B(  0-C ,  7-H ) :   0.9413 B(  0-C ,  8-H ) :   0.9557
B(  0-C ,  9-H ) :   0.9406 B(  1-C ,  2-C ) :   1.8424 B(  1-C , 10-H ) :   0.9343
B(  2-C ,  3-C ) :   1.1129 B(  2-C ,  4-C ) :   0.9248 B(  3-C , 11-H ) :   0.9456
B(  3-C , 12-H ) :   0.9401 B(  3-C , 13-H ) :   0.9278 B(  4-C ,  5-N ) :   1.2422
B(  4-C ,  6-O ) :   2.0964 B(  5-N , 14-H ) :   0.9393 B(  5-N , 15-H ) :   0.9389

FINAL SINGLE POINT ENERGY      -325.285935109477

DIPOLE MOMENT
-------------
                                X             Y             Z
Electronic contribution:      7.29259       0.90971      -0.77024
Nuclear contribution   :     -7.83274      -1.63452       1.81568
                        -----------------------------------------
Total Dipole Moment    :     -0.54014      -0.72481       1.04544
                        -----------------------------------------
Magnitude (a.u.)       :      1.38204
Magnitude (Debye)      :      3.51287

                             ****ORCA TERMINATED NORMALLY****
TOTAL RUN TIME: 0 days 0 hours 0 minutes 7 seconds 315 msec
