                         Program Version 3.0.3 - RELEASE   -
|  1> ! RI PBE def2-SVP def2-SVP/J NBO PAL2
|  2> % maxcore 2000
|  3> % output
|  4>     # printlevel mini
|  5>     print[ P_Basis ] 0
|  6>     print[ P_SCFInfo ] 1
|  7>     print[ P_SCFIterInfo ] 1
|  8>     print[ P_OrbEn ] 0
|  9>     print[ P_Cartesian ] 0
| 10> end
| 11> *xyz 0 1
| 12>  C        0.9498420000     0.0907030000     0.0727810000
| 13>  C        2.4329580000     0.1257380000    -0.0112590000
| 14>  C        3.2529990000    -0.0182610000     1.0292500000
| 15>  C        4.7194220000     0.0102840000     0.9873060000
| 16>  C        5.4893050000    -0.1708420000     2.2571180000
| 17>  N        5.2895040000     0.1904430000    -0.1422390000
| 18>  O        6.6699490000     0.1936580000    -0.0266420000
| 19>  H        0.5144920000     1.0257720000    -0.2956690000
| 20>  H        0.6044070000    -0.0682880000     1.0961910000
| 21>  H        0.5406560000    -0.7072520000    -0.5560850000
| 22>  H        2.8712930000     0.2801180000    -0.9943100000
| 23>  H        2.8243950000    -0.1733110000     2.0167440000
| 24>  H        4.8220940000    -0.3098380000     3.1067000000
| 25>  H        6.1284630000     0.6960060000     2.4421680000
| 26>  H        6.1545050000    -1.0343720000     2.1795490000
| 27>  H        6.9565050000     0.3357330000    -0.9325940000
| 28> *
| 29>
| 30>                          ****END OF INPUT****
 Total Charge           Charge          ....    0
 Multiplicity           Mult            ....    1
 Number of Electrons    NEL             ....   54
 Basis Dimension        Dim             ....  143

MULLIKEN ATOMIC CHARGES
-----------------------
   0 C :    0.044006
   1 C :   -0.086855
   2 C :    0.036941
   3 C :   -0.192353
   4 C :    0.090684
   5 N :   -0.043696
   6 O :   -0.175346
   7 H :    0.034641
   8 H :    0.016415
   9 H :    0.036325
  10 H :    0.004080
  11 H :   -0.029355
  12 H :    0.008038
  13 H :    0.042292
  14 H :    0.042575
  15 H :    0.171607
Sum of atomic charges:   -0.0000000

LOEWDIN ATOMIC CHARGES
----------------------
   0 C :   -0.062969
   1 C :   -0.008958
   2 C :   -0.062962
   3 C :   -0.063187
   4 C :   -0.072562
   5 N :   -0.029984
   6 O :   -0.046039
   7 H :    0.038705
   8 H :    0.029432
   9 H :    0.039114
  10 H :    0.025630
  11 H :    0.023290
  12 H :    0.028993
  13 H :    0.043775
  14 H :    0.043964
  15 H :    0.073760

  Mayer bond orders larger than 0.1
B(  0-C ,  1-C ) :   1.0845 B(  0-C ,  7-H ) :   0.9427 B(  0-C ,  8-H ) :   0.9604
B(  0-C ,  9-H ) :   0.9428 B(  1-C ,  2-C ) :   1.8378 B(  1-C ,  5-N ) :   0.1026
B(  1-C , 10-H ) :   0.9464 B(  2-C ,  3-C ) :   1.0949 B(  2-C , 11-H ) :   0.9440
B(  3-C ,  4-C ) :   1.0681 B(  3-C ,  5-N ) :   1.8746 B(  4-C , 12-H ) :   0.9421
B(  4-C , 13-H ) :   0.9343 B(  4-C , 14-H ) :   0.9338 B(  5-N ,  6-O ) :   1.0087
B(  6-O , 15-H ) :   0.9756

FINAL SINGLE POINT ENERGY      -325.207732741424

DIPOLE MOMENT
-------------
                                X             Y             Z
Electronic contribution:      5.75029       0.48786      -2.65153
Nuclear contribution   :     -5.81213      -0.48898       2.62996
                        -----------------------------------------
Total Dipole Moment    :     -0.06184      -0.00111      -0.02157
                        -----------------------------------------
Magnitude (a.u.)       :      0.06550
Magnitude (Debye)      :      0.16650

                             ****ORCA TERMINATED NORMALLY****
TOTAL RUN TIME: 0 days 0 hours 0 minutes 7 seconds 303 msec
