                         Program Version 3.0.3 - RELEASE   -
|  1> ! RI PBE def2-SVP def2-SVP/J NBO PAL2
|  2> % maxcore 2000
|  3> % output
|  4>     # printlevel mini
|  5>     print[ P_Basis ] 0
|  6>     print[ P_SCFInfo ] 1
|  7>     print[ P_SCFIterInfo ] 1
|  8>     print[ P_OrbEn ] 0
|  9>     print[ P_Cartesian ] 0
| 10> end
| 11> *xyz 0 1
| 12>  C        0.6335370000     0.3894050000    -0.2446480000
| 13>  C        2.0648250000     0.1877120000     0.1162250000
| 14>  C        3.0999020000     0.6423960000    -0.5794640000
| 15>  C        4.5374940000     0.4359570000    -0.2091150000
| 16>  C        5.2706490000    -0.3523630000    -1.2437030000
| 17>  N        6.2411620000     0.1679270000    -1.8669640000
| 18>  O        6.7881470000    -0.7052740000    -2.7924300000
| 19>  H        0.1209820000    -0.5692460000    -0.3733160000
| 20>  H        0.5313430000     0.9578350000    -1.1708850000
| 21>  H        0.0994950000     0.9255020000     0.5463730000
| 22>  H        2.2597710000    -0.3749230000     1.0289800000
| 23>  H        2.9204120000     1.2033160000    -1.4955750000
| 24>  H        4.5922500000    -0.0897540000     0.7506530000
| 25>  H        5.0489430000     1.3963150000    -0.0932320000
| 26>  H        4.9483190000    -1.3718310000    -1.4666780000
| 27>  H        7.5005610000    -0.1899720000    -3.1803300000
| 28> *
| 29>
| 30>                          ****END OF INPUT****
 Total Charge           Charge          ....    0
 Multiplicity           Mult            ....    1
 Number of Electrons    NEL             ....   54
 Basis Dimension        Dim             ....  143

MULLIKEN ATOMIC CHARGES
-----------------------
   0 C :    0.036764
   1 C :   -0.099711
   2 C :   -0.079295
   3 C :    0.136255
   4 C :   -0.056036
   5 N :   -0.048939
   6 O :   -0.179673
   7 H :    0.034513
   8 H :    0.020247
   9 H :    0.036210
  10 H :   -0.006749
  11 H :   -0.004307
  12 H :    0.016715
  13 H :    0.022151
  14 H :    0.001246
  15 H :    0.170610
Sum of atomic charges:   -0.0000000

LOEWDIN ATOMIC CHARGES
----------------------
   0 C :   -0.065666
   1 C :   -0.043736
   2 C :   -0.044912
   3 C :   -0.045205
   4 C :   -0.030432
   5 N :   -0.019702
   6 O :   -0.057346
   7 H :    0.037331
   8 H :    0.031508
   9 H :    0.037573
  10 H :    0.021135
  11 H :    0.023105
  12 H :    0.038121
  13 H :    0.040554
  14 H :    0.005006
  15 H :    0.072667

  Mayer bond orders larger than 0.1
B(  0-C ,  1-C ) :   1.0888 B(  0-C ,  7-H ) :   0.9467 B(  0-C ,  8-H ) :   0.9592
B(  0-C ,  9-H ) :   0.9465 B(  1-C ,  2-C ) :   1.9206 B(  1-C , 10-H ) :   0.9514
B(  2-C ,  3-C ) :   1.0403 B(  2-C , 11-H ) :   0.9521 B(  3-C ,  4-C ) :   1.0287
B(  3-C , 12-H ) :   0.9106 B(  3-C , 13-H ) :   0.9007 B(  4-C ,  5-N ) :   1.9029
B(  4-C ,  6-O ) :   0.1127 B(  4-C , 14-H ) :   0.9405 B(  5-N ,  6-O ) :   0.9888
B(  6-O , 15-H ) :   0.9765

FINAL SINGLE POINT ENERGY      -325.196463029007

DIPOLE MOMENT
-------------
                                X             Y             Z
Electronic contribution:      8.56723      -1.00449      -3.49949
Nuclear contribution   :     -8.72772       1.02488       3.56387
                        -----------------------------------------
Total Dipole Moment    :     -0.16049       0.02040       0.06438
                        -----------------------------------------
Magnitude (a.u.)       :      0.17412
Magnitude (Debye)      :      0.44257

                             ****ORCA TERMINATED NORMALLY****
TOTAL RUN TIME: 0 days 0 hours 0 minutes 6 seconds 715 msec
