                         Program Version 3.0.3 - RELEASE   -
|  1> ! RI PBE def2-SVP def2-SVP/J NBO PAL2
|  2> % maxcore 2000
|  3> % output
|  4>     # printlevel mini
|  5>     print[ P_Basis ] 0
|  6>     print[ P_SCFInfo ] 1
|  7>     print[ P_SCFIterInfo ] 1
|  8>     print[ P_OrbEn ] 0
|  9>     print[ P_Cartesian ] 0
| 10> end
| 11> *xyz 0 1
| 12>  C        0.4970210000    -0.2515300000    -0.2329630000
| 13>  C        1.9089320000     0.2206300000    -0.1674840000
| 14>  C        2.9717980000    -0.5232810000    -0.4457200000
| 15>  C        4.3836570000    -0.0399570000    -0.3794780000
| 16>  C        5.2570120000    -0.9829060000     0.4324070000
| 17>  N        6.0383240000    -0.3927560000     1.3699840000
| 18>  O        5.2691960000    -2.1786790000     0.2348440000
| 19>  H        0.0010880000    -0.1486530000     0.7375480000
| 20>  H        0.4415920000    -1.2991210000    -0.5342710000
| 21>  H       -0.0853020000     0.3405840000    -0.9462940000
| 22>  H        2.0587750000     1.2583120000     0.1305420000
| 23>  H        2.8496690000    -1.5637390000    -0.7364280000
| 24>  H        4.4243060000     0.9840560000     0.0008160000
| 25>  H        4.8217270000    -0.0320980000    -1.3857120000
| 26>  H        5.9829270000     0.5877050000     1.5707050000
| 27>  H        6.6256780000    -0.9781680000     1.9388040000
| 28> *
| 29>
| 30>                          ****END OF INPUT****
 Total Charge           Charge          ....    0
 Multiplicity           Mult            ....    1
 Number of Electrons    NEL             ....   54
 Basis Dimension        Dim             ....  143

MULLIKEN ATOMIC CHARGES
-----------------------
   0 C :    0.033303
   1 C :   -0.102623
   2 C :   -0.061844
   3 C :    0.075008
   4 C :   -0.025762
   5 N :   -0.056092
   6 O :   -0.205963
   7 H :    0.032102
   8 H :    0.021626
   9 H :    0.033790
  10 H :   -0.012865
  11 H :    0.007692
  12 H :   -0.014413
  13 H :    0.051856
  14 H :    0.107642
  15 H :    0.116542
Sum of atomic charges:   -0.0000000

LOEWDIN ATOMIC CHARGES
----------------------
   0 C :   -0.065613
   1 C :   -0.049469
   2 C :   -0.035698
   3 C :   -0.066187
   4 C :    0.030284
   5 N :    0.012564
   6 O :   -0.194007
   7 H :    0.035638
   8 H :    0.032472
   9 H :    0.036133
  10 H :    0.017981
  11 H :    0.028043
  12 H :    0.021750
  13 H :    0.054349
  14 H :    0.069403
  15 H :    0.072356

  Mayer bond orders larger than 0.1
B(  0-C ,  1-C ) :   1.0933 B(  0-C ,  7-H ) :   0.9486 B(  0-C ,  8-H ) :   0.9595
B(  0-C ,  9-H ) :   0.9473 B(  1-C ,  2-C ) :   1.9318 B(  1-C , 10-H ) :   0.9462
B(  2-C ,  3-C ) :   1.0541 B(  2-C , 11-H ) :   0.9519 B(  3-C ,  4-C ) :   0.9403
B(  3-C , 12-H ) :   0.9194 B(  3-C , 13-H ) :   0.8917 B(  4-C ,  5-N ) :   1.2521
B(  4-C ,  6-O ) :   2.1052 B(  5-N , 14-H ) :   0.9422 B(  5-N , 15-H ) :   0.9404

FINAL SINGLE POINT ENERGY      -325.280009589598

DIPOLE MOMENT
-------------
                                X             Y             Z
Electronic contribution:      6.78531      -3.05373       0.99402
Nuclear contribution   :     -6.59917       4.30333      -0.47370
                        -----------------------------------------
Total Dipole Moment    :      0.18614       1.24960       0.52032
                        -----------------------------------------
Magnitude (a.u.)       :      1.36634
Magnitude (Debye)      :      3.47296

                             ****ORCA TERMINATED NORMALLY****
TOTAL RUN TIME: 0 days 0 hours 0 minutes 7 seconds 94 msec
