                         Program Version 3.0.3 - RELEASE   -
|  1> ! RI PBE def2-SVP def2-SVP/J NBO PAL2
|  2> % maxcore 2000
|  3> % output
|  4>     # printlevel mini
|  5>     print[ P_Basis ] 0
|  6>     print[ P_SCFInfo ] 1
|  7>     print[ P_SCFIterInfo ] 1
|  8>     print[ P_OrbEn ] 0
|  9>     print[ P_Cartesian ] 0
| 10> end
| 11> *xyz 0 1
| 12>  C        1.1067230000    -0.2823620000    -0.0512440000
| 13>  C        2.5656090000     0.0401950000     0.0630350000
| 14>  C        3.1211340000     0.9772730000    -0.7096670000
| 15>  C        3.3443140000    -0.7174640000     1.0559620000
| 16>  C        4.8056910000    -0.5101280000     1.2870720000
| 17>  N        2.6742420000    -1.5829910000     1.7217780000
| 18>  O        3.4609440000    -2.2580660000     2.6341010000
| 19>  H        0.6378180000     0.3390510000    -0.8146030000
| 20>  H        0.5961330000    -0.1229730000     0.9008680000
| 21>  H        0.9584450000    -1.3336070000    -0.3072140000
| 22>  H        2.5205280000     1.5178470000    -1.4316590000
| 23>  H        4.1687260000     1.2417020000    -0.6606140000
| 24>  H        5.2266330000     0.2581690000     0.6454790000
| 25>  H        5.3440930000    -1.4455780000     1.1185030000
| 26>  H        4.9807430000    -0.2350660000     2.3296810000
| 27>  H        2.8361130000    -2.8591120000     3.0487010000
| 28> *
| 29>
| 30>                          ****END OF INPUT****
 Total Charge           Charge          ....    0
 Multiplicity           Mult            ....    1
 Number of Electrons    NEL             ....   54
 Basis Dimension        Dim             ....  143

MULLIKEN ATOMIC CHARGES
-----------------------
   0 C :    0.108948
   1 C :   -0.094271
   2 C :   -0.073117
   3 C :   -0.178985
   4 C :    0.111001
   5 N :   -0.054393
   6 O :   -0.167934
   7 H :    0.004942
   8 H :    0.029247
   9 H :    0.027178
  10 H :    0.015691
  11 H :    0.011215
  12 H :    0.009269
  13 H :    0.040312
  14 H :    0.037743
  15 H :    0.173153
Sum of atomic charges:   -0.0000000

LOEWDIN ATOMIC CHARGES
----------------------
   0 C :   -0.053361
   1 C :   -0.033634
   2 C :   -0.061798
   3 C :   -0.052229
   4 C :   -0.070323
   5 N :   -0.026424
   6 O :   -0.041038
   7 H :    0.026810
   8 H :    0.038308
   9 H :    0.038142
  10 H :    0.023221
  11 H :    0.017669
  12 H :    0.030023
  13 H :    0.045026
  14 H :    0.044594
  15 H :    0.075016

  Mayer bond orders larger than 0.1
B(  0-C ,  1-C ) :   1.1109 B(  0-C ,  7-H ) :   0.9417 B(  0-C ,  8-H ) :   0.9343
B(  0-C ,  9-H ) :   0.9322 B(  1-C ,  2-C ) :   1.8929 B(  1-C ,  3-C ) :   1.0652
B(  2-C ,  5-N ) :   0.1037 B(  2-C , 10-H ) :   0.9295 B(  2-C , 11-H ) :   0.9371
B(  3-C ,  4-C ) :   1.1056 B(  3-C ,  5-N ) :   1.8635 B(  4-C , 12-H ) :   0.9343
B(  4-C , 13-H ) :   0.9287 B(  4-C , 14-H ) :   0.9268 B(  5-N ,  6-O ) :   1.0117
B(  6-O , 15-H ) :   0.9752

FINAL SINGLE POINT ENERGY      -325.209139723194

DIPOLE MOMENT
-------------
                                X             Y             Z
Electronic contribution:      0.00804      -3.33300       3.34086
Nuclear contribution   :      0.05234       3.19129      -3.18088
                        -----------------------------------------
Total Dipole Moment    :      0.06039      -0.14171       0.15998
                        -----------------------------------------
Magnitude (a.u.)       :      0.22209
Magnitude (Debye)      :      0.56450

                             ****ORCA TERMINATED NORMALLY****
TOTAL RUN TIME: 0 days 0 hours 0 minutes 7 seconds 464 msec
