                         Program Version 3.0.3 - RELEASE   -
|  1> ! RI PBE def2-SVP def2-SVP/J NBO PAL2
|  2> % maxcore 2000
|  3> % output
|  4>     # printlevel mini
|  5>     print[ P_Basis ] 0
|  6>     print[ P_SCFInfo ] 1
|  7>     print[ P_SCFIterInfo ] 1
|  8>     print[ P_OrbEn ] 0
|  9>     print[ P_Cartesian ] 0
| 10> end
| 11> *xyz 0 1
| 12>  C        0.8906370000     0.0264840000    -0.0098910000
| 13>  C        2.2889690000    -0.2416160000    -0.4664320000
| 14>  C        2.5643360000    -0.8801300000    -1.5988480000
| 15>  C        3.3870060000     0.2582130000     0.4388310000
| 16>  C        3.4437730000     1.7493290000     0.4880440000
| 17>  N        3.2503300000     2.3581500000     1.5803920000
| 18>  O        3.3396560000     3.7314140000     1.4285670000
| 19>  H        0.1575880000    -0.3428340000    -0.7276410000
| 20>  H        0.7239130000     1.0975250000     0.1397000000
| 21>  H        0.7025990000    -0.4528330000     0.9566210000
| 22>  H        1.7761090000    -1.2386060000    -2.2518390000
| 23>  H        3.5864380000    -1.0704700000    -1.9082680000
| 24>  H        4.3493050000    -0.1222870000     0.0820170000
| 25>  H        3.2357520000    -0.1084640000     1.4588160000
| 26>  H        3.6447080000     2.3051110000    -0.4306860000
| 27>  H        3.1832000000     4.0580050000     2.3187980000
| 28> *
| 29>
| 30>                          ****END OF INPUT****
 Total Charge           Charge          ....    0
 Multiplicity           Mult            ....    1
 Number of Electrons    NEL             ....   54
 Basis Dimension        Dim             ....  143

MULLIKEN ATOMIC CHARGES
-----------------------
   0 C :    0.081857
   1 C :   -0.232899
   2 C :   -0.022808
   3 C :    0.160930
   4 C :   -0.056933
   5 N :   -0.047630
   6 O :   -0.178669
   7 H :    0.014598
   8 H :    0.036752
   9 H :    0.026724
  10 H :    0.010202
  11 H :    0.006887
  12 H :    0.012388
  13 H :    0.015853
  14 H :    0.002233
  15 H :    0.170515
Sum of atomic charges:   -0.0000000

LOEWDIN ATOMIC CHARGES
----------------------
   0 C :   -0.055798
   1 C :   -0.031541
   2 C :   -0.075327
   3 C :   -0.035892
   4 C :   -0.029182
   5 N :   -0.018885
   6 O :   -0.056188
   7 H :    0.031106
   8 H :    0.037362
   9 H :    0.038111
  10 H :    0.020912
  11 H :    0.019213
  12 H :    0.038956
  13 H :    0.038116
  14 H :    0.006215
  15 H :    0.072820

  Mayer bond orders larger than 0.1
B(  0-C ,  1-C ) :   1.0848 B(  0-C ,  7-H ) :   0.9499 B(  0-C ,  8-H ) :   0.9381
B(  0-C ,  9-H ) :   0.9375 B(  1-C ,  2-C ) :   1.9902 B(  1-C ,  3-C ) :   1.0412
B(  2-C , 10-H ) :   0.9322 B(  2-C , 11-H ) :   0.9355 B(  3-C ,  4-C ) :   1.0397
B(  3-C , 12-H ) :   0.9000 B(  3-C , 13-H ) :   0.9038 B(  4-C ,  5-N ) :   1.8835
B(  4-C ,  6-O ) :   0.1133 B(  4-C , 14-H ) :   0.9379 B(  5-N ,  6-O ) :   0.9908
B(  6-O , 15-H ) :   0.9760

FINAL SINGLE POINT ENERGY      -325.196292889486

DIPOLE MOMENT
-------------
                                X             Y             Z
Electronic contribution:      2.98596       5.30386       3.08599
Nuclear contribution   :     -3.07609      -5.26942      -2.94287
                        -----------------------------------------
Total Dipole Moment    :     -0.09013       0.03444       0.14311
                        -----------------------------------------
Magnitude (a.u.)       :      0.17260
Magnitude (Debye)      :      0.43872

                             ****ORCA TERMINATED NORMALLY****
TOTAL RUN TIME: 0 days 0 hours 0 minutes 6 seconds 920 msec
