                         Program Version 3.0.3 - RELEASE   -
|  1> ! RI PBE def2-SVP def2-SVP/J NBO PAL2
|  2> % maxcore 2000
|  3> % output
|  4>     # printlevel mini
|  5>     print[ P_Basis ] 0
|  6>     print[ P_SCFInfo ] 1
|  7>     print[ P_SCFIterInfo ] 1
|  8>     print[ P_OrbEn ] 0
|  9>     print[ P_Cartesian ] 0
| 10> end
| 11> *xyz 0 1
| 12>  C        0.5736890000    -0.2521890000     0.0958990000
| 13>  C        2.0183450000    -0.3023400000     0.4816620000
| 14>  C        2.4345160000    -0.8409030000     1.6257370000
| 15>  C        2.9807350000     0.2831750000    -0.5093570000
| 16>  C        3.1860770000    -0.5422470000    -1.7767050000
| 17>  N        3.1756640000    -1.8824060000    -1.5908170000
| 18>  O        3.3814950000    -0.0264010000    -2.8560110000
| 19>  H       -0.0597830000    -0.7421520000     0.8359950000
| 20>  H        0.4093930000    -0.7300790000    -0.8750800000
| 21>  H        0.2434150000     0.7862650000    -0.0090270000
| 22>  H        1.7363440000    -1.2735870000     2.3341150000
| 23>  H        3.4844520000    -0.8493700000     1.8993680000
| 24>  H        3.9676430000     0.4080110000    -0.0534390000
| 25>  H        2.6505330000     1.2674830000    -0.8480580000
| 26>  H        2.9932020000    -2.2786020000    -0.6855680000
| 27>  H        3.3401690000    -2.4806670000    -2.3810130000
| 28> *
| 29>
| 30>                          ****END OF INPUT****
 Total Charge           Charge          ....    0
 Multiplicity           Mult            ....    1
 Number of Electrons    NEL             ....   54
 Basis Dimension        Dim             ....  143

MULLIKEN ATOMIC CHARGES
-----------------------
   0 C :    0.091125
   1 C :   -0.267492
   2 C :   -0.034647
   3 C :    0.125338
   4 C :   -0.061888
   5 N :   -0.051745
   6 O :   -0.193756
   7 H :    0.016459
   8 H :    0.028497
   9 H :    0.034139
  10 H :    0.014855
  11 H :    0.012423
  12 H :    0.035364
  13 H :    0.019576
  14 H :    0.113583
  15 H :    0.118168
Sum of atomic charges:    0.0000000

LOEWDIN ATOMIC CHARGES
----------------------
   0 C :   -0.054817
   1 C :   -0.038324
   2 C :   -0.083208
   3 C :   -0.056213
   4 C :    0.023120
   5 N :    0.013454
   6 O :   -0.190374
   7 H :    0.031460
   8 H :    0.036634
   9 H :    0.041363
  10 H :    0.021412
  11 H :    0.020346
  12 H :    0.048105
  13 H :    0.044360
  14 H :    0.068990
  15 H :    0.073693

  Mayer bond orders larger than 0.1
B(  0-C ,  1-C ) :   1.0844 B(  0-C ,  7-H ) :   0.9496 B(  0-C ,  8-H ) :   0.9400
B(  0-C ,  9-H ) :   0.9372 B(  1-C ,  2-C ) :   1.9429 B(  1-C ,  3-C ) :   1.0535
B(  2-C , 10-H ) :   0.9341 B(  2-C , 11-H ) :   0.9389 B(  3-C ,  4-C ) :   0.9439
B(  3-C , 12-H ) :   0.9010 B(  3-C , 13-H ) :   0.9003 B(  4-C ,  5-N ) :   1.2535
B(  4-C ,  6-O ) :   2.1321 B(  5-N , 14-H ) :   0.9265 B(  5-N , 15-H ) :   0.9396

FINAL SINGLE POINT ENERGY      -325.282300517051

DIPOLE MOMENT
-------------
                                X             Y             Z
Electronic contribution:      3.54632       0.21194      -5.10856
Nuclear contribution   :     -3.83777      -1.04809       6.02275
                        -----------------------------------------
Total Dipole Moment    :     -0.29145      -0.83615       0.91419
                        -----------------------------------------
Magnitude (a.u.)       :      1.27273
Magnitude (Debye)      :      3.23502

                             ****ORCA TERMINATED NORMALLY****
TOTAL RUN TIME: 0 days 0 hours 0 minutes 7 seconds 433 msec
