                         Program Version 3.0.3 - RELEASE   -
|  1> ! RI PBE def2-SVP def2-SVP/J NBO PAL2
|  2> % maxcore 2000
|  3> % output
|  4>     # printlevel mini
|  5>     print[ P_Basis ] 0
|  6>     print[ P_SCFInfo ] 1
|  7>     print[ P_SCFIterInfo ] 1
|  8>     print[ P_OrbEn ] 0
|  9>     print[ P_Cartesian ] 0
| 10> end
| 11> *xyz 0 1
| 12>  C        1.1407110000    -0.0037950000    -0.1589710000
| 13>  C        2.6170020000    -0.3257140000     0.0905900000
| 14>  C        2.8567540000    -0.6438960000     1.5382370000
| 15>  C        3.6633790000     0.0366580000     2.3386060000
| 16>  C        3.0452150000    -1.4765040000    -0.7653510000
| 17>  N        3.9258980000    -1.3119550000    -1.6572910000
| 18>  O        4.1816330000    -2.4824210000    -2.3531740000
| 19>  H        0.8265040000     0.8405030000     0.4576770000
| 20>  H        0.5047390000    -0.8576450000     0.0913720000
| 21>  H        0.9723740000     0.2469860000    -1.2082500000
| 22>  H        3.2297750000     0.5349810000    -0.1911240000
| 23>  H        2.3051290000    -1.4958480000     1.9346440000
| 24>  H        4.2308210000     0.8892300000     1.9786080000
| 25>  H        3.7877630000    -0.2333460000     3.3808600000
| 26>  H        2.5819410000    -2.4554060000    -0.6142160000
| 27>  H        4.8610610000    -2.2171180000    -2.9789290000
| 28> *
| 29>
| 30>                          ****END OF INPUT****
 Total Charge           Charge          ....    0
 Multiplicity           Mult            ....    1
 Number of Electrons    NEL             ....   54
 Basis Dimension        Dim             ....  143

MULLIKEN ATOMIC CHARGES
-----------------------
   0 C :    0.013328
   1 C :   -0.014028
   2 C :   -0.041872
   3 C :   -0.031987
   4 C :   -0.003311
   5 N :   -0.047153
   6 O :   -0.178994
   7 H :    0.029815
   8 H :    0.020141
   9 H :    0.031202
  10 H :    0.004785
  11 H :    0.001759
  12 H :    0.020406
  13 H :    0.027758
  14 H :   -0.001770
  15 H :    0.169922
Sum of atomic charges:   -0.0000000

LOEWDIN ATOMIC CHARGES
----------------------
   0 C :   -0.049736
   1 C :   -0.050030
   2 C :   -0.018862
   3 C :   -0.059018
   4 C :   -0.020778
   5 N :   -0.016728
   6 O :   -0.057456
   7 H :    0.030608
   8 H :    0.025475
   9 H :    0.030599
  10 H :    0.035015
  11 H :    0.024345
  12 H :    0.023719
  13 H :    0.026228
  14 H :    0.003968
  15 H :    0.072652

  Mayer bond orders larger than 0.1
B(  0-C ,  1-C ) :   1.0547 B(  0-C ,  7-H ) :   0.9603 B(  0-C ,  8-H ) :   0.9621
B(  0-C ,  9-H ) :   0.9584 B(  1-C ,  2-C ) :   0.9949 B(  1-C ,  4-C ) :   0.9891
B(  1-C , 10-H ) :   0.9046 B(  2-C ,  3-C ) :   2.0268 B(  2-C , 11-H ) :   0.9518
B(  3-C , 12-H ) :   0.9471 B(  3-C , 13-H ) :   0.9424 B(  4-C ,  5-N ) :   1.9224
B(  4-C ,  6-O ) :   0.1127 B(  4-C , 14-H ) :   0.9368 B(  5-N ,  6-O ) :   0.9879
B(  6-O , 15-H ) :   0.9764

FINAL SINGLE POINT ENERGY      -325.189768936695

DIPOLE MOMENT
-------------
                                X             Y             Z
Electronic contribution:      4.05308      -3.29077      -4.49233
Nuclear contribution   :     -4.13185       3.34518       4.46082
                        -----------------------------------------
Total Dipole Moment    :     -0.07877       0.05441      -0.03151
                        -----------------------------------------
Magnitude (a.u.)       :      0.10079
Magnitude (Debye)      :      0.25619

                             ****ORCA TERMINATED NORMALLY****
TOTAL RUN TIME: 0 days 0 hours 0 minutes 7 seconds 194 msec
