                         Program Version 3.0.3 - RELEASE   -
|  1> ! RI PBE def2-SVP def2-SVP/J NBO PAL2
|  2> % maxcore 2000
|  3> % output
|  4>     # printlevel mini
|  5>     print[ P_Basis ] 0
|  6>     print[ P_SCFInfo ] 1
|  7>     print[ P_SCFIterInfo ] 1
|  8>     print[ P_OrbEn ] 0
|  9>     print[ P_Cartesian ] 0
| 10> end
| 11> *xyz 0 1
| 12>  C        1.0405950000     0.0909720000    -0.2234410000
| 13>  C        2.3521200000     0.2676420000     0.5293780000
| 14>  C        2.6631500000     1.7108190000     0.7741410000
| 15>  C        3.7771120000     2.3281440000     0.4007400000
| 16>  C        2.3407620000    -0.5699080000     1.8176720000
| 17>  N        3.2105100000    -0.1647060000     2.7707020000
| 18>  O        1.6350250000    -1.5469810000     1.9485890000
| 19>  H        1.1004090000     0.5617870000    -1.2060940000
| 20>  H        0.2135320000     0.5467980000     0.3261790000
| 21>  H        0.8142950000    -0.9680460000    -0.3414840000
| 22>  H        3.1669340000    -0.1594310000    -0.0703100000
| 23>  H        1.8916540000     2.2770660000     1.2947780000
| 24>  H        4.5644580000     1.8026390000    -0.1318960000
| 25>  H        3.9370660000     3.3815580000     0.6001970000
| 26>  H        3.7692140000     0.6607640000     2.6477930000
| 27>  H        3.2797750000    -0.7014170000     3.6173550000
| 28> *
| 29>
| 30>                          ****END OF INPUT****
 Total Charge           Charge          ....    0
 Multiplicity           Mult            ....    1
 Number of Electrons    NEL             ....   54
 Basis Dimension        Dim             ....  143

MULLIKEN ATOMIC CHARGES
-----------------------
   0 C :    0.043110
   1 C :   -0.084658
   2 C :   -0.085233
   3 C :   -0.036359
   4 C :   -0.006916
   5 N :   -0.036535
   6 O :   -0.193051
   7 H :    0.016576
   8 H :    0.017441
   9 H :    0.039044
  10 H :    0.033857
  11 H :    0.009693
  12 H :    0.024090
  13 H :    0.030418
  14 H :    0.112301
  15 H :    0.116223
Sum of atomic charges:   -0.0000000

LOEWDIN ATOMIC CHARGES
----------------------
   0 C :   -0.046808
   1 C :   -0.075190
   2 C :   -0.027156
   3 C :   -0.070900
   4 C :    0.030793
   5 N :    0.018583
   6 O :   -0.185430
   7 H :    0.026998
   8 H :    0.028210
   9 H :    0.034095
  10 H :    0.046109
  11 H :    0.028344
  12 H :    0.023370
  13 H :    0.026580
  14 H :    0.068711
  15 H :    0.073691

  Mayer bond orders larger than 0.1
B(  0-C ,  1-C ) :   1.0865 B(  0-C ,  7-H ) :   0.9571 B(  0-C ,  8-H ) :   0.9654
B(  0-C ,  9-H ) :   0.9441 B(  1-C ,  2-C ) :   1.0171 B(  1-C ,  4-C ) :   0.8703
B(  1-C , 10-H ) :   0.8860 B(  2-C ,  3-C ) :   1.9611 B(  2-C , 11-H ) :   0.9614
B(  3-C , 12-H ) :   0.9484 B(  3-C , 13-H ) :   0.9428 B(  4-C ,  5-N ) :   1.2885
B(  4-C ,  6-O ) :   2.1235 B(  5-N , 14-H ) :   0.9242 B(  5-N , 15-H ) :   0.9372

FINAL SINGLE POINT ENERGY      -325.277854524907

DIPOLE MOMENT
-------------
                                X             Y             Z
Electronic contribution:     -0.00281      -3.76815       3.78513
Nuclear contribution   :      0.85977       4.66821      -3.57343
                        -----------------------------------------
Total Dipole Moment    :      0.85696       0.90006       0.21170
                        -----------------------------------------
Magnitude (a.u.)       :      1.26068
Magnitude (Debye)      :      3.20439

                             ****ORCA TERMINATED NORMALLY****
TOTAL RUN TIME: 0 days 0 hours 0 minutes 7 seconds 138 msec
