                         Program Version 3.0.3 - RELEASE   -
|  1> ! RI PBE def2-SVP def2-SVP/J NBO PAL2
|  2> % maxcore 2000
|  3> % output
|  4>     # printlevel mini
|  5>     print[ P_Basis ] 0
|  6>     print[ P_SCFInfo ] 1
|  7>     print[ P_SCFIterInfo ] 1
|  8>     print[ P_OrbEn ] 0
|  9>     print[ P_Cartesian ] 0
| 10> end
| 11> *xyz 0 1
| 12>  C        1.0519160000     0.1502600000    -0.1015630000
| 13>  C        2.5419350000     0.0388310000    -0.1304930000
| 14>  C        3.0886290000    -0.7619060000    -1.2678920000
| 15>  C        3.2873350000     0.6303240000     0.8147920000
| 16>  C        4.7258240000     0.6069250000     0.9116620000
| 17>  N        5.2968860000     1.2200710000     1.8731540000
| 18>  O        6.6704670000     1.0907870000     1.8071420000
| 19>  H        0.5894630000    -0.8413920000    -0.0438370000
| 20>  H        0.6790470000     0.6108370000    -1.0231950000
| 21>  H        0.7033540000     0.7426170000     0.7449210000
| 22>  H        2.6839860000    -1.7794480000    -1.2441920000
| 23>  H        4.1748120000    -0.8312590000    -1.2712300000
| 24>  H        2.7736630000    -0.3279350000    -2.2229610000
| 25>  H        2.7893010000     1.1911310000     1.6008390000
| 26>  H        5.3341580000     0.0756500000     0.1795180000
| 27>  H        6.9730220000     1.5879090000     2.5720260000
| 28> *
| 29>
| 30>                          ****END OF INPUT****
 Total Charge           Charge          ....    0
 Multiplicity           Mult            ....    1
 Number of Electrons    NEL             ....   54
 Basis Dimension        Dim             ....  143

MULLIKEN ATOMIC CHARGES
-----------------------
   0 C :    0.049505
   1 C :   -0.196645
   2 C :    0.060532
   3 C :    0.026087
   4 C :   -0.006269
   5 N :   -0.060919
   6 O :   -0.170855
   7 H :    0.028214
   8 H :    0.028588
   9 H :    0.021298
  10 H :    0.029007
  11 H :    0.022081
  12 H :    0.026761
  13 H :   -0.017429
  14 H :   -0.010918
  15 H :    0.170962
Sum of atomic charges:   -0.0000000

LOEWDIN ATOMIC CHARGES
----------------------
   0 C :   -0.053763
   1 C :   -0.028099
   2 C :   -0.057702
   3 C :   -0.066009
   4 C :   -0.043811
   5 N :   -0.018838
   6 O :   -0.049589
   7 H :    0.035696
   8 H :    0.035690
   9 H :    0.031507
  10 H :    0.038659
  11 H :    0.028562
  12 H :    0.038045
  13 H :    0.029839
  14 H :    0.005838
  15 H :    0.073974

  Mayer bond orders larger than 0.1
B(  0-C ,  1-C ) :   1.0871 B(  0-C ,  7-H ) :   0.9436 B(  0-C ,  8-H ) :   0.9446
B(  0-C ,  9-H ) :   0.9549 B(  1-C ,  2-C ) :   1.1091 B(  1-C ,  3-C ) :   1.7405
B(  1-C ,  5-N ) :   0.1060 B(  2-C , 10-H ) :   0.9380 B(  2-C , 11-H ) :   0.9443
B(  2-C , 12-H ) :   0.9396 B(  3-C ,  4-C ) :   1.1157 B(  3-C , 13-H ) :   0.9481
B(  4-C ,  5-N ) :   1.7932 B(  4-C , 14-H ) :   0.9391 B(  5-N ,  6-O ) :   1.0014
B(  6-O , 15-H ) :   0.9749

FINAL SINGLE POINT ENERGY      -325.209514670843

DIPOLE MOMENT
-------------
                                X             Y             Z
Electronic contribution:      7.44697       3.11009       5.29788
Nuclear contribution   :     -7.63654      -3.24280      -5.50726
                        -----------------------------------------
Total Dipole Moment    :     -0.18957      -0.13272      -0.20939
                        -----------------------------------------
Magnitude (a.u.)       :      0.31208
Magnitude (Debye)      :      0.79324

                             ****ORCA TERMINATED NORMALLY****
TOTAL RUN TIME: 0 days 0 hours 0 minutes 7 seconds 274 msec
