                         Program Version 3.0.3 - RELEASE   -
|  1> ! RI PBE def2-SVP def2-SVP/J NBO PAL2
|  2> % maxcore 2000
|  3> % output
|  4>     # printlevel mini
|  5>     print[ P_Basis ] 0
|  6>     print[ P_SCFInfo ] 1
|  7>     print[ P_SCFIterInfo ] 1
|  8>     print[ P_OrbEn ] 0
|  9>     print[ P_Cartesian ] 0
| 10> end
| 11> *xyz 0 1
| 12>  C        1.0642060000    -0.1264650000    -0.0743480000
| 13>  C        2.5470680000     0.0425590000     0.0248460000
| 14>  C        3.0381950000     0.5290840000     1.3472540000
| 15>  C        3.3223920000    -0.2386530000    -1.0303570000
| 16>  C        4.7969860000    -0.1300980000    -1.1102160000
| 17>  N        5.2983790000    -0.4892370000    -2.3251890000
| 18>  O        5.5370830000     0.2361430000    -0.2141940000
| 19>  H        0.5588390000     0.8231680000     0.1299490000
| 20>  H        0.7106910000    -0.8336520000     0.6831810000
| 21>  H        0.7504660000    -0.4830250000    -1.0560530000
| 22>  H        2.5689010000     1.4909810000     1.5808660000
| 23>  H        4.1185810000     0.6353190000     1.3681520000
| 24>  H        2.7211210000    -0.1647280000     2.1334800000
| 25>  H        2.8283420000    -0.5858270000    -1.9346500000
| 26>  H        4.7149140000    -0.7944350000    -3.0809710000
| 27>  H        6.2930470000    -0.4423440000    -2.4577490000
| 28> *
| 29>
| 30>                          ****END OF INPUT****
 Total Charge           Charge          ....    0
 Multiplicity           Mult            ....    1
 Number of Electrons    NEL             ....   54
 Basis Dimension        Dim             ....  143

MULLIKEN ATOMIC CHARGES
-----------------------
   0 C :    0.047760
   1 C :   -0.194467
   2 C :    0.067766
   3 C :   -0.061120
   4 C :    0.061926
   5 N :   -0.055902
   6 O :   -0.211047
   7 H :    0.033493
   8 H :    0.034431
   9 H :    0.014687
  10 H :    0.019075
  11 H :    0.049180
  12 H :    0.023551
  13 H :   -0.043123
  14 H :    0.103379
  15 H :    0.110410
Sum of atomic charges:   -0.0000000

LOEWDIN ATOMIC CHARGES
----------------------
   0 C :   -0.053885
   1 C :    0.012202
   2 C :   -0.061860
   3 C :   -0.108778
   4 C :    0.026663
   5 N :    0.011793
   6 O :   -0.198612
   7 H :    0.038980
   8 H :    0.039073
   9 H :    0.028114
  10 H :    0.038171
  11 H :    0.034719
  12 H :    0.038498
  13 H :    0.016363
  14 H :    0.067803
  15 H :    0.070756

  Mayer bond orders larger than 0.1
B(  0-C ,  1-C ) :   1.0843 B(  0-C ,  7-H ) :   0.9428 B(  0-C ,  8-H ) :   0.9432
B(  0-C ,  9-H ) :   0.9524 B(  1-C ,  2-C ) :   1.1109 B(  1-C ,  3-C ) :   1.8242
B(  2-C , 10-H ) :   0.9301 B(  2-C , 11-H ) :   0.9204 B(  2-C , 12-H ) :   0.9326
B(  3-C ,  4-C ) :   0.9637 B(  3-C , 13-H ) :   0.9162 B(  4-C ,  5-N ) :   1.2384
B(  4-C ,  6-O ) :   2.0426 B(  5-N , 14-H ) :   0.9445 B(  5-N , 15-H ) :   0.9374

FINAL SINGLE POINT ENERGY      -325.288972476651

DIPOLE MOMENT
-------------
                                X             Y             Z
Electronic contribution:      6.66514      -0.25624      -2.59596
Nuclear contribution   :     -7.40553      -0.11717       1.67733
                        -----------------------------------------
Total Dipole Moment    :     -0.74039      -0.37341      -0.91863
                        -----------------------------------------
Magnitude (a.u.)       :      1.23754
Magnitude (Debye)      :      3.14557

                             ****ORCA TERMINATED NORMALLY****
TOTAL RUN TIME: 0 days 0 hours 0 minutes 7 seconds 702 msec
