                         Program Version 3.0.3 - RELEASE   -
|  1> ! RI PBE def2-SVP def2-SVP/J NBO PAL2
|  2> % maxcore 2000
|  3> % output
|  4>     # printlevel mini
|  5>     print[ P_Basis ] 0
|  6>     print[ P_SCFInfo ] 1
|  7>     print[ P_SCFIterInfo ] 1
|  8>     print[ P_OrbEn ] 0
|  9>     print[ P_Cartesian ] 0
| 10> end
| 11> *xyz 0 1
| 12>  C        0.8783210000     0.0274810000    -0.0433510000
| 13>  C        2.4077320000    -0.0672620000    -0.0269190000
| 14>  C        2.8784620000    -1.0954030000    -1.0466030000
| 15>  C        3.0002920000     1.3074990000    -0.3543890000
| 16>  C        2.8303710000    -0.4290110000     1.3675680000
| 17>  N        3.4967810000    -1.4727520000     1.6192590000
| 18>  O        3.7696700000    -1.5963340000     2.9738120000
| 19>  H        0.5319110000     0.3545130000    -1.0273240000
| 20>  H        0.5164510000     0.7474950000     0.6959560000
| 21>  H        0.4229830000    -0.9412790000     0.1750340000
| 22>  H        2.5532570000    -0.7995490000    -2.0475240000
| 23>  H        2.4702870000    -2.0836700000    -0.8280180000
| 24>  H        3.9664450000    -1.1811310000    -1.0473540000
| 25>  H        2.6609620000     1.6387970000    -1.3394010000
| 26>  H        4.0921690000     1.2720580000    -0.3627950000
| 27>  H        2.6902600000     2.0587860000     0.3773170000
| 28>  H        2.5419300000     0.2461640000     2.1788890000
| 29>  H        4.2702140000    -2.4154140000     3.0183430000
| 30> *
| 31>
| 32>                          ****END OF INPUT****
 Total Charge           Charge          ....    0
 Multiplicity           Mult            ....    1
 Number of Electrons    NEL             ....   56
 Basis Dimension        Dim             ....  153

MULLIKEN ATOMIC CHARGES
-----------------------
   0 C :    0.066869
   1 C :   -0.330709
   2 C :    0.104558
   3 C :    0.046209
   4 C :    0.032140
   5 N :   -0.043437
   6 O :   -0.177435
   7 H :    0.013264
   8 H :    0.012704
   9 H :    0.021494
  10 H :    0.004778
  11 H :    0.014128
  12 H :    0.017448
  13 H :    0.014707
  14 H :    0.027960
  15 H :    0.015691
  16 H :   -0.009125
  17 H :    0.168755
Sum of atomic charges:    0.0000000

LOEWDIN ATOMIC CHARGES
----------------------
   0 C :   -0.041223
   1 C :   -0.076631
   2 C :   -0.046051
   3 C :   -0.044953
   4 C :   -0.020097
   5 N :   -0.017230
   6 O :   -0.058978
   7 H :    0.025390
   8 H :    0.023278
   9 H :    0.027024
  10 H :    0.022333
  11 H :    0.026842
  12 H :    0.027021
  13 H :    0.025885
  14 H :    0.028222
  15 H :    0.024068
  16 H :    0.003265
  17 H :    0.071833

  Mayer bond orders larger than 0.1
B(  0-C ,  1-C ) :   1.0323 B(  0-C ,  7-H ) :   0.9556 B(  0-C ,  8-H ) :   0.9594
B(  0-C ,  9-H ) :   0.9617 B(  1-C ,  2-C ) :   1.0864 B(  1-C ,  3-C ) :   1.0316
B(  1-C ,  4-C ) :   0.9629 B(  2-C , 10-H ) :   0.9555 B(  2-C , 11-H ) :   0.9464
B(  2-C , 12-H ) :   0.9486 B(  3-C , 13-H ) :   0.9553 B(  3-C , 14-H ) :   0.9613
B(  3-C , 15-H ) :   0.9569 B(  4-C ,  5-N ) :   1.9448 B(  4-C ,  6-O ) :   0.1116
B(  4-C , 16-H ) :   0.9432 B(  5-N ,  6-O ) :   0.9803 B(  6-O , 17-H ) :   0.9767

FINAL SINGLE POINT ENERGY      -326.416043053940

DIPOLE MOMENT
-------------
                                X             Y             Z
Electronic contribution:      3.48531      -4.06766       7.08693
Nuclear contribution   :     -3.51379       4.08184      -7.17497
                        -----------------------------------------
Total Dipole Moment    :     -0.02848       0.01418      -0.08803
                        -----------------------------------------
Magnitude (a.u.)       :      0.09361
Magnitude (Debye)      :      0.23793

                             ****ORCA TERMINATED NORMALLY****
TOTAL RUN TIME: 0 days 0 hours 0 minutes 8 seconds 136 msec
