                         Program Version 3.0.3 - RELEASE   -
|  1> ! RI PBE def2-SVP def2-SVP/J NBO PAL2
|  2> % maxcore 2000
|  3> % output
|  4>     # printlevel mini
|  5>     print[ P_Basis ] 0
|  6>     print[ P_SCFInfo ] 1
|  7>     print[ P_SCFIterInfo ] 1
|  8>     print[ P_OrbEn ] 0
|  9>     print[ P_Cartesian ] 0
| 10> end
| 11> *xyz 0 1
| 12>  C        1.0616790000     0.0420360000     0.0167140000
| 13>  C        2.5889720000    -0.0230670000     0.1047940000
| 14>  C        3.1466810000     1.3393840000     0.5258650000
| 15>  C        2.9951560000    -1.0768880000     1.1266860000
| 16>  C        3.1694440000    -0.4201610000    -1.2605870000
| 17>  N        2.8943670000     0.4233470000    -2.2885890000
| 18>  O        3.8331000000    -1.4216770000    -1.4291120000
| 19>  H        0.6442770000     0.2621600000     1.0027980000
| 20>  H        0.6458140000    -0.9102070000    -0.3207200000
| 21>  H        0.7157030000     0.8211840000    -0.6673320000
| 22>  H        2.7843000000     1.5934280000     1.5254550000
| 23>  H        2.8394520000     2.1428720000    -0.1484510000
| 24>  H        4.2386740000     1.3254630000     0.5563620000
| 25>  H        2.5918280000    -0.8138870000     2.1080960000
| 26>  H        4.0805050000    -1.1527010000     1.2033620000
| 27>  H        2.6195260000    -2.0617960000     0.8465690000
| 28>  H        2.3485220000     1.2561900000    -2.1764250000
| 29>  H        3.2575010000     0.1950320000    -3.1972060000
| 30> *
| 31>
| 32>                          ****END OF INPUT****
 Total Charge           Charge          ....    0
 Multiplicity           Mult            ....    1
 Number of Electrons    NEL             ....   56
 Basis Dimension        Dim             ....  153

MULLIKEN ATOMIC CHARGES
-----------------------
   0 C :    0.078893
   1 C :   -0.400591
   2 C :    0.065265
   3 C :    0.105203
   4 C :    0.041034
   5 N :   -0.039089
   6 O :   -0.192664
   7 H :    0.016744
   8 H :    0.023754
   9 H :   -0.001472
  10 H :    0.016754
  11 H :   -0.000995
  12 H :    0.028363
  13 H :   -0.001012
  14 H :    0.021679
  15 H :    0.019186
  16 H :    0.103666
  17 H :    0.115284
Sum of atomic charges:   -0.0000000

LOEWDIN ATOMIC CHARGES
----------------------
   0 C :   -0.043056
   1 C :   -0.098329
   2 C :   -0.045868
   3 C :   -0.042258
   4 C :    0.037625
   5 N :    0.015568
   6 O :   -0.186288
   7 H :    0.027047
   8 H :    0.030235
   9 H :    0.015539
  10 H :    0.027472
  11 H :    0.015721
  12 H :    0.031080
  13 H :    0.020455
  14 H :    0.029307
  15 H :    0.029238
  16 H :    0.063904
  17 H :    0.072609

  Mayer bond orders larger than 0.1
B(  0-C ,  1-C ) :   1.0360 B(  0-C ,  7-H ) :   0.9572 B(  0-C ,  8-H ) :   0.9604
B(  0-C ,  9-H ) :   0.9552 B(  1-C ,  2-C ) :   1.0368 B(  1-C ,  3-C ) :   1.0725
B(  1-C ,  4-C ) :   0.8661 B(  2-C , 10-H ) :   0.9557 B(  2-C , 11-H ) :   0.9528
B(  2-C , 12-H ) :   0.9598 B(  3-C , 13-H ) :   0.9515 B(  3-C , 14-H ) :   0.9529
B(  3-C , 15-H ) :   0.9507 B(  4-C ,  5-N ) :   1.2665 B(  4-C ,  6-O ) :   2.1466
B(  5-N , 16-H ) :   0.9386 B(  5-N , 17-H ) :   0.9359

FINAL SINGLE POINT ENERGY      -326.498977623683

DIPOLE MOMENT
-------------
                                X             Y             Z
Electronic contribution:      3.24054      -2.95650      -5.74962
Nuclear contribution   :     -3.90324       4.09018       5.56194
                        -----------------------------------------
Total Dipole Moment    :     -0.66270       1.13368      -0.18768
                        -----------------------------------------
Magnitude (a.u.)       :      1.32651
Magnitude (Debye)      :      3.37171

                             ****ORCA TERMINATED NORMALLY****
TOTAL RUN TIME: 0 days 0 hours 0 minutes 8 seconds 626 msec
