                         Program Version 3.0.3 - RELEASE   -
|  1> ! RI PBE def2-SVP def2-SVP/J NBO PAL2
|  2> % maxcore 2000
|  3> % output
|  4>     # printlevel mini
|  5>     print[ P_Basis ] 0
|  6>     print[ P_SCFInfo ] 1
|  7>     print[ P_SCFIterInfo ] 1
|  8>     print[ P_OrbEn ] 0
|  9>     print[ P_Cartesian ] 0
| 10> end
| 11> *xyz 0 1
| 12>  C        0.9371680000     0.1649810000     0.0167410000
| 13>  C        2.4513690000     0.0250500000     0.1444640000
| 14>  C        3.1722640000     0.8485610000    -0.9189360000
| 15>  C        2.9241190000     0.3877130000     1.5389520000
| 16>  C        3.5967360000    -0.6246470000     2.4099140000
| 17>  N        2.7140660000     1.5850060000     1.9088840000
| 18>  O        3.1792510000     1.8256390000     3.1965870000
| 19>  H        0.6053290000    -0.1464050000    -0.9771880000
| 20>  H        0.6410280000     1.2042410000     0.1716880000
| 21>  H        0.4148950000    -0.4468070000     0.7562430000
| 22>  H        2.7089450000    -1.0279630000    -0.0095010000
| 23>  H        2.9441290000     1.9086310000    -0.7925400000
| 24>  H        2.8577790000     0.5424120000    -1.9201100000
| 25>  H        4.2561810000     0.7280420000    -0.8517800000
| 26>  H        3.6806030000    -1.5880910000     1.9089110000
| 27>  H        3.0425550000    -0.7528530000     3.3436020000
| 28>  H        4.5946030000    -0.2801590000     2.6943780000
| 29>  H        2.9540700000     2.7497280000     3.3311810000
| 30> *
| 31>
| 32>                          ****END OF INPUT****
 Total Charge           Charge          ....    0
 Multiplicity           Mult            ....    1
 Number of Electrons    NEL             ....   56
 Basis Dimension        Dim             ....  153

MULLIKEN ATOMIC CHARGES
-----------------------
   0 C :    0.036889
   1 C :   -0.041586
   2 C :    0.019533
   3 C :   -0.240192
   4 C :    0.112373
   5 N :   -0.052156
   6 O :   -0.187701
   7 H :    0.010457
   8 H :    0.024658
   9 H :    0.012845
  10 H :   -0.012837
  11 H :    0.030783
  12 H :    0.011682
  13 H :    0.018283
  14 H :    0.010422
  15 H :    0.038054
  16 H :    0.038292
  17 H :    0.170200
Sum of atomic charges:   -0.0000000

LOEWDIN ATOMIC CHARGES
----------------------
   0 C :   -0.050508
   1 C :   -0.045910
   2 C :   -0.054067
   3 C :   -0.049495
   4 C :   -0.074103
   5 N :   -0.031322
   6 O :   -0.057663
   7 H :    0.022649
   8 H :    0.026241
   9 H :    0.024978
  10 H :    0.023996
  11 H :    0.027349
  12 H :    0.022931
  13 H :    0.025769
  14 H :    0.028756
  15 H :    0.044178
  16 H :    0.044581
  17 H :    0.071639

  Mayer bond orders larger than 0.1
B(  0-C ,  1-C ) :   1.0835 B(  0-C ,  7-H ) :   0.9592 B(  0-C ,  8-H ) :   0.9624
B(  0-C ,  9-H ) :   0.9594 B(  1-C ,  2-C ) :   1.0812 B(  1-C ,  3-C ) :   1.0028
B(  1-C , 10-H ) :   0.8915 B(  2-C , 11-H ) :   0.9618 B(  2-C , 12-H ) :   0.9591
B(  2-C , 13-H ) :   0.9605 B(  3-C ,  4-C ) :   1.0912 B(  3-C ,  5-N ) :   1.8813
B(  4-C , 14-H ) :   0.9385 B(  4-C , 15-H ) :   0.9328 B(  4-C , 16-H ) :   0.9313
B(  5-N ,  6-O ) :   1.0014 B(  6-O , 17-H ) :   0.9770

FINAL SINGLE POINT ENERGY      -326.420077034745

DIPOLE MOMENT
-------------
                                X             Y             Z
Electronic contribution:      1.17042       3.68616       5.49492
Nuclear contribution   :     -1.11818      -3.78990      -5.42914
                        -----------------------------------------
Total Dipole Moment    :      0.05224      -0.10374       0.06579
                        -----------------------------------------
Magnitude (a.u.)       :      0.13349
Magnitude (Debye)      :      0.33930

                             ****ORCA TERMINATED NORMALLY****
TOTAL RUN TIME: 0 days 0 hours 0 minutes 7 seconds 796 msec
