                         Program Version 3.0.3 - RELEASE   -
|  1> ! RI PBE def2-SVP def2-SVP/J NBO PAL2
|  2> % maxcore 2000
|  3> % output
|  4>     # printlevel mini
|  5>     print[ P_Basis ] 0
|  6>     print[ P_SCFInfo ] 1
|  7>     print[ P_SCFIterInfo ] 1
|  8>     print[ P_OrbEn ] 0
|  9>     print[ P_Cartesian ] 0
| 10> end
| 11> *xyz 0 1
| 12>  C        1.0922670000    -0.3822120000     0.5049780000
| 13>  C        2.4337120000    -0.1485870000    -0.1742200000
| 14>  C        2.7933790000    -1.3075680000    -1.0920310000
| 15>  C        2.4456100000     1.1706450000    -0.9555420000
| 16>  C        2.2924880000     2.3715050000    -0.0920800000
| 17>  N        1.3273630000     3.1716570000    -0.2657380000
| 18>  O        1.3634900000     4.2255100000     0.6345130000
| 19>  H        1.1048090000    -1.3071010000     1.0868830000
| 20>  H        0.2933850000    -0.4655340000    -0.2387000000
| 21>  H        0.8303980000     0.4376700000     1.1773600000
| 22>  H        3.2050760000    -0.0808560000     0.6047920000
| 23>  H        2.0568580000    -1.4076880000    -1.8955760000
| 24>  H        2.8147590000    -2.2525440000    -0.5436170000
| 25>  H        3.7737570000    -1.1648540000    -1.5541690000
| 26>  H        1.6490880000     1.1713980000    -1.7057050000
| 27>  H        3.3988030000     1.2496180000    -1.4935320000
| 28>  H        3.0222850000     2.5586220000     0.7005750000
| 29>  H        0.5911830000     4.7430090000     0.3913010000
| 30> *
| 31>
| 32>                          ****END OF INPUT****
 Total Charge           Charge          ....    0
 Multiplicity           Mult            ....    1
 Number of Electrons    NEL             ....   56
 Basis Dimension        Dim             ....  153

MULLIKEN ATOMIC CHARGES
-----------------------
   0 C :    0.013106
   1 C :   -0.186244
   2 C :    0.034313
   3 C :    0.102630
   4 C :   -0.057580
   5 N :   -0.043845
   6 O :   -0.182696
   7 H :    0.018742
   8 H :    0.016743
   9 H :    0.029864
  10 H :    0.013762
  11 H :    0.015527
  12 H :    0.016610
  13 H :    0.010565
  14 H :    0.011690
  15 H :    0.018084
  16 H :   -0.000860
  17 H :    0.169591
Sum of atomic charges:    0.0000000

LOEWDIN ATOMIC CHARGES
----------------------
   0 C :   -0.060926
   1 C :   -0.045605
   2 C :   -0.057853
   3 C :   -0.042948
   4 C :   -0.035451
   5 N :   -0.016861
   6 O :   -0.060365
   7 H :    0.025763
   8 H :    0.026262
   9 H :    0.026727
  10 H :    0.023703
  11 H :    0.025107
  12 H :    0.025671
  13 H :    0.023792
  14 H :    0.031782
  15 H :    0.035030
  16 H :    0.003861
  17 H :    0.072309

  Mayer bond orders larger than 0.1
B(  0-C ,  1-C ) :   1.0726 B(  0-C ,  7-H ) :   0.9622 B(  0-C ,  8-H ) :   0.9604
B(  0-C ,  9-H ) :   0.9555 B(  1-C ,  2-C ) :   1.0872 B(  1-C ,  3-C ) :   1.0430
B(  1-C , 10-H ) :   0.9164 B(  2-C , 11-H ) :   0.9600 B(  2-C , 12-H ) :   0.9617
B(  2-C , 13-H ) :   0.9564 B(  3-C ,  4-C ) :   1.0456 B(  3-C , 14-H ) :   0.9177
B(  3-C , 15-H ) :   0.9108 B(  4-C ,  5-N ) :   1.8933 B(  4-C ,  6-O ) :   0.1128
B(  4-C , 16-H ) :   0.9370 B(  5-N ,  6-O ) :   0.9867 B(  6-O , 17-H ) :   0.9763

FINAL SINGLE POINT ENERGY      -326.416307955890

DIPOLE MOMENT
-------------
                                X             Y             Z
Electronic contribution:     -1.28622      10.44320       1.31905
Nuclear contribution   :      1.31100     -10.55685      -1.32650
                        -----------------------------------------
Total Dipole Moment    :      0.02478      -0.11365      -0.00746
                        -----------------------------------------
Magnitude (a.u.)       :      0.11656
Magnitude (Debye)      :      0.29627

                             ****ORCA TERMINATED NORMALLY****
TOTAL RUN TIME: 0 days 0 hours 0 minutes 6 seconds 942 msec
