                         Program Version 3.0.3 - RELEASE   -
|  1> ! RI PBE def2-SVP def2-SVP/J NBO PAL2
|  2> % maxcore 2000
|  3> % output
|  4>     # printlevel mini
|  5>     print[ P_Basis ] 0
|  6>     print[ P_SCFInfo ] 1
|  7>     print[ P_SCFIterInfo ] 1
|  8>     print[ P_OrbEn ] 0
|  9>     print[ P_Cartesian ] 0
| 10> end
| 11> *xyz 0 1
| 12>  C        0.7649730000    -0.1028010000    -0.1839970000
| 13>  C        2.2646830000     0.1030330000    -0.3431750000
| 14>  C        2.6228500000     0.4531300000    -1.7796020000
| 15>  C        2.7779630000     1.1734350000     0.6135810000
| 16>  C        2.6836250000     0.7586110000     2.0684870000
| 17>  N        2.3670080000     1.7508550000     2.9379320000
| 18>  O        2.9023730000    -0.3757090000     2.4399230000
| 19>  H        0.4072030000    -0.8927910000    -0.8487380000
| 20>  H        0.2163510000     0.8121730000    -0.4328690000
| 21>  H        0.5087980000    -0.3882070000     0.8386760000
| 22>  H        2.7672750000    -0.8298340000    -0.0685470000
| 23>  H        2.1540800000     1.3947290000    -2.0844040000
| 24>  H        2.2793370000    -0.3226870000    -2.4682600000
| 25>  H        3.7030580000     0.5611150000    -1.9090890000
| 26>  H        2.2514470000     2.1194370000     0.4416550000
| 27>  H        3.8398570000     1.3643860000     0.4179360000
| 28>  H        2.1810780000     2.6877610000     2.6336590000
| 29>  H        2.3418610000     1.5376720000     3.9201320000
| 30> *
| 31>
| 32>                          ****END OF INPUT****
 Total Charge           Charge          ....    0
 Multiplicity           Mult            ....    1
 Number of Electrons    NEL             ....   56
 Basis Dimension        Dim             ....  153

MULLIKEN ATOMIC CHARGES
-----------------------
   0 C :    0.019252
   1 C :   -0.156694
   2 C :    0.023761
   3 C :    0.032414
   4 C :   -0.021742
   5 N :   -0.047821
   6 O :   -0.207054
   7 H :    0.017711
   8 H :    0.003145
   9 H :    0.028267
  10 H :    0.027209
  11 H :    0.005746
  12 H :    0.018935
  13 H :    0.015454
  14 H :   -0.013657
  15 H :    0.033220
  16 H :    0.106413
  17 H :    0.115441
Sum of atomic charges:   -0.0000000

LOEWDIN ATOMIC CHARGES
----------------------
   0 C :   -0.058292
   1 C :   -0.042234
   2 C :   -0.059663
   3 C :   -0.064033
   4 C :    0.027442
   5 N :    0.012015
   6 O :   -0.194558
   7 H :    0.026495
   8 H :    0.019085
   9 H :    0.028494
  10 H :    0.030924
  11 H :    0.021072
  12 H :    0.026552
  13 H :    0.024419
  14 H :    0.018075
  15 H :    0.044036
  16 H :    0.068713
  17 H :    0.071459

  Mayer bond orders larger than 0.1
B(  0-C ,  1-C ) :   1.0871 B(  0-C ,  7-H ) :   0.9622 B(  0-C ,  8-H ) :   0.9587
B(  0-C ,  9-H ) :   0.9569 B(  1-C ,  2-C ) :   1.0897 B(  1-C ,  3-C ) :   1.0659
B(  1-C , 10-H ) :   0.9021 B(  2-C , 11-H ) :   0.9568 B(  2-C , 12-H ) :   0.9603
B(  2-C , 13-H ) :   0.9593 B(  3-C ,  4-C ) :   0.9486 B(  3-C , 14-H ) :   0.9183
B(  3-C , 15-H ) :   0.9022 B(  4-C ,  5-N ) :   1.2503 B(  4-C ,  6-O ) :   2.1010
B(  5-N , 16-H ) :   0.9415 B(  5-N , 17-H ) :   0.9362

FINAL SINGLE POINT ENERGY      -326.500947158982

DIPOLE MOMENT
-------------
                                X             Y             Z
Electronic contribution:      2.55842      -0.61639       8.22418
Nuclear contribution   :     -2.81085       1.90016      -8.23840
                        -----------------------------------------
Total Dipole Moment    :     -0.25243       1.28377      -0.01421
                        -----------------------------------------
Magnitude (a.u.)       :      1.30843
Magnitude (Debye)      :      3.32576

                             ****ORCA TERMINATED NORMALLY****
TOTAL RUN TIME: 0 days 0 hours 0 minutes 7 seconds 896 msec
