                         Program Version 3.0.3 - RELEASE   -
|  1> ! RI PBE def2-SVP def2-SVP/J NBO PAL2
|  2> % maxcore 2000
|  3> % output
|  4>     # printlevel mini
|  5>     print[ P_Basis ] 0
|  6>     print[ P_SCFInfo ] 1
|  7>     print[ P_SCFIterInfo ] 1
|  8>     print[ P_OrbEn ] 0
|  9>     print[ P_Cartesian ] 0
| 10> end
| 11> *xyz 0 1
| 12>  C        0.6421120000     0.0745010000    -0.4664530000
| 13>  C        2.0053880000     0.0206610000     0.2288770000
| 14>  C        3.0259450000    -0.5804380000    -0.6149890000
| 15>  C        3.8680440000    -1.0649460000    -1.3222140000
| 16>  C        2.3632220000     1.4179020000     0.7656010000
| 17>  N        3.5607090000     1.9102380000     0.3973310000
| 18>  O        1.5851410000     2.0078540000     1.4834100000
| 19>  H        0.3059360000    -0.9310810000    -0.7204850000
| 20>  H        0.7028510000     0.6599990000    -1.3854850000
| 21>  H       -0.0798910000     0.5415950000     0.2024130000
| 22>  H        1.9046530000    -0.5944480000     1.1312690000
| 23>  H        4.6051290000    -1.5106670000    -1.9479250000
| 24>  H        4.1737690000     1.3855550000    -0.2018810000
| 25>  H        3.8317930000     2.8165850000     0.7363310000
| 26> *
| 27>
| 28>                          ****END OF INPUT****
 Total Charge           Charge          ....    0
 Multiplicity           Mult            ....    1
 Number of Electrons    NEL             ....   52
 Basis Dimension        Dim             ....  133

MULLIKEN ATOMIC CHARGES
-----------------------
   0 C :    0.027430
   1 C :   -0.037198
   2 C :    0.369376
   3 C :   -0.529835
   4 C :   -0.009991
   5 N :   -0.028748
   6 O :   -0.201904
   7 H :    0.030542
   8 H :    0.028195
   9 H :    0.046432
  10 H :    0.063110
  11 H :    0.002171
  12 H :    0.121810
  13 H :    0.118610
Sum of atomic charges:    0.0000000

LOEWDIN ATOMIC CHARGES
----------------------
   0 C :   -0.034817
   1 C :   -0.077759
   2 C :   -0.023439
   3 C :   -0.091394
   4 C :    0.034264
   5 N :    0.027729
   6 O :   -0.188704
   7 H :    0.031296
   8 H :    0.031530
   9 H :    0.035609
  10 H :    0.067321
  11 H :    0.036749
  12 H :    0.075145
  13 H :    0.076469

  Mayer bond orders larger than 0.1
B(  0-C ,  1-C ) :   1.0775 B(  0-C ,  7-H ) :   0.9640 B(  0-C ,  8-H ) :   0.9628
B(  0-C ,  9-H ) :   0.9488 B(  1-C ,  2-C ) :   0.9633 B(  1-C ,  4-C ) :   0.8436
B(  1-C , 10-H ) :   0.8577 B(  2-C ,  3-C ) :   2.2874 B(  2-C , 11-H ) :  -0.1223
B(  3-C , 11-H ) :   1.1123 B(  4-C ,  5-N ) :   1.3285 B(  4-C ,  6-O ) :   2.0919
B(  5-N ,  6-O ) :   0.1048 B(  5-N , 12-H ) :   0.9147 B(  5-N , 13-H ) :   0.9368

FINAL SINGLE POINT ENERGY      -324.034400195118

DIPOLE MOMENT
-------------
                                X             Y             Z
Electronic contribution:      2.25686       1.54220       2.07895
Nuclear contribution   :     -1.32576      -1.78660      -2.71632
                        -----------------------------------------
Total Dipole Moment    :      0.93110      -0.24440      -0.63737
                        -----------------------------------------
Magnitude (a.u.)       :      1.15452
Magnitude (Debye)      :      2.93457

                             ****ORCA TERMINATED NORMALLY****
TOTAL RUN TIME: 0 days 0 hours 0 minutes 6 seconds 580 msec
