                         Program Version 3.0.3 - RELEASE   -
|  1> ! RI PBE def2-SVP def2-SVP/J NBO PAL2
|  2> % maxcore 2000
|  3> % output
|  4>     # printlevel mini
|  5>     print[ P_Basis ] 0
|  6>     print[ P_SCFInfo ] 1
|  7>     print[ P_SCFIterInfo ] 1
|  8>     print[ P_OrbEn ] 0
|  9>     print[ P_Cartesian ] 0
| 10> end
| 11> *xyz 0 1
| 12>  C        1.0269160000     0.1182320000    -0.1502240000
| 13>  C        2.4275110000     0.2628000000     0.3377680000
| 14>  C        3.5509270000    -0.2340530000    -0.5326280000
| 15>  C        3.9108950000    -1.6479250000    -0.1896600000
| 16>  C        3.7946490000    -2.6771840000    -1.0166220000
| 17>  N        2.5870490000     0.7789920000     1.4890700000
| 18>  O        3.9262220000     0.8438300000     1.8616380000
| 19>  H        0.8192630000    -0.9280770000    -0.3945020000
| 20>  H        0.8779600000     0.6991510000    -1.0657200000
| 21>  H        0.3198130000     0.4567200000     0.6059070000
| 22>  H        4.4209540000     0.4113830000    -0.3835120000
| 23>  H        3.2482280000    -0.1743080000    -1.5810510000
| 24>  H        4.2790250000    -1.8039810000     0.8210940000
| 25>  H        3.4296640000    -2.5528700000    -2.0317720000
| 26>  H        4.0676940000    -3.6808200000    -0.7118770000
| 27>  H        3.8820290000     1.2774100000     2.7175790000
| 28> *
| 29>
| 30>                          ****END OF INPUT****
 Total Charge           Charge          ....    0
 Multiplicity           Mult            ....    1
 Number of Electrons    NEL             ....   54
 Basis Dimension        Dim             ....  143

MULLIKEN ATOMIC CHARGES
-----------------------
   0 C :    0.080182
   1 C :   -0.255601
   2 C :    0.150816
   3 C :   -0.082485
   4 C :   -0.031843
   5 N :   -0.027502
   6 O :   -0.187417
   7 H :    0.031979
   8 H :    0.030772
   9 H :    0.027251
  10 H :    0.036769
  11 H :   -0.000209
  12 H :    0.013706
  13 H :    0.014982
  14 H :    0.025506
  15 H :    0.173095
Sum of atomic charges:   -0.0000000

LOEWDIN ATOMIC CHARGES
----------------------
   0 C :   -0.058006
   1 C :   -0.051739
   2 C :   -0.048849
   3 C :   -0.015794
   4 C :   -0.070772
   5 N :   -0.030403
   6 O :   -0.061295
   7 H :    0.039144
   8 H :    0.037217
   9 H :    0.035988
  10 H :    0.043700
  11 H :    0.032347
  12 H :    0.028686
  13 H :    0.020628
  14 H :    0.025499
  15 H :    0.073650

  Mayer bond orders larger than 0.1
B(  0-C ,  1-C ) :   1.1005 B(  0-C ,  7-H ) :   0.9404 B(  0-C ,  8-H ) :   0.9388
B(  0-C ,  9-H ) :   0.9454 B(  1-C ,  2-C ) :   1.0015 B(  1-C ,  5-N ) :   1.9351
B(  2-C ,  3-C ) :   1.0682 B(  2-C , 10-H ) :   0.8786 B(  2-C , 11-H ) :   0.9136
B(  3-C ,  4-C ) :   2.0065 B(  3-C , 12-H ) :   0.9532 B(  4-C , 13-H ) :   0.9435
B(  4-C , 14-H ) :   0.9452 B(  5-N ,  6-O ) :   0.9891 B(  6-O , 15-H ) :   0.9751

FINAL SINGLE POINT ENERGY      -325.198964102893

DIPOLE MOMENT
-------------
                                X             Y             Z
Electronic contribution:      1.89012       3.21066       4.37022
Nuclear contribution   :     -1.87402      -3.14726      -4.42166
                        -----------------------------------------
Total Dipole Moment    :      0.01610       0.06340      -0.05144
                        -----------------------------------------
Magnitude (a.u.)       :      0.08322
Magnitude (Debye)      :      0.21152

                             ****ORCA TERMINATED NORMALLY****
TOTAL RUN TIME: 0 days 0 hours 0 minutes 6 seconds 277 msec
