                         Program Version 3.0.3 - RELEASE   -
|  1> ! RI PBE def2-SVP def2-SVP/J NBO PAL2
|  2> % maxcore 2000
|  3> % output
|  4>     # printlevel mini
|  5>     print[ P_Basis ] 0
|  6>     print[ P_SCFInfo ] 1
|  7>     print[ P_SCFIterInfo ] 1
|  8>     print[ P_OrbEn ] 0
|  9>     print[ P_Cartesian ] 0
| 10> end
| 11> *xyz 0 1
| 12>  C        1.2465520000    -0.1138720000    -0.5813700000
| 13>  C        2.6643850000     0.2040690000    -0.2630870000
| 14>  C        3.6669980000    -0.8877930000     0.0257810000
| 15>  C        3.1456030000    -2.2405490000    -0.0301370000
| 16>  C        2.7283850000    -3.3649100000    -0.0727900000
| 17>  N        2.9979210000     1.4310300000    -0.2440980000
| 18>  O        4.3429240000     1.5991350000     0.0643430000
| 19>  H        0.7827580000    -0.6687120000     0.2386940000
| 20>  H        1.1844040000    -0.7531560000    -1.4661760000
| 21>  H        0.6921850000     0.8066820000    -0.7574860000
| 22>  H        4.1068270000    -0.6974170000     1.0115690000
| 23>  H        4.5025680000    -0.7802920000    -0.6754810000
| 24>  H        2.3604990000    -4.3628710000    -0.1100130000
| 25>  H        4.4457010000     2.5539660000     0.0423410000
| 26> *
| 27>
| 28>                          ****END OF INPUT****
 Total Charge           Charge          ....    0
 Multiplicity           Mult            ....    1
 Number of Electrons    NEL             ....   52
 Basis Dimension        Dim             ....  133

MULLIKEN ATOMIC CHARGES
-----------------------
   0 C :    0.106708
   1 C :   -0.292762
   2 C :    0.198107
   3 C :    0.305926
   4 C :   -0.496764
   5 N :   -0.034184
   6 O :   -0.183129
   7 H :    0.041651
   8 H :    0.039732
   9 H :    0.026699
  10 H :    0.056350
  11 H :    0.060617
  12 H :   -0.000727
  13 H :    0.171777
Sum of atomic charges:   -0.0000000

LOEWDIN ATOMIC CHARGES
----------------------
   0 C :   -0.057579
   1 C :   -0.049433
   2 C :   -0.058592
   3 C :   -0.022138
   4 C :   -0.088382
   5 N :   -0.030622
   6 O :   -0.057170
   7 H :    0.043450
   8 H :    0.043077
   9 H :    0.037236
  10 H :    0.064747
  11 H :    0.065286
  12 H :    0.034667
  13 H :    0.075455

  Mayer bond orders larger than 0.1
B(  0-C ,  1-C ) :   1.1340 B(  0-C ,  7-H ) :   0.9303 B(  0-C ,  8-H ) :   0.9298
B(  0-C ,  9-H ) :   0.9404 B(  1-C ,  2-C ) :   0.9597 B(  1-C ,  5-N ) :   1.9213
B(  2-C ,  3-C ) :   1.0260 B(  2-C , 10-H ) :   0.8737 B(  2-C , 11-H ) :   0.8757
B(  3-C ,  4-C ) :   2.3377 B(  3-C , 12-H ) :  -0.1088 B(  4-C , 12-H ) :   1.0993
B(  5-N ,  6-O ) :   1.0013 B(  6-O , 13-H ) :   0.9744

FINAL SINGLE POINT ENERGY      -323.955181719421

DIPOLE MOMENT
-------------
                                X             Y             Z
Electronic contribution:      2.79866       1.36673       0.59378
Nuclear contribution   :     -2.71853      -1.24065      -0.58052
                        -----------------------------------------
Total Dipole Moment    :      0.08013       0.12608       0.01326
                        -----------------------------------------
Magnitude (a.u.)       :      0.14998
Magnitude (Debye)      :      0.38122

                             ****ORCA TERMINATED NORMALLY****
TOTAL RUN TIME: 0 days 0 hours 0 minutes 6 seconds 726 msec
