                         Program Version 3.0.3 - RELEASE   -
|  1> ! RI PBE def2-SVP def2-SVP/J NBO PAL2
|  2> % maxcore 2000
|  3> % output
|  4>     # printlevel mini
|  5>     print[ P_Basis ] 0
|  6>     print[ P_SCFInfo ] 1
|  7>     print[ P_SCFIterInfo ] 1
|  8>     print[ P_OrbEn ] 0
|  9>     print[ P_Cartesian ] 0
| 10> end
| 11> *xyz 0 1
| 12>  C        0.9266400000    -0.0202320000     0.0542820000
| 13>  C        2.3744520000    -0.0431070000     0.0744580000
| 14>  C        3.5779550000    -0.0802620000     0.1081580000
| 15>  C        5.0004870000    -0.0613850000     0.0894980000
| 16>  C        5.7148940000     0.9027170000    -0.8073700000
| 17>  N        5.5976760000    -0.8922250000     0.8609570000
| 18>  O        6.9689530000    -0.7756200000     0.7508460000
| 19>  H        0.5279940000     0.2579370000     1.0334470000
| 20>  H        0.5254060000    -1.0039480000    -0.2030740000
| 21>  H        0.5548210000     0.6994150000    -0.6790240000
| 22>  H        5.0047550000     1.5098630000    -1.3642730000
| 23>  H        6.3568810000     0.3599850000    -1.5052760000
| 24>  H        6.3661320000     1.5516170000    -0.2170630000
| 25>  H        7.2870540000    -1.4398760000     1.3684330000
| 26> *
| 27>
| 28>                          ****END OF INPUT****
 Total Charge           Charge          ....    0
 Multiplicity           Mult            ....    1
 Number of Electrons    NEL             ....   52
 Basis Dimension        Dim             ....  133

MULLIKEN ATOMIC CHARGES
-----------------------
   0 C :    0.055875
   1 C :   -0.220184
   2 C :    0.075114
   3 C :   -0.238949
   4 C :    0.116261
   5 N :   -0.046200
   6 O :   -0.173504
   7 H :    0.052026
   8 H :    0.052171
   9 H :    0.049569
  10 H :    0.019920
  11 H :    0.041184
  12 H :    0.041555
  13 H :    0.175162
Sum of atomic charges:   -0.0000000

LOEWDIN ATOMIC CHARGES
----------------------
   0 C :   -0.066197
   1 C :   -0.040355
   2 C :   -0.059285
   3 C :   -0.074535
   4 C :   -0.062602
   5 N :   -0.015256
   6 O :   -0.042819
   7 H :    0.053554
   8 H :    0.053613
   9 H :    0.051767
  10 H :    0.036350
  11 H :    0.044456
  12 H :    0.044505
  13 H :    0.076803

  Mayer bond orders larger than 0.1
B(  0-C ,  1-C ) :   1.1329 B(  0-C ,  7-H ) :   0.9297 B(  0-C ,  8-H ) :   0.9300
B(  0-C ,  9-H ) :   0.9327 B(  1-C ,  2-C ) :   2.4850 B(  2-C ,  3-C ) :   1.0002
B(  3-C ,  4-C ) :   1.0703 B(  3-C ,  5-N ) :   1.8179 B(  4-C , 10-H ) :   0.9451
B(  4-C , 11-H ) :   0.9366 B(  4-C , 12-H ) :   0.9357 B(  5-N ,  6-O ) :   1.0173
B(  6-O , 13-H ) :   0.9743

FINAL SINGLE POINT ENERGY      -323.968630569764

DIPOLE MOMENT
-------------
                                X             Y             Z
Electronic contribution:      3.77074      -2.67633       2.48461
Nuclear contribution   :     -3.92506       2.78766      -2.58797
                        -----------------------------------------
Total Dipole Moment    :     -0.15433       0.11133      -0.10336
                        -----------------------------------------
Magnitude (a.u.)       :      0.21655
Magnitude (Debye)      :      0.55044

                             ****ORCA TERMINATED NORMALLY****
TOTAL RUN TIME: 0 days 0 hours 0 minutes 6 seconds 247 msec
