                         Program Version 3.0.3 - RELEASE   -
|  1> ! RI PBE def2-SVP def2-SVP/J NBO PAL2
|  2> % maxcore 2000
|  3> % output
|  4>     # printlevel mini
|  5>     print[ P_Basis ] 0
|  6>     print[ P_SCFInfo ] 1
|  7>     print[ P_SCFIterInfo ] 1
|  8>     print[ P_OrbEn ] 0
|  9>     print[ P_Cartesian ] 0
| 10> end
| 11> *xyz 0 1
| 12>  C        0.9504960000     0.0735270000     0.0968020000
| 13>  C        2.4012250000     0.0717920000     0.0722670000
| 14>  C        3.6030220000     0.0776020000     0.0539700000
| 15>  C        5.0594630000     0.0693660000     0.0148970000
| 16>  C        5.5904930000    -0.6237690000    -1.2006650000
| 17>  N        6.4046820000    -0.0158410000    -1.9519390000
| 18>  O        6.8082720000    -0.7995460000    -3.0174510000
| 19>  H        0.5762150000     0.3922330000     1.0728450000
| 20>  H        0.5541300000    -0.9248840000    -0.1040150000
| 21>  H        0.5460240000     0.7535570000    -0.6569160000
| 22>  H        5.4397950000    -0.4385850000     0.9104110000
| 23>  H        5.4543060000     1.0887290000     0.0338030000
| 24>  H        5.2655320000    -1.6415100000    -1.4213100000
| 25>  H        7.4022460000    -0.2186720000    -3.5007000000
| 26> *
| 27>
| 28>                          ****END OF INPUT****
 Total Charge           Charge          ....    0
 Multiplicity           Mult            ....    1
 Number of Electrons    NEL             ....   52
 Basis Dimension        Dim             ....  133

MULLIKEN ATOMIC CHARGES
-----------------------
   0 C :    0.054672
   1 C :   -0.214148
   2 C :   -0.129616
   3 C :    0.159244
   4 C :   -0.050117
   5 N :   -0.047000
   6 O :   -0.178183
   7 H :    0.045800
   8 H :    0.045896
   9 H :    0.049130
  10 H :    0.046880
  11 H :    0.034820
  12 H :    0.010726
  13 H :    0.171897
Sum of atomic charges:    0.0000000

LOEWDIN ATOMIC CHARGES
----------------------
   0 C :   -0.067466
   1 C :   -0.063850
   2 C :   -0.069864
   3 C :   -0.048543
   4 C :   -0.022456
   5 N :   -0.016387
   6 O :   -0.054409
   7 H :    0.050304
   8 H :    0.050230
   9 H :    0.050654
  10 H :    0.056114
  11 H :    0.052808
  12 H :    0.009014
  13 H :    0.073850

  Mayer bond orders larger than 0.1
B(  0-C ,  1-C ) :   1.1343 B(  0-C ,  7-H ) :   0.9340 B(  0-C ,  8-H ) :   0.9322
B(  0-C ,  9-H ) :   0.9326 B(  1-C ,  2-C ) :   2.6510 B(  2-C ,  3-C ) :   1.0303
B(  3-C ,  4-C ) :   1.0234 B(  3-C , 10-H ) :   0.8914 B(  3-C , 11-H ) :   0.8879
B(  4-C ,  5-N ) :   1.9176 B(  4-C ,  6-O ) :   0.1143 B(  4-C , 12-H ) :   0.9431
B(  5-N ,  6-O ) :   0.9934 B(  6-O , 13-H ) :   0.9762

FINAL SINGLE POINT ENERGY      -323.957528254693

DIPOLE MOMENT
-------------
                                X             Y             Z
Electronic contribution:      5.58156      -0.26868      -2.64334
Nuclear contribution   :     -5.72823       0.28054       2.66955
                        -----------------------------------------
Total Dipole Moment    :     -0.14667       0.01186       0.02621
                        -----------------------------------------
Magnitude (a.u.)       :      0.14946
Magnitude (Debye)      :      0.37990

                             ****ORCA TERMINATED NORMALLY****
TOTAL RUN TIME: 0 days 0 hours 0 minutes 5 seconds 970 msec
