                         Program Version 3.0.3 - RELEASE   -
|  1> ! RI PBE def2-SVP def2-SVP/J NBO PAL2
|  2> % maxcore 2000
|  3> % output
|  4>     # printlevel mini
|  5>     print[ P_Basis ] 0
|  6>     print[ P_SCFInfo ] 1
|  7>     print[ P_SCFIterInfo ] 1
|  8>     print[ P_OrbEn ] 0
|  9>     print[ P_Cartesian ] 0
| 10> end
| 11> *xyz 0 1
| 12>  C        1.1272980000    -0.1159690000    -0.2906720000
| 13>  C        2.5728790000    -0.0672370000    -0.1705090000
| 14>  C        3.7704370000    -0.0028820000    -0.0714880000
| 15>  C        5.2159390000     0.0508680000     0.0485540000
| 16>  C        5.9522740000    -1.2872250000     0.1395530000
| 17>  N        5.1760760000    -2.3874150000     0.0988150000
| 18>  O        7.1592070000    -1.3135550000     0.2411080000
| 19>  H        0.8235060000    -0.6591290000    -1.1889370000
| 20>  H        0.7115390000     0.8926680000    -0.3537600000
| 21>  H        0.6754010000    -0.6100580000     0.5729550000
| 22>  H        5.5096270000     0.6173340000     0.9373140000
| 23>  H        5.6555450000     0.5793030000    -0.8026370000
| 24>  H        4.1778430000    -2.3065220000     0.0135150000
| 25>  H        5.6142380000    -3.2896820000     0.1553090000
| 26> *
| 27>
| 28>                          ****END OF INPUT****
 Total Charge           Charge          ....    0
 Multiplicity           Mult            ....    1
 Number of Electrons    NEL             ....   52
 Basis Dimension        Dim             ....  133

MULLIKEN ATOMIC CHARGES
-----------------------
   0 C :    0.052216
   1 C :   -0.245668
   2 C :   -0.144201
   3 C :    0.127562
   4 C :   -0.051763
   5 N :   -0.034396
   6 O :   -0.210344
   7 H :    0.047958
   8 H :    0.051494
   9 H :    0.049390
  10 H :    0.061917
  11 H :    0.061596
  12 H :    0.119183
  13 H :    0.115054
Sum of atomic charges:    0.0000000

LOEWDIN ATOMIC CHARGES
----------------------
   0 C :   -0.068005
   1 C :   -0.070154
   2 C :   -0.080095
   3 C :   -0.072752
   4 C :    0.027409
   5 N :    0.022608
   6 O :   -0.194209
   7 H :    0.050419
   8 H :    0.053794
   9 H :    0.050656
  10 H :    0.066550
  11 H :    0.066448
  12 H :    0.072948
  13 H :    0.074384

  Mayer bond orders larger than 0.1
B(  0-C ,  1-C ) :   1.1364 B(  0-C ,  7-H ) :   0.9319 B(  0-C ,  8-H ) :   0.9319
B(  0-C ,  9-H ) :   0.9326 B(  1-C ,  2-C ) :   2.6166 B(  2-C ,  3-C ) :   1.0027
B(  3-C ,  4-C ) :   0.8903 B(  3-C , 10-H ) :   0.8856 B(  3-C , 11-H ) :   0.8857
B(  4-C ,  5-N ) :   1.3188 B(  4-C ,  6-O ) :   2.0895 B(  5-N ,  6-O ) :   0.1041
B(  5-N , 12-H ) :   0.9174 B(  5-N , 13-H ) :   0.9383

FINAL SINGLE POINT ENERGY      -324.045932135561

DIPOLE MOMENT
-------------
                                X             Y             Z
Electronic contribution:      6.04822      -0.99505       0.52702
Nuclear contribution   :     -7.58683       0.66587      -0.65021
                        -----------------------------------------
Total Dipole Moment    :     -1.53861      -0.32919      -0.12319
                        -----------------------------------------
Magnitude (a.u.)       :      1.57825
Magnitude (Debye)      :      4.01158

                             ****ORCA TERMINATED NORMALLY****
TOTAL RUN TIME: 0 days 0 hours 0 minutes 6 seconds 354 msec
