                         Program Version 3.0.3 - RELEASE   -
|  1> ! RI PBE def2-SVP def2-SVP/J NBO PAL2
|  2> % maxcore 2000
|  3> % output
|  4>     # printlevel mini
|  5>     print[ P_Basis ] 0
|  6>     print[ P_SCFInfo ] 1
|  7>     print[ P_SCFIterInfo ] 1
|  8>     print[ P_OrbEn ] 0
|  9>     print[ P_Cartesian ] 0
| 10> end
| 11> *xyz 0 1
| 12>  C        2.1470750000    -0.6139050000     1.3115180000
| 13>  C        2.8137500000     0.0445440000     0.1070920000
| 14>  C        3.2404340000    -0.9431070000    -0.9225630000
| 15>  C        4.4919300000    -1.1143100000    -1.3538900000
| 16>  C        4.8539300000    -2.0936360000    -2.3501430000
| 17>  N        6.0671770000    -2.2067900000    -2.7205740000
| 18>  O        6.2144130000    -3.1924410000    -3.6755610000
| 19>  H        1.8149050000     0.1358610000     2.0329000000
| 20>  H        2.8377920000    -1.2915120000     1.8181690000
| 21>  H        1.2727330000    -1.1958630000     1.0084760000
| 22>  H        3.6766770000     0.6346050000     0.4292560000
| 23>  H        2.1048840000     0.7487620000    -0.3466480000
| 24>  H        2.4559370000    -1.5761630000    -1.3376160000
| 25>  H        5.3016040000    -0.5050190000    -0.9608910000
| 26>  H        4.0818020000    -2.7340140000    -2.7818700000
| 27>  H        7.1565760000    -3.1738220000    -3.8648650000
| 28> *
| 29>
| 30>                          ****END OF INPUT****
 Total Charge           Charge          ....    0
 Multiplicity           Mult            ....    1
 Number of Electrons    NEL             ....   54
 Basis Dimension        Dim             ....  143

MULLIKEN ATOMIC CHARGES
-----------------------
   0 C :   -0.044476
   1 C :    0.036392
   2 C :   -0.079666
   3 C :    0.036188
   4 C :    0.002507
   5 N :   -0.053747
   6 O :   -0.169467
   7 H :    0.025408
   8 H :    0.032979
   9 H :    0.024878
  10 H :    0.009624
  11 H :    0.030433
  12 H :   -0.004930
  13 H :   -0.007441
  14 H :   -0.011495
  15 H :    0.172812
Sum of atomic charges:    0.0000000

LOEWDIN ATOMIC CHARGES
----------------------
   0 C :   -0.062908
   1 C :   -0.045116
   2 C :   -0.021051
   3 C :   -0.050050
   4 C :   -0.039174
   5 N :   -0.019770
   6 O :   -0.046783
   7 H :    0.028294
   8 H :    0.028401
   9 H :    0.025952
  10 H :    0.029321
  11 H :    0.036945
  12 H :    0.022724
  13 H :    0.030384
  14 H :    0.007705
  15 H :    0.075126

  Mayer bond orders larger than 0.1
B(  0-C ,  1-C ) :   1.0968 B(  0-C ,  7-H ) :   0.9594 B(  0-C ,  8-H ) :   0.9699
B(  0-C ,  9-H ) :   0.9685 B(  1-C ,  2-C ) :   1.0626 B(  1-C , 10-H ) :   0.9327
B(  1-C , 11-H ) :   0.9167 B(  2-C ,  3-C ) :   1.7709 B(  2-C ,  5-N ) :   0.1114
B(  2-C , 12-H ) :   0.9569 B(  3-C ,  4-C ) :   1.1121 B(  3-C , 13-H ) :   0.9602
B(  4-C ,  5-N ) :   1.7948 B(  4-C ,  6-O ) :   0.1008 B(  4-C , 14-H ) :   0.9488
B(  5-N ,  6-O ) :   0.9995 B(  6-O , 15-H ) :   0.9749

FINAL SINGLE POINT ENERGY      -325.205066616297

DIPOLE MOMENT
-------------
                                X             Y             Z
Electronic contribution:      7.32744      -4.06673      -7.96728
Nuclear contribution   :     -7.45118       4.14875       8.08361
                        -----------------------------------------
Total Dipole Moment    :     -0.12374       0.08202       0.11633
                        -----------------------------------------
Magnitude (a.u.)       :      0.18861
Magnitude (Debye)      :      0.47941

                             ****ORCA TERMINATED NORMALLY****
TOTAL RUN TIME: 0 days 0 hours 0 minutes 7 seconds 158 msec
