                         Program Version 3.0.3 - RELEASE   -
|  1> ! RI PBE def2-SVP def2-SVP/J NBO PAL2
|  2> % maxcore 2000
|  3> % output
|  4>     # printlevel mini
|  5>     print[ P_Basis ] 0
|  6>     print[ P_SCFInfo ] 1
|  7>     print[ P_SCFIterInfo ] 1
|  8>     print[ P_OrbEn ] 0
|  9>     print[ P_Cartesian ] 0
| 10> end
| 11> *xyz 0 1
| 12>  C        2.1501280000     0.8909230000    -1.1977250000
| 13>  C        2.9175800000    -0.0154560000    -0.2393730000
| 14>  C        3.2176960000     0.6545400000     1.0541200000
| 15>  C        4.4269130000     0.8354630000     1.5742390000
| 16>  C        4.5951850000     1.5274880000     2.8771250000
| 17>  N        5.8852120000     1.6424880000     3.2910590000
| 18>  O        3.6679970000     1.9618760000     3.5322710000
| 19>  H        1.9065220000     0.3628220000    -2.1219470000
| 20>  H        2.7376200000     1.7747470000    -1.4555760000
| 21>  H        1.2141030000     1.2333800000    -0.7498550000
| 22>  H        3.8435270000    -0.3645440000    -0.7057770000
| 23>  H        2.3109320000    -0.9068250000    -0.0360510000
| 24>  H        2.3760300000     1.0419780000     1.6270060000
| 25>  H        5.3136300000     0.4783190000     1.0554190000
| 26>  H        6.6528870000     1.2835140000     2.7554620000
| 27>  H        6.0666380000     2.0999980000     4.1669040000
| 28> *
| 29>
| 30>                          ****END OF INPUT****
 Total Charge           Charge          ....    0
 Multiplicity           Mult            ....    1
 Number of Electrons    NEL             ....   54
 Basis Dimension        Dim             ....  143

MULLIKEN ATOMIC CHARGES
-----------------------
   0 C :   -0.040226
   1 C :    0.043769
   2 C :   -0.042749
   3 C :   -0.073061
   4 C :    0.044427
   5 N :   -0.051371
   6 O :   -0.210179
   7 H :    0.024412
   8 H :    0.030892
   9 H :    0.029317
  10 H :    0.004726
  11 H :    0.034483
  12 H :    0.017675
  13 H :   -0.028282
  14 H :    0.103425
  15 H :    0.112742
Sum of atomic charges:   -0.0000000

LOEWDIN ATOMIC CHARGES
----------------------
   0 C :   -0.059601
   1 C :   -0.044993
   2 C :    0.022659
   3 C :   -0.093560
   4 C :    0.021478
   5 N :    0.012257
   6 O :   -0.200247
   7 H :    0.028316
   8 H :    0.028277
   9 H :    0.028770
  10 H :    0.026765
  11 H :    0.040624
  12 H :    0.033044
  13 H :    0.015919
  14 H :    0.068242
  15 H :    0.072051

  Mayer bond orders larger than 0.1
B(  0-C ,  1-C ) :   1.0986 B(  0-C ,  7-H ) :   0.9594 B(  0-C ,  8-H ) :   0.9703
B(  0-C ,  9-H ) :   0.9681 B(  1-C ,  2-C ) :   1.0522 B(  1-C , 10-H ) :   0.9311
B(  1-C , 11-H ) :   0.9116 B(  2-C ,  3-C ) :   1.8722 B(  2-C , 12-H ) :   0.9408
B(  3-C ,  4-C ) :   0.9393 B(  3-C , 13-H ) :   0.9391 B(  4-C ,  5-N ) :   1.2381
B(  4-C ,  6-O ) :   2.0946 B(  5-N , 14-H ) :   0.9424 B(  5-N , 15-H ) :   0.9367

FINAL SINGLE POINT ENERGY      -325.283936237755

DIPOLE MOMENT
-------------
                                X             Y             Z
Electronic contribution:      3.11024       2.18557       8.31444
Nuclear contribution   :     -2.08339      -2.63058      -8.99769
                        -----------------------------------------
Total Dipole Moment    :      1.02685      -0.44501      -0.68325
                        -----------------------------------------
Magnitude (a.u.)       :      1.31121
Magnitude (Debye)      :      3.33284

                             ****ORCA TERMINATED NORMALLY****
TOTAL RUN TIME: 0 days 0 hours 0 minutes 7 seconds 322 msec
