                         Program Version 3.0.3 - RELEASE   -
|  1> ! RI PBE def2-SVP def2-SVP/J NBO PAL2
|  2> % maxcore 2000
|  3> % output
|  4>     # printlevel mini
|  5>     print[ P_Basis ] 0
|  6>     print[ P_SCFInfo ] 1
|  7>     print[ P_SCFIterInfo ] 1
|  8>     print[ P_OrbEn ] 0
|  9>     print[ P_Cartesian ] 0
| 10> end
| 11> *xyz 0 1
| 12>  C        2.5231420000     1.2994260000    -0.8672100000
| 13>  C        2.4158780000     0.1239770000     0.1003760000
| 14>  C        2.8399760000     0.4706080000     1.4981850000
| 15>  C        1.9634890000     0.6664580000     2.4876850000
| 16>  C        4.2592850000     0.6065910000     1.7944750000
| 17>  N        5.1389380000     0.3756080000     0.9053740000
| 18>  O        6.4154020000     0.5466120000     1.3977640000
| 19>  H        2.1953620000     1.0035760000    -1.8664300000
| 20>  H        3.5521580000     1.6535130000    -0.9401170000
| 21>  H        1.8972820000     2.1326220000    -0.5390390000
| 22>  H        3.0367100000    -0.6987870000    -0.2652920000
| 23>  H        1.3836620000    -0.2345670000     0.1301500000
| 24>  H        0.8968960000     0.5624980000     2.3252080000
| 25>  H        2.2885230000     0.9339000000     3.4872950000
| 26>  H        4.5592780000     0.9002350000     2.8022890000
| 27>  H        6.9723310000     0.3421500000     0.6413770000
| 28> *
| 29>
| 30>                          ****END OF INPUT****
 Total Charge           Charge          ....    0
 Multiplicity           Mult            ....    1
 Number of Electrons    NEL             ....   54
 Basis Dimension        Dim             ....  143

MULLIKEN ATOMIC CHARGES
-----------------------
   0 C :   -0.016889
   1 C :    0.066144
   2 C :   -0.095212
   3 C :   -0.037023
   4 C :    0.013436
   5 N :   -0.044905
   6 O :   -0.163042
   7 H :    0.019576
   8 H :    0.025672
   9 H :    0.018669
  10 H :    0.019076
  11 H :   -0.001356
  12 H :    0.020031
  13 H :    0.015433
  14 H :   -0.013121
  15 H :    0.173511
Sum of atomic charges:    0.0000000

LOEWDIN ATOMIC CHARGES
----------------------
   0 C :   -0.058110
   1 C :   -0.035225
   2 C :   -0.036454
   3 C :   -0.050136
   4 C :   -0.031513
   5 N :   -0.014277
   6 O :   -0.042399
   7 H :    0.026457
   8 H :    0.024724
   9 H :    0.024519
  10 H :    0.033326
  11 H :    0.027507
  12 H :    0.023902
  13 H :    0.022093
  14 H :    0.009702
  15 H :    0.075884

  Mayer bond orders larger than 0.1
B(  0-C ,  1-C ) :   1.1077 B(  0-C ,  7-H ) :   0.9609 B(  0-C ,  8-H ) :   0.9651
B(  0-C ,  9-H ) :   0.9656 B(  1-C ,  2-C ) :   1.0769 B(  1-C , 10-H ) :   0.9052
B(  1-C , 11-H ) :   0.9176 B(  2-C ,  3-C ) :   1.8772 B(  2-C ,  4-C ) :   1.0852
B(  3-C ,  5-N ) :   0.1110 B(  3-C , 12-H ) :   0.9337 B(  3-C , 13-H ) :   0.9378
B(  4-C ,  5-N ) :   1.8154 B(  4-C ,  6-O ) :   0.1044 B(  4-C , 14-H ) :   0.9440
B(  5-N ,  6-O ) :   0.9989 B(  6-O , 15-H ) :   0.9745

FINAL SINGLE POINT ENERGY      -325.203254146578

DIPOLE MOMENT
-------------
                                X             Y             Z
Electronic contribution:      6.42674      -1.21466       3.04474
Nuclear contribution   :     -6.32296       1.18633      -3.18636
                        -----------------------------------------
Total Dipole Moment    :      0.10377      -0.02833      -0.14162
                        -----------------------------------------
Magnitude (a.u.)       :      0.17784
Magnitude (Debye)      :      0.45204

                             ****ORCA TERMINATED NORMALLY****
TOTAL RUN TIME: 0 days 0 hours 0 minutes 7 seconds 457 msec
