                         Program Version 3.0.3 - RELEASE   -
|  1> ! RI PBE def2-SVP def2-SVP/J NBO PAL2
|  2> % maxcore 2000
|  3> % output
|  4>     # printlevel mini
|  5>     print[ P_Basis ] 0
|  6>     print[ P_SCFInfo ] 1
|  7>     print[ P_SCFIterInfo ] 1
|  8>     print[ P_OrbEn ] 0
|  9>     print[ P_Cartesian ] 0
| 10> end
| 11> *xyz 0 1
| 12>  C        2.8419550000    -1.3676010000    -0.8637040000
| 13>  C        2.4575210000    -0.1554890000    -0.0217910000
| 14>  C        2.7844760000    -0.3239250000     1.4291010000
| 15>  C        1.8660240000    -0.3726470000     2.3908830000
| 16>  C        4.2500950000    -0.3470620000     1.7530050000
| 17>  N        4.6153820000    -1.0850220000     2.8325720000
| 18>  O        5.0544130000     0.2794140000     1.0917800000
| 19>  H        2.6037710000    -1.1962740000    -1.9155980000
| 20>  H        2.3044950000    -2.2614730000    -0.5371830000
| 21>  H        3.9134420000    -1.5667910000    -0.7946490000
| 22>  H        1.3895650000     0.0528310000    -0.1241530000
| 23>  H        3.0039370000     0.7189500000    -0.3873780000
| 24>  H        0.8089700000    -0.3019740000     2.1577830000
| 25>  H        2.1311190000    -0.4409890000     3.4399570000
| 26>  H        3.9875740000    -1.7531530000     3.2392060000
| 27>  H        5.5971900000    -1.1504850000     3.0394590000
| 28> *
| 29>
| 30>                          ****END OF INPUT****
 Total Charge           Charge          ....    0
 Multiplicity           Mult            ....    1
 Number of Electrons    NEL             ....   54
 Basis Dimension        Dim             ....  143

MULLIKEN ATOMIC CHARGES
-----------------------
   0 C :   -0.037498
   1 C :    0.059210
   2 C :   -0.164625
   3 C :   -0.041235
   4 C :    0.051800
   5 N :   -0.052851
   6 O :   -0.201157
   7 H :    0.027416
   8 H :    0.015525
   9 H :    0.039884
  10 H :   -0.001172
  11 H :    0.038419
  12 H :    0.022774
  13 H :    0.015254
  14 H :    0.112229
  15 H :    0.116027
Sum of atomic charges:   -0.0000000

LOEWDIN ATOMIC CHARGES
----------------------
   0 C :   -0.062068
   1 C :   -0.033771
   2 C :   -0.049703
   3 C :   -0.055947
   4 C :    0.028681
   5 N :    0.016747
   6 O :   -0.184722
   7 H :    0.029779
   8 H :    0.023353
   9 H :    0.030134
  10 H :    0.027147
  11 H :    0.042172
  12 H :    0.025268
  13 H :    0.018977
  14 H :    0.070519
  15 H :    0.073436

  Mayer bond orders larger than 0.1
B(  0-C ,  1-C ) :   1.1063 B(  0-C ,  7-H ) :   0.9609 B(  0-C ,  8-H ) :   0.9636
B(  0-C ,  9-H ) :   0.9665 B(  1-C ,  2-C ) :   1.0769 B(  1-C , 10-H ) :   0.9207
B(  1-C , 11-H ) :   0.9036 B(  2-C ,  3-C ) :   1.9530 B(  2-C ,  4-C ) :   0.9060
B(  3-C , 12-H ) :   0.9318 B(  3-C , 13-H ) :   0.9366 B(  4-C ,  5-N ) :   1.2515
B(  4-C ,  6-O ) :   2.0872 B(  5-N , 14-H ) :   0.9401 B(  5-N , 15-H ) :   0.9372

FINAL SINGLE POINT ENERGY      -325.280718887035

DIPOLE MOMENT
-------------
                                X             Y             Z
Electronic contribution:      4.46327       2.30728       3.44792
Nuclear contribution   :     -4.95214      -3.18494      -2.73707
                        -----------------------------------------
Total Dipole Moment    :     -0.48887      -0.87766       0.71085
                        -----------------------------------------
Magnitude (a.u.)       :      1.23069
Magnitude (Debye)      :      3.12816

                             ****ORCA TERMINATED NORMALLY****
TOTAL RUN TIME: 0 days 0 hours 0 minutes 7 seconds 116 msec
