                         Program Version 3.0.3 - RELEASE   -
|  1> ! RI PBE def2-SVP def2-SVP/J NBO PAL2
|  2> % maxcore 2000
|  3> % output
|  4>     # printlevel mini
|  5>     print[ P_Basis ] 0
|  6>     print[ P_SCFInfo ] 1
|  7>     print[ P_SCFIterInfo ] 1
|  8>     print[ P_OrbEn ] 0
|  9>     print[ P_Cartesian ] 0
| 10> end
| 11> *xyz 0 1
| 12>  C        1.7338850000    -1.5589750000     0.5367200000
| 13>  C        2.1629120000    -0.0960280000     0.5984610000
| 14>  C        3.0566800000     0.2108750000     1.7646870000
| 15>  C        2.5301420000     0.3164090000     3.1227340000
| 16>  C        1.2364510000     0.2878950000     3.4366590000
| 17>  N        4.2956850000     0.3541730000     1.4719850000
| 18>  O        5.0992320000     0.6144310000     2.5672240000
| 19>  H        1.0793160000    -1.7314430000    -0.3205610000
| 20>  H        1.1978310000    -1.8640420000     1.4372390000
| 21>  H        2.6056600000    -2.2082550000     0.4317370000
| 22>  H        1.2816930000     0.5522810000     0.6381880000
| 23>  H        2.7096760000     0.1659060000    -0.3091080000
| 24>  H        3.2677730000     0.4351940000     3.9070620000
| 25>  H        0.4571310000     0.1781170000     2.6910640000
| 26>  H        0.9132010000     0.3803300000     4.4667650000
| 27>  H        5.9708400000     0.6894220000     2.1707450000
| 28> *
| 29>
| 30>                          ****END OF INPUT****
 Total Charge           Charge          ....    0
 Multiplicity           Mult            ....    1
 Number of Electrons    NEL             ....   54
 Basis Dimension        Dim             ....  143

MULLIKEN ATOMIC CHARGES
-----------------------
   0 C :   -0.025641
   1 C :    0.044000
   2 C :   -0.165124
   3 C :    0.031902
   4 C :   -0.026854
   5 N :   -0.028135
   6 O :   -0.172220
   7 H :    0.025827
   8 H :    0.021479
   9 H :    0.028655
  10 H :    0.018751
  11 H :    0.010954
  12 H :    0.005158
  13 H :    0.028087
  14 H :    0.029550
  15 H :    0.173611
Sum of atomic charges:    0.0000000

LOEWDIN ATOMIC CHARGES
----------------------
   0 C :   -0.061629
   1 C :   -0.042001
   2 C :   -0.058789
   3 C :   -0.040369
   4 C :   -0.033537
   5 N :   -0.017025
   6 O :   -0.048646
   7 H :    0.028168
   8 H :    0.024053
   9 H :    0.029375
  10 H :    0.030197
  11 H :    0.033294
  12 H :    0.031511
  13 H :    0.022532
  14 H :    0.027807
  15 H :    0.075059

  Mayer bond orders larger than 0.1
B(  0-C ,  1-C ) :   1.1118 B(  0-C ,  7-H ) :   0.9625 B(  0-C ,  8-H ) :   0.9672
B(  0-C ,  9-H ) :   0.9610 B(  1-C ,  2-C ) :   1.0807 B(  1-C , 10-H ) :   0.9072
B(  1-C , 11-H ) :   0.9120 B(  2-C ,  3-C ) :   1.0774 B(  2-C ,  5-N ) :   1.8394
B(  3-C ,  4-C ) :   1.8886 B(  3-C , 12-H ) :   0.9435 B(  4-C ,  5-N ) :   0.1022
B(  4-C , 13-H ) :   0.9381 B(  4-C , 14-H ) :   0.9424 B(  5-N ,  6-O ) :   1.0086
B(  6-O , 15-H ) :   0.9741

FINAL SINGLE POINT ENERGY      -325.201872444186

DIPOLE MOMENT
-------------
                                X             Y             Z
Electronic contribution:      6.37129       3.27336       2.08591
Nuclear contribution   :     -6.39507      -3.28990      -2.04330
                        -----------------------------------------
Total Dipole Moment    :     -0.02378      -0.01654       0.04261
                        -----------------------------------------
Magnitude (a.u.)       :      0.05153
Magnitude (Debye)      :      0.13097

                             ****ORCA TERMINATED NORMALLY****
TOTAL RUN TIME: 0 days 0 hours 0 minutes 7 seconds 274 msec
