                         Program Version 3.0.3 - RELEASE   -
|  1> ! RI PBE def2-SVP def2-SVP/J NBO PAL2
|  2> % maxcore 2000
|  3> % output
|  4>     # printlevel mini
|  5>     print[ P_Basis ] 0
|  6>     print[ P_SCFInfo ] 1
|  7>     print[ P_SCFIterInfo ] 1
|  8>     print[ P_OrbEn ] 0
|  9>     print[ P_Cartesian ] 0
| 10> end
| 11> *xyz 0 1
| 12>  C        3.2448420000     1.2035780000    -0.0368450000
| 13>  C        2.7402410000    -0.2237080000    -0.1575710000
| 14>  C        3.2269930000    -1.1511290000     0.9601470000
| 15>  C        2.5576570000    -2.5201260000     0.8662380000
| 16>  C        4.7109540000    -1.3048710000     0.9135080000
| 17>  N        5.4313960000    -0.9575430000     1.8934650000
| 18>  O        6.7772960000    -1.1929000000     1.6538500000
| 19>  H        2.8638550000     1.8258400000    -0.8496210000
| 20>  H        4.3361860000     1.2466530000    -0.0650510000
| 21>  H        2.9257440000     1.6538640000     0.9069990000
| 22>  H        3.0401180000    -0.6467330000    -1.1243010000
| 23>  H        1.6450230000    -0.2313170000    -0.1523280000
| 24>  H        2.9810670000    -0.6974790000     1.9261880000
| 25>  H        2.8055490000    -3.0142740000    -0.0780030000
| 26>  H        1.4706330000    -2.4187490000     0.9126940000
| 27>  H        2.8752420000    -3.1734030000     1.6813240000
| 28>  H        5.1696680000    -1.7328190000     0.0164910000
| 29>  H        7.1963250000    -0.8881020000     2.4631260000
| 30> *
| 31>
| 32>                          ****END OF INPUT****
 Total Charge           Charge          ....    0
 Multiplicity           Mult            ....    1
 Number of Electrons    NEL             ....   56
 Basis Dimension        Dim             ....  153

MULLIKEN ATOMIC CHARGES
-----------------------
   0 C :   -0.005542
   1 C :   -0.037789
   2 C :   -0.062466
   3 C :    0.014093
   4 C :   -0.018781
   5 N :   -0.043463
   6 O :   -0.181672
   7 H :    0.021073
   8 H :    0.033158
   9 H :    0.019182
  10 H :    0.005617
  11 H :    0.016636
  12 H :    0.003354
  13 H :    0.018902
  14 H :    0.025103
  15 H :    0.030865
  16 H :   -0.007326
  17 H :    0.169058
Sum of atomic charges:   -0.0000000

LOEWDIN ATOMIC CHARGES
----------------------
   0 C :   -0.067902
   1 C :   -0.038915
   2 C :   -0.051333
   3 C :   -0.055429
   4 C :   -0.024456
   5 N :   -0.017888
   6 O :   -0.060428
   7 H :    0.027622
   8 H :    0.027537
   9 H :    0.026756
  10 H :    0.021249
  11 H :    0.025598
  12 H :    0.029382
  13 H :    0.025406
  14 H :    0.028241
  15 H :    0.029841
  16 H :    0.002975
  17 H :    0.071744

  Mayer bond orders larger than 0.1
B(  0-C ,  1-C ) :   1.1134 B(  0-C ,  7-H ) :   0.9595 B(  0-C ,  8-H ) :   0.9602
B(  0-C ,  9-H ) :   0.9628 B(  1-C ,  2-C ) :   1.0421 B(  1-C , 10-H ) :   0.9367
B(  1-C , 11-H ) :   0.9351 B(  2-C ,  3-C ) :   1.0660 B(  2-C ,  4-C ) :   1.0053
B(  2-C , 12-H ) :   0.9039 B(  3-C , 13-H ) :   0.9605 B(  3-C , 14-H ) :   0.9569
B(  3-C , 15-H ) :   0.9594 B(  4-C ,  5-N ) :   1.8956 B(  4-C ,  6-O ) :   0.1129
B(  4-C , 16-H ) :   0.9360 B(  5-N ,  6-O ) :   0.9839 B(  6-O , 17-H ) :   0.9764

FINAL SINGLE POINT ENERGY      -326.415655007046

DIPOLE MOMENT
-------------
                                X             Y             Z
Electronic contribution:      7.69324      -1.43622       3.78769
Nuclear contribution   :     -7.80935       1.46112      -3.79873
                        -----------------------------------------
Total Dipole Moment    :     -0.11612       0.02489      -0.01105
                        -----------------------------------------
Magnitude (a.u.)       :      0.11927
Magnitude (Debye)      :      0.30315

                             ****ORCA TERMINATED NORMALLY****
TOTAL RUN TIME: 0 days 0 hours 0 minutes 8 seconds 281 msec
