                         Program Version 3.0.3 - RELEASE   -
|  1> ! RI PBE def2-SVP def2-SVP/J NBO PAL2
|  2> % maxcore 2000
|  3> % output
|  4>     # printlevel mini
|  5>     print[ P_Basis ] 0
|  6>     print[ P_SCFInfo ] 1
|  7>     print[ P_SCFIterInfo ] 1
|  8>     print[ P_OrbEn ] 0
|  9>     print[ P_Cartesian ] 0
| 10> end
| 11> *xyz 0 1
| 12>  C        3.7129710000    -0.2114950000    -1.2605060000
| 13>  C        2.9559070000    -0.5448630000     0.0137340000
| 14>  C        3.3828010000     0.2868130000     1.2216520000
| 15>  C        2.5399050000    -0.0295990000     2.4545890000
| 16>  C        4.8635230000     0.1666170000     1.5559010000
| 17>  N        5.3433760000    -1.0965440000     1.6887590000
| 18>  O        5.5708130000     1.1389180000     1.7209480000
| 19>  H        3.3606990000    -0.8160550000    -2.0990860000
| 20>  H        4.7850410000    -0.3901410000    -1.1467220000
| 21>  H        3.5824670000     0.8400210000    -1.5283670000
| 22>  H        3.0548670000    -1.6144540000     0.2397370000
| 23>  H        1.8836730000    -0.3820750000    -0.1404100000
| 24>  H        3.2563610000     1.3449730000     0.9761450000
| 25>  H        2.6270640000    -1.0813230000     2.7418320000
| 26>  H        1.4849800000     0.1725650000     2.2539460000
| 27>  H        2.8453200000     0.5787390000     3.3081540000
| 28>  H        4.7679080000    -1.9072650000     1.5581410000
| 29>  H        6.3074330000    -1.2158400000     1.9460640000
| 30> *
| 31>
| 32>                          ****END OF INPUT****
 Total Charge           Charge          ....    0
 Multiplicity           Mult            ....    1
 Number of Electrons    NEL             ....   56
 Basis Dimension        Dim             ....  153

MULLIKEN ATOMIC CHARGES
-----------------------
   0 C :    0.001908
   1 C :   -0.041919
   2 C :   -0.109060
   3 C :    0.038575
   4 C :   -0.018853
   5 N :   -0.053672
   6 O :   -0.195744
   7 H :    0.019288
   8 H :    0.030770
   9 H :    0.026069
  10 H :   -0.002290
  11 H :    0.014209
  12 H :    0.010206
  13 H :    0.004574
  14 H :    0.024250
  15 H :    0.033102
  16 H :    0.102660
  17 H :    0.115929
Sum of atomic charges:   -0.0000000

LOEWDIN ATOMIC CHARGES
----------------------
   0 C :   -0.067180
   1 C :   -0.042987
   2 C :   -0.069936
   3 C :   -0.050689
   4 C :    0.029299
   5 N :    0.011387
   6 O :   -0.190235
   7 H :    0.027823
   8 H :    0.027068
   9 H :    0.029901
  10 H :    0.014071
  11 H :    0.027513
  12 H :    0.036308
  13 H :    0.019109
  14 H :    0.028239
  15 H :    0.033558
  16 H :    0.064403
  17 H :    0.072350

  Mayer bond orders larger than 0.1
B(  0-C ,  1-C ) :   1.1160 B(  0-C ,  7-H ) :   0.9570 B(  0-C ,  8-H ) :   0.9579
B(  0-C ,  9-H ) :   0.9627 B(  1-C ,  2-C ) :   1.0464 B(  1-C , 10-H ) :   0.9288
B(  1-C , 11-H ) :   0.9295 B(  2-C ,  3-C ) :   1.0759 B(  2-C ,  4-C ) :   0.9343
B(  2-C , 12-H ) :   0.8876 B(  3-C , 13-H ) :   0.9572 B(  3-C , 14-H ) :   0.9584
B(  3-C , 15-H ) :   0.9574 B(  4-C ,  5-N ) :   1.2271 B(  4-C ,  6-O ) :   2.1428
B(  5-N , 16-H ) :   0.9397 B(  5-N , 17-H ) :   0.9381

FINAL SINGLE POINT ENERGY      -326.498274353117

DIPOLE MOMENT
-------------
                                X             Y             Z
Electronic contribution:      5.86260       2.34754       3.21068
Nuclear contribution   :     -6.38501      -3.60725      -3.31910
                        -----------------------------------------
Total Dipole Moment    :     -0.52241      -1.25971      -0.10842
                        -----------------------------------------
Magnitude (a.u.)       :      1.36804
Magnitude (Debye)      :      3.47728

                             ****ORCA TERMINATED NORMALLY****
TOTAL RUN TIME: 0 days 0 hours 0 minutes 8 seconds 176 msec
