                         Program Version 3.0.3 - RELEASE   -
|  1> ! RI PBE def2-SVP def2-SVP/J NBO PAL2
|  2> % maxcore 2000
|  3> % output
|  4>     # printlevel mini
|  5>     print[ P_Basis ] 0
|  6>     print[ P_SCFInfo ] 1
|  7>     print[ P_SCFIterInfo ] 1
|  8>     print[ P_OrbEn ] 0
|  9>     print[ P_Cartesian ] 0
| 10> end
| 11> *xyz 0 1
| 12>  C        2.3871000000    -0.0515560000     1.0269670000
| 13>  C        1.9952800000     0.6663550000    -0.2492090000
| 14>  C        3.1142410000     0.9753990000    -1.1969450000
| 15>  C        2.7959280000     1.7638080000    -2.4324230000
| 16>  C        3.0850160000     3.2530820000    -2.2539940000
| 17>  N        4.2769690000     0.5647670000    -0.8867960000
| 18>  O        5.2350400000     0.9169740000    -1.8342160000
| 19>  H        1.5064110000    -0.2283150000     1.6481300000
| 20>  H        3.1046250000     0.5340920000     1.6037430000
| 21>  H        2.8549100000    -1.0128510000     0.8099750000
| 22>  H        1.4913990000     1.6131560000    -0.0135660000
| 23>  H        1.2488410000     0.0802190000    -0.8010690000
| 24>  H        1.7397570000     1.6192120000    -2.6775750000
| 25>  H        3.3865960000     1.3754410000    -3.2648140000
| 26>  H        2.5083530000     3.6734300000    -1.4262450000
| 27>  H        2.8231010000     3.8072770000    -3.1579530000
| 28>  H        4.1436140000     3.4162350000    -2.0479740000
| 29>  H        6.0335180000     0.5215640000    -1.4759260000
| 30> *
| 31>
| 32>                          ****END OF INPUT****
 Total Charge           Charge          ....    0
 Multiplicity           Mult            ....    1
 Number of Electrons    NEL             ....   56
 Basis Dimension        Dim             ....  153

MULLIKEN ATOMIC CHARGES
-----------------------
   0 C :    0.008522
   1 C :    0.017295
   2 C :   -0.220999
   3 C :    0.068071
   4 C :   -0.018477
   5 N :   -0.046262
   6 O :   -0.181415
   7 H :    0.013540
   8 H :    0.025164
   9 H :    0.025165
  10 H :    0.017824
  11 H :    0.025751
  12 H :   -0.002292
  13 H :    0.024328
  14 H :    0.016579
  15 H :    0.024467
  16 H :    0.032838
  17 H :    0.169900
Sum of atomic charges:   -0.0000000

LOEWDIN ATOMIC CHARGES
----------------------
   0 C :   -0.065763
   1 C :   -0.046417
   2 C :   -0.052198
   3 C :   -0.053656
   4 C :   -0.055434
   5 N :   -0.032810
   6 O :   -0.060723
   7 H :    0.025279
   8 H :    0.029138
   9 H :    0.029333
  10 H :    0.034332
  11 H :    0.036411
  12 H :    0.026974
  13 H :    0.034231
  14 H :    0.023440
  15 H :    0.027666
  16 H :    0.028631
  17 H :    0.071564

  Mayer bond orders larger than 0.1
B(  0-C ,  1-C ) :   1.1532 B(  0-C ,  7-H ) :   0.9522 B(  0-C ,  8-H ) :   0.9600
B(  0-C ,  9-H ) :   0.9567 B(  1-C ,  2-C ) :   1.0506 B(  1-C , 10-H ) :   0.9107
B(  1-C , 11-H ) :   0.9076 B(  2-C ,  3-C ) :   1.0414 B(  2-C ,  5-N ) :   1.9474
B(  3-C ,  4-C ) :   1.1178 B(  3-C , 12-H ) :   0.9172 B(  3-C , 13-H ) :   0.9010
B(  4-C , 14-H ) :   0.9640 B(  4-C , 15-H ) :   0.9618 B(  4-C , 16-H ) :   0.9646
B(  5-N ,  6-O ) :   0.9898 B(  6-O , 17-H ) :   0.9760

FINAL SINGLE POINT ENERGY      -326.422755984473

DIPOLE MOMENT
-------------
                                X             Y             Z
Electronic contribution:      5.17379      -2.38378      -1.56653
Nuclear contribution   :     -5.25474       2.45623       1.48454
                        -----------------------------------------
Total Dipole Moment    :     -0.08095       0.07244      -0.08199
                        -----------------------------------------
Magnitude (a.u.)       :      0.13610
Magnitude (Debye)      :      0.34594

                             ****ORCA TERMINATED NORMALLY****
TOTAL RUN TIME: 0 days 0 hours 0 minutes 8 seconds 33 msec
