                         Program Version 3.0.3 - RELEASE   -
|  1> ! RI PBE def2-SVP def2-SVP/J NBO PAL2
|  2> % maxcore 2000
|  3> % output
|  4>     # printlevel mini
|  5>     print[ P_Basis ] 0
|  6>     print[ P_SCFInfo ] 1
|  7>     print[ P_SCFIterInfo ] 1
|  8>     print[ P_OrbEn ] 0
|  9>     print[ P_Cartesian ] 0
| 10> end
| 11> *xyz 0 1
| 12>  C        1.0971560000     0.2117090000     0.2147680000
| 13>  C        2.5375190000    -0.1775880000    -0.1066750000
| 14>  C        3.1243960000     0.6076430000    -1.1772080000
| 15>  C        3.6107470000     1.2591750000    -2.0651790000
| 16>  C        4.2584430000     2.0076730000    -3.1291690000
| 17>  N        3.4738150000     2.9614510000    -3.6902660000
| 18>  O        5.3993120000     1.7925350000    -3.4783220000
| 19>  H        0.7087330000    -0.4093230000     1.0240470000
| 20>  H        0.4545720000     0.0794110000    -0.6572040000
| 21>  H        1.0364560000     1.2561110000     0.5250810000
| 22>  H        2.5892630000    -1.2354610000    -0.3860180000
| 23>  H        3.1653750000    -0.0703080000     0.7844460000
| 24>  H        2.5328380000     3.1149410000    -3.3788790000
| 25>  H        3.8570960000     3.5186190000    -4.4338230000
| 26> *
| 27>
| 28>                          ****END OF INPUT****
 Total Charge           Charge          ....    0
 Multiplicity           Mult            ....    1
 Number of Electrons    NEL             ....   52
 Basis Dimension        Dim             ....  133

MULLIKEN ATOMIC CHARGES
-----------------------
   0 C :   -0.041459
   1 C :    0.021608
   2 C :   -0.126999
   3 C :   -0.078645
   4 C :    0.026521
   5 N :   -0.058544
   6 O :   -0.181612
   7 H :    0.030181
   8 H :    0.039493
   9 H :    0.035646
  10 H :    0.050053
  11 H :    0.049317
  12 H :    0.114337
  13 H :    0.120102
Sum of atomic charges:   -0.0000000

LOEWDIN ATOMIC CHARGES
----------------------
   0 C :   -0.055508
   1 C :   -0.051564
   2 C :   -0.013638
   3 C :   -0.094259
   4 C :    0.010478
   5 N :    0.021833
   6 O :   -0.170296
   7 H :    0.030959
   8 H :    0.031665
   9 H :    0.031263
  10 H :    0.054727
  11 H :    0.054441
  12 H :    0.075298
  13 H :    0.074601

  Mayer bond orders larger than 0.1
B(  0-C ,  1-C ) :   1.1048 B(  0-C ,  7-H ) :   0.9589 B(  0-C ,  8-H ) :   0.9705
B(  0-C ,  9-H ) :   0.9695 B(  1-C ,  2-C ) :   1.0836 B(  1-C , 10-H ) :   0.8997
B(  1-C , 11-H ) :   0.8986 B(  2-C ,  3-C ) :   2.6516 B(  3-C ,  4-C ) :   0.8329
B(  4-C ,  5-N ) :   1.2642 B(  4-C ,  6-O ) :   2.1228 B(  5-N ,  6-O ) :   0.1014
B(  5-N , 12-H ) :   0.9406 B(  5-N , 13-H ) :   0.9369

FINAL SINGLE POINT ENERGY      -324.039461280859

DIPOLE MOMENT
-------------
                                X             Y             Z
Electronic contribution:      6.98220       2.78129      -6.20860
Nuclear contribution   :     -8.50213      -2.46086       6.63894
                        -----------------------------------------
Total Dipole Moment    :     -1.51994       0.32043       0.43034
                        -----------------------------------------
Magnitude (a.u.)       :      1.61185
Magnitude (Debye)      :      4.09700

                             ****ORCA TERMINATED NORMALLY****
TOTAL RUN TIME: 0 days 0 hours 0 minutes 6 seconds 66 msec
