                         Program Version 3.0.3 - RELEASE   -
|  1> ! RI PBE def2-SVP def2-SVP/J NBO PAL2
|  2> % maxcore 2000
|  3> % output
|  4>     # printlevel mini
|  5>     print[ P_Basis ] 0
|  6>     print[ P_SCFInfo ] 1
|  7>     print[ P_SCFIterInfo ] 1
|  8>     print[ P_OrbEn ] 0
|  9>     print[ P_Cartesian ] 0
| 10> end
| 11> *xyz 0 1
| 12>  C        0.9172700000    -0.0815390000    -0.1416410000
| 13>  C        2.4347510000    -0.1267730000    -0.1913220000
| 14>  C        3.0620300000     1.2583970000    -0.0477770000
| 15>  C        4.5550260000     1.2430340000    -0.1381790000
| 16>  C        5.2258610000     0.8788720000    -1.4233100000
| 17>  N        5.1897780000     1.5435140000     0.9231100000
| 18>  O        6.5674690000     1.4800980000     0.7385220000
| 19>  H        0.4853450000    -1.0801730000    -0.2373640000
| 20>  H        0.5135870000     0.5345080000    -0.9501530000
| 21>  H        0.5664760000     0.3435590000     0.8026880000
| 22>  H        2.7576170000    -0.5841160000    -1.1328080000
| 23>  H        2.8157880000    -0.7697760000     0.6086610000
| 24>  H        2.7786340000     1.6975190000     0.9119060000
| 25>  H        2.6675550000     1.9122890000    -0.8365920000
| 26>  H        4.5011130000     0.7671660000    -2.2295800000
| 27>  H        5.7819740000    -0.0564750000    -1.3170140000
| 28>  H        5.9562480000     1.6434250000    -1.6973280000
| 29>  H        6.9046870000     1.7447720000     1.5980910000
| 30> *
| 31>
| 32>                          ****END OF INPUT****
 Total Charge           Charge          ....    0
 Multiplicity           Mult            ....    1
 Number of Electrons    NEL             ....   56
 Basis Dimension        Dim             ....  153

MULLIKEN ATOMIC CHARGES
-----------------------
   0 C :    0.004417
   1 C :   -0.073905
   2 C :    0.091479
   3 C :   -0.250942
   4 C :    0.083513
   5 N :   -0.034763
   6 O :   -0.190278
   7 H :    0.019169
   8 H :    0.015387
   9 H :    0.017432
  10 H :    0.011450
  11 H :    0.022325
  12 H :    0.003240
  13 H :    0.011165
  14 H :    0.015251
  15 H :    0.043492
  16 H :    0.042121
  17 H :    0.169447
Sum of atomic charges:   -0.0000000

LOEWDIN ATOMIC CHARGES
----------------------
   0 C :   -0.063910
   1 C :   -0.043893
   2 C :   -0.038858
   3 C :   -0.055733
   4 C :   -0.076442
   5 N :   -0.034031
   6 O :   -0.062300
   7 H :    0.026843
   8 H :    0.024264
   9 H :    0.025393
  10 H :    0.021181
  11 H :    0.027003
  12 H :    0.029904
  13 H :    0.029619
  14 H :    0.029455
  15 H :    0.046385
  16 H :    0.043941
  17 H :    0.071180

  Mayer bond orders larger than 0.1
B(  0-C ,  1-C ) :   1.1195 B(  0-C ,  7-H ) :   0.9624 B(  0-C ,  8-H ) :   0.9648
B(  0-C ,  9-H ) :   0.9653 B(  1-C ,  2-C ) :   1.0806 B(  1-C , 10-H ) :   0.9384
B(  1-C , 11-H ) :   0.9372 B(  2-C ,  3-C ) :   1.0715 B(  2-C , 12-H ) :   0.9132
B(  2-C , 13-H ) :   0.9067 B(  3-C ,  4-C ) :   1.0655 B(  3-C ,  5-N ) :   1.9258
B(  4-C , 14-H ) :   0.9429 B(  4-C , 15-H ) :   0.9353 B(  4-C , 16-H ) :   0.9301
B(  5-N ,  6-O ) :   0.9955 B(  6-O , 17-H ) :   0.9767

FINAL SINGLE POINT ENERGY      -326.422940529721

DIPOLE MOMENT
-------------
                                X             Y             Z
Electronic contribution:      8.06404       3.26888       3.71857
Nuclear contribution   :     -8.09360      -3.35698      -3.86987
                        -----------------------------------------
Total Dipole Moment    :     -0.02956      -0.08810      -0.15130
                        -----------------------------------------
Magnitude (a.u.)       :      0.17756
Magnitude (Debye)      :      0.45132

                             ****ORCA TERMINATED NORMALLY****
TOTAL RUN TIME: 0 days 0 hours 0 minutes 8 seconds 201 msec
