                         Program Version 3.0.3 - RELEASE   -
|  1> ! RI PBE def2-SVP def2-SVP/J NBO PAL2
|  2> % maxcore 2000
|  3> % output
|  4>     # printlevel mini
|  5>     print[ P_Basis ] 0
|  6>     print[ P_SCFInfo ] 1
|  7>     print[ P_SCFIterInfo ] 1
|  8>     print[ P_OrbEn ] 0
|  9>     print[ P_Cartesian ] 0
| 10> end
| 11> *xyz 0 1
| 12>  C        1.1340540000     0.1078540000    -0.3273720000
| 13>  C        2.6441540000    -0.0154510000    -0.2188590000
| 14>  C        3.1308880000    -0.0969400000     1.2192320000
| 15>  C        4.6480510000    -0.2271210000     1.3253130000
| 16>  C        5.1261120000    -0.2449640000     2.7335830000
| 17>  N        5.7500930000    -1.2492030000     3.1845960000
| 18>  O        6.1041230000    -1.0820230000     4.5145400000
| 19>  H        0.8103730000     0.1629320000    -1.3691850000
| 20>  H        0.7736910000     1.0071160000     0.1801370000
| 21>  H        0.6343100000    -0.7503260000     0.1305740000
| 22>  H        3.1206170000     0.8397920000    -0.7121860000
| 23>  H        2.9815150000    -0.9047720000    -0.7634330000
| 24>  H        2.6618820000    -0.9521260000     1.7187700000
| 25>  H        2.7998090000     0.7946010000     1.7658670000
| 26>  H        5.1148500000     0.6194190000     0.8052280000
| 27>  H        4.9901460000    -1.1389270000     0.8289340000
| 28>  H        4.9236090000     0.6116570000     3.3820170000
| 29>  H        6.5631340000    -1.9009270000     4.7196640000
| 30> *
| 31>
| 32>                          ****END OF INPUT****
 Total Charge           Charge          ....    0
 Multiplicity           Mult            ....    1
 Number of Electrons    NEL             ....   56
 Basis Dimension        Dim             ....  153

MULLIKEN ATOMIC CHARGES
-----------------------
   0 C :    0.002384
   1 C :   -0.042297
   2 C :   -0.062195
   3 C :    0.084468
   4 C :   -0.047448
   5 N :   -0.048655
   6 O :   -0.182566
   7 H :    0.018421
   8 H :    0.015211
   9 H :    0.017724
  10 H :    0.008159
  11 H :    0.012924
  12 H :    0.016372
  13 H :    0.009542
  14 H :    0.017723
  15 H :    0.011806
  16 H :   -0.000935
  17 H :    0.169361
Sum of atomic charges:    0.0000000

LOEWDIN ATOMIC CHARGES
----------------------
   0 C :   -0.064653
   1 C :   -0.046949
   2 C :   -0.039395
   3 C :   -0.046681
   4 C :   -0.032604
   5 N :   -0.019150
   6 O :   -0.060405
   7 H :    0.026470
   8 H :    0.024142
   9 H :    0.025052
  10 H :    0.022463
  11 H :    0.023910
  12 H :    0.025090
  13 H :    0.021620
  14 H :    0.034265
  15 H :    0.031715
  16 H :    0.003099
  17 H :    0.072012

  Mayer bond orders larger than 0.1
B(  0-C ,  1-C ) :   1.1188 B(  0-C ,  7-H ) :   0.9616 B(  0-C ,  8-H ) :   0.9649
B(  0-C ,  9-H ) :   0.9648 B(  1-C ,  2-C ) :   1.0892 B(  1-C , 10-H ) :   0.9365
B(  1-C , 11-H ) :   0.9379 B(  2-C ,  3-C ) :   1.0732 B(  2-C , 12-H ) :   0.9364
B(  2-C , 13-H ) :   0.9391 B(  3-C ,  4-C ) :   1.0397 B(  3-C , 14-H ) :   0.9098
B(  3-C , 15-H ) :   0.9217 B(  4-C ,  5-N ) :   1.9125 B(  4-C ,  6-O ) :   0.1119
B(  4-C , 16-H ) :   0.9370 B(  5-N ,  6-O ) :   0.9866 B(  6-O , 17-H ) :   0.9766

FINAL SINGLE POINT ENERGY      -326.415425823927

DIPOLE MOMENT
-------------
                                X             Y             Z
Electronic contribution:      8.94081      -2.76065       8.61773
Nuclear contribution   :     -9.03800       2.77491      -8.74502
                        -----------------------------------------
Total Dipole Moment    :     -0.09719       0.01427      -0.12729
                        -----------------------------------------
Magnitude (a.u.)       :      0.16078
Magnitude (Debye)      :      0.40867

                             ****ORCA TERMINATED NORMALLY****
TOTAL RUN TIME: 0 days 0 hours 0 minutes 7 seconds 972 msec
