                         Program Version 3.0.3 - RELEASE   -
|  1> ! RI PBE def2-SVP def2-SVP/J NBO PAL2
|  2> % maxcore 2000
|  3> % output
|  4>     # printlevel mini
|  5>     print[ P_Basis ] 0
|  6>     print[ P_SCFInfo ] 1
|  7>     print[ P_SCFIterInfo ] 1
|  8>     print[ P_OrbEn ] 0
|  9>     print[ P_Cartesian ] 0
| 10> end
| 11> *xyz 0 1
| 12>  C        0.8429330000     0.2762310000     0.1380280000
| 13>  C        2.3618980000     0.2512380000     0.1211340000
| 14>  C        2.9290960000    -1.1530150000     0.2549220000
| 15>  C        4.4445340000    -1.1774730000     0.2380420000
| 16>  C        5.0229710000    -2.5733010000     0.3709510000
| 17>  N        6.3806320000    -2.6282110000     0.3581000000
| 18>  O        4.3413380000    -3.5698340000     0.4791550000
| 19>  H        0.4562290000     1.2933080000     0.0408380000
| 20>  H        0.4534380000    -0.1407830000     1.0708030000
| 21>  H        0.4310350000    -0.3168990000    -0.6830780000
| 22>  H        2.7480040000     0.8793930000     0.9330630000
| 23>  H        2.7257540000     0.7044410000    -0.8089740000
| 24>  H        2.5510440000    -1.7879410000    -0.5519570000
| 25>  H        2.5731750000    -1.6138800000     1.1812210000
| 26>  H        4.8467020000    -0.5598070000     1.0504930000
| 27>  H        4.8244750000    -0.7347050000    -0.6909070000
| 28>  H        6.9475670000    -1.8059870000     0.2680700000
| 29>  H        6.8253850000    -3.5253830000     0.4418970000
| 30> *
| 31>
| 32>                          ****END OF INPUT****
 Total Charge           Charge          ....    0
 Multiplicity           Mult            ....    1
 Number of Electrons    NEL             ....   56
 Basis Dimension        Dim             ....  153

MULLIKEN ATOMIC CHARGES
-----------------------
   0 C :    0.008151
   1 C :   -0.045974
   2 C :   -0.024597
   3 C :   -0.032477
   4 C :   -0.008232
   5 N :   -0.047480
   6 O :   -0.203540
   7 H :    0.013691
   8 H :    0.015391
   9 H :    0.017135
  10 H :    0.006082
  11 H :    0.002452
  12 H :    0.019762
  13 H :    0.016752
  14 H :    0.024542
  15 H :    0.021014
  16 H :    0.103968
  17 H :    0.113360
Sum of atomic charges:   -0.0000000

LOEWDIN ATOMIC CHARGES
----------------------
   0 C :   -0.064143
   1 C :   -0.047719
   2 C :   -0.036927
   3 C :   -0.075377
   4 C :    0.027821
   5 N :    0.005424
   6 O :   -0.188228
   7 H :    0.024645
   8 H :    0.024726
   9 H :    0.025082
  10 H :    0.020638
  11 H :    0.019780
  12 H :    0.028811
  13 H :    0.028121
  14 H :    0.033906
  15 H :    0.033194
  16 H :    0.068989
  17 H :    0.071254

  Mayer bond orders larger than 0.1
B(  0-C ,  1-C ) :   1.1225 B(  0-C ,  7-H ) :   0.9612 B(  0-C ,  8-H ) :   0.9644
B(  0-C ,  9-H ) :   0.9649 B(  1-C ,  2-C ) :   1.0851 B(  1-C , 10-H ) :   0.9352
B(  1-C , 11-H ) :   0.9354 B(  2-C ,  3-C ) :   1.1033 B(  2-C , 12-H ) :   0.9369
B(  2-C , 13-H ) :   0.9373 B(  3-C ,  4-C ) :   0.9272 B(  3-C , 14-H ) :   0.9157
B(  3-C , 15-H ) :   0.9163 B(  4-C ,  5-N ) :   1.2657 B(  4-C ,  6-O ) :   2.1141
B(  5-N , 16-H ) :   0.9432 B(  5-N , 17-H ) :   0.9362

FINAL SINGLE POINT ENERGY      -326.499717783926

DIPOLE MOMENT
-------------
                                X             Y             Z
Electronic contribution:      6.79444      -7.68677       0.68511
Nuclear contribution   :     -5.74462       8.55431      -0.78609
                        -----------------------------------------
Total Dipole Moment    :      1.04983       0.86755      -0.10098
                        -----------------------------------------
Magnitude (a.u.)       :      1.36564
Magnitude (Debye)      :      3.47118

                             ****ORCA TERMINATED NORMALLY****
TOTAL RUN TIME: 0 days 0 hours 0 minutes 8 seconds 118 msec
