                         Program Version 3.0.3 - RELEASE   -
|  1> ! RI PBE def2-SVP def2-SVP/J NBO PAL2
|  2> % maxcore 2000
|  3> % output
|  4>     # printlevel mini
|  5>     print[ P_Basis ] 0
|  6>     print[ P_SCFInfo ] 1
|  7>     print[ P_SCFIterInfo ] 1
|  8>     print[ P_OrbEn ] 0
|  9>     print[ P_Cartesian ] 0
| 10> end
| 11> *xyz 0 1
| 12>  C        1.0693370000    -0.0440460000     0.1269220000
| 13>  C        2.3960800000    -0.1053830000     0.1988360000
| 14>  C        3.3264960000     0.9040320000    -0.4210300000
| 15>  C        3.7314160000     1.9318770000     0.5287440000
| 16>  N        4.0319550000     2.7521950000     1.2752350000
| 17>  C        3.0181350000    -1.2414500000     0.9075360000
| 18>  O        4.2054190000    -1.4254000000     0.9633120000
| 19>  H        0.5497200000     0.7537520000    -0.3913870000
| 20>  H        0.4594200000    -0.8079310000     0.5985600000
| 21>  H        2.8519760000     1.3917610000    -1.2753630000
| 22>  H        4.2285860000     0.3941910000    -0.7713600000
| 23>  H        2.2993690000    -1.9390070000     1.3844930000
| 24> *
| 25>
| 26>                          ****END OF INPUT****
 Total Charge           Charge          ....    0
 Multiplicity           Mult            ....    1
 Number of Electrons    NEL             ....   50
 Basis Dimension        Dim             ....  123

MULLIKEN ATOMIC CHARGES
-----------------------
   0 C :    0.019063
   1 C :   -0.171885
   2 C :    0.159187
   3 C :   -0.265909
   4 N :    0.057606
   5 C :    0.149597
   6 O :   -0.145400
   7 H :    0.045413
   8 H :    0.043361
   9 H :    0.055964
  10 H :    0.063514
  11 H :   -0.010512
Sum of atomic charges:   -0.0000000

LOEWDIN ATOMIC CHARGES
----------------------
   0 C :    0.019113
   1 C :   -0.069042
   2 C :   -0.044409
   3 C :   -0.038061
   4 N :   -0.057553
   5 C :    0.085316
   6 O :   -0.095223
   7 H :    0.036139
   8 H :    0.035348
   9 H :    0.063732
  10 H :    0.067583
  11 H :   -0.002943

  Mayer bond orders larger than 0.1
B(  0-C ,  1-C ) :   1.8997 B(  0-C ,  7-H ) :   0.9362 B(  0-C ,  8-H ) :   0.9331
B(  1-C ,  2-C ) :   1.0381 B(  1-C ,  5-C ) :   0.9840 B(  2-C ,  3-C ) :   1.1094
B(  2-C ,  9-H ) :   0.8911 B(  2-C , 10-H ) :   0.8628 B(  3-C ,  4-N ) :   3.0600
B(  5-C ,  6-O ) :   2.1402 B(  5-C , 11-H ) :   0.9317

FINAL SINGLE POINT ENERGY      -322.834638440689

DIPOLE MOMENT
-------------
                                X             Y             Z
Electronic contribution:      3.47781       1.13968       1.78236
Nuclear contribution   :     -4.87571      -1.82979      -2.82921
                        -----------------------------------------
Total Dipole Moment    :     -1.39790      -0.69011      -1.04685
                        -----------------------------------------
Magnitude (a.u.)       :      1.87783
Magnitude (Debye)      :      4.77307

                             ****ORCA TERMINATED NORMALLY****
TOTAL RUN TIME: 0 days 0 hours 0 minutes 6 seconds 69 msec
