                         Program Version 3.0.3 - RELEASE   -
|  1> ! RI PBE def2-SVP def2-SVP/J NBO PAL2
|  2> % maxcore 2000
|  3> % output
|  4>     # printlevel mini
|  5>     print[ P_Basis ] 0
|  6>     print[ P_SCFInfo ] 1
|  7>     print[ P_SCFIterInfo ] 1
|  8>     print[ P_OrbEn ] 0
|  9>     print[ P_Cartesian ] 0
| 10> end
| 11> *xyz 0 1
| 12>  C        1.0538420000    -0.0470920000     0.3919900000
| 13>  C        2.3632120000    -0.0714710000     0.1380000000
| 14>  C        2.9463420000    -0.3563320000    -1.1497750000
| 15>  C        4.2678070000    -0.3704340000    -1.3612690000
| 16>  N        4.8744240000    -0.6364280000    -2.5707580000
| 17>  C        6.2219520000    -0.6490510000    -2.7785840000
| 18>  O        6.7405870000    -0.8822590000    -3.8402580000
| 19>  H        0.6748710000     0.1736870000     1.3816690000
| 20>  H        0.3223970000    -0.2476170000    -0.3841150000
| 21>  H        3.0608580000     0.1359070000     0.9473510000
| 22>  H        2.2680050000    -0.5666960000    -1.9739760000
| 23>  H        4.9632230000    -0.1634360000    -0.5533860000
| 24>  H        4.3027630000    -0.8401350000    -3.3786730000
| 25>  H        6.7921270000    -0.4188630000    -1.8597260000
| 26> *
| 27>
| 28>                          ****END OF INPUT****
 Total Charge           Charge          ....    0
 Multiplicity           Mult            ....    1
 Number of Electrons    NEL             ....   52
 Basis Dimension        Dim             ....  133

MULLIKEN ATOMIC CHARGES
-----------------------
   0 C :   -0.040763
   1 C :   -0.018028
   2 C :   -0.003932
   3 C :    0.042261
   4 N :   -0.039945
   5 C :    0.117898
   6 O :   -0.198414
   7 H :    0.023981
   8 H :    0.016862
   9 H :   -0.005376
  10 H :   -0.014904
  11 H :    0.010242
  12 H :    0.121951
  13 H :   -0.011833
Sum of atomic charges:   -0.0000000

LOEWDIN ATOMIC CHARGES
----------------------
   0 C :   -0.065631
   1 C :   -0.033459
   2 C :   -0.075702
   3 C :    0.012165
   4 N :    0.048891
   5 C :    0.058203
   6 O :   -0.157101
   7 H :    0.025488
   8 H :    0.022308
   9 H :    0.029616
  10 H :    0.028026
  11 H :    0.029730
  12 H :    0.088332
  13 H :   -0.010865

  Mayer bond orders larger than 0.1
B(  0-C ,  1-C ) :   1.8750 B(  0-C ,  3-C ) :   0.1209 B(  0-C ,  7-H ) :   0.9424
B(  0-C ,  8-H ) :   0.9478 B(  1-C ,  2-C ) :   1.1619 B(  1-C ,  9-H ) :   0.9617
B(  2-C ,  3-C ) :   1.6727 B(  2-C , 10-H ) :   0.9605 B(  3-C ,  4-N ) :   1.1345
B(  3-C , 11-H ) :   0.9507 B(  4-N ,  5-C ) :   1.1421 B(  4-N , 12-H ) :   0.9165
B(  5-C ,  6-O ) :   2.0825 B(  5-C , 13-H ) :   0.9207

FINAL SINGLE POINT ENERGY      -324.062289512882

DIPOLE MOMENT
-------------
                                X             Y             Z
Electronic contribution:      5.47835      -0.96670      -4.77899
Nuclear contribution   :     -6.08042       1.08683       5.35385
                        -----------------------------------------
Total Dipole Moment    :     -0.60207       0.12012       0.57486
                        -----------------------------------------
Magnitude (a.u.)       :      0.84106
Magnitude (Debye)      :      2.13780

                             ****ORCA TERMINATED NORMALLY****
TOTAL RUN TIME: 0 days 0 hours 0 minutes 6 seconds 138 msec
