                         Program Version 3.0.3 - RELEASE   -
|  1> ! RI PBE def2-SVP def2-SVP/J NBO PAL2
|  2> % maxcore 2000
|  3> % output
|  4>     # printlevel mini
|  5>     print[ P_Basis ] 0
|  6>     print[ P_SCFInfo ] 1
|  7>     print[ P_SCFIterInfo ] 1
|  8>     print[ P_OrbEn ] 0
|  9>     print[ P_Cartesian ] 0
| 10> end
| 11> *xyz 0 1
| 12>  C        1.3394550000    -0.3384900000     0.4098290000
| 13>  C        2.4769710000    -0.0144800000    -0.1947620000
| 14>  C        3.0986840000     1.3142660000    -0.1314240000
| 15>  C        2.3994020000     2.4524440000    -0.1776590000
| 16>  N        4.4969320000     1.2896920000    -0.0525860000
| 17>  C        5.3480630000     2.2088760000    -0.5909180000
| 18>  O        6.5454040000     2.1780980000    -0.4549950000
| 19>  H        0.9128700000    -1.3290290000     0.3091210000
| 20>  H        0.8062460000     0.3758040000     1.0275580000
| 21>  H        3.0178710000    -0.7659230000    -0.7665170000
| 22>  H        1.3364590000     2.4224710000    -0.3713710000
| 23>  H        2.8636800000     3.4205640000    -0.0438780000
| 24>  H        4.9402790000     0.5104900000     0.4118980000
| 25>  H        4.8214840000     2.9751970000    -1.1850150000
| 26> *
| 27>
| 28>                          ****END OF INPUT****
 Total Charge           Charge          ....    0
 Multiplicity           Mult            ....    1
 Number of Electrons    NEL             ....   52
 Basis Dimension        Dim             ....  133

MULLIKEN ATOMIC CHARGES
-----------------------
   0 C :   -0.021855
   1 C :   -0.040787
   2 C :    0.025605
   3 C :   -0.059977
   4 N :   -0.070131
   5 C :    0.118815
   6 O :   -0.206649
   7 H :    0.036823
   8 H :    0.036669
   9 H :    0.014233
  10 H :    0.025245
  11 H :    0.029200
  12 H :    0.118646
  13 H :   -0.005838
Sum of atomic charges:   -0.0000000

LOEWDIN ATOMIC CHARGES
----------------------
   0 C :   -0.026496
   1 C :   -0.042254
   2 C :   -0.000564
   3 C :   -0.084229
   4 N :    0.030353
   5 C :    0.061960
   6 O :   -0.161633
   7 H :    0.030510
   8 H :    0.029269
   9 H :    0.031872
  10 H :    0.031153
  11 H :    0.026191
  12 H :    0.081844
  13 H :   -0.007976

  Mayer bond orders larger than 0.1
B(  0-C ,  1-C ) :   1.9492 B(  0-C ,  7-H ) :   0.9425 B(  0-C ,  8-H ) :   0.9509
B(  1-C ,  2-C ) :   1.0408 B(  1-C ,  9-H ) :   0.9466 B(  2-C ,  3-C ) :   1.8739
B(  2-C ,  4-N ) :   1.0547 B(  3-C , 10-H ) :   0.9293 B(  3-C , 11-H ) :   0.9325
B(  4-N ,  5-C ) :   1.1520 B(  4-N , 12-H ) :   0.9147 B(  5-C ,  6-O ) :   2.0760
B(  5-C , 13-H ) :   0.9212

FINAL SINGLE POINT ENERGY      -324.050030100725

DIPOLE MOMENT
-------------
                                X             Y             Z
Electronic contribution:      5.80657       0.98241      -0.41985
Nuclear contribution   :     -6.93574      -1.51177       0.55703
                        -----------------------------------------
Total Dipole Moment    :     -1.12917      -0.52936       0.13718
                        -----------------------------------------
Magnitude (a.u.)       :      1.25461
Magnitude (Debye)      :      3.18898

                             ****ORCA TERMINATED NORMALLY****
TOTAL RUN TIME: 0 days 0 hours 0 minutes 6 seconds 512 msec
