                         Program Version 3.0.3 - RELEASE   -
|  1> ! RI PBE def2-SVP def2-SVP/J NBO PAL2
|  2> % maxcore 2000
|  3> % output
|  4>     # printlevel mini
|  5>     print[ P_Basis ] 0
|  6>     print[ P_SCFInfo ] 1
|  7>     print[ P_SCFIterInfo ] 1
|  8>     print[ P_OrbEn ] 0
|  9>     print[ P_Cartesian ] 0
| 10> end
| 11> *xyz 0 1
| 12>  C        2.1790440000    -0.1345850000    -2.0867680000
| 13>  C        2.4765030000    -0.2878420000    -0.8028020000
| 14>  C        3.0286240000     0.7793370000     0.0835080000
| 15>  C        4.4507890000     0.4695830000     0.5448900000
| 16>  N        5.3631530000     0.3916350000    -0.5690410000
| 17>  C        6.5640930000     1.0070150000    -0.5893540000
| 18>  O        7.0328740000     1.6628590000     0.3131320000
| 19>  H        1.7917930000    -0.9533030000    -2.6823390000
| 20>  H        2.2964640000     0.8239850000    -2.5835300000
| 21>  H        2.3381920000    -1.2661230000    -0.3433130000
| 22>  H        2.4010320000     0.8776450000     0.9762500000
| 23>  H        3.0165690000     1.7426230000    -0.4342580000
| 24>  H        4.4611610000    -0.4688980000     1.1129610000
| 25>  H        4.8239030000     1.2529060000     1.2053610000
| 26>  H        5.0703830000    -0.1156190000    -1.3886710000
| 27>  H        7.0957240000     0.8478030000    -1.5467170000
| 28> *
| 29>
| 30>                          ****END OF INPUT****
 Total Charge           Charge          ....    0
 Multiplicity           Mult            ....    1
 Number of Electrons    NEL             ....   54
 Basis Dimension        Dim             ....  143

MULLIKEN ATOMIC CHARGES
-----------------------
   0 C :   -0.037638
   1 C :   -0.115152
   2 C :    0.045825
   3 C :    0.093002
   4 N :   -0.147044
   5 C :    0.123890
   6 O :   -0.240396
   7 H :    0.033373
   8 H :    0.027668
   9 H :    0.007898
  10 H :    0.032546
  11 H :    0.017137
  12 H :    0.027942
  13 H :    0.040924
  14 H :    0.113336
  15 H :   -0.023311
Sum of atomic charges:    0.0000000

LOEWDIN ATOMIC CHARGES
----------------------
   0 C :   -0.065694
   1 C :   -0.036157
   2 C :   -0.046305
   3 C :    0.029987
   4 N :   -0.000240
   5 C :    0.044536
   6 O :   -0.190183
   7 H :    0.027620
   8 H :    0.024375
   9 H :    0.026776
  10 H :    0.042364
  11 H :    0.032360
  12 H :    0.022393
  13 H :    0.034573
  14 H :    0.069924
  15 H :   -0.016330

  Mayer bond orders larger than 0.1
B(  0-C ,  1-C ) :   1.9915 B(  0-C ,  7-H ) :   0.9444 B(  0-C ,  8-H ) :   0.9496
B(  1-C ,  2-C ) :   1.0647 B(  1-C ,  9-H ) :   0.9542 B(  2-C ,  3-C ) :   1.0786
B(  2-C , 10-H ) :   0.9102 B(  2-C , 11-H ) :   0.9303 B(  3-C ,  4-N ) :   0.9861
B(  3-C , 12-H ) :   0.9401 B(  3-C , 13-H ) :   0.9212 B(  4-N ,  5-C ) :   1.2305
B(  4-N ,  6-O ) :   0.1062 B(  4-N , 14-H ) :   0.9207 B(  5-C ,  6-O ) :   2.0127
B(  5-C , 15-H ) :   0.9235

FINAL SINGLE POINT ENERGY      -325.265244886141

DIPOLE MOMENT
-------------
                                X             Y             Z
Electronic contribution:      5.62423       1.50391       1.09197
Nuclear contribution   :     -6.69136      -2.25762      -1.66617
                        -----------------------------------------
Total Dipole Moment    :     -1.06713      -0.75371      -0.57420
                        -----------------------------------------
Magnitude (a.u.)       :      1.42708
Magnitude (Debye)      :      3.62734

                             ****ORCA TERMINATED NORMALLY****
TOTAL RUN TIME: 0 days 0 hours 0 minutes 6 seconds 757 msec
