                         Program Version 3.0.3 - RELEASE   -
|  1> ! RI PBE def2-SVP def2-SVP/J NBO PAL2
|  2> % maxcore 2000
|  3> % output
|  4>     # printlevel mini
|  5>     print[ P_Basis ] 0
|  6>     print[ P_SCFInfo ] 1
|  7>     print[ P_SCFIterInfo ] 1
|  8>     print[ P_OrbEn ] 0
|  9>     print[ P_Cartesian ] 0
| 10> end
| 11> *xyz 0 1
| 12>  C        0.7176780000     0.2267750000    -0.0330300000
| 13>  C        2.1391710000     0.0057740000     0.3508030000
| 14>  C        2.6851200000    -1.0887580000     0.8918950000
| 15>  C        1.9495830000    -2.3433630000     1.2270850000
| 16>  N        4.0570300000    -1.0855700000     1.1778220000
| 17>  C        4.8171110000    -2.0705200000     1.7209100000
| 18>  O        6.0039520000    -1.9593010000     1.9279340000
| 19>  H        0.6326190000     0.4571720000    -1.1001270000
| 20>  H        0.2965470000     1.0826690000     0.5046590000
| 21>  H        0.0793330000    -0.6329110000     0.1683650000
| 22>  H        2.8062690000     0.8457520000     0.1629630000
| 23>  H        0.8973190000    -2.2532340000     0.9717770000
| 24>  H        2.0186760000    -2.5713290000     2.2947110000
| 25>  H        2.3561390000    -3.2000930000     0.6818370000
| 26>  H        4.5709780000    -0.2437940000     0.9572900000
| 27>  H        4.2565640000    -2.9867590000     1.9623980000
| 28> *
| 29>
| 30>                          ****END OF INPUT****
 Total Charge           Charge          ....    0
 Multiplicity           Mult            ....    1
 Number of Electrons    NEL             ....   54
 Basis Dimension        Dim             ....  143

MULLIKEN ATOMIC CHARGES
-----------------------
   0 C :    0.040363
   1 C :   -0.153889
   2 C :   -0.053322
   3 C :    0.064541
   4 N :   -0.040324
   5 C :    0.102871
   6 O :   -0.224398
   7 H :    0.034787
   8 H :    0.033388
   9 H :    0.018512
  10 H :   -0.016944
  11 H :    0.013987
  12 H :    0.045207
  13 H :    0.045021
  14 H :    0.108348
  15 H :   -0.018150
Sum of atomic charges:   -0.0000000

LOEWDIN ATOMIC CHARGES
----------------------
   0 C :   -0.063309
   1 C :   -0.091724
   2 C :   -0.004315
   3 C :   -0.061310
   4 N :    0.039692
   5 C :    0.046532
   6 O :   -0.179473
   7 H :    0.037767
   8 H :    0.037449
   9 H :    0.028439
  10 H :    0.022420
  11 H :    0.036452
  12 H :    0.039955
  13 H :    0.040444
  14 H :    0.082059
  15 H :   -0.011079

  Mayer bond orders larger than 0.1
B(  0-C ,  1-C ) :   1.1130 B(  0-C ,  7-H ) :   0.9417 B(  0-C ,  8-H ) :   0.9419
B(  0-C ,  9-H ) :   0.9552 B(  1-C ,  2-C ) :   1.7905 B(  1-C , 10-H ) :   0.9364
B(  2-C ,  3-C ) :   1.1157 B(  2-C ,  4-N ) :   1.1097 B(  3-C , 11-H ) :   0.9302
B(  3-C , 12-H ) :   0.9311 B(  3-C , 13-H ) :   0.9290 B(  4-N ,  5-C ) :   1.1705
B(  4-N , 14-H ) :   0.9064 B(  5-C ,  6-O ) :   2.0500 B(  5-C , 15-H ) :   0.9204

FINAL SINGLE POINT ENERGY      -325.277886737057

DIPOLE MOMENT
-------------
                                X             Y             Z
Electronic contribution:      8.96040      -0.98777       2.25574
Nuclear contribution   :    -10.29920       1.24683      -2.64346
                        -----------------------------------------
Total Dipole Moment    :     -1.33879       0.25905      -0.38772
                        -----------------------------------------
Magnitude (a.u.)       :      1.41767
Magnitude (Debye)      :      3.60344

                             ****ORCA TERMINATED NORMALLY****
TOTAL RUN TIME: 0 days 0 hours 0 minutes 7 seconds 475 msec
