                         Program Version 3.0.3 - RELEASE   -
|  1> ! RI PBE def2-SVP def2-SVP/J NBO PAL2
|  2> % maxcore 2000
|  3> % output
|  4>     # printlevel mini
|  5>     print[ P_Basis ] 0
|  6>     print[ P_SCFInfo ] 1
|  7>     print[ P_SCFIterInfo ] 1
|  8>     print[ P_OrbEn ] 0
|  9>     print[ P_Cartesian ] 0
| 10> end
| 11> *xyz 0 1
| 12>  C        0.9969850000    -0.0982910000    -0.4335750000
| 13>  C        2.4581600000     0.0447520000    -0.1738630000
| 14>  C        3.0735520000     0.4644340000     0.9320920000
| 15>  C        2.3657310000     0.8969240000     2.1848250000
| 16>  N        2.7332970000     0.0276080000     3.3094670000
| 17>  C        4.5757570000     0.5491580000     0.9880960000
| 18>  O        5.1541050000    -0.3270730000     1.9303860000
| 19>  H        0.7665870000    -1.1173010000    -0.7599660000
| 20>  H        0.6817010000     0.5646910000    -1.2460280000
| 21>  H        0.3784380000     0.1233460000     0.4360600000
| 22>  H        3.0976000000    -0.2301010000    -1.0116590000
| 23>  H        1.2834380000     0.9602140000     2.0277790000
| 24>  H        2.7073320000     1.9071780000     2.4392940000
| 25>  H        2.3262940000    -0.8922160000     3.1870210000
| 26>  H        2.3866990000     0.4014280000     4.1839160000
| 27>  H        4.8619500000     1.5918950000     1.2102360000
| 28>  H        4.9966720000     0.2996760000     0.0106210000
| 29>  H        4.5806840000    -0.2876320000     2.7149980000
| 30> *
| 31>
| 32>                          ****END OF INPUT****
 Total Charge           Charge          ....    0
 Multiplicity           Mult            ....    1
 Number of Electrons    NEL             ....   56
 Basis Dimension        Dim             ....  153

MULLIKEN ATOMIC CHARGES
-----------------------
   0 C :    0.046963
   1 C :   -0.116245
   2 C :   -0.224144
   3 C :    0.164296
   4 N :   -0.225386
   5 C :    0.288249
   6 O :   -0.305080
   7 H :    0.029306
   8 H :    0.035498
   9 H :    0.013731
  10 H :   -0.009265
  11 H :   -0.001065
  12 H :    0.004590
  13 H :    0.105304
  14 H :    0.100195
  15 H :   -0.021146
  16 H :   -0.015292
  17 H :    0.129491
Sum of atomic charges:    0.0000000

LOEWDIN ATOMIC CHARGES
----------------------
   0 C :   -0.069800
   1 C :   -0.039211
   2 C :   -0.076910
   3 C :    0.013933
   4 N :   -0.072115
   5 C :    0.065715
   6 O :   -0.140594
   7 H :    0.038092
   8 H :    0.039513
   9 H :    0.025176
  10 H :    0.024877
  11 H :    0.006347
  12 H :    0.029166
  13 H :    0.059088
  14 H :    0.057305
  15 H :    0.001115
  16 H :    0.014946
  17 H :    0.023358

  Mayer bond orders larger than 0.1
B(  0-C ,  1-C ) :   1.0978 B(  0-C ,  7-H ) :   0.9398 B(  0-C ,  8-H ) :   0.9428
B(  0-C ,  9-H ) :   0.9520 B(  1-C ,  2-C ) :   1.9085 B(  1-C , 10-H ) :   0.9293
B(  2-C ,  3-C ) :   1.0631 B(  2-C ,  5-C ) :   1.0302 B(  3-C ,  4-N ) :   1.0561
B(  3-C , 11-H ) :   0.9223 B(  3-C , 12-H ) :   0.9024 B(  4-N , 13-H ) :   0.9603
B(  4-N , 14-H ) :   0.9610 B(  4-N , 17-H ) :   0.1553 B(  5-C ,  6-O ) :   1.0829
B(  5-C , 15-H ) :   0.9042 B(  5-C , 16-H ) :   0.9263 B(  6-O , 17-H ) :   0.9355

FINAL SINGLE POINT ENERGY      -326.439338957776

DIPOLE MOMENT
-------------
                                X             Y             Z
Electronic contribution:      3.99636      -0.72510       1.41410
Nuclear contribution   :     -5.35182       0.98424      -1.12655
                        -----------------------------------------
Total Dipole Moment    :     -1.35546       0.25913       0.28756
                        -----------------------------------------
Magnitude (a.u.)       :      1.40965
Magnitude (Debye)      :      3.58305

                             ****ORCA TERMINATED NORMALLY****
TOTAL RUN TIME: 0 days 0 hours 0 minutes 7 seconds 892 msec
