                         Program Version 3.0.3 - RELEASE   -
|  1> ! RI PBE def2-SVP def2-SVP/J NBO PAL2
|  2> % maxcore 2000
|  3> % output
|  4>     # printlevel mini
|  5>     print[ P_Basis ] 0
|  6>     print[ P_SCFInfo ] 1
|  7>     print[ P_SCFIterInfo ] 1
|  8>     print[ P_OrbEn ] 0
|  9>     print[ P_Cartesian ] 0
| 10> end
| 11> *xyz 0 1
| 12>  C        1.2492490000     0.7595690000     0.0660870000
| 13>  C        2.1405870000    -0.1047880000    -0.7632770000
| 14>  C        3.4223660000     0.0325440000    -1.0986040000
| 15>  C        4.4732880000     1.0785710000    -0.8163820000
| 16>  N        5.7050240000     0.5105470000    -0.2708370000
| 17>  C        4.0947590000     2.2646370000     0.0464980000
| 18>  O        3.8995220000     1.8423660000     1.3859770000
| 19>  H        0.6018350000     0.1340790000     0.6869620000
| 20>  H        0.5840410000     1.3524370000    -0.5722410000
| 21>  H        1.7953450000     1.4280530000     0.7274070000
| 22>  H        1.6506720000    -0.9898540000    -1.1662470000
| 23>  H        3.8251320000    -0.7605270000    -1.7297240000
| 24>  H        4.7332850000     1.5137800000    -1.7924470000
| 25>  H        5.9988990000    -0.2857850000    -0.8236170000
| 26>  H        5.5083540000     0.1661770000     0.6625760000
| 27>  H        3.1918960000     2.7466840000    -0.3487240000
| 28>  H        4.9228070000     2.9789690000    -0.0082520000
| 29>  H        4.0839290000     2.5796230000     1.9701340000
| 30> *
| 31>
| 32>                          ****END OF INPUT****
 Total Charge           Charge          ....    0
 Multiplicity           Mult            ....    1
 Number of Electrons    NEL             ....   56
 Basis Dimension        Dim             ....  153

MULLIKEN ATOMIC CHARGES
-----------------------
   0 C :    0.047696
   1 C :   -0.130916
   2 C :   -0.060374
   3 C :    0.063750
   4 N :   -0.204538
   5 C :    0.157332
   6 O :   -0.270264
   7 H :    0.015640
   8 H :    0.028087
   9 H :    0.023462
  10 H :   -0.008200
  11 H :   -0.016583
  12 H :    0.005651
  13 H :    0.083769
  14 H :    0.089971
  15 H :    0.001633
  16 H :    0.010792
  17 H :    0.163093
Sum of atomic charges:   -0.0000000

LOEWDIN ATOMIC CHARGES
----------------------
   0 C :   -0.076453
   1 C :   -0.048229
   2 C :   -0.071390
   3 C :   -0.014515
   4 N :   -0.093122
   5 C :    0.054769
   6 O :   -0.114504
   7 H :    0.034183
   8 H :    0.035924
   9 H :    0.025343
  10 H :    0.023936
  11 H :    0.020644
  12 H :    0.034279
  13 H :    0.047932
  14 H :    0.047425
  15 H :    0.004402
  16 H :    0.014627
  17 H :    0.074749

  Mayer bond orders larger than 0.1
B(  0-C ,  1-C ) :   1.0840 B(  0-C ,  7-H ) :   0.9393 B(  0-C ,  8-H ) :   0.9403
B(  0-C ,  9-H ) :   0.9342 B(  1-C ,  2-C ) :   1.9728 B(  1-C , 10-H ) :   0.9283
B(  2-C ,  3-C ) :   0.9978 B(  2-C , 11-H ) :   0.9298 B(  3-C ,  4-N ) :   1.0578
B(  3-C ,  5-C ) :   1.0610 B(  3-C , 12-H ) :   0.8827 B(  4-N , 13-H ) :   0.9693
B(  4-N , 14-H ) :   0.9622 B(  5-C ,  6-O ) :   1.0535 B(  5-C , 15-H ) :   0.9296
B(  5-C , 16-H ) :   0.9262 B(  6-O , 17-H ) :   0.9778

FINAL SINGLE POINT ENERGY      -326.427513262058

DIPOLE MOMENT
-------------
                                X             Y             Z
Electronic contribution:      2.46871      -0.10231       0.79906
Nuclear contribution   :     -2.52940       0.40937      -0.70916
                        -----------------------------------------
Total Dipole Moment    :     -0.06069       0.30706       0.08990
                        -----------------------------------------
Magnitude (a.u.)       :      0.32566
Magnitude (Debye)      :      0.82775

                             ****ORCA TERMINATED NORMALLY****
TOTAL RUN TIME: 0 days 0 hours 0 minutes 7 seconds 606 msec
