                         Program Version 3.0.3 - RELEASE   -
|  1> ! RI PBE def2-SVP def2-SVP/J NBO PAL2
|  2> % maxcore 2000
|  3> % output
|  4>     # printlevel mini
|  5>     print[ P_Basis ] 0
|  6>     print[ P_SCFInfo ] 1
|  7>     print[ P_SCFIterInfo ] 1
|  8>     print[ P_OrbEn ] 0
|  9>     print[ P_Cartesian ] 0
| 10> end
| 11> *xyz 0 1
| 12>  C        0.4133720000     0.0983560000    -0.1407970000
| 13>  C        1.8790700000     0.0718400000     0.1211420000
| 14>  C        2.8222400000     0.3720940000    -0.7638710000
| 15>  C        4.2852370000     0.3599420000    -0.4668990000
| 16>  N        5.0020030000    -0.5642280000    -1.3214740000
| 17>  C        6.0731640000    -0.2115690000    -2.0649580000
| 18>  O        6.5760280000     0.8880210000    -2.0952430000
| 19>  H       -0.0390160000    -0.8796730000     0.0511960000
| 20>  H        0.1955380000     0.3806620000    -1.1723610000
| 21>  H       -0.0900270000     0.8098480000     0.5213980000
| 22>  H        2.1863840000    -0.2071980000     1.1289670000
| 23>  H        2.5425430000     0.6512660000    -1.7786220000
| 24>  H        4.4531630000     0.1144560000     0.5875390000
| 25>  H        4.7338280000     1.3394650000    -0.6515390000
| 26>  H        4.6647040000    -1.5093250000    -1.3950690000
| 27>  H        6.4586570000    -1.0582390000    -2.6643090000
| 28> *
| 29>
| 30>                          ****END OF INPUT****
 Total Charge           Charge          ....    0
 Multiplicity           Mult            ....    1
 Number of Electrons    NEL             ....   54
 Basis Dimension        Dim             ....  143

MULLIKEN ATOMIC CHARGES
-----------------------
   0 C :    0.038379
   1 C :   -0.103513
   2 C :   -0.095201
   3 C :    0.190439
   4 N :   -0.154587
   5 C :    0.125497
   6 O :   -0.235349
   7 H :    0.033502
   8 H :    0.021789
   9 H :    0.039964
  10 H :   -0.003417
  11 H :   -0.002936
  12 H :    0.017069
  13 H :    0.039675
  14 H :    0.112007
  15 H :   -0.023319
Sum of atomic charges:   -0.0000000

LOEWDIN ATOMIC CHARGES
----------------------
   0 C :   -0.064106
   1 C :   -0.039685
   2 C :   -0.061510
   3 C :    0.026983
   4 N :    0.000511
   5 C :    0.044884
   6 O :   -0.186442
   7 H :    0.037420
   8 H :    0.032304
   9 H :    0.040213
  10 H :    0.022247
  11 H :    0.024326
  12 H :    0.025951
  13 H :    0.040013
  14 H :    0.072341
  15 H :   -0.015449

  Mayer bond orders larger than 0.1
B(  0-C ,  1-C ) :   1.0853 B(  0-C ,  7-H ) :   0.9483 B(  0-C ,  8-H ) :   0.9613
B(  0-C ,  9-H ) :   0.9459 B(  1-C ,  2-C ) :   1.9026 B(  1-C , 10-H ) :   0.9528
B(  2-C ,  3-C ) :   1.0713 B(  2-C , 11-H ) :   0.9559 B(  3-C ,  4-N ) :   0.9484
B(  3-C , 12-H ) :   0.9325 B(  3-C , 13-H ) :   0.9038 B(  4-N ,  5-C ) :   1.2241
B(  4-N ,  6-O ) :   0.1059 B(  4-N , 14-H ) :   0.9307 B(  5-C ,  6-O ) :   2.0138
B(  5-C , 15-H ) :   0.9228

FINAL SINGLE POINT ENERGY      -325.270113123531

DIPOLE MOMENT
-------------
                                X             Y             Z
Electronic contribution:      8.20628       0.54994      -2.79621
Nuclear contribution   :     -9.31431      -1.54218       3.22580
                        -----------------------------------------
Total Dipole Moment    :     -1.10803      -0.99224       0.42959
                        -----------------------------------------
Magnitude (a.u.)       :      1.54817
Magnitude (Debye)      :      3.93513

                             ****ORCA TERMINATED NORMALLY****
TOTAL RUN TIME: 0 days 0 hours 0 minutes 7 seconds 90 msec
