                         Program Version 3.0.3 - RELEASE   -
|  1> ! RI PBE def2-SVP def2-SVP/J NBO PAL2
|  2> % maxcore 2000
|  3> % output
|  4>     # printlevel mini
|  5>     print[ P_Basis ] 0
|  6>     print[ P_SCFInfo ] 1
|  7>     print[ P_SCFIterInfo ] 1
|  8>     print[ P_OrbEn ] 0
|  9>     print[ P_Cartesian ] 0
| 10> end
| 11> *xyz 0 1
| 12>  C        2.8724270000    -0.7545560000    -1.3384440000
| 13>  C        2.6771960000    -0.6781570000     0.1456660000
| 14>  C        2.0611930000    -1.6473450000     0.8148430000
| 15>  C        3.2059960000     0.5699320000     0.8150340000
| 16>  N        2.9768130000     0.7047360000     2.2437600000
| 17>  C        4.7115470000     0.7531100000     0.5980960000
| 18>  O        5.1533640000     1.9433740000     1.1889420000
| 19>  H        2.3143270000    -1.5873460000    -1.7673730000
| 20>  H        3.9267380000    -0.8884830000    -1.5979090000
| 21>  H        2.5432690000     0.1688490000    -1.8259270000
| 22>  H        1.6842260000    -2.5269500000     0.3052610000
| 23>  H        1.9022380000    -1.6015390000     1.8857600000
| 24>  H        2.7217140000     1.4320940000     0.3363340000
| 25>  H        3.2820430000    -0.1282310000     2.7348350000
| 26>  H        1.9969360000     0.8412690000     2.4531250000
| 27>  H        4.9477520000     0.8029250000    -0.4663160000
| 28>  H        5.2348880000    -0.1234020000     1.0163740000
| 29>  H        4.6406430000     2.0135000000     2.0081180000
| 30> *
| 31>
| 32>                          ****END OF INPUT****
 Total Charge           Charge          ....    0
 Multiplicity           Mult            ....    1
 Number of Electrons    NEL             ....   56
 Basis Dimension        Dim             ....  153

MULLIKEN ATOMIC CHARGES
-----------------------
   0 C :    0.054893
   1 C :   -0.139593
   2 C :   -0.055865
   3 C :   -0.031722
   4 N :   -0.190441
   5 C :    0.208887
   6 O :   -0.278300
   7 H :    0.015122
   8 H :    0.042461
   9 H :    0.029779
  10 H :    0.009829
  11 H :   -0.017194
  12 H :    0.016037
  13 H :    0.102381
  14 H :    0.103675
  15 H :    0.007854
  16 H :   -0.018217
  17 H :    0.140412
Sum of atomic charges:    0.0000000

LOEWDIN ATOMIC CHARGES
----------------------
   0 C :   -0.055035
   1 C :   -0.041448
   2 C :   -0.087902
   3 C :   -0.018958
   4 N :   -0.067372
   5 C :    0.054560
   6 O :   -0.125212
   7 H :    0.032833
   8 H :    0.037853
   9 H :    0.035684
  10 H :    0.021972
  11 H :    0.007149
  12 H :    0.031135
  13 H :    0.053939
  14 H :    0.058320
  15 H :    0.016799
  16 H :    0.000317
  17 H :    0.045366

  Mayer bond orders larger than 0.1
B(  0-C ,  1-C ) :   1.0735 B(  0-C ,  7-H ) :   0.9438 B(  0-C ,  8-H ) :   0.9442
B(  0-C ,  9-H ) :   0.9468 B(  1-C ,  2-C ) :   1.9880 B(  1-C ,  3-C ) :   0.9632
B(  2-C , 10-H ) :   0.9277 B(  2-C , 11-H ) :   0.9230 B(  3-C ,  4-N ) :   1.0908
B(  3-C ,  5-C ) :   1.0292 B(  3-C , 12-H ) :   0.8828 B(  4-N , 13-H ) :   0.9638
B(  4-N , 14-H ) :   0.9650 B(  4-N , 17-H ) :   0.1061 B(  5-C ,  6-O ) :   1.1056
B(  5-C , 15-H ) :   0.9346 B(  5-C , 16-H ) :   0.9098 B(  6-O , 17-H ) :   0.9516

FINAL SINGLE POINT ENERGY      -326.439772989363

DIPOLE MOMENT
-------------
                                X             Y             Z
Electronic contribution:      1.52312       2.75134       2.21870
Nuclear contribution   :     -2.27282      -3.33156      -2.15418
                        -----------------------------------------
Total Dipole Moment    :     -0.74970      -0.58022       0.06452
                        -----------------------------------------
Magnitude (a.u.)       :      0.95020
Magnitude (Debye)      :      2.41521

                             ****ORCA TERMINATED NORMALLY****
TOTAL RUN TIME: 0 days 0 hours 0 minutes 7 seconds 953 msec
