                         Program Version 3.0.3 - RELEASE   -
|  1> ! RI PBE def2-SVP def2-SVP/J NBO PAL2
|  2> % maxcore 2000
|  3> % output
|  4>     # printlevel mini
|  5>     print[ P_Basis ] 0
|  6>     print[ P_SCFInfo ] 1
|  7>     print[ P_SCFIterInfo ] 1
|  8>     print[ P_OrbEn ] 0
|  9>     print[ P_Cartesian ] 0
| 10> end
| 11> *xyz 0 1
| 12>  C        0.8617730000    -0.3024020000     0.0010120000
| 13>  C        2.2514330000     0.2347780000     0.1188270000
| 14>  C        2.5255590000     1.4359640000     0.6174100000
| 15>  C        3.3560130000    -0.6554170000    -0.3817250000
| 16>  N        3.4430540000    -1.9030960000     0.3475420000
| 17>  C        3.2278990000    -3.1122830000    -0.2157480000
| 18>  O        2.9491890000    -3.3070000000    -1.3762800000
| 19>  H        0.1280000000     0.3957060000     0.4046930000
| 20>  H        0.7617090000    -1.2545320000     0.5299970000
| 21>  H        0.6145640000    -0.5040150000    -1.0460690000
| 22>  H        1.7408420000     2.0994340000     0.9639280000
| 23>  H        3.5450430000     1.8013180000     0.6836540000
| 24>  H        4.3129640000    -0.1283560000    -0.3314920000
| 25>  H        3.1787070000    -0.9342850000    -1.4240060000
| 26>  H        3.6477160000    -1.8710380000     1.3322580000
| 27>  H        3.3381340000    -3.9354760000     0.5154880000
| 28> *
| 29>
| 30>                          ****END OF INPUT****
 Total Charge           Charge          ....    0
 Multiplicity           Mult            ....    1
 Number of Electrons    NEL             ....   54
 Basis Dimension        Dim             ....  143

MULLIKEN ATOMIC CHARGES
-----------------------
   0 C :    0.084400
   1 C :   -0.234469
   2 C :   -0.029809
   3 C :    0.194639
   4 N :   -0.150479
   5 C :    0.126788
   6 O :   -0.235470
   7 H :    0.016421
   8 H :    0.025971
   9 H :    0.037255
  10 H :    0.013886
  11 H :    0.009168
  12 H :    0.011407
  13 H :    0.036383
  14 H :    0.113903
  15 H :   -0.019995
Sum of atomic charges:   -0.0000000

LOEWDIN ATOMIC CHARGES
----------------------
   0 C :   -0.055432
   1 C :   -0.044914
   2 C :   -0.071724
   3 C :    0.032991
   4 N :    0.003692
   5 C :    0.044263
   6 O :   -0.186109
   7 H :    0.031859
   8 H :    0.034872
   9 H :    0.043000
  10 H :    0.022391
  11 H :    0.019765
  12 H :    0.026554
  13 H :    0.039001
  14 H :    0.074087
  15 H :   -0.014297

  Mayer bond orders larger than 0.1
B(  0-C ,  1-C ) :   1.0888 B(  0-C ,  7-H ) :   0.9497 B(  0-C ,  8-H ) :   0.9375
B(  0-C ,  9-H ) :   0.9389 B(  1-C ,  2-C ) :   1.9748 B(  1-C ,  3-C ) :   1.0676
B(  2-C , 10-H ) :   0.9320 B(  2-C , 11-H ) :   0.9362 B(  3-C ,  4-N ) :   0.9669
B(  3-C , 12-H ) :   0.9231 B(  3-C , 13-H ) :   0.9009 B(  4-N ,  5-C ) :   1.2195
B(  4-N ,  6-O ) :   0.1064 B(  4-N , 14-H ) :   0.9289 B(  5-C ,  6-O ) :   2.0109
B(  5-C , 15-H ) :   0.9230

FINAL SINGLE POINT ENERGY      -325.269803042373

DIPOLE MOMENT
-------------
                                X             Y             Z
Electronic contribution:      2.67858      -4.90241      -1.60257
Nuclear contribution   :     -2.49524       5.50363       2.69019
                        -----------------------------------------
Total Dipole Moment    :      0.18334       0.60122       1.08762
                        -----------------------------------------
Magnitude (a.u.)       :      1.25619
Magnitude (Debye)      :      3.19298

                             ****ORCA TERMINATED NORMALLY****
TOTAL RUN TIME: 0 days 0 hours 0 minutes 6 seconds 822 msec
