                         Program Version 3.0.3 - RELEASE   -
|  1> ! RI PBE def2-SVP def2-SVP/J NBO PAL2
|  2> % maxcore 2000
|  3> % output
|  4>     # printlevel mini
|  5>     print[ P_Basis ] 0
|  6>     print[ P_SCFInfo ] 1
|  7>     print[ P_SCFIterInfo ] 1
|  8>     print[ P_OrbEn ] 0
|  9>     print[ P_Cartesian ] 0
| 10> end
| 11> *xyz 0 1
| 12>  C        0.9065140000    -0.2408790000     0.1657080000
| 13>  C        2.3424150000     0.1632400000     0.0617040000
| 14>  C        2.5953430000     1.6331800000    -0.0427910000
| 15>  C        3.3004550000    -0.7650530000     0.0660490000
| 16>  N        4.6691550000    -0.5443300000    -0.0231130000
| 17>  C        5.6093360000    -1.5247870000    -0.0144290000
| 18>  O        6.7979950000    -1.3307160000    -0.0905230000
| 19>  H        0.4336450000     0.2096990000     1.0454670000
| 20>  H        0.7921680000    -1.3236650000     0.2386880000
| 21>  H        0.3371560000     0.1018680000    -0.7054750000
| 22>  H        2.0914930000     2.0491160000    -0.9218510000
| 23>  H        3.6505770000     1.9001820000    -0.1169510000
| 24>  H        2.1872020000     2.1570240000     0.8281950000
| 25>  H        3.0405600000    -1.8155660000     0.1450950000
| 26>  H        5.0238610000     0.3967450000    -0.1007830000
| 27>  H        5.1659040000    -2.5341590000     0.0737210000
| 28> *
| 29>
| 30>                          ****END OF INPUT****
 Total Charge           Charge          ....    0
 Multiplicity           Mult            ....    1
 Number of Electrons    NEL             ....   54
 Basis Dimension        Dim             ....  143

MULLIKEN ATOMIC CHARGES
-----------------------
   0 C :    0.037279
   1 C :   -0.210434
   2 C :    0.060690
   3 C :    0.029704
   4 N :   -0.048646
   5 C :    0.117662
   6 O :   -0.214115
   7 H :    0.026840
   8 H :    0.019878
   9 H :    0.029900
  10 H :    0.032887
  11 H :   -0.001743
  12 H :    0.034674
  13 H :   -0.007274
  14 H :    0.111381
  15 H :   -0.018685
Sum of atomic charges:   -0.0000000

LOEWDIN ATOMIC CHARGES
----------------------
   0 C :   -0.051934
   1 C :   -0.083750
   2 C :   -0.055834
   3 C :   -0.017419
   4 N :    0.040572
   5 C :    0.053781
   6 O :   -0.171737
   7 H :    0.032643
   8 H :    0.030974
   9 H :    0.033136
  10 H :    0.038645
  11 H :    0.022730
  12 H :    0.038930
  13 H :    0.025212
  14 H :    0.078607
  15 H :   -0.014557

  Mayer bond orders larger than 0.1
B(  0-C ,  1-C ) :   1.0927 B(  0-C ,  7-H ) :   0.9462 B(  0-C ,  8-H ) :   0.9546
B(  0-C ,  9-H ) :   0.9472 B(  1-C ,  2-C ) :   1.1006 B(  1-C ,  3-C ) :   1.7865
B(  2-C , 10-H ) :   0.9428 B(  2-C , 11-H ) :   0.9483 B(  2-C , 12-H ) :   0.9428
B(  3-C ,  4-N ) :   1.1196 B(  3-C , 13-H ) :   0.9375 B(  4-N ,  5-C ) :   1.1644
B(  4-N , 14-H ) :   0.9107 B(  5-C ,  6-O ) :   2.0631 B(  5-C , 15-H ) :   0.9213

FINAL SINGLE POINT ENERGY      -325.280387334033

DIPOLE MOMENT
-------------
                                X             Y             Z
Electronic contribution:      9.19810      -3.73437      -0.27554
Nuclear contribution   :    -10.51143       4.17151       0.32178
                        -----------------------------------------
Total Dipole Moment    :     -1.31334       0.43714       0.04625
                        -----------------------------------------
Magnitude (a.u.)       :      1.38495
Magnitude (Debye)      :      3.52025

                             ****ORCA TERMINATED NORMALLY****
TOTAL RUN TIME: 0 days 0 hours 0 minutes 7 seconds 168 msec
