                         Program Version 3.0.3 - RELEASE   -
|  1> ! RI PBE def2-SVP def2-SVP/J NBO PAL2
|  2> % maxcore 2000
|  3> % output
|  4>     # printlevel mini
|  5>     print[ P_Basis ] 0
|  6>     print[ P_SCFInfo ] 1
|  7>     print[ P_SCFIterInfo ] 1
|  8>     print[ P_OrbEn ] 0
|  9>     print[ P_Cartesian ] 0
| 10> end
| 11> *xyz 0 1
| 12>  C        1.0069360000     0.0607300000     0.1072910000
| 13>  C        2.5259550000    -0.0494150000     0.1134980000
| 14>  C        3.0637440000     0.2269200000     1.5156370000
| 15>  C        2.9506020000    -1.4387280000    -0.3566750000
| 16>  N        3.0216240000     0.9682360000    -0.8217480000
| 17>  C        4.3131870000     1.2151750000    -1.1191430000
| 18>  O        5.2767060000     0.6396840000    -0.6637530000
| 19>  H        0.5754670000    -0.6748470000     0.7877440000
| 20>  H        0.6025800000    -0.1279810000    -0.8914640000
| 21>  H        0.6827590000     1.0525800000     0.4355740000
| 22>  H        2.6792940000    -0.5186750000     2.2157030000
| 23>  H        2.7501600000     1.2154110000     1.8598250000
| 24>  H        4.1527080000     0.1843260000     1.5228350000
| 25>  H        2.5651760000    -2.1977410000     0.3282720000
| 26>  H        4.0371980000    -1.5161530000    -0.3885450000
| 27>  H        2.5559610000    -1.6442030000    -1.3546490000
| 28>  H        2.3379030000     1.5398460000    -1.2890210000
| 29>  H        4.4124580000     2.0375260000    -1.8554710000
| 30> *
| 31>
| 32>                          ****END OF INPUT****
 Total Charge           Charge          ....    0
 Multiplicity           Mult            ....    1
 Number of Electrons    NEL             ....   56
 Basis Dimension        Dim             ....  153

MULLIKEN ATOMIC CHARGES
-----------------------
   0 C :    0.037354
   1 C :   -0.256280
   2 C :    0.067413
   3 C :    0.074309
   4 N :   -0.085911
   5 C :    0.121493
   6 O :   -0.238360
   7 H :    0.026175
   8 H :    0.019444
   9 H :    0.018576
  10 H :    0.013749
  11 H :    0.006019
  12 H :    0.047437
  13 H :    0.012305
  14 H :    0.045709
  15 H :    0.004067
  16 H :    0.108733
  17 H :   -0.022231
Sum of atomic charges:   -0.0000000

LOEWDIN ATOMIC CHARGES
----------------------
   0 C :   -0.054244
   1 C :   -0.008198
   2 C :   -0.054837
   3 C :   -0.053998
   4 N :    0.011931
   5 C :    0.046527
   6 O :   -0.190739
   7 H :    0.034367
   8 H :    0.024013
   9 H :    0.024067
  10 H :    0.026991
  11 H :    0.022802
  12 H :    0.033141
  13 H :    0.026800
  14 H :    0.033006
  15 H :    0.022581
  16 H :    0.072235
  17 H :   -0.016445

  Mayer bond orders larger than 0.1
B(  0-C ,  1-C ) :   1.0642 B(  0-C ,  7-H ) :   0.9587 B(  0-C ,  8-H ) :   0.9552
B(  0-C ,  9-H ) :   0.9538 B(  1-C ,  2-C ) :   1.0537 B(  1-C ,  3-C ) :   1.0552
B(  1-C ,  4-N ) :   0.9432 B(  2-C , 10-H ) :   0.9551 B(  2-C , 11-H ) :   0.9496
B(  2-C , 12-H ) :   0.9474 B(  3-C , 13-H ) :   0.9554 B(  3-C , 14-H ) :   0.9474
B(  3-C , 15-H ) :   0.9474 B(  4-N ,  5-C ) :   1.2415 B(  4-N ,  6-O ) :   0.1050
B(  4-N , 16-H ) :   0.9281 B(  5-C ,  6-O ) :   1.9814 B(  5-C , 17-H ) :   0.9223

FINAL SINGLE POINT ENERGY      -326.490780795056

DIPOLE MOMENT
-------------
                                X             Y             Z
Electronic contribution:      5.66191       3.22724      -3.20821
Nuclear contribution   :     -7.03868      -2.97865       3.07273
                        -----------------------------------------
Total Dipole Moment    :     -1.37677       0.24860      -0.13548
                        -----------------------------------------
Magnitude (a.u.)       :      1.40558
Magnitude (Debye)      :      3.57270

                             ****ORCA TERMINATED NORMALLY****
TOTAL RUN TIME: 0 days 0 hours 0 minutes 8 seconds 521 msec
