                         Program Version 3.0.3 - RELEASE   -
|  1> ! RI PBE def2-SVP def2-SVP/J NBO PAL2
|  2> % maxcore 2000
|  3> % output
|  4>     # printlevel mini
|  5>     print[ P_Basis ] 0
|  6>     print[ P_SCFInfo ] 1
|  7>     print[ P_SCFIterInfo ] 1
|  8>     print[ P_OrbEn ] 0
|  9>     print[ P_Cartesian ] 0
| 10> end
| 11> *xyz 0 1
| 12>  C        1.0502170000     0.0589820000    -0.0710740000
| 13>  C        2.5748400000     0.0610080000    -0.0132610000
| 14>  C        3.1117030000     1.3664480000    -0.5896120000
| 15>  C        3.0607110000    -0.0444540000     1.4377140000
| 16>  N        2.6342680000    -1.2821200000     2.0923780000
| 17>  C        3.1412100000    -1.0981690000    -0.8453760000
| 18>  O        2.6737400000    -2.3667450000    -0.4707380000
| 19>  H        0.6316830000     0.8489540000     0.5606440000
| 20>  H        0.6375410000    -0.9012160000     0.2439000000
| 21>  H        0.7065660000     0.2331770000    -1.0941090000
| 22>  H        2.7511160000     2.2272280000    -0.0196390000
| 23>  H        2.7879640000     1.4947050000    -1.6256580000
| 24>  H        4.2056500000     1.3893270000    -0.5751220000
| 25>  H        2.7394330000     0.8560470000     1.9832190000
| 26>  H        4.1556550000    -0.0376000000     1.4335110000
| 27>  H        1.6497910000    -1.2437690000     2.3268300000
| 28>  H        3.1392930000    -1.4208680000     2.9578510000
| 29>  H        4.2422480000    -1.0499100000    -0.7934690000
| 30>  H        2.8651730000    -0.9512840000    -1.8954560000
| 31>  H        2.7235900000    -2.3864500000     0.5017760000
| 32> *
| 33>
| 34>                          ****END OF INPUT****
 Total Charge           Charge          ....    0
 Multiplicity           Mult            ....    1
 Number of Electrons    NEL             ....   58
 Basis Dimension        Dim             ....  163

MULLIKEN ATOMIC CHARGES
-----------------------
   0 C :    0.075662
   1 C :   -0.395128
   2 C :    0.060804
   3 C :    0.117779
   4 N :   -0.210684
   5 C :    0.261753
   6 O :   -0.287809
   7 H :    0.002930
   8 H :    0.011188
   9 H :    0.011651
  10 H :    0.008960
  11 H :    0.015570
  12 H :    0.015140
  13 H :   -0.005713
  14 H :    0.007140
  15 H :    0.105891
  16 H :    0.105791
  17 H :   -0.022379
  18 H :   -0.010252
  19 H :    0.131704
Sum of atomic charges:    0.0000000

LOEWDIN ATOMIC CHARGES
----------------------
   0 C :   -0.051181
   1 C :   -0.095953
   2 C :   -0.046901
   3 C :    0.016547
   4 N :   -0.069466
   5 C :    0.063791
   6 O :   -0.133133
   7 H :    0.019593
   8 H :    0.019716
   9 H :    0.028307
  10 H :    0.023031
  11 H :    0.026784
  12 H :    0.023837
  13 H :    0.002825
  14 H :    0.021509
  15 H :    0.058085
  16 H :    0.060747
  17 H :   -0.003492
  18 H :    0.012586
  19 H :    0.022767

  Mayer bond orders larger than 0.1
B(  0-C ,  1-C ) :   1.0345 B(  0-C ,  7-H ) :   0.9590 B(  0-C ,  8-H ) :   0.9458
B(  0-C ,  9-H ) :   0.9585 B(  1-C ,  2-C ) :   1.0475 B(  1-C ,  3-C ) :   1.0167
B(  1-C ,  5-C ) :   0.9887 B(  2-C , 10-H ) :   0.9506 B(  2-C , 11-H ) :   0.9537
B(  2-C , 12-H ) :   0.9543 B(  3-C ,  4-N ) :   1.0755 B(  3-C , 13-H ) :   0.9320
B(  3-C , 14-H ) :   0.9325 B(  4-N , 15-H ) :   0.9598 B(  4-N , 16-H ) :   0.9592
B(  4-N , 19-H ) :   0.1564 B(  5-C ,  6-O ) :   1.1147 B(  5-C , 17-H ) :   0.9248
B(  5-C , 18-H ) :   0.9319 B(  6-O , 19-H ) :   0.9312

FINAL SINGLE POINT ENERGY      -327.660931493093

DIPOLE MOMENT
-------------
                                X             Y             Z
Electronic contribution:      0.58438      -4.55990       0.22181
Nuclear contribution   :     -0.57010       5.30847       0.82064
                        -----------------------------------------
Total Dipole Moment    :      0.01428       0.74858       1.04245
                        -----------------------------------------
Magnitude (a.u.)       :      1.28346
Magnitude (Debye)      :      3.26229

                             ****ORCA TERMINATED NORMALLY****
TOTAL RUN TIME: 0 days 0 hours 0 minutes 8 seconds 762 msec
