                         Program Version 3.0.3 - RELEASE   -
|  1> ! RI PBE def2-SVP def2-SVP/J NBO PAL2
|  2> % maxcore 2000
|  3> % output
|  4>     # printlevel mini
|  5>     print[ P_Basis ] 0
|  6>     print[ P_SCFInfo ] 1
|  7>     print[ P_SCFIterInfo ] 1
|  8>     print[ P_OrbEn ] 0
|  9>     print[ P_Cartesian ] 0
| 10> end
| 11> *xyz 0 1
| 12>  C        1.6698000000     0.3972090000     0.9218820000
| 13>  C        2.5375930000    -0.4558290000     0.0046500000
| 14>  C        1.7057550000    -1.5426980000    -0.6615440000
| 15>  C        3.3140810000     0.3688230000    -1.0412190000
| 16>  N        2.5086130000     1.1038100000    -2.0026410000
| 17>  C        4.2813890000     1.3714480000    -0.4180170000
| 18>  O        5.1829870000     0.8036150000     0.5059960000
| 19>  H        1.1590790000    -0.2263800000     1.6593910000
| 20>  H        0.8939880000     0.9253250000     0.3585470000
| 21>  H        2.2457930000     1.1472690000     1.4710580000
| 22>  H        3.2937650000    -0.9618030000     0.6189810000
| 23>  H        2.3188150000    -2.1709950000    -1.3136090000
| 24>  H        1.2378380000    -2.1912590000     0.0831570000
| 25>  H        0.9008790000    -1.1130740000    -1.2658240000
| 26>  H        3.9219700000    -0.3427590000    -1.6129610000
| 27>  H        1.8643600000     1.7317320000    -1.5372970000
| 28>  H        1.9617870000     0.4821380000    -2.5827800000
| 29>  H        3.7161420000     2.1985340000     0.0366040000
| 30>  H        4.8843720000     1.8031950000    -1.2178490000
| 31>  H        4.7037120000     0.5787990000     1.3065640000
| 32> *
| 33>
| 34>                          ****END OF INPUT****
 Total Charge           Charge          ....    0
 Multiplicity           Mult            ....    1
 Number of Electrons    NEL             ....   58
 Basis Dimension        Dim             ....  163

MULLIKEN ATOMIC CHARGES
-----------------------
   0 C :    0.012771
   1 C :   -0.138250
   2 C :    0.024393
   3 C :   -0.025187
   4 N :   -0.181985
   5 C :    0.200811
   6 O :   -0.279910
   7 H :    0.020197
   8 H :    0.003752
   9 H :    0.008653
  10 H :   -0.008060
  11 H :    0.016679
  12 H :    0.017368
  13 H :   -0.001242
  14 H :    0.000271
  15 H :    0.084795
  16 H :    0.088993
  17 H :   -0.013973
  18 H :    0.014218
  19 H :    0.155706
Sum of atomic charges:   -0.0000000

LOEWDIN ATOMIC CHARGES
----------------------
   0 C :   -0.064523
   1 C :   -0.068672
   2 C :   -0.060711
   3 C :   -0.016185
   4 N :   -0.084189
   5 C :    0.052305
   6 O :   -0.114700
   7 H :    0.029071
   8 H :    0.018120
   9 H :    0.019222
  10 H :    0.017489
  11 H :    0.026261
  12 H :    0.026783
  13 H :    0.014681
  14 H :    0.022936
  15 H :    0.046638
  16 H :    0.050869
  17 H :   -0.001607
  18 H :    0.024238
  19 H :    0.061974

  Mayer bond orders larger than 0.1
B(  0-C ,  1-C ) :   1.0633 B(  0-C ,  7-H ) :   0.9582 B(  0-C ,  8-H ) :   0.9526
B(  0-C ,  9-H ) :   0.9581 B(  1-C ,  2-C ) :   1.0894 B(  1-C ,  3-C ) :   0.9926
B(  1-C , 10-H ) :   0.8864 B(  2-C , 11-H ) :   0.9581 B(  2-C , 12-H ) :   0.9590
B(  2-C , 13-H ) :   0.9526 B(  3-C ,  4-N ) :   1.0782 B(  3-C ,  5-C ) :   1.0158
B(  3-C , 14-H ) :   0.9011 B(  4-N , 15-H ) :   0.9703 B(  4-N , 16-H ) :   0.9659
B(  5-C ,  6-O ) :   1.0779 B(  5-C , 17-H ) :   0.9331 B(  5-C , 18-H ) :   0.9347
B(  6-O , 19-H ) :   0.9827

FINAL SINGLE POINT ENERGY      -327.651395591476

DIPOLE MOMENT
-------------
                                X             Y             Z
Electronic contribution:      5.10830       1.79545      -0.46860
Nuclear contribution   :     -5.99891      -2.00946       0.78617
                        -----------------------------------------
Total Dipole Moment    :     -0.89061      -0.21402       0.31757
                        -----------------------------------------
Magnitude (a.u.)       :      0.96945
Magnitude (Debye)      :      2.46415

                             ****ORCA TERMINATED NORMALLY****
TOTAL RUN TIME: 0 days 0 hours 0 minutes 8 seconds 981 msec
