                         Program Version 3.0.3 - RELEASE   -
|  1> ! RI PBE def2-SVP def2-SVP/J NBO PAL2
|  2> % maxcore 2000
|  3> % output
|  4>     # printlevel mini
|  5>     print[ P_Basis ] 0
|  6>     print[ P_SCFInfo ] 1
|  7>     print[ P_SCFIterInfo ] 1
|  8>     print[ P_OrbEn ] 0
|  9>     print[ P_Cartesian ] 0
| 10> end
| 11> *xyz 0 1
| 12>  C        0.8322980000     0.6106660000     0.3394290000
| 13>  C        2.2690240000     0.1528730000     0.5375510000
| 14>  C        2.5113680000    -0.3020870000     1.9683980000
| 15>  C        2.5989310000    -0.9459050000    -0.4718920000
| 16>  N        3.9789860000    -1.3747380000    -0.4571330000
| 17>  C        4.9257460000    -0.8066480000    -1.2340060000
| 18>  O        4.7349480000     0.0949560000    -2.0178530000
| 19>  H        0.5807620000     1.4207410000     1.0276700000
| 20>  H        0.1302240000    -0.2091300000     0.5247350000
| 21>  H        0.6651650000     0.9713380000    -0.6785410000
| 22>  H        2.9358060000     0.9950480000     0.3193520000
| 23>  H        1.8674100000    -1.1512710000     2.2226100000
| 24>  H        2.2920760000     0.5001920000     2.6768760000
| 25>  H        3.5498780000    -0.6028550000     2.1278860000
| 26>  H        2.3870960000    -0.5868220000    -1.4811410000
| 27>  H        1.9641020000    -1.8194680000    -0.2880370000
| 28>  H        4.2660730000    -2.1044990000     0.1712830000
| 29>  H        5.9217170000    -1.2660090000    -1.0847880000
| 30> *
| 31>
| 32>                          ****END OF INPUT****
 Total Charge           Charge          ....    0
 Multiplicity           Mult            ....    1
 Number of Electrons    NEL             ....   56
 Basis Dimension        Dim             ....  153

MULLIKEN ATOMIC CHARGES
-----------------------
   0 C :    0.009446
   1 C :   -0.133350
   2 C :   -0.000293
   3 C :    0.120776
   4 N :   -0.132749
   5 C :    0.132406
   6 O :   -0.240710
   7 H :    0.021928
   8 H :    0.012842
   9 H :    0.024888
  10 H :    0.025948
  11 H :    0.009366
  12 H :    0.026953
  13 H :    0.006603
  14 H :    0.024074
  15 H :    0.003805
  16 H :    0.113926
  17 H :   -0.025859
Sum of atomic charges:   -0.0000000

LOEWDIN ATOMIC CHARGES
----------------------
   0 C :   -0.057839
   1 C :   -0.054825
   2 C :   -0.064913
   3 C :    0.027665
   4 N :    0.004887
   5 C :    0.046937
   6 O :   -0.189857
   7 H :    0.028205
   8 H :    0.023307
   9 H :    0.029043
  10 H :    0.032270
  11 H :    0.021879
  12 H :    0.029719
  13 H :    0.018484
  14 H :    0.030176
  15 H :    0.021245
  16 H :    0.070948
  17 H :   -0.017331

  Mayer bond orders larger than 0.1
B(  0-C ,  1-C ) :   1.0904 B(  0-C ,  7-H ) :   0.9612 B(  0-C ,  8-H ) :   0.9587
B(  0-C ,  9-H ) :   0.9588 B(  1-C ,  2-C ) :   1.0699 B(  1-C ,  3-C ) :   1.0502
B(  1-C , 10-H ) :   0.9112 B(  2-C , 11-H ) :   0.9624 B(  2-C , 12-H ) :   0.9627
B(  2-C , 13-H ) :   0.9561 B(  3-C ,  4-N ) :   1.0087 B(  3-C , 14-H ) :   0.9238
B(  3-C , 15-H ) :   0.9339 B(  4-N ,  5-C ) :   1.2240 B(  4-N , 16-H ) :   0.9285
B(  5-C ,  6-O ) :   2.0044 B(  5-C , 17-H ) :   0.9231

FINAL SINGLE POINT ENERGY      -326.489643133779

DIPOLE MOMENT
-------------
                                X             Y             Z
Electronic contribution:      6.94276      -1.03123      -6.14351
Nuclear contribution   :     -7.29928       0.17477       7.14825
                        -----------------------------------------
Total Dipole Moment    :     -0.35652      -0.85646       1.00474
                        -----------------------------------------
Magnitude (a.u.)       :      1.36753
Magnitude (Debye)      :      3.47597

                             ****ORCA TERMINATED NORMALLY****
TOTAL RUN TIME: 0 days 0 hours 0 minutes 8 seconds 404 msec
