                         Program Version 3.0.3 - RELEASE   -
|  1> ! RI PBE def2-SVP def2-SVP/J NBO PAL2
|  2> % maxcore 2000
|  3> % output
|  4>     # printlevel mini
|  5>     print[ P_Basis ] 0
|  6>     print[ P_SCFInfo ] 1
|  7>     print[ P_SCFIterInfo ] 1
|  8>     print[ P_OrbEn ] 0
|  9>     print[ P_Cartesian ] 0
| 10> end
| 11> *xyz 0 1
| 12>  C        0.8859070000     0.0468770000     0.0128980000
| 13>  C        2.4103450000    -0.0275930000     0.0146060000
| 14>  C        2.9793930000    -0.8073520000     1.1987690000
| 15>  C        2.6509960000    -0.1860060000     2.4702170000
| 16>  N        2.3797020000     0.3236520000     3.4644780000
| 17>  C        2.8950660000    -0.6185410000    -1.2835930000
| 18>  O        3.6182670000    -1.5706990000    -1.3763140000
| 19>  H        0.5273470000     0.5549390000     0.9092670000
| 20>  H        0.4465900000    -0.9536500000    -0.0118490000
| 21>  H        0.5216980000     0.5993730000    -0.8559820000
| 22>  H        2.7995210000     1.0000240000     0.0383360000
| 23>  H        4.0653770000    -0.8900180000     1.1112620000
| 24>  H        2.5926410000    -1.8304560000     1.1937900000
| 25>  H        2.5174690000    -0.0991600000    -2.1910930000
| 26> *
| 27>
| 28>                          ****END OF INPUT****
 Total Charge           Charge          ....    0
 Multiplicity           Mult            ....    1
 Number of Electrons    NEL             ....   52
 Basis Dimension        Dim             ....  133

MULLIKEN ATOMIC CHARGES
-----------------------
   0 C :   -0.002705
   1 C :   -0.175826
   2 C :    0.120265
   3 C :   -0.291255
   4 N :    0.062934
   5 C :    0.129197
   6 O :   -0.150741
   7 H :    0.060117
   8 H :    0.036115
   9 H :    0.036830
  10 H :    0.055842
  11 H :    0.061866
  12 H :    0.054392
  13 H :    0.002969
Sum of atomic charges:   -0.0000000

LOEWDIN ATOMIC CHARGES
----------------------
   0 C :   -0.046596
   1 C :   -0.076946
   2 C :   -0.049460
   3 C :   -0.046576
   4 N :   -0.066724
   5 C :    0.101221
   6 O :   -0.097023
   7 H :    0.041694
   8 H :    0.033032
   9 H :    0.033742
  10 H :    0.053238
  11 H :    0.063435
  12 H :    0.061386
  13 H :   -0.004425

  Mayer bond orders larger than 0.1
B(  0-C ,  1-C ) :   1.0511 B(  0-C ,  7-H ) :   0.9558 B(  0-C ,  8-H ) :   0.9637
B(  0-C ,  9-H ) :   0.9597 B(  1-C ,  2-C ) :   1.0566 B(  1-C ,  5-C ) :   0.9265
B(  1-C , 10-H ) :   0.8853 B(  2-C ,  3-C ) :   1.1293 B(  2-C , 11-H ) :   0.8800
B(  2-C , 12-H ) :   0.8815 B(  3-C ,  4-N ) :   3.0444 B(  5-C ,  6-O ) :   2.1863
B(  5-C , 13-H ) :   0.9392

FINAL SINGLE POINT ENERGY      -324.054287007911

DIPOLE MOMENT
-------------
                                X             Y             Z
Electronic contribution:      3.71404      -1.12307       2.50373
Nuclear contribution   :     -4.03553       1.26498      -3.59661
                        -----------------------------------------
Total Dipole Moment    :     -0.32149       0.14191      -1.09288
                        -----------------------------------------
Magnitude (a.u.)       :      1.14799
Magnitude (Debye)      :      2.91796

                             ****ORCA TERMINATED NORMALLY****
TOTAL RUN TIME: 0 days 0 hours 0 minutes 7 seconds 11 msec
