                         Program Version 3.0.3 - RELEASE   -
|  1> ! RI PBE def2-SVP def2-SVP/J NBO PAL2
|  2> % maxcore 2000
|  3> % output
|  4>     # printlevel mini
|  5>     print[ P_Basis ] 0
|  6>     print[ P_SCFInfo ] 1
|  7>     print[ P_SCFIterInfo ] 1
|  8>     print[ P_OrbEn ] 0
|  9>     print[ P_Cartesian ] 0
| 10> end
| 11> *xyz 0 1
| 12>  C        1.0542870000    -0.0672170000     0.0234600000
| 13>  C        2.5045820000    -0.0530180000     0.0388400000
| 14>  C        3.7063850000    -0.0492580000     0.0433330000
| 15>  C        5.1589040000    -0.0456880000     0.0481790000
| 16>  N        5.6762250000     0.9185660000     1.0011000000
| 17>  C        7.0012970000     1.0893340000     1.1702960000
| 18>  O        7.8514450000     0.4766900000     0.5649060000
| 19>  H        0.6526510000     0.9407210000    -0.1053540000
| 20>  H        0.6538920000    -0.4761050000     0.9542100000
| 21>  H        0.6844950000    -0.6825650000    -0.8003420000
| 22>  H        5.5424230000     0.1884670000    -0.9509150000
| 23>  H        5.5412460000    -1.0422060000     0.2949330000
| 24>  H        5.0248200000     1.4627720000     1.5392720000
| 25>  H        7.2374380000     1.8578970000     1.9300810000
| 26> *
| 27>
| 28>                          ****END OF INPUT****
 Total Charge           Charge          ....    0
 Multiplicity           Mult            ....    1
 Number of Electrons    NEL             ....   52
 Basis Dimension        Dim             ....  133

MULLIKEN ATOMIC CHARGES
-----------------------
   0 C :    0.052032
   1 C :   -0.210496
   2 C :   -0.170002
   3 C :    0.249994
   4 N :   -0.164618
   5 C :    0.131059
   6 O :   -0.243653
   7 H :    0.049661
   8 H :    0.050937
   9 H :    0.054908
  10 H :    0.046984
  11 H :    0.046791
  12 H :    0.125189
  13 H :   -0.018785
Sum of atomic charges:   -0.0000000

LOEWDIN ATOMIC CHARGES
----------------------
   0 C :   -0.066885
   1 C :   -0.051766
   2 C :   -0.085147
   3 C :    0.029098
   4 N :    0.000172
   5 C :    0.046898
   6 O :   -0.189936
   7 H :    0.051918
   8 H :    0.051815
   9 H :    0.055204
  10 H :    0.048179
  11 H :    0.048140
  12 H :    0.077527
  13 H :   -0.015218

  Mayer bond orders larger than 0.1
B(  0-C ,  1-C ) :   1.1316 B(  0-C ,  7-H ) :   0.9326 B(  0-C ,  8-H ) :   0.9328
B(  0-C ,  9-H ) :   0.9317 B(  1-C ,  2-C ) :   2.6334 B(  2-C ,  3-C ) :   1.0287
B(  3-C ,  4-N ) :   0.9582 B(  3-C , 10-H ) :   0.9070 B(  3-C , 11-H ) :   0.9070
B(  4-N ,  5-C ) :   1.2328 B(  4-N ,  6-O ) :   0.1034 B(  4-N , 12-H ) :   0.9314
B(  5-C ,  6-O ) :   2.0042 B(  5-C , 13-H ) :   0.9292

FINAL SINGLE POINT ENERGY      -324.028497215650

DIPOLE MOMENT
-------------
                                X             Y             Z
Electronic contribution:      5.95713       0.48522       0.48342
Nuclear contribution   :     -7.55432      -0.13396      -0.13983
                        -----------------------------------------
Total Dipole Moment    :     -1.59718       0.35126       0.34358
                        -----------------------------------------
Magnitude (a.u.)       :      1.67106
Magnitude (Debye)      :      4.24749

                             ****ORCA TERMINATED NORMALLY****
TOTAL RUN TIME: 0 days 0 hours 0 minutes 6 seconds 22 msec
