                         Program Version 3.0.3 - RELEASE   -
|  1> ! RI PBE def2-SVP def2-SVP/J NBO PAL2
|  2> % maxcore 2000
|  3> % output
|  4>     # printlevel mini
|  5>     print[ P_Basis ] 0
|  6>     print[ P_SCFInfo ] 1
|  7>     print[ P_SCFIterInfo ] 1
|  8>     print[ P_OrbEn ] 0
|  9>     print[ P_Cartesian ] 0
| 10> end
| 11> *xyz 0 1
| 12>  C        2.6429240000    -1.1042400000    -1.0300050000
| 13>  C        3.0516820000     0.1033030000    -0.1929640000
| 14>  C        3.1653910000    -0.2086400000     1.2619340000
| 15>  C        4.2860870000    -0.0775200000     1.9651790000
| 16>  N        4.4235450000    -0.3662000000     3.3151010000
| 17>  C        5.5750480000    -0.2292420000     4.0237280000
| 18>  O        5.6882110000    -0.4832300000     5.1973800000
| 19>  H        2.5359200000    -0.8346300000    -2.0832840000
| 20>  H        1.6860360000    -1.5109280000    -0.6920780000
| 21>  H        3.3861910000    -1.9012590000    -0.9554220000
| 22>  H        2.3118000000     0.9002300000    -0.3375300000
| 23>  H        4.0047270000     0.5017870000    -0.5551900000
| 24>  H        2.2684790000    -0.5768200000     1.7584930000
| 25>  H        5.1997660000     0.2823580000     1.5008610000
| 26>  H        3.6246690000    -0.7050160000     3.8319270000
| 27>  H        6.4096340000     0.1453260000     3.4020600000
| 28> *
| 29>
| 30>                          ****END OF INPUT****
 Total Charge           Charge          ....    0
 Multiplicity           Mult            ....    1
 Number of Electrons    NEL             ....   54
 Basis Dimension        Dim             ....  143

MULLIKEN ATOMIC CHARGES
-----------------------
   0 C :   -0.040250
   1 C :    0.017619
   2 C :   -0.092150
   3 C :    0.048902
   4 N :   -0.046638
   5 C :    0.111738
   6 O :   -0.209311
   7 H :    0.025618
   8 H :    0.019794
   9 H :    0.032144
  10 H :    0.028901
  11 H :    0.005540
  12 H :   -0.008495
  13 H :    0.004952
  14 H :    0.116262
  15 H :   -0.014627
Sum of atomic charges:   -0.0000000

LOEWDIN ATOMIC CHARGES
----------------------
   0 C :   -0.065242
   1 C :   -0.041552
   2 C :   -0.078841
   3 C :   -0.003693
   4 N :    0.041002
   5 C :    0.053289
   6 O :   -0.167509
   7 H :    0.027744
   8 H :    0.025144
   9 H :    0.027475
  10 H :    0.033496
  11 H :    0.027698
  12 H :    0.021901
  13 H :    0.026805
  14 H :    0.085152
  15 H :   -0.012867

  Mayer bond orders larger than 0.1
B(  0-C ,  1-C ) :   1.0972 B(  0-C ,  7-H ) :   0.9600 B(  0-C ,  8-H ) :   0.9687
B(  0-C ,  9-H ) :   0.9696 B(  1-C ,  2-C ) :   1.0779 B(  1-C , 10-H ) :   0.9214
B(  1-C , 11-H ) :   0.9367 B(  2-C ,  3-C ) :   1.8111 B(  2-C , 12-H ) :   0.9534
B(  3-C ,  4-N ) :   1.1110 B(  3-C , 13-H ) :   0.9472 B(  4-N ,  5-C ) :   1.1603
B(  4-N , 14-H ) :   0.9184 B(  5-C ,  6-O ) :   2.0702 B(  5-C , 15-H ) :   0.9203

FINAL SINGLE POINT ENERGY      -325.275989767360

DIPOLE MOMENT
-------------
                                X             Y             Z
Electronic contribution:      4.79022       0.61620      11.03334
Nuclear contribution   :     -5.37035      -0.50808     -12.14868
                        -----------------------------------------
Total Dipole Moment    :     -0.58013       0.10812      -1.11533
                        -----------------------------------------
Magnitude (a.u.)       :      1.26183
Magnitude (Debye)      :      3.20731

                             ****ORCA TERMINATED NORMALLY****
TOTAL RUN TIME: 0 days 0 hours 0 minutes 7 seconds 41 msec
