                         Program Version 3.0.3 - RELEASE   -
|  1> ! RI PBE def2-SVP def2-SVP/J NBO PAL2
|  2> % maxcore 2000
|  3> % output
|  4>     # printlevel mini
|  5>     print[ P_Basis ] 0
|  6>     print[ P_SCFInfo ] 1
|  7>     print[ P_SCFIterInfo ] 1
|  8>     print[ P_OrbEn ] 0
|  9>     print[ P_Cartesian ] 0
| 10> end
| 11> *xyz 0 1
| 12>  C        2.3846560000     0.5278240000    -1.4538580000
| 13>  C        2.2313100000     0.0759640000    -0.0051760000
| 14>  C        2.9636240000    -1.1947740000     0.3076490000
| 15>  C        2.3461490000    -2.3363760000     0.6096190000
| 16>  N        4.3569410000    -1.0752270000     0.2379790000
| 17>  C        5.2496650000    -2.0563960000    -0.0709600000
| 18>  O        6.4459530000    -1.8991760000    -0.0728000000
| 19>  H        1.8512030000     1.4652710000    -1.6233440000
| 20>  H        1.9804180000    -0.2218640000    -2.1373290000
| 21>  H        3.4319840000     0.6881220000    -1.7185430000
| 22>  H        1.1767940000    -0.0661190000     0.2371360000
| 23>  H        2.5960400000     0.8658430000     0.6646960000
| 24>  H        1.2660830000    -2.3848380000     0.5837810000
| 25>  H        2.8799860000    -3.2362110000     0.8855400000
| 26>  H        4.7652390000    -0.1638350000     0.3881830000
| 27>  H        4.7632450000    -3.0082880000    -0.3411820000
| 28> *
| 29>
| 30>                          ****END OF INPUT****
 Total Charge           Charge          ....    0
 Multiplicity           Mult            ....    1
 Number of Electrons    NEL             ....   54
 Basis Dimension        Dim             ....  143

MULLIKEN ATOMIC CHARGES
-----------------------
   0 C :   -0.013431
   1 C :    0.018043
   2 C :   -0.060043
   3 C :   -0.061688
   4 N :   -0.058940
   5 C :    0.123490
   6 O :   -0.213399
   7 H :    0.029606
   8 H :    0.029328
   9 H :    0.022732
  10 H :    0.013148
  11 H :    0.028141
  12 H :    0.015991
  13 H :    0.019789
  14 H :    0.114627
  15 H :   -0.007393
Sum of atomic charges:   -0.0000000

LOEWDIN ATOMIC CHARGES
----------------------
   0 C :   -0.061361
   1 C :   -0.044148
   2 C :    0.004773
   3 C :   -0.107121
   4 N :    0.032279
   5 C :    0.062890
   6 O :   -0.166462
   7 H :    0.030956
   8 H :    0.031396
   9 H :    0.024313
  10 H :    0.036075
  11 H :    0.033801
  12 H :    0.028287
  13 H :    0.023283
  14 H :    0.079493
  15 H :   -0.008455

  Mayer bond orders larger than 0.1
B(  0-C ,  1-C ) :   1.1059 B(  0-C ,  7-H ) :   0.9606 B(  0-C ,  8-H ) :   0.9645
B(  0-C ,  9-H ) :   0.9660 B(  1-C ,  2-C ) :   1.0613 B(  1-C , 10-H ) :   0.9163
B(  1-C , 11-H ) :   0.9155 B(  2-C ,  3-C ) :   1.9181 B(  2-C ,  4-N ) :   1.0666
B(  3-C , 12-H ) :   0.9256 B(  3-C , 13-H ) :   0.9331 B(  4-N ,  5-C ) :   1.1555
B(  4-N , 14-H ) :   0.9100 B(  5-C ,  6-O ) :   2.0706 B(  5-C , 15-H ) :   0.9226

FINAL SINGLE POINT ENERGY      -325.272888854353

DIPOLE MOMENT
-------------
                                X             Y             Z
Electronic contribution:      7.22945      -3.21909       2.16860
Nuclear contribution   :     -8.40181       3.79143      -2.16495
                        -----------------------------------------
Total Dipole Moment    :     -1.17236       0.57234       0.00365
                        -----------------------------------------
Magnitude (a.u.)       :      1.30461
Magnitude (Debye)      :      3.31606

                             ****ORCA TERMINATED NORMALLY****
TOTAL RUN TIME: 0 days 0 hours 0 minutes 7 seconds 504 msec
