                         Program Version 3.0.3 - RELEASE   -
|  1> ! RI PBE def2-SVP def2-SVP/J NBO PAL2
|  2> % maxcore 2000
|  3> % output
|  4>     # printlevel mini
|  5>     print[ P_Basis ] 0
|  6>     print[ P_SCFInfo ] 1
|  7>     print[ P_SCFIterInfo ] 1
|  8>     print[ P_OrbEn ] 0
|  9>     print[ P_Cartesian ] 0
| 10> end
| 11> *xyz 0 1
| 12>  C        1.1591670000    -0.1888820000    -0.2153840000
| 13>  C        2.6418090000    -0.0886020000     0.1083950000
| 14>  C        3.1542450000    -0.9957830000     1.2331160000
| 15>  C        2.5620320000    -0.6010760000     2.5816920000
| 16>  N        2.8888260000    -2.3943530000     0.8797450000
| 17>  C        4.6834220000    -0.8836350000     1.3046270000
| 18>  O        5.2994520000    -1.3786150000     0.1474820000
| 19>  H        0.8930320000     0.5367100000    -0.9871340000
| 20>  H        0.5271040000     0.0158890000     0.6521880000
| 21>  H        0.8849470000    -1.1719310000    -0.6087950000
| 22>  H        2.8784100000     0.9426560000     0.3900240000
| 23>  H        3.2275320000    -0.3049450000    -0.7888550000
| 24>  H        1.4738980000    -0.6940810000     2.5815470000
| 25>  H        2.8127770000     0.4322080000     2.8393650000
| 26>  H        2.9509530000    -1.2462540000     3.3751380000
| 27>  H        1.9290330000    -2.5250490000     0.5886220000
| 28>  H        3.0397950000    -2.9954310000     1.6824090000
| 29>  H        5.0313230000    -1.4284000000     2.1984280000
| 30>  H        4.9786530000     0.1630810000     1.4238070000
| 31>  H        4.7628880000    -2.1480980000    -0.0981480000
| 32> *
| 33>
| 34>                          ****END OF INPUT****
 Total Charge           Charge          ....    0
 Multiplicity           Mult            ....    1
 Number of Electrons    NEL             ....   58
 Basis Dimension        Dim             ....  163

MULLIKEN ATOMIC CHARGES
-----------------------
   0 C :   -0.017923
   1 C :    0.047278
   2 C :   -0.334396
   3 C :    0.065767
   4 N :   -0.153374
   5 C :    0.284940
   6 O :   -0.277971
   7 H :    0.026401
   8 H :    0.019216
   9 H :    0.017497
  10 H :    0.004656
  11 H :    0.005547
  12 H :    0.014669
  13 H :    0.013043
  14 H :    0.006815
  15 H :    0.084286
  16 H :    0.090109
  17 H :   -0.028038
  18 H :   -0.007822
  19 H :    0.139298
Sum of atomic charges:   -0.0000000

LOEWDIN ATOMIC CHARGES
----------------------
   0 C :   -0.071116
   1 C :   -0.037686
   2 C :   -0.047324
   3 C :   -0.066572
   4 N :   -0.072035
   5 C :    0.058429
   6 O :   -0.121829
   7 H :    0.033144
   8 H :    0.023031
   9 H :    0.021558
  10 H :    0.026958
  11 H :    0.023796
  12 H :    0.022111
  13 H :    0.028356
  14 H :    0.021241
  15 H :    0.049238
  16 H :    0.053599
  17 H :   -0.004151
  18 H :    0.015868
  19 H :    0.043385

  Mayer bond orders larger than 0.1
B(  0-C ,  1-C ) :   1.1182 B(  0-C ,  7-H ) :   0.9556 B(  0-C ,  8-H ) :   0.9592
B(  0-C ,  9-H ) :   0.9549 B(  1-C ,  2-C ) :   1.0195 B(  1-C , 10-H ) :   0.9341
B(  1-C , 11-H ) :   0.9114 B(  2-C ,  3-C ) :   1.0466 B(  2-C ,  4-N ) :   1.0285
B(  2-C ,  5-C ) :   1.0070 B(  3-C , 12-H ) :   0.9508 B(  3-C , 13-H ) :   0.9492
B(  3-C , 14-H ) :   0.9411 B(  4-N , 15-H ) :   0.9574 B(  4-N , 16-H ) :   0.9590
B(  4-N , 19-H ) :   0.1116 B(  5-C ,  6-O ) :   1.1003 B(  5-C , 17-H ) :   0.9130
B(  5-C , 18-H ) :   0.9297 B(  6-O , 19-H ) :   0.9443

FINAL SINGLE POINT ENERGY      -327.660978063414

DIPOLE MOMENT
-------------
                                X             Y             Z
Electronic contribution:      4.98505      -2.12243      -1.46916
Nuclear contribution   :     -5.95740       1.93750       1.98720
                        -----------------------------------------
Total Dipole Moment    :     -0.97236      -0.18493       0.51804
                        -----------------------------------------
Magnitude (a.u.)       :      1.11716
Magnitude (Debye)      :      2.83959

                             ****ORCA TERMINATED NORMALLY****
TOTAL RUN TIME: 0 days 0 hours 0 minutes 9 seconds 24 msec
