                         Program Version 3.0.3 - RELEASE   -
|  1> ! RI PBE def2-SVP def2-SVP/J NBO PAL2
|  2> % maxcore 2000
|  3> % output
|  4>     # printlevel mini
|  5>     print[ P_Basis ] 0
|  6>     print[ P_SCFInfo ] 1
|  7>     print[ P_SCFIterInfo ] 1
|  8>     print[ P_OrbEn ] 0
|  9>     print[ P_Cartesian ] 0
| 10> end
| 11> *xyz 0 1
| 12>  C        2.9006500000    -0.1840730000     1.2572700000
| 13>  C        2.4566210000     0.2140490000    -0.1386970000
| 14>  C        2.9650980000    -0.7147310000    -1.2381940000
| 15>  C        2.3884570000    -0.3529050000    -2.5982010000
| 16>  N        4.4157410000    -0.7231960000    -1.2872850000
| 17>  C        5.1742390000    -1.8197560000    -1.0744260000
| 18>  O        4.7603720000    -2.9232710000    -0.8004360000
| 19>  H        2.5067500000     0.5057490000     2.0066410000
| 20>  H        3.9895000000    -0.1841580000     1.3436440000
| 21>  H        2.5524220000    -1.1889690000     1.5084430000
| 22>  H        2.7820100000     1.2385440000    -0.3619980000
| 23>  H        1.3631150000     0.2281210000    -0.1912850000
| 24>  H        2.6891750000    -1.7428440000    -0.9898790000
| 25>  H        2.6747760000     0.6633510000    -2.8879100000
| 26>  H        1.2973110000    -0.3960380000    -2.5776560000
| 27>  H        2.7448340000    -1.0408020000    -3.3668400000
| 28>  H        4.8920910000     0.1319660000    -1.5244230000
| 29>  H        6.2546470000    -1.6015460000    -1.1781780000
| 30> *
| 31>
| 32>                          ****END OF INPUT****
 Total Charge           Charge          ....    0
 Multiplicity           Mult            ....    1
 Number of Electrons    NEL             ....   56
 Basis Dimension        Dim             ....  153

MULLIKEN ATOMIC CHARGES
-----------------------
   0 C :   -0.000429
   1 C :   -0.033222
   2 C :   -0.021116
   3 C :    0.027601
   4 N :   -0.124445
   5 C :    0.122238
   6 O :   -0.238315
   7 H :    0.023143
   8 H :    0.022847
   9 H :    0.026100
  10 H :   -0.001932
  11 H :    0.022510
  12 H :    0.022936
  13 H :    0.007238
  14 H :    0.028606
  15 H :    0.033337
  16 H :    0.105493
  17 H :   -0.022591
Sum of atomic charges:   -0.0000000

LOEWDIN ATOMIC CHARGES
----------------------
   0 C :   -0.067760
   1 C :   -0.049044
   2 C :    0.014069
   3 C :   -0.064115
   4 N :    0.011429
   5 C :    0.042312
   6 O :   -0.190131
   7 H :    0.028577
   8 H :    0.024724
   9 H :    0.031280
  10 H :    0.018748
  11 H :    0.029855
  12 H :    0.030660
  13 H :    0.022152
  14 H :    0.032204
  15 H :    0.031818
  16 H :    0.069902
  17 H :   -0.016680

  Mayer bond orders larger than 0.1
B(  0-C ,  1-C ) :   1.1239 B(  0-C ,  7-H ) :   0.9593 B(  0-C ,  8-H ) :   0.9604
B(  0-C ,  9-H ) :   0.9615 B(  1-C ,  2-C ) :   1.0608 B(  1-C , 10-H ) :   0.9251
B(  1-C , 11-H ) :   0.9365 B(  2-C ,  3-C ) :   1.0958 B(  2-C ,  4-N ) :   0.9419
B(  2-C , 12-H ) :   0.8994 B(  3-C , 13-H ) :   0.9519 B(  3-C , 14-H ) :   0.9579
B(  3-C , 15-H ) :   0.9587 B(  4-N ,  5-C ) :   1.2219 B(  4-N ,  6-O ) :   0.1078
B(  4-N , 16-H ) :   0.9266 B(  5-C ,  6-O ) :   2.0130 B(  5-C , 17-H ) :   0.9227

FINAL SINGLE POINT ENERGY      -326.491272632612

DIPOLE MOMENT
-------------
                                X             Y             Z
Electronic contribution:      5.17181      -5.08643      -1.22568
Nuclear contribution   :     -5.33574       6.44969       0.92552
                        -----------------------------------------
Total Dipole Moment    :     -0.16393       1.36326      -0.30016
                        -----------------------------------------
Magnitude (a.u.)       :      1.40550
Magnitude (Debye)      :      3.57250

                             ****ORCA TERMINATED NORMALLY****
TOTAL RUN TIME: 0 days 0 hours 0 minutes 7 seconds 887 msec
