                         Program Version 3.0.3 - RELEASE   -
|  1> ! RI PBE def2-SVP def2-SVP/J NBO PAL2
|  2> % maxcore 2000
|  3> % output
|  4>     # printlevel mini
|  5>     print[ P_Basis ] 0
|  6>     print[ P_SCFInfo ] 1
|  7>     print[ P_SCFIterInfo ] 1
|  8>     print[ P_OrbEn ] 0
|  9>     print[ P_Cartesian ] 0
| 10> end
| 11> *xyz 0 1
| 12>  C        1.2750850000     0.1057780000    -0.6981810000
| 13>  C        2.7879640000     0.0226210000    -0.5727530000
| 14>  C        3.3149120000    -1.3293170000    -0.0919910000
| 15>  C        2.9161500000    -2.4961040000    -0.9950480000
| 16>  N        3.4793980000    -2.3602750000    -2.3410360000
| 17>  C        4.8280690000    -1.2936200000     0.1225310000
| 18>  O        5.5574700000    -0.9912530000    -1.0407310000
| 19>  H        0.9602910000     1.1160480000    -0.9693670000
| 20>  H        0.7831350000    -0.1514140000     0.2445190000
| 21>  H        0.8840480000    -0.5700290000    -1.4639390000
| 22>  H        3.1327090000     0.7853590000     0.1335050000
| 23>  H        3.2633490000     0.2812460000    -1.5239110000
| 24>  H        2.8650960000    -1.5361750000     0.8892950000
| 25>  H        1.8233690000    -2.6094810000    -1.0011580000
| 26>  H        3.3225390000    -3.4162110000    -0.5640340000
| 27>  H        3.0003200000    -1.6338870000    -2.8597680000
| 28>  H        3.3671590000    -3.2186620000    -2.8646590000
| 29>  H        5.1463530000    -2.2606660000     0.5459650000
| 30>  H        5.0735520000    -0.5247440000     0.8627660000
| 31>  H        5.1546420000    -1.5253150000    -1.7477150000
| 32> *
| 33>
| 34>                          ****END OF INPUT****
 Total Charge           Charge          ....    0
 Multiplicity           Mult            ....    1
 Number of Electrons    NEL             ....   58
 Basis Dimension        Dim             ....  163

MULLIKEN ATOMIC CHARGES
-----------------------
   0 C :   -0.000790
   1 C :   -0.015315
   2 C :   -0.175191
   3 C :    0.091886
   4 N :   -0.224362
   5 C :    0.249325
   6 O :   -0.302680
   7 H :    0.019428
   8 H :    0.016695
   9 H :    0.011871
  10 H :    0.011656
  11 H :    0.002686
  12 H :   -0.002757
  13 H :    0.007975
  14 H :    0.001471
  15 H :    0.104828
  16 H :    0.105656
  17 H :   -0.025463
  18 H :   -0.006516
  19 H :    0.129597
Sum of atomic charges:   -0.0000000

LOEWDIN ATOMIC CHARGES
----------------------
   0 C :   -0.068221
   1 C :   -0.045281
   2 C :   -0.071543
   3 C :    0.010563
   4 N :   -0.073413
   5 C :    0.062686
   6 O :   -0.138152
   7 H :    0.028569
   8 H :    0.024817
   9 H :    0.018255
  10 H :    0.029221
  11 H :    0.018183
  12 H :    0.028458
  13 H :    0.004469
  14 H :    0.021983
  15 H :    0.056850
  16 H :    0.060311
  17 H :   -0.004089
  18 H :    0.013096
  19 H :    0.023238

  Mayer bond orders larger than 0.1
B(  0-C ,  1-C ) :   1.1114 B(  0-C ,  7-H ) :   0.9586 B(  0-C ,  8-H ) :   0.9610
B(  0-C ,  9-H ) :   0.9601 B(  1-C ,  2-C ) :   1.0482 B(  1-C , 10-H ) :   0.9349
B(  1-C , 11-H ) :   0.9251 B(  2-C ,  3-C ) :   1.0534 B(  2-C ,  5-C ) :   1.0473
B(  2-C , 12-H ) :   0.8871 B(  3-C ,  4-N ) :   1.0603 B(  3-C , 13-H ) :   0.9329
B(  3-C , 14-H ) :   0.9309 B(  4-N , 15-H ) :   0.9617 B(  4-N , 16-H ) :   0.9600
B(  4-N , 19-H ) :   0.1575 B(  5-C ,  6-O ) :   1.0934 B(  5-C , 17-H ) :   0.9242
B(  5-C , 18-H ) :   0.9319 B(  6-O , 19-H ) :   0.9342

FINAL SINGLE POINT ENERGY      -327.658030544027

DIPOLE MOMENT
-------------
                                X             Y             Z
Electronic contribution:      4.84116      -0.93285      -0.85697
Nuclear contribution   :     -5.95674       0.36529       0.55709
                        -----------------------------------------
Total Dipole Moment    :     -1.11558      -0.56756      -0.29988
                        -----------------------------------------
Magnitude (a.u.)       :      1.28708
Magnitude (Debye)      :      3.27150

                             ****ORCA TERMINATED NORMALLY****
TOTAL RUN TIME: 0 days 0 hours 0 minutes 9 seconds 37 msec
