                         Program Version 3.0.3 - RELEASE   -
|  1> ! RI PBE def2-SVP def2-SVP/J NBO PAL2
|  2> % maxcore 2000
|  3> % output
|  4>     # printlevel mini
|  5>     print[ P_Basis ] 0
|  6>     print[ P_SCFInfo ] 1
|  7>     print[ P_SCFIterInfo ] 1
|  8>     print[ P_OrbEn ] 0
|  9>     print[ P_Cartesian ] 0
| 10> end
| 11> *xyz 0 1
| 12>  C        1.8916010000    -0.0720310000     2.3701980000
| 13>  C        2.4665090000     0.1861880000     0.9859490000
| 14>  C        3.9893930000     0.0519860000     0.8877660000
| 15>  C        4.5747680000    -1.3094180000     0.4980980000
| 16>  N        6.0256630000    -1.2689970000     0.3367290000
| 17>  C        4.2616590000    -2.4564870000     1.4552200000
| 18>  O        2.9274250000    -2.9147290000     1.3947240000
| 19>  H        0.8114910000     0.0954000000     2.3814470000
| 20>  H        2.3363140000     0.6038970000     3.1068680000
| 21>  H        2.0674590000    -1.0988540000     2.6912720000
| 22>  H        2.1918860000     1.2012460000     0.6810150000
| 23>  H        1.9924970000    -0.4840770000     0.2614230000
| 24>  H        4.3574120000     0.7644160000     0.1400710000
| 25>  H        4.4445540000     0.3596400000     1.8392980000
| 26>  H        4.1579460000    -1.5928280000    -0.4794480000
| 27>  H        6.4632010000    -1.0334890000     1.2220610000
| 28>  H        6.2830050000    -0.5294720000    -0.3065790000
| 29>  H        4.4239630000    -2.1366080000     2.4900820000
| 30>  H        4.9681110000    -3.2686680000     1.2462840000
| 31>  H        2.7968530000    -3.3401370000     0.5439320000
| 32> *
| 33>
| 34>                          ****END OF INPUT****
 Total Charge           Charge          ....    0
 Multiplicity           Mult            ....    1
 Number of Electrons    NEL             ....   58
 Basis Dimension        Dim             ....  163

MULLIKEN ATOMIC CHARGES
-----------------------
   0 C :   -0.040731
   1 C :   -0.009498
   2 C :    0.013163
   3 C :   -0.073561
   4 N :   -0.172065
   5 C :    0.193630
   6 O :   -0.271689
   7 H :    0.016871
   8 H :    0.010810
   9 H :    0.037483
  10 H :   -0.002845
  11 H :    0.000162
  12 H :   -0.004465
  13 H :   -0.012523
  14 H :   -0.014867
  15 H :    0.084201
  16 H :    0.082771
  17 H :    0.000149
  18 H :    0.007607
  19 H :    0.155397
Sum of atomic charges:    0.0000000

LOEWDIN ATOMIC CHARGES
----------------------
   0 C :   -0.073125
   1 C :   -0.048625
   2 C :   -0.056320
   3 C :   -0.022426
   4 N :   -0.092746
   5 C :    0.050092
   6 O :   -0.109784
   7 H :    0.025680
   8 H :    0.019640
   9 H :    0.025036
  10 H :    0.021547
  11 H :    0.019661
  12 H :    0.019725
  13 H :    0.016870
  14 H :    0.014697
  15 H :    0.049175
  16 H :    0.049277
  17 H :    0.015818
  18 H :    0.007148
  19 H :    0.068659

  Mayer bond orders larger than 0.1
B(  0-C ,  1-C ) :   1.1187 B(  0-C ,  7-H ) :   0.9594 B(  0-C ,  8-H ) :   0.9610
B(  0-C ,  9-H ) :   0.9578 B(  1-C ,  2-C ) :   1.0729 B(  1-C , 10-H ) :   0.9317
B(  1-C , 11-H ) :   0.9338 B(  2-C ,  3-C ) :   1.0522 B(  2-C , 12-H ) :   0.9273
B(  2-C , 13-H ) :   0.9212 B(  3-C ,  4-N ) :   1.0804 B(  3-C ,  5-C ) :   1.0174
B(  3-C , 14-H ) :   0.8967 B(  4-N , 15-H ) :   0.9686 B(  4-N , 16-H ) :   0.9659
B(  5-C ,  6-O ) :   1.0562 B(  5-C , 17-H ) :   0.9276 B(  5-C , 18-H ) :   0.9371
B(  6-O , 19-H ) :   0.9805

FINAL SINGLE POINT ENERGY      -327.647763176579

DIPOLE MOMENT
-------------
                                X             Y             Z
Electronic contribution:      1.43916      -3.85414      -1.31524
Nuclear contribution   :     -1.17998       4.13255       0.95885
                        -----------------------------------------
Total Dipole Moment    :      0.25918       0.27840      -0.35639
                        -----------------------------------------
Magnitude (a.u.)       :      0.52124
Magnitude (Debye)      :      1.32490

                             ****ORCA TERMINATED NORMALLY****
TOTAL RUN TIME: 0 days 0 hours 0 minutes 8 seconds 187 msec
