                         Program Version 3.0.3 - RELEASE   -
|  1> ! RI PBE def2-SVP def2-SVP/J NBO PAL2
|  2> % maxcore 2000
|  3> % output
|  4>     # printlevel mini
|  5>     print[ P_Basis ] 0
|  6>     print[ P_SCFInfo ] 1
|  7>     print[ P_SCFIterInfo ] 1
|  8>     print[ P_OrbEn ] 0
|  9>     print[ P_Cartesian ] 0
| 10> end
| 11> *xyz 0 1
| 12>  C        0.6754300000    -0.7493750000     0.0870260000
| 13>  C        2.1590680000    -0.4871270000    -0.1100040000
| 14>  C        2.7236810000     0.4971710000     0.9013130000
| 15>  C        4.2115970000     0.7751120000     0.7346020000
| 16>  N        4.5501510000     1.4141020000    -0.5193320000
| 17>  C        4.6045410000     2.7552940000    -0.6618070000
| 18>  O        4.4003190000     3.5587820000     0.2193350000
| 19>  H        0.2908390000    -1.4576330000    -0.6503050000
| 20>  H        0.0980480000     0.1744170000    -0.0063170000
| 21>  H        0.4762310000    -1.1620150000     1.0799290000
| 22>  H        2.3253160000    -0.1046170000    -1.1235030000
| 23>  H        2.7115140000    -1.4326790000    -0.0428860000
| 24>  H        2.5628790000     0.1112020000     1.9146460000
| 25>  H        2.1824720000     1.4472420000     0.8420190000
| 26>  H        4.7817490000    -0.1562790000     0.8064070000
| 27>  H        4.5551880000     1.4382240000     1.5302230000
| 28>  H        4.7130110000     0.8505000000    -1.3352690000
| 29>  H        4.8708660000     3.0565880000    -1.6931770000
| 30> *
| 31>
| 32>                          ****END OF INPUT****
 Total Charge           Charge          ....    0
 Multiplicity           Mult            ....    1
 Number of Electrons    NEL             ....   56
 Basis Dimension        Dim             ....  153

MULLIKEN ATOMIC CHARGES
-----------------------
   0 C :   -0.007639
   1 C :   -0.060062
   2 C :   -0.021854
   3 C :    0.123423
   4 N :   -0.148620
   5 C :    0.130757
   6 O :   -0.241122
   7 H :    0.022112
   8 H :    0.021263
   9 H :    0.018999
  10 H :   -0.001385
  11 H :    0.004624
  12 H :    0.010091
  13 H :    0.026139
  14 H :    0.004126
  15 H :    0.030103
  16 H :    0.115713
  17 H :   -0.026669
Sum of atomic charges:    0.0000000

LOEWDIN ATOMIC CHARGES
----------------------
   0 C :   -0.064944
   1 C :   -0.052236
   2 C :   -0.049192
   3 C :    0.025909
   4 N :    0.002499
   5 C :    0.046030
   6 O :   -0.190038
   7 H :    0.026915
   8 H :    0.026878
   9 H :    0.025213
  10 H :    0.015712
  11 H :    0.020316
  12 H :    0.027625
  13 H :    0.030832
  14 H :    0.022368
  15 H :    0.032769
  16 H :    0.071038
  17 H :   -0.017694

  Mayer bond orders larger than 0.1
B(  0-C ,  1-C ) :   1.1232 B(  0-C ,  7-H ) :   0.9624 B(  0-C ,  8-H ) :   0.9642
B(  0-C ,  9-H ) :   0.9667 B(  1-C ,  2-C ) :   1.0884 B(  1-C , 10-H ) :   0.9337
B(  1-C , 11-H ) :   0.9385 B(  2-C ,  3-C ) :   1.0908 B(  2-C , 12-H ) :   0.9304
B(  2-C , 13-H ) :   0.9322 B(  3-C ,  4-N ) :   0.9981 B(  3-C , 14-H ) :   0.9343
B(  3-C , 15-H ) :   0.9236 B(  4-N ,  5-C ) :   1.2284 B(  4-N ,  6-O ) :   0.1007
B(  4-N , 16-H ) :   0.9291 B(  5-C ,  6-O ) :   2.0033 B(  5-C , 17-H ) :   0.9229

FINAL SINGLE POINT ENERGY      -326.488370736771

DIPOLE MOMENT
-------------
                                X             Y             Z
Electronic contribution:      6.61402       7.60334      -0.88896
Nuclear contribution   :     -6.57853      -8.90293       0.32128
                        -----------------------------------------
Total Dipole Moment    :      0.03550      -1.29959      -0.56768
                        -----------------------------------------
Magnitude (a.u.)       :      1.41860
Magnitude (Debye)      :      3.60580

                             ****ORCA TERMINATED NORMALLY****
TOTAL RUN TIME: 0 days 0 hours 0 minutes 8 seconds 232 msec
