                         Program Version 3.0.3 - RELEASE   -
|  1> ! RI PBE def2-SVP def2-SVP/J NBO PAL2
|  2> % maxcore 2000
|  3> % output
|  4>     # printlevel mini
|  5>     print[ P_Basis ] 0
|  6>     print[ P_SCFInfo ] 1
|  7>     print[ P_SCFIterInfo ] 1
|  8>     print[ P_OrbEn ] 0
|  9>     print[ P_Cartesian ] 0
| 10> end
| 11> *xyz 0 1
| 12>  C        0.5893080000    -0.4885020000     0.3852430000
| 13>  C        1.9286060000    -0.4345550000    -0.2566210000
| 14>  C        3.0869530000    -0.4665000000     0.3998370000
| 15>  C        4.4074110000    -0.4278250000    -0.2391020000
| 16>  N        5.4925810000    -0.9363400000     0.2107720000
| 17>  N        4.4695530000     0.1879350000    -1.4679040000
| 18>  O        5.7600970000     0.3069050000    -1.9633520000
| 19>  H       -0.0000040000     0.3972470000     0.1274240000
| 20>  H        0.6620170000    -0.5492280000     1.4722850000
| 21>  H        0.0215980000    -1.3525740000     0.0261500000
| 22>  H        1.9505320000    -0.3863890000    -1.3432850000
| 23>  H        3.0979930000    -0.5589390000     1.4829370000
| 24>  H        5.3559860000    -1.4314560000     1.0833300000
| 25>  H        4.0055560000     1.0856610000    -1.5126700000
| 26>  H        6.2803130000    -0.1339490000    -1.2520550000
| 27> *
| 28>
| 29>                          ****END OF INPUT****
 Total Charge           Charge          ....    0
 Multiplicity           Mult            ....    1
 Number of Electrons    NEL             ....   54
 Basis Dimension        Dim             ....  138

MULLIKEN ATOMIC CHARGES
-----------------------
   0 C :    0.026317
   1 C :   -0.105209
   2 C :   -0.001173
   3 C :   -0.048052
   4 N :   -0.168283
   5 N :    0.004882
   6 O :   -0.224948
   7 H :    0.045221
   8 H :    0.029269
   9 H :    0.046375
  10 H :    0.019935
  11 H :   -0.007340
  12 H :    0.088831
  13 H :    0.134973
  14 H :    0.159201
Sum of atomic charges:   -0.0000000

LOEWDIN ATOMIC CHARGES
----------------------
   0 C :   -0.064937
   1 C :   -0.013539
   2 C :   -0.071736
   3 C :   -0.019132
   4 N :   -0.167502
   5 N :    0.080298
   6 O :   -0.089322
   7 H :    0.043404
   8 H :    0.033914
   9 H :    0.044021
  10 H :    0.028611
  11 H :    0.030729
  12 H :    0.051594
  13 H :    0.070933
  14 H :    0.042663

  Mayer bond orders larger than 0.1
B(  0-C ,  1-C ) :   1.0860 B(  0-C ,  7-H ) :   0.9427 B(  0-C ,  8-H ) :   0.9601
B(  0-C ,  9-H ) :   0.9423 B(  1-C ,  2-C ) :   1.8290 B(  1-C , 10-H ) :   0.9548
B(  2-C ,  3-C ) :   1.0458 B(  2-C , 11-H ) :   0.9490 B(  3-C ,  4-N ) :   1.7804
B(  3-C ,  5-N ) :   1.1700 B(  4-N , 12-H ) :   0.9261 B(  4-N , 14-H ) :   0.1529
B(  5-N ,  6-O ) :   1.0212 B(  5-N , 13-H ) :   0.9226 B(  6-O , 14-H ) :   0.9060

FINAL SINGLE POINT ENERGY      -341.227785481155

DIPOLE MOMENT
-------------
                                X             Y             Z
Electronic contribution:      6.68321       0.66198      -2.71334
Nuclear contribution   :     -7.90231      -0.46480       3.46251
                        -----------------------------------------
Total Dipole Moment    :     -1.21909       0.19718       0.74918
                        -----------------------------------------
Magnitude (a.u.)       :      1.44442
Magnitude (Debye)      :      3.67141

                             ****ORCA TERMINATED NORMALLY****
TOTAL RUN TIME: 0 days 0 hours 0 minutes 7 seconds 237 msec
