                         Program Version 3.0.3 - RELEASE   -
|  1> ! RI PBE def2-SVP def2-SVP/J NBO PAL2
|  2> % maxcore 2000
|  3> % output
|  4>     # printlevel mini
|  5>     print[ P_Basis ] 0
|  6>     print[ P_SCFInfo ] 1
|  7>     print[ P_SCFIterInfo ] 1
|  8>     print[ P_OrbEn ] 0
|  9>     print[ P_Cartesian ] 0
| 10> end
| 11> *xyz 0 1
| 12>  C        0.7850390000    -0.9823970000     0.3293230000
| 13>  C        1.9853300000    -0.1049000000     0.1661080000
| 14>  C        3.0146020000    -0.1214310000     1.0115950000
| 15>  C        1.9973730000     0.7869720000    -1.0173760000
| 16>  N        1.4426120000     0.5841090000    -2.1524820000
| 17>  N        2.7114520000     1.9510130000    -0.8764480000
| 18>  O        2.5793010000     2.8214390000    -1.9462060000
| 19>  H        0.8424270000    -1.5443390000     1.2615430000
| 20>  H        0.7083430000    -1.7052640000    -0.4889330000
| 21>  H       -0.1383880000    -0.3973380000     0.3265020000
| 22>  H        3.0087880000    -0.7662640000     1.8831850000
| 23>  H        3.8958230000     0.4851900000     0.8423570000
| 24>  H        0.9896000000    -0.3181630000    -2.2156010000
| 25>  H        2.5634230000     2.4459840000    -0.0074880000
| 26>  H        1.9978750000     2.2992890000    -2.5466790000
| 27> *
| 28>
| 29>                          ****END OF INPUT****
 Total Charge           Charge          ....    0
 Multiplicity           Mult            ....    1
 Number of Electrons    NEL             ....   54
 Basis Dimension        Dim             ....  138

MULLIKEN ATOMIC CHARGES
-----------------------
   0 C :    0.051103
   1 C :   -0.153047
   2 C :   -0.018972
   3 C :   -0.052524
   4 N :   -0.150590
   5 N :    0.013038
   6 O :   -0.221788
   7 H :    0.018910
   8 H :    0.044955
   9 H :    0.041602
  10 H :    0.017919
  11 H :    0.028595
  12 H :    0.083521
  13 H :    0.137096
  14 H :    0.160183
Sum of atomic charges:   -0.0000000

LOEWDIN ATOMIC CHARGES
----------------------
   0 C :   -0.053780
   1 C :   -0.057349
   2 C :   -0.044798
   3 C :   -0.012753
   4 N :   -0.164660
   5 N :    0.088100
   6 O :   -0.086218
   7 H :    0.036288
   8 H :    0.038647
   9 H :    0.040233
  10 H :    0.024803
  11 H :    0.026075
  12 H :    0.048732
  13 H :    0.073075
  14 H :    0.043605

  Mayer bond orders larger than 0.1
B(  0-C ,  1-C ) :   1.0742 B(  0-C ,  7-H ) :   0.9420 B(  0-C ,  8-H ) :   0.9390
B(  0-C ,  9-H ) :   0.9513 B(  1-C ,  2-C ) :   1.9593 B(  1-C ,  3-C ) :   0.9804
B(  2-C , 10-H ) :   0.9268 B(  2-C , 11-H ) :   0.9290 B(  3-C ,  4-N ) :   1.8244
B(  3-C ,  5-N ) :   1.1745 B(  4-N ,  5-N ) :   0.1001 B(  4-N , 12-H ) :   0.9257
B(  4-N , 14-H ) :   0.1505 B(  5-N ,  6-O ) :   1.0214 B(  5-N , 13-H ) :   0.9223
B(  6-O , 14-H ) :   0.9049

FINAL SINGLE POINT ENERGY      -341.225823413627

DIPOLE MOMENT
-------------
                                X             Y             Z
Electronic contribution:      2.02137       4.51199      -3.27847
Nuclear contribution   :     -2.49206      -5.19943       4.23066
                        -----------------------------------------
Total Dipole Moment    :     -0.47070      -0.68743       0.95219
                        -----------------------------------------
Magnitude (a.u.)       :      1.26522
Magnitude (Debye)      :      3.21594

                             ****ORCA TERMINATED NORMALLY****
TOTAL RUN TIME: 0 days 0 hours 0 minutes 6 seconds 768 msec
