                         Program Version 3.0.3 - RELEASE   -
|  1> ! RI PBE def2-SVP def2-SVP/J NBO PAL2
|  2> % maxcore 2000
|  3> % output
|  4>     # printlevel mini
|  5>     print[ P_Basis ] 0
|  6>     print[ P_SCFInfo ] 1
|  7>     print[ P_SCFIterInfo ] 1
|  8>     print[ P_OrbEn ] 0
|  9>     print[ P_Cartesian ] 0
| 10> end
| 11> *xyz 0 1
| 12>  C        1.1121780000     0.1090810000    -0.0734340000
| 13>  C        2.6065200000     0.1227220000     0.1403040000
| 14>  C        3.2736740000    -1.1583590000     0.1847820000
| 15>  C        4.5898100000    -1.4179210000     0.3628670000
| 16>  N        5.1255770000    -2.6608710000     0.3901530000
| 17>  N        3.0857930000     1.3082470000     0.2561530000
| 18>  O        4.4671880000     1.3312250000     0.4548780000
| 19>  H        0.7363290000    -0.9095910000    -0.1677140000
| 20>  H        0.8479110000     0.6572850000    -0.9793210000
| 21>  H        0.5993680000     0.5877370000     0.7625830000
| 22>  H        2.6164370000    -2.0155150000     0.0566490000
| 23>  H        5.2977910000    -0.6132440000     0.4962210000
| 24>  H        4.5540060000    -3.4776440000     0.2758490000
| 25>  H        6.1078900000    -2.7927870000     0.5254490000
| 26>  H        4.6441280000     2.2726460000     0.5175910000
| 27> *
| 28>
| 29>                          ****END OF INPUT****
 Total Charge           Charge          ....    0
 Multiplicity           Mult            ....    1
 Number of Electrons    NEL             ....   54
 Basis Dimension        Dim             ....  138

MULLIKEN ATOMIC CHARGES
-----------------------
   0 C :    0.061013
   1 C :   -0.145643
   2 C :   -0.034844
   3 C :    0.025014
   4 N :   -0.061310
   5 N :   -0.083233
   6 O :   -0.183176
   7 H :   -0.001806
   8 H :    0.034500
   9 H :    0.036274
  10 H :   -0.049769
  11 H :    0.013866
  12 H :    0.106978
  13 H :    0.117959
  14 H :    0.164176
Sum of atomic charges:   -0.0000000

LOEWDIN ATOMIC CHARGES
----------------------
   0 C :   -0.056413
   1 C :   -0.062909
   2 C :   -0.153437
   3 C :    0.026429
   4 N :    0.024543
   5 N :   -0.069020
   6 O :   -0.061079
   7 H :    0.024075
   8 H :    0.037010
   9 H :    0.037280
  10 H :    0.017039
  11 H :    0.023439
  12 H :    0.070553
  13 H :    0.073562
  14 H :    0.068926

  Mayer bond orders larger than 0.1
B(  0-C ,  1-C ) :   1.0667 B(  0-C ,  7-H ) :   0.9509 B(  0-C ,  8-H ) :   0.9549
B(  0-C ,  9-H ) :   0.9550 B(  1-C ,  2-C ) :   1.1726 B(  1-C ,  5-N ) :   1.7921
B(  2-C ,  3-C ) :   1.6213 B(  2-C , 10-H ) :   0.9289 B(  3-C ,  4-N ) :   1.2784
B(  3-C , 11-H ) :   0.9335 B(  4-N , 12-H ) :   0.9553 B(  4-N , 13-H ) :   0.9572
B(  5-N ,  6-O ) :   0.9686 B(  6-O , 14-H ) :   0.9746

FINAL SINGLE POINT ENERGY      -341.235124400639

DIPOLE MOMENT
-------------
                                X             Y             Z
Electronic contribution:      3.30200       2.46347       0.56939
Nuclear contribution   :     -2.47366      -3.47166      -0.49073
                        -----------------------------------------
Total Dipole Moment    :      0.82833      -1.00819       0.07866
                        -----------------------------------------
Magnitude (a.u.)       :      1.30720
Magnitude (Debye)      :      3.32264

                             ****ORCA TERMINATED NORMALLY****
TOTAL RUN TIME: 0 days 0 hours 0 minutes 7 seconds 28 msec
