                         Program Version 3.0.3 - RELEASE   -
|  1> ! RI PBE def2-SVP def2-SVP/J NBO PAL2
|  2> % maxcore 2000
|  3> % output
|  4>     # printlevel mini
|  5>     print[ P_Basis ] 0
|  6>     print[ P_SCFInfo ] 1
|  7>     print[ P_SCFIterInfo ] 1
|  8>     print[ P_OrbEn ] 0
|  9>     print[ P_Cartesian ] 0
| 10> end
| 11> *xyz 0 1
| 12>  C        0.9836370000     0.2557770000    -0.0978400000
| 13>  C        2.4777260000    -0.0313130000     0.0296900000
| 14>  C        3.0300750000     0.4467150000     1.3667990000
| 15>  C        2.7465490000    -1.5019840000    -0.1808640000
| 16>  N        2.4467560000    -2.4793920000     0.5847810000
| 17>  N        3.3241820000    -1.8134690000    -1.3815500000
| 18>  O        3.7028880000    -3.1409810000    -1.5065870000
| 19>  H        0.7924480000     1.3265560000     0.0039760000
| 20>  H        0.4206980000    -0.2617550000     0.6829440000
| 21>  H        0.5991320000    -0.0726420000    -1.0650100000
| 22>  H        2.9919880000     0.5116150000    -0.7728450000
| 23>  H        2.5323730000    -0.0546100000     2.2007400000
| 24>  H        2.8643490000     1.5201620000     1.4816120000
| 25>  H        4.1015030000     0.2543970000     1.4530140000
| 26>  H        1.9656920000    -2.1888590000     1.4270610000
| 27>  H        4.0737200000    -1.2088100000    -1.6884300000
| 28>  H        3.3747930000    -3.5087970000    -0.6535820000
| 29> *
| 30>
| 31>                          ****END OF INPUT****
 Total Charge           Charge          ....    0
 Multiplicity           Mult            ....    1
 Number of Electrons    NEL             ....   56
 Basis Dimension        Dim             ....  148

MULLIKEN ATOMIC CHARGES
-----------------------
   0 C :    0.038901
   1 C :   -0.093733
   2 C :    0.016789
   3 C :   -0.107922
   4 N :   -0.160068
   5 N :    0.019923
   6 O :   -0.227229
   7 H :    0.023698
   8 H :    0.017538
   9 H :    0.028864
  10 H :   -0.010885
  11 H :    0.015570
  12 H :    0.026450
  13 H :    0.030538
  14 H :    0.085273
  15 H :    0.133507
  16 H :    0.162786
Sum of atomic charges:   -0.0000000

LOEWDIN ATOMIC CHARGES
----------------------
   0 C :   -0.047374
   1 C :   -0.062264
   2 C :   -0.054778
   3 C :   -0.007905
   4 N :   -0.178726
   5 N :    0.082885
   6 O :   -0.092005
   7 H :    0.027783
   8 H :    0.025045
   9 H :    0.032215
  10 H :    0.026903
  11 H :    0.023905
  12 H :    0.030237
  13 H :    0.030728
  14 H :    0.047592
  15 H :    0.070437
  16 H :    0.045320

  Mayer bond orders larger than 0.1
B(  0-C ,  1-C ) :   1.0773 B(  0-C ,  7-H ) :   0.9612 B(  0-C ,  8-H ) :   0.9603
B(  0-C ,  9-H ) :   0.9574 B(  1-C ,  2-C ) :   1.0753 B(  1-C ,  3-C ) :   0.9924
B(  1-C , 10-H ) :   0.8849 B(  2-C , 11-H ) :   0.9557 B(  2-C , 12-H ) :   0.9583
B(  2-C , 13-H ) :   0.9618 B(  3-C ,  4-N ) :   1.8445 B(  3-C ,  5-N ) :   1.1841
B(  4-N ,  5-N ) :   0.1022 B(  4-N , 14-H ) :   0.9282 B(  4-N , 16-H ) :   0.1477
B(  5-N ,  6-O ) :   1.0193 B(  5-N , 15-H ) :   0.9226 B(  6-O , 16-H ) :   0.9083

FINAL SINGLE POINT ENERGY      -342.443175686886

DIPOLE MOMENT
-------------
                                X             Y             Z
Electronic contribution:      3.01206      -6.68992      -4.15237
Nuclear contribution   :     -2.98700       7.90294       4.57955
                        -----------------------------------------
Total Dipole Moment    :      0.02506       1.21302       0.42718
                        -----------------------------------------
Magnitude (a.u.)       :      1.28629
Magnitude (Debye)      :      3.26948

                             ****ORCA TERMINATED NORMALLY****
TOTAL RUN TIME: 0 days 0 hours 0 minutes 7 seconds 810 msec
