                         Program Version 3.0.3 - RELEASE   -
|  1> ! RI PBE def2-SVP def2-SVP/J NBO PAL2
|  2> % maxcore 2000
|  3> % output
|  4>     # printlevel mini
|  5>     print[ P_Basis ] 0
|  6>     print[ P_SCFInfo ] 1
|  7>     print[ P_SCFIterInfo ] 1
|  8>     print[ P_OrbEn ] 0
|  9>     print[ P_Cartesian ] 0
| 10> end
| 11> *xyz 0 1
| 12>  C        1.2871580000    -0.2662140000    -0.2290140000
| 13>  C        2.7398820000     0.0483310000    -0.1870980000
| 14>  C        3.6333620000    -0.5153470000     0.8932100000
| 15>  C        2.9506550000    -1.3655380000     1.8509220000
| 16>  N        2.4120540000    -2.0390840000     2.6105990000
| 17>  N        3.2132900000     0.8081750000    -1.0887600000
| 18>  O        4.5746380000     1.0170450000    -0.9297370000
| 19>  H        0.7938820000     0.0547370000     0.6927770000
| 20>  H        1.1259130000    -1.3446550000    -0.3127290000
| 21>  H        0.8268160000     0.2350420000    -1.0786980000
| 22>  H        4.1188300000     0.3090970000     1.4259240000
| 23>  H        4.4488390000    -1.0794350000     0.4285170000
| 24>  H        4.7902000000     1.5964450000    -1.6655140000
| 25> *
| 26>
| 27>                          ****END OF INPUT****
 Total Charge           Charge          ....    0
 Multiplicity           Mult            ....    1
 Number of Electrons    NEL             ....   52
 Basis Dimension        Dim             ....  128

MULLIKEN ATOMIC CHARGES
-----------------------
   0 C :    0.107575
   1 C :   -0.297371
   2 C :    0.181718
   3 C :   -0.302790
   4 N :    0.060072
   5 N :   -0.023579
   6 O :   -0.179198
   7 H :    0.048576
   8 H :    0.048706
   9 H :    0.032772
  10 H :    0.073300
  11 H :    0.073999
  12 H :    0.176219
Sum of atomic charges:   -0.0000000

LOEWDIN ATOMIC CHARGES
----------------------
   0 C :   -0.055944
   1 C :   -0.051119
   2 C :   -0.069220
   3 C :   -0.045914
   4 N :   -0.064236
   5 N :   -0.021321
   6 O :   -0.052985
   7 H :    0.046720
   8 H :    0.046592
   9 H :    0.041461
  10 H :    0.073158
  11 H :    0.073038
  12 H :    0.079771

  Mayer bond orders larger than 0.1
B(  0-C ,  1-C ) :   1.1273 B(  0-C ,  7-H ) :   0.9310 B(  0-C ,  8-H ) :   0.9310
B(  0-C ,  9-H ) :   0.9395 B(  1-C ,  2-C ) :   0.9569 B(  1-C ,  5-N ) :   1.9274
B(  2-C ,  3-C ) :   1.0968 B(  2-C , 10-H ) :   0.8700 B(  2-C , 11-H ) :   0.8728
B(  3-C ,  4-N ) :   3.0388 B(  5-N ,  6-O ) :   1.0066 B(  6-O , 12-H ) :   0.9713

FINAL SINGLE POINT ENERGY      -340.034217037014

DIPOLE MOMENT
-------------
                                X             Y             Z
Electronic contribution:      2.42367      -0.50082       1.49965
Nuclear contribution   :     -1.83501       1.31585      -2.43701
                        -----------------------------------------
Total Dipole Moment    :      0.58866       0.81503      -0.93736
                        -----------------------------------------
Magnitude (a.u.)       :      1.37457
Magnitude (Debye)      :      3.49387

                             ****ORCA TERMINATED NORMALLY****
TOTAL RUN TIME: 0 days 0 hours 0 minutes 5 seconds 663 msec
