                         Program Version 3.0.3 - RELEASE   -
|  1> ! RI PBE def2-SVP def2-SVP/J NBO PAL2
|  2> % maxcore 2000
|  3> % output
|  4>     # printlevel mini
|  5>     print[ P_Basis ] 0
|  6>     print[ P_SCFInfo ] 1
|  7>     print[ P_SCFIterInfo ] 1
|  8>     print[ P_OrbEn ] 0
|  9>     print[ P_Cartesian ] 0
| 10> end
| 11> *xyz 0 1
| 12>  C        0.9844770000    -0.5813870000     1.3266850000
| 13>  C        1.6053380000     0.3359860000     0.3273320000
| 14>  C        2.8657670000     1.0594140000     0.6888810000
| 15>  C        2.5913870000     2.4613830000     1.2267430000
| 16>  N        3.8421670000     3.0940340000     1.6156980000
| 17>  N        0.9980560000     0.4553780000    -0.7849250000
| 18>  O        1.6423490000     1.3358230000    -1.6502090000
| 19>  H        1.6632760000    -1.4077410000     1.5590670000
| 20>  H        0.0466370000    -0.9857190000     0.9477890000
| 21>  H        0.7929150000    -0.0534250000     2.2661710000
| 22>  H        3.5019870000     1.1371500000    -0.1971190000
| 23>  H        3.4115340000     0.4958530000     1.4497100000
| 24>  H        1.9606050000     2.3891770000     2.1186570000
| 25>  H        2.0198990000     3.0195540000     0.4726140000
| 26>  H        4.4187410000     3.2564440000     0.7982210000
| 27>  H        3.6670880000     3.9995000000     2.0331480000
| 28>  H        1.0922580000     1.2902850000    -2.4361630000
| 29> *
| 30>
| 31>                          ****END OF INPUT****
 Total Charge           Charge          ....    0
 Multiplicity           Mult            ....    1
 Number of Electrons    NEL             ....   56
 Basis Dimension        Dim             ....  148

MULLIKEN ATOMIC CHARGES
-----------------------
   0 C :    0.086855
   1 C :   -0.258334
   2 C :    0.081618
   3 C :    0.042941
   4 N :   -0.204403
   5 N :   -0.032454
   6 O :   -0.184878
   7 H :    0.032159
   8 H :    0.020841
   9 H :    0.026956
  10 H :    0.018987
  11 H :    0.004963
  12 H :    0.006220
  13 H :    0.009469
  14 H :    0.090758
  15 H :    0.088587
  16 H :    0.169715
Sum of atomic charges:   -0.0000000

LOEWDIN ATOMIC CHARGES
----------------------
   0 C :   -0.057477
   1 C :   -0.055072
   2 C :   -0.056888
   3 C :    0.013713
   4 N :   -0.113648
   5 N :   -0.033195
   6 O :   -0.062408
   7 H :    0.037640
   8 H :    0.033972
   9 H :    0.035255
  10 H :    0.030554
  11 H :    0.030154
  12 H :    0.018643
  13 H :    0.002861
  14 H :    0.051401
  15 H :    0.053154
  16 H :    0.071341

  Mayer bond orders larger than 0.1
B(  0-C ,  1-C ) :   1.0962 B(  0-C ,  7-H ) :   0.9393 B(  0-C ,  8-H ) :   0.9435
B(  0-C ,  9-H ) :   0.9424 B(  1-C ,  2-C ) :   1.0124 B(  1-C ,  5-N ) :   1.9342
B(  2-C ,  3-C ) :   1.1016 B(  2-C , 10-H ) :   0.8947 B(  2-C , 11-H ) :   0.9079
B(  3-C ,  4-N ) :   1.1008 B(  3-C , 12-H ) :   0.9329 B(  3-C , 13-H ) :   0.9307
B(  4-N , 14-H ) :   0.9692 B(  4-N , 15-H ) :   0.9632 B(  5-N ,  6-O ) :   0.9911
B(  6-O , 16-H ) :   0.9760

FINAL SINGLE POINT ENERGY      -342.435979073520

DIPOLE MOMENT
-------------
                                X             Y             Z
Electronic contribution:     -1.60539      -0.56464      -5.17887
Nuclear contribution   :      1.56709       0.97654       5.00926
                        -----------------------------------------
Total Dipole Moment    :     -0.03830       0.41190      -0.16962
                        -----------------------------------------
Magnitude (a.u.)       :      0.44710
Magnitude (Debye)      :      1.13644

                             ****ORCA TERMINATED NORMALLY****
TOTAL RUN TIME: 0 days 0 hours 0 minutes 7 seconds 931 msec
