                         Program Version 3.0.3 - RELEASE   -
|  1> ! RI PBE def2-SVP def2-SVP/J NBO PAL2
|  2> % maxcore 2000
|  3> % output
|  4>     # printlevel mini
|  5>     print[ P_Basis ] 0
|  6>     print[ P_SCFInfo ] 1
|  7>     print[ P_SCFIterInfo ] 1
|  8>     print[ P_OrbEn ] 0
|  9>     print[ P_Cartesian ] 0
| 10> end
| 11> *xyz 0 1
| 12>  C        0.8704960000    -0.0121040000     0.0161040000
| 13>  C        2.3174960000    -0.0374030000     0.0075120000
| 14>  C        3.5209480000    -0.0574070000    -0.0034530000
| 15>  C        4.9493420000    -0.1102190000    -0.0364240000
| 16>  N        5.6830890000    -0.7322410000    -0.8823800000
| 17>  N        5.5819330000     0.6194880000     0.9365040000
| 18>  O        6.9422170000     0.3785930000     1.0161190000
| 19>  H        0.4725040000    -0.8198560000     0.6353520000
| 20>  H        0.4746460000    -0.1338120000    -0.9948460000
| 21>  H        0.5010940000     0.9353330000     0.4153360000
| 22>  H        5.1365040000    -1.1922120000    -1.5986100000
| 23>  H        5.1615130000     0.5955980000     1.8552800000
| 24>  H        7.0753070000    -0.2323570000     0.2557060000
| 25> *
| 26>
| 27>                          ****END OF INPUT****
 Total Charge           Charge          ....    0
 Multiplicity           Mult            ....    1
 Number of Electrons    NEL             ....   52
 Basis Dimension        Dim             ....  128

MULLIKEN ATOMIC CHARGES
-----------------------
   0 C :    0.056485
   1 C :   -0.224008
   2 C :    0.042394
   3 C :   -0.090124
   4 N :   -0.162378
   5 N :    0.026411
   6 O :   -0.217222
   7 H :    0.059101
   8 H :    0.056722
   9 H :    0.056843
  10 H :    0.095792
  11 H :    0.136265
  12 H :    0.163718
Sum of atomic charges:   -0.0000000

LOEWDIN ATOMIC CHARGES
----------------------
   0 C :   -0.064710
   1 C :   -0.020809
   2 C :   -0.089156
   3 C :   -0.029763
   4 N :   -0.162077
   5 N :    0.095241
   6 O :   -0.079899
   7 H :    0.057119
   8 H :    0.056874
   9 H :    0.056863
  10 H :    0.057450
  11 H :    0.075735
  12 H :    0.047131

  Mayer bond orders larger than 0.1
B(  0-C ,  1-C ) :   1.1352 B(  0-C ,  7-H ) :   0.9294 B(  0-C ,  8-H ) :   0.9291
B(  0-C ,  9-H ) :   0.9288 B(  1-C ,  2-C ) :   2.5030 B(  2-C ,  3-C ) :   0.9150
B(  3-C ,  4-N ) :   1.7992 B(  3-C ,  5-N ) :   1.1741 B(  4-N ,  5-N ) :   0.1151
B(  4-N , 10-H ) :   0.9279 B(  4-N , 12-H ) :   0.1421 B(  5-N ,  6-O ) :   1.0187
B(  5-N , 11-H ) :   0.9254 B(  6-O , 12-H ) :   0.9082

FINAL SINGLE POINT ENERGY      -339.987533083561

DIPOLE MOMENT
-------------
                                X             Y             Z
Electronic contribution:      5.27157       0.58202       0.60129
Nuclear contribution   :     -6.83944      -0.84849      -0.45410
                        -----------------------------------------
Total Dipole Moment    :     -1.56787      -0.26647       0.14718
                        -----------------------------------------
Magnitude (a.u.)       :      1.59715
Magnitude (Debye)      :      4.05962

                             ****ORCA TERMINATED NORMALLY****
TOTAL RUN TIME: 0 days 0 hours 0 minutes 5 seconds 872 msec
