                         Program Version 3.0.3 - RELEASE   -
|  1> ! RI PBE def2-SVP def2-SVP/J NBO PAL2
|  2> % maxcore 2000
|  3> % output
|  4>     # printlevel mini
|  5>     print[ P_Basis ] 0
|  6>     print[ P_SCFInfo ] 1
|  7>     print[ P_SCFIterInfo ] 1
|  8>     print[ P_OrbEn ] 0
|  9>     print[ P_Cartesian ] 0
| 10> end
| 11> *xyz 0 1
| 12>  C        2.0899810000     0.6792030000     1.4651480000
| 13>  C        2.5035300000     0.0814860000     0.1241740000
| 14>  C        3.0369490000     1.0996260000    -0.8322290000
| 15>  C        2.1115900000     2.1235450000    -1.4316660000
| 16>  N        1.8019310000     1.7565710000    -2.8095300000
| 17>  N        4.2749990000     1.0262460000    -1.1125860000
| 18>  O        4.6688110000     2.0059030000    -2.0251940000
| 19>  H        1.6733470000    -0.0916330000     2.1168290000
| 20>  H        1.3302450000     1.4559180000     1.3479250000
| 21>  H        2.9488040000     1.1238380000     1.9726460000
| 22>  H        1.6403090000    -0.4024140000    -0.3474980000
| 23>  H        3.2676570000    -0.6838390000     0.2735270000
| 24>  H        2.5741680000     3.1148560000    -1.3254240000
| 25>  H        1.1789570000     2.1314590000    -0.8627540000
| 26>  H        2.6482500000     1.8178000000    -3.3628920000
| 27>  H        1.1409720000     2.4159460000    -3.2015210000
| 28>  H        5.6091010000     1.8346800000    -2.1197540000
| 29> *
| 30>
| 31>                          ****END OF INPUT****
 Total Charge           Charge          ....    0
 Multiplicity           Mult            ....    1
 Number of Electrons    NEL             ....   56
 Basis Dimension        Dim             ....  148

MULLIKEN ATOMIC CHARGES
-----------------------
   0 C :   -0.047089
   1 C :    0.060203
   2 C :   -0.237457
   3 C :    0.199720
   4 N :   -0.224245
   5 N :   -0.033844
   6 O :   -0.189389
   7 H :    0.028610
   8 H :    0.028673
   9 H :    0.030649
  10 H :    0.027160
  11 H :    0.013202
  12 H :    0.006019
  13 H :   -0.015707
  14 H :    0.093888
  15 H :    0.088034
  16 H :    0.171573
Sum of atomic charges:   -0.0000000

LOEWDIN ATOMIC CHARGES
----------------------
   0 C :   -0.064749
   1 C :   -0.040350
   2 C :   -0.049824
   3 C :   -0.001835
   4 N :   -0.107629
   5 N :   -0.027161
   6 O :   -0.063508
   7 H :    0.029927
   8 H :    0.023704
   9 H :    0.028869
  10 H :    0.036681
  11 H :    0.031907
  12 H :    0.010899
  13 H :    0.020876
  14 H :    0.047207
  15 H :    0.052271
  16 H :    0.072717

  Mayer bond orders larger than 0.1
B(  0-C ,  1-C ) :   1.1079 B(  0-C ,  7-H ) :   0.9589 B(  0-C ,  8-H ) :   0.9637
B(  0-C ,  9-H ) :   0.9632 B(  1-C ,  2-C ) :   1.0820 B(  1-C , 10-H ) :   0.9130
B(  1-C , 11-H ) :   0.9189 B(  2-C ,  3-C ) :   1.0106 B(  2-C ,  5-N ) :   1.9430
B(  3-C ,  4-N ) :   1.0995 B(  3-C , 12-H ) :   0.8950 B(  3-C , 13-H ) :   0.9078
B(  4-N , 14-H ) :   0.9625 B(  4-N , 15-H ) :   0.9629 B(  5-N ,  6-O ) :   0.9824
B(  6-O , 16-H ) :   0.9748

FINAL SINGLE POINT ENERGY      -342.433297906151

DIPOLE MOMENT
-------------
                                X             Y             Z
Electronic contribution:      5.13574       0.62288      -4.14244
Nuclear contribution   :     -5.09739      -0.15879       4.08235
                        -----------------------------------------
Total Dipole Moment    :      0.03835       0.46409      -0.06009
                        -----------------------------------------
Magnitude (a.u.)       :      0.46953
Magnitude (Debye)      :      1.19345

                             ****ORCA TERMINATED NORMALLY****
TOTAL RUN TIME: 0 days 0 hours 0 minutes 7 seconds 655 msec
