                         Program Version 3.0.3 - RELEASE   -
|  1> ! RI PBE def2-SVP def2-SVP/J NBO PAL2
|  2> % maxcore 2000
|  3> % output
|  4>     # printlevel mini
|  5>     print[ P_Basis ] 0
|  6>     print[ P_SCFInfo ] 1
|  7>     print[ P_SCFIterInfo ] 1
|  8>     print[ P_OrbEn ] 0
|  9>     print[ P_Cartesian ] 0
| 10> end
| 11> *xyz 0 1
| 12>  C        1.6296030000     0.6758690000    -0.6993690000
| 13>  C        3.0183950000     0.8272000000    -0.1041570000
| 14>  C        3.6141470000    -0.5103580000     0.3203140000
| 15>  C        4.9844210000    -0.3906910000     0.9242580000
| 16>  N        5.3530750000     0.3384440000     1.9066080000
| 17>  N        5.9325900000    -1.2082520000     0.3737300000
| 18>  O        7.2227670000    -0.9677120000     0.8177430000
| 19>  H        1.2187040000     1.6430380000    -0.9958350000
| 20>  H        0.9381790000     0.2263490000     0.0187510000
| 21>  H        1.6454730000     0.0362270000    -1.5860820000
| 22>  H        2.9775650000     1.4982880000     0.7592260000
| 23>  H        3.6861590000     1.3060140000    -0.8277300000
| 24>  H        3.6510780000    -1.1920030000    -0.5364280000
| 25>  H        2.9597140000    -0.9891660000     1.0572460000
| 26>  H        4.5912340000     0.8688060000     2.3100790000
| 27>  H        5.9213130000    -1.2984640000    -0.6328710000
| 28>  H        7.0597020000    -0.2642990000     1.4882180000
| 29> *
| 30>
| 31>                          ****END OF INPUT****
 Total Charge           Charge          ....    0
 Multiplicity           Mult            ....    1
 Number of Electrons    NEL             ....   56
 Basis Dimension        Dim             ....  148

MULLIKEN ATOMIC CHARGES
-----------------------
   0 C :   -0.008731
   1 C :   -0.074494
   2 C :    0.058442
   3 C :   -0.131942
   4 N :   -0.167816
   5 N :    0.025506
   6 O :   -0.225990
   7 H :    0.025545
   8 H :    0.023924
   9 H :    0.023559
  10 H :    0.021155
  11 H :    0.022317
  12 H :   -0.005094
  13 H :    0.038400
  14 H :    0.084697
  15 H :    0.131174
  16 H :    0.159348
Sum of atomic charges:   -0.0000000

LOEWDIN ATOMIC CHARGES
----------------------
   0 C :   -0.067425
   1 C :   -0.043006
   2 C :   -0.056873
   3 C :   -0.014888
   4 N :   -0.180283
   5 N :    0.084479
   6 O :   -0.091342
   7 H :    0.030546
   8 H :    0.027603
   9 H :    0.026873
  10 H :    0.022902
  11 H :    0.028212
  12 H :    0.027905
  13 H :    0.043000
  14 H :    0.047741
  15 H :    0.070311
  16 H :    0.044242

  Mayer bond orders larger than 0.1
B(  0-C ,  1-C ) :   1.1232 B(  0-C ,  7-H ) :   0.9583 B(  0-C ,  8-H ) :   0.9637
B(  0-C ,  9-H ) :   0.9629 B(  1-C ,  2-C ) :   1.0813 B(  1-C , 10-H ) :   0.9348
B(  1-C , 11-H ) :   0.9413 B(  2-C ,  3-C ) :   1.0298 B(  2-C , 12-H ) :   0.9098
B(  2-C , 13-H ) :   0.9059 B(  3-C ,  4-N ) :   1.8296 B(  3-C ,  5-N ) :   1.1915
B(  4-N ,  5-N ) :   0.1013 B(  4-N , 14-H ) :   0.9312 B(  4-N , 16-H ) :   0.1515
B(  5-N ,  6-O ) :   1.0187 B(  5-N , 15-H ) :   0.9245 B(  6-O , 16-H ) :   0.9080

FINAL SINGLE POINT ENERGY      -342.442709351878

DIPOLE MOMENT
-------------
                                X             Y             Z
Electronic contribution:      9.26546      -3.14070       3.05797
Nuclear contribution   :    -10.39953       3.41412      -3.71883
                        -----------------------------------------
Total Dipole Moment    :     -1.13407       0.27342      -0.66086
                        -----------------------------------------
Magnitude (a.u.)       :      1.34075
Magnitude (Debye)      :      3.40791

                             ****ORCA TERMINATED NORMALLY****
TOTAL RUN TIME: 0 days 0 hours 0 minutes 7 seconds 631 msec
