                         Program Version 3.0.3 - RELEASE   -
|  1> ! RI PBE def2-SVP def2-SVP/J NBO PAL2
|  2> % maxcore 2000
|  3> % output
|  4>     # printlevel mini
|  5>     print[ P_Basis ] 0
|  6>     print[ P_SCFInfo ] 1
|  7>     print[ P_SCFIterInfo ] 1
|  8>     print[ P_OrbEn ] 0
|  9>     print[ P_Cartesian ] 0
| 10> end
| 11> *xyz 0 1
| 12>  C        2.1839120000     0.6162130000     1.3974300000
| 13>  C        2.5818570000     0.0195920000     0.0512210000
| 14>  C        2.6361540000     1.0384730000    -1.0436110000
| 15>  C        1.3856730000     1.7246530000    -1.4901180000
| 16>  N        3.7847550000     1.2737960000    -1.5419580000
| 17>  O        3.7335030000     2.2396340000    -2.5311610000
| 18>  C        5.0284570000     2.4282860000    -3.0544050000
| 19>  H        2.1248650000    -0.1615740000     2.1617220000
| 20>  H        1.2090800000     1.1079160000     1.3502820000
| 21>  H        2.9172260000     1.3569180000     1.7239530000
| 22>  H        1.8593020000    -0.7564100000    -0.2295990000
| 23>  H        3.5615790000    -0.4566140000     0.1227100000
| 24>  H        0.5065410000     1.2975480000    -1.0076640000
| 25>  H        1.2778270000     1.6439210000    -2.5740300000
| 26>  H        1.4286000000     2.7931400000    -1.2624830000
| 27>  H        4.9334680000     3.1967760000    -3.8220190000
| 28>  H        5.4114010000     1.5061180000    -3.5013160000
| 29>  H        5.7212300000     2.7659130000    -2.2780510000
| 30> *
| 31>
| 32>                          ****END OF INPUT****
 Total Charge           Charge          ....    0
 Multiplicity           Mult            ....    1
 Number of Electrons    NEL             ....   56
 Basis Dimension        Dim             ....  153

MULLIKEN ATOMIC CHARGES
-----------------------
   0 C :   -0.048329
   1 C :    0.066429
   2 C :   -0.264108
   3 C :    0.089819
   4 N :    0.004558
   5 O :   -0.288769
   6 C :    0.162941
   7 H :    0.030889
   8 H :    0.021611
   9 H :    0.033367
  10 H :    0.019230
  11 H :    0.011001
  12 H :    0.009667
  13 H :    0.041788
  14 H :    0.044782
  15 H :    0.030226
  16 H :    0.016702
  17 H :    0.018196
Sum of atomic charges:    0.0000000

LOEWDIN ATOMIC CHARGES
----------------------
   0 C :   -0.064488
   1 C :   -0.042438
   2 C :   -0.050556
   3 C :   -0.075716
   4 N :   -0.021638
   5 O :   -0.094408
   6 C :    0.040115
   7 H :    0.029923
   8 H :    0.024061
   9 H :    0.029173
  10 H :    0.031719
  11 H :    0.031814
  12 H :    0.028616
  13 H :    0.044310
  14 H :    0.046520
  15 H :    0.021968
  16 H :    0.010332
  17 H :    0.010692

  Mayer bond orders larger than 0.1
B(  0-C ,  1-C ) :   1.1043 B(  0-C ,  7-H ) :   0.9609 B(  0-C ,  8-H ) :   0.9648
B(  0-C ,  9-H ) :   0.9655 B(  1-C ,  2-C ) :   1.0764 B(  1-C , 10-H ) :   0.9144
B(  1-C , 11-H ) :   0.9167 B(  2-C ,  3-C ) :   1.0674 B(  2-C ,  4-N ) :   1.9121
B(  3-C , 12-H ) :   0.9422 B(  3-C , 13-H ) :   0.9291 B(  3-C , 14-H ) :   0.9356
B(  4-N ,  5-O ) :   0.9635 B(  5-O ,  6-C ) :   0.9781 B(  6-C , 15-H ) :   0.9738
B(  6-C , 16-H ) :   0.9665 B(  6-C , 17-H ) :   0.9666

FINAL SINGLE POINT ENERGY      -326.412397250892

DIPOLE MOMENT
-------------
                                X             Y             Z
Electronic contribution:      2.32891       0.71663      -3.58136
Nuclear contribution   :     -2.56556      -0.66476       3.60404
                        -----------------------------------------
Total Dipole Moment    :     -0.23665       0.05188       0.02268
                        -----------------------------------------
Magnitude (a.u.)       :      0.24333
Magnitude (Debye)      :      0.61850

                             ****ORCA TERMINATED NORMALLY****
TOTAL RUN TIME: 0 days 0 hours 0 minutes 7 seconds 896 msec
