                         Program Version 3.0.3 - RELEASE   -
|  1> ! RI PBE def2-SVP def2-SVP/J NBO PAL2
|  2> % maxcore 2000
|  3> % output
|  4>     # printlevel mini
|  5>     print[ P_Basis ] 0
|  6>     print[ P_SCFInfo ] 1
|  7>     print[ P_SCFIterInfo ] 1
|  8>     print[ P_OrbEn ] 0
|  9>     print[ P_Cartesian ] 0
| 10> end
| 11> *xyz 0 1
| 12>  C        2.8924190000    -0.5089090000     0.6043100000
| 13>  C        1.8715790000     0.6089710000     0.4927580000
| 14>  C        2.3524310000     1.7871570000    -0.3299160000
| 15>  C        1.2321080000     2.7843380000    -0.6137470000
| 16>  N        0.2758900000     2.2272640000    -1.5578610000
| 17>  O        3.4077830000     2.4135390000     0.3752680000
| 18>  C        4.3325690000     3.0803190000    -0.4370930000
| 19>  H        2.5242600000    -1.3188160000     1.2381620000
| 20>  H        3.8259830000    -0.1419980000     1.0355830000
| 21>  H        3.1191080000    -0.9360080000    -0.3771450000
| 22>  H        1.6167890000     0.9863670000     1.4896950000
| 23>  H        0.9448120000     0.2470430000     0.0396220000
| 24>  H        2.7383690000     1.4134300000    -1.2949880000
| 25>  H        1.6780580000     3.7346410000    -0.9414640000
| 26>  H        0.7123100000     2.9892730000     0.3272250000
| 27>  H        0.6678130000     2.2036320000    -2.4914230000
| 28>  H       -0.5594280000     2.7954930000    -1.6027470000
| 29>  H        5.0930370000     3.5074410000     0.2179450000
| 30>  H        3.8778730000     3.8960890000    -1.0148600000
| 31>  H        4.8192480000     2.3898020000    -1.1401360000
| 32> *
| 33>
| 34>                          ****END OF INPUT****
 Total Charge           Charge          ....    0
 Multiplicity           Mult            ....    1
 Number of Electrons    NEL             ....   58
 Basis Dimension        Dim             ....  163

MULLIKEN ATOMIC CHARGES
-----------------------
   0 C :    0.000183
   1 C :    0.015357
   2 C :    0.041626
   3 C :    0.124903
   4 N :   -0.212713
   5 O :   -0.341334
   6 C :    0.158263
   7 H :    0.017775
   8 H :    0.018952
   9 H :    0.006632
  10 H :    0.003976
  11 H :    0.007028
  12 H :   -0.032489
  13 H :   -0.016358
  14 H :   -0.002095
  15 H :    0.087495
  16 H :    0.093271
  17 H :    0.028763
  18 H :   -0.003550
  19 H :    0.004314
Sum of atomic charges:   -0.0000000

LOEWDIN ATOMIC CHARGES
----------------------
   0 C :   -0.067812
   1 C :   -0.049302
   2 C :    0.042947
   3 C :   -0.002395
   4 N :   -0.104978
   5 O :   -0.142487
   6 C :    0.049628
   7 H :    0.025878
   8 H :    0.023753
   9 H :    0.021374
  10 H :    0.025552
  11 H :    0.026540
  12 H :   -0.000155
  13 H :   -0.000620
  14 H :    0.021738
  15 H :    0.050655
  16 H :    0.054758
  17 H :    0.022714
  18 H :   -0.001806
  19 H :    0.004018

  Mayer bond orders larger than 0.1
B(  0-C ,  1-C ) :   1.1222 B(  0-C ,  7-H ) :   0.9617 B(  0-C ,  8-H ) :   0.9606
B(  0-C ,  9-H ) :   0.9624 B(  1-C ,  2-C ) :   1.0550 B(  1-C , 10-H ) :   0.9205
B(  1-C , 11-H ) :   0.9182 B(  2-C ,  3-C ) :   1.0462 B(  2-C ,  5-O ) :   0.9979
B(  2-C , 12-H ) :   0.9026 B(  3-C ,  4-N ) :   1.0840 B(  3-C , 13-H ) :   0.9221
B(  3-C , 14-H ) :   0.9159 B(  4-N , 15-H ) :   0.9687 B(  4-N , 16-H ) :   0.9634
B(  5-O ,  6-C ) :   1.0209 B(  6-C , 17-H ) :   0.9752 B(  6-C , 18-H ) :   0.9482
B(  6-C , 19-H ) :   0.9557

FINAL SINGLE POINT ENERGY      -327.641097420166

DIPOLE MOMENT
-------------
                                X             Y             Z
Electronic contribution:     -0.61743       1.92155       0.75583
Nuclear contribution   :      0.53228      -1.42205      -1.42306
                        -----------------------------------------
Total Dipole Moment    :     -0.08515       0.49950      -0.66723
                        -----------------------------------------
Magnitude (a.u.)       :      0.83782
Magnitude (Debye)      :      2.12957

                             ****ORCA TERMINATED NORMALLY****
TOTAL RUN TIME: 0 days 0 hours 0 minutes 8 seconds 342 msec
