                         Program Version 3.0.3 - RELEASE   -
|  1> ! RI PBE def2-SVP def2-SVP/J NBO PAL2
|  2> % maxcore 2000
|  3> % output
|  4>     # printlevel mini
|  5>     print[ P_Basis ] 0
|  6>     print[ P_SCFInfo ] 1
|  7>     print[ P_SCFIterInfo ] 1
|  8>     print[ P_OrbEn ] 0
|  9>     print[ P_Cartesian ] 0
| 10> end
| 11> *xyz 0 1
| 12>  C        3.1425760000    -0.8125010000     1.1751590000
| 13>  C        2.5970070000     0.0651680000     0.0616740000
| 14>  C        3.0296160000    -0.3876470000    -1.3339020000
| 15>  C        4.4941760000    -0.2530650000    -1.5587890000
| 16>  N        5.1978520000    -1.2637650000    -1.8563430000
| 17>  O        6.5265330000    -0.9332130000    -2.0290180000
| 18>  C        7.2559280000    -2.0936920000    -2.3607270000
| 19>  H        2.8088180000    -0.4611880000     2.1540430000
| 20>  H        4.2351900000    -0.8226300000     1.1773700000
| 21>  H        2.8078010000    -1.8468670000     1.0584900000
| 22>  H        2.9125620000     1.1031100000     0.2180080000
| 23>  H        1.5033730000     0.0724960000     0.0988200000
| 24>  H        2.5073740000     0.2207020000    -2.0822810000
| 25>  H        2.7446740000    -1.4292330000    -1.5049530000
| 26>  H        4.9622190000     0.7305690000    -1.4615460000
| 27>  H        8.2897030000    -1.7704870000    -2.4840180000
| 28>  H        6.8935660000    -2.5336930000    -3.2943210000
| 29>  H        7.1956140000    -2.8392720000    -1.5625640000
| 30> *
| 31>
| 32>                          ****END OF INPUT****
 Total Charge           Charge          ....    0
 Multiplicity           Mult            ....    1
 Number of Electrons    NEL             ....   56
 Basis Dimension        Dim             ....  153

MULLIKEN ATOMIC CHARGES
-----------------------
   0 C :   -0.018752
   1 C :   -0.084295
   2 C :    0.081723
   3 C :   -0.074683
   4 N :   -0.002807
   5 O :   -0.282102
   6 C :    0.158678
   7 H :    0.018762
   8 H :    0.036130
   9 H :    0.019316
  10 H :    0.015839
  11 H :    0.024116
  12 H :    0.026884
  13 H :    0.010867
  14 H :   -0.000276
  15 H :    0.030691
  16 H :    0.016427
  17 H :    0.023482
Sum of atomic charges:   -0.0000000

LOEWDIN ATOMIC CHARGES
----------------------
   0 C :   -0.067643
   1 C :   -0.046318
   2 C :   -0.047245
   3 C :   -0.029671
   4 N :   -0.006144
   5 O :   -0.093469
   6 C :    0.040711
   7 H :    0.026707
   8 H :    0.027281
   9 H :    0.026568
  10 H :    0.023207
  11 H :    0.027421
  12 H :    0.037961
  13 H :    0.031362
  14 H :    0.003869
  15 H :    0.023190
  16 H :    0.010740
  17 H :    0.011472

  Mayer bond orders larger than 0.1
B(  0-C ,  1-C ) :   1.1105 B(  0-C ,  7-H ) :   0.9622 B(  0-C ,  8-H ) :   0.9652
B(  0-C ,  9-H ) :   0.9644 B(  1-C ,  2-C ) :   1.0815 B(  1-C , 10-H ) :   0.9411
B(  1-C , 11-H ) :   0.9373 B(  2-C ,  3-C ) :   1.0453 B(  2-C , 12-H ) :   0.9118
B(  2-C , 13-H ) :   0.9215 B(  3-C ,  4-N ) :   1.8818 B(  3-C ,  5-O ) :   0.1065
B(  3-C , 14-H ) :   0.9383 B(  4-N ,  5-O ) :   0.9501 B(  5-O ,  6-C ) :   0.9757
B(  6-C , 15-H ) :   0.9735 B(  6-C , 16-H ) :   0.9665 B(  6-C , 17-H ) :   0.9684

FINAL SINGLE POINT ENERGY      -326.404848835180

DIPOLE MOMENT
-------------
                                X             Y             Z
Electronic contribution:      3.96224       0.49235      -4.38928
Nuclear contribution   :     -4.05191      -0.40741       4.45194
                        -----------------------------------------
Total Dipole Moment    :     -0.08967       0.08495       0.06266
                        -----------------------------------------
Magnitude (a.u.)       :      0.13850
Magnitude (Debye)      :      0.35204

                             ****ORCA TERMINATED NORMALLY****
TOTAL RUN TIME: 0 days 0 hours 0 minutes 7 seconds 735 msec
