                         Program Version 3.0.3 - RELEASE   -
|  1> ! RI PBE def2-SVP def2-SVP/J NBO PAL2
|  2> % maxcore 2000
|  3> % output
|  4>     # printlevel mini
|  5>     print[ P_Basis ] 0
|  6>     print[ P_SCFInfo ] 1
|  7>     print[ P_SCFIterInfo ] 1
|  8>     print[ P_OrbEn ] 0
|  9>     print[ P_Cartesian ] 0
| 10> end
| 11> *xyz 0 1
| 12>  C        1.0214550000     0.0339430000    -0.0857770000
| 13>  C        2.3525070000     0.0342270000    -0.0732410000
| 14>  C        3.1949460000     0.9753220000    -0.8795620000
| 15>  C        3.8891900000     2.0437590000    -0.0672390000
| 16>  O        3.7389560000     2.2158890000     1.1067300000
| 17>  C        3.0567580000    -0.9072970000     0.7420640000
| 18>  N        3.6506050000    -1.6726750000     1.3647580000
| 19>  H        0.4738450000     0.7353240000    -0.7042630000
| 20>  H        0.4510410000    -0.6592200000     0.5188060000
| 21>  H        2.5823720000     1.4866290000    -1.6307360000
| 22>  H        3.9682270000     0.4350410000    -1.4391930000
| 23>  H        4.5678990000     2.6921590000    -0.6617500000
| 24> *
| 25>
| 26>                          ****END OF INPUT****
 Total Charge           Charge          ....    0
 Multiplicity           Mult            ....    1
 Number of Electrons    NEL             ....   50
 Basis Dimension        Dim             ....  123

MULLIKEN ATOMIC CHARGES
-----------------------
   0 C :    0.053645
   1 C :   -0.241631
   2 C :    0.098028
   3 C :    0.079157
   4 O :   -0.133654
   5 C :   -0.111383
   6 N :    0.071548
   7 H :    0.033316
   8 H :    0.045209
   9 H :    0.040582
  10 H :    0.058429
  11 H :    0.006755
Sum of atomic charges:    0.0000000

LOEWDIN ATOMIC CHARGES
----------------------
   0 C :    0.011818
   1 C :   -0.062559
   2 C :   -0.066044
   3 C :    0.097096
   4 O :   -0.086986
   5 C :   -0.032461
   6 N :   -0.045376
   7 H :    0.033099
   8 H :    0.041411
   9 H :    0.056283
  10 H :    0.059238
  11 H :   -0.005520

  Mayer bond orders larger than 0.1
B(  0-C ,  1-C ) :   1.9615 B(  0-C ,  6-N ) :   0.1118 B(  0-C ,  7-H ) :   0.9287
B(  0-C ,  8-H ) :   0.9337 B(  1-C ,  2-C ) :   1.0261 B(  1-C ,  5-C ) :   1.1022
B(  2-C ,  3-C ) :   0.9408 B(  2-C ,  9-H ) :   0.8897 B(  2-C , 10-H ) :   0.8971
B(  3-C ,  4-O ) :   2.2119 B(  3-C , 11-H ) :   0.9271 B(  5-C ,  6-N ) :   3.0002

FINAL SINGLE POINT ENERGY      -322.829892934422

DIPOLE MOMENT
-------------
                                X             Y             Z
Electronic contribution:      2.06406      -1.56700       3.46608
Nuclear contribution   :     -2.76512       2.29666      -5.06319
                        -----------------------------------------
Total Dipole Moment    :     -0.70106       0.72967      -1.59711
                        -----------------------------------------
Magnitude (a.u.)       :      1.89068
Magnitude (Debye)      :      4.80573

                             ****ORCA TERMINATED NORMALLY****
TOTAL RUN TIME: 0 days 0 hours 0 minutes 6 seconds 55 msec
