                         Program Version 3.0.3 - RELEASE   -
|  1> ! RI PBE def2-SVP def2-SVP/J NBO PAL2
|  2> % maxcore 2000
|  3> % output
|  4>     # printlevel mini
|  5>     print[ P_Basis ] 0
|  6>     print[ P_SCFInfo ] 1
|  7>     print[ P_SCFIterInfo ] 1
|  8>     print[ P_OrbEn ] 0
|  9>     print[ P_Cartesian ] 0
| 10> end
| 11> *xyz 0 1
| 12>  C        1.1928320000     0.3749640000    -0.0868690000
| 13>  C        2.3100360000     1.0399210000     0.1609730000
| 14>  C        3.4867880000     0.4646120000     0.9202780000
| 15>  C        3.0409240000    -0.6351640000     1.8762480000
| 16>  O        3.4071550000    -1.7696340000     1.8427170000
| 17>  C        4.5478890000     0.0361750000     0.0183090000
| 18>  N        5.3835050000    -0.2747500000    -0.7059320000
| 19>  H        0.3842120000     0.8370970000    -0.6399830000
| 20>  H        1.0420880000    -0.6512470000     0.2328210000
| 21>  H        2.4356200000     2.0575280000    -0.1942050000
| 22>  H        3.9002990000     1.2595000000     1.5579270000
| 23>  H        2.3137500000    -0.2714830000     2.6307180000
| 24> *
| 25>
| 26>                          ****END OF INPUT****
 Total Charge           Charge          ....    0
 Multiplicity           Mult            ....    1
 Number of Electrons    NEL             ....   50
 Basis Dimension        Dim             ....  123

MULLIKEN ATOMIC CHARGES
-----------------------
   0 C :   -0.005955
   1 C :   -0.070297
   2 C :   -0.020301
   3 C :    0.093651
   4 O :   -0.111527
   5 C :   -0.188748
   6 N :    0.083981
   7 H :    0.048005
   8 H :    0.051422
   9 H :    0.032381
  10 H :    0.071780
  11 H :    0.015608
Sum of atomic charges:   -0.0000000

LOEWDIN ATOMIC CHARGES
----------------------
   0 C :   -0.029249
   1 C :   -0.011394
   2 C :   -0.104979
   3 C :    0.105254
   4 O :   -0.069360
   5 C :   -0.032129
   6 N :   -0.042926
   7 H :    0.038198
   8 H :    0.033295
   9 H :    0.036848
  10 H :    0.077188
  11 H :   -0.000746

  Mayer bond orders larger than 0.1
B(  0-C ,  1-C ) :   2.0172 B(  0-C ,  7-H ) :   0.9459 B(  0-C ,  8-H ) :   0.9291
B(  1-C ,  2-C ) :   1.0083 B(  1-C ,  9-H ) :   0.9574 B(  2-C ,  3-C ) :   0.8848
B(  2-C ,  5-C ) :   1.0387 B(  2-C , 10-H ) :   0.8530 B(  3-C ,  4-O ) :   2.2403
B(  3-C , 11-H ) :   0.9323 B(  5-C ,  6-N ) :   3.0761

FINAL SINGLE POINT ENERGY      -322.817697657675

DIPOLE MOMENT
-------------
                                X             Y             Z
Electronic contribution:      4.76371      -2.48234       0.16268
Nuclear contribution   :     -6.08035       3.67386       0.52015
                        -----------------------------------------
Total Dipole Moment    :     -1.31665       1.19152       0.68283
                        -----------------------------------------
Magnitude (a.u.)       :      1.90251
Magnitude (Debye)      :      4.83579

                             ****ORCA TERMINATED NORMALLY****
TOTAL RUN TIME: 0 days 0 hours 0 minutes 5 seconds 536 msec
