                         Program Version 3.0.3 - RELEASE   -
|  1> ! RI PBE def2-SVP def2-SVP/J NBO PAL2
|  2> % maxcore 2000
|  3> % output
|  4>     # printlevel mini
|  5>     print[ P_Basis ] 0
|  6>     print[ P_SCFInfo ] 1
|  7>     print[ P_SCFIterInfo ] 1
|  8>     print[ P_OrbEn ] 0
|  9>     print[ P_Cartesian ] 0
| 10> end
| 11> *xyz 0 1
| 12>  C        1.8663500000     0.5057450000     0.2866320000
| 13>  C        2.8696890000    -0.2942090000    -0.0400570000
| 14>  C        2.6857520000    -1.6278990000    -0.6997470000
| 15>  C        3.2894250000    -1.6750630000    -2.0784730000
| 16>  O        2.7047340000    -1.9793380000    -3.0790620000
| 17>  C        4.7221020000    -1.3166200000    -2.1464960000
| 18>  N        5.8400490000    -1.0479940000    -2.1736070000
| 19>  H        2.0439100000     1.4604560000     0.7670040000
| 20>  H        0.8336450000     0.2343630000     0.0926070000
| 21>  H        3.8932240000     0.0080180000     0.1665810000
| 22>  H        1.6317230000    -1.8895820000    -0.7987610000
| 23>  H        3.1856860000    -2.4062660000    -0.1068320000
| 24> *
| 25>
| 26>                          ****END OF INPUT****
 Total Charge           Charge          ....    0
 Multiplicity           Mult            ....    1
 Number of Electrons    NEL             ....   50
 Basis Dimension        Dim             ....  123

MULLIKEN ATOMIC CHARGES
-----------------------
   0 C :   -0.020552
   1 C :   -0.111589
   2 C :    0.106951
   3 C :   -0.024619
   4 O :   -0.094567
   5 C :   -0.123189
   6 N :    0.057887
   7 H :    0.042525
   8 H :    0.032318
   9 H :    0.034999
  10 H :    0.031093
  11 H :    0.068744
Sum of atomic charges:   -0.0000000

LOEWDIN ATOMIC CHARGES
----------------------
   0 C :   -0.039365
   1 C :   -0.032103
   2 C :   -0.051021
   3 C :    0.041341
   4 O :   -0.055979
   5 C :   -0.058627
   6 N :   -0.009371
   7 H :    0.033339
   8 H :    0.027868
   9 H :    0.034670
  10 H :    0.046982
  11 H :    0.062265

  Mayer bond orders larger than 0.1
B(  0-C ,  1-C ) :   2.0175 B(  0-C ,  7-H ) :   0.9454 B(  0-C ,  8-H ) :   0.9493
B(  1-C ,  2-C ) :   1.0348 B(  1-C ,  9-H ) :   0.9510 B(  2-C ,  3-C ) :   1.0128
B(  2-C , 10-H ) :   0.9012 B(  2-C , 11-H ) :   0.8947 B(  3-C ,  4-O ) :   2.2232
B(  3-C ,  5-C ) :   0.8943 B(  5-C ,  6-N ) :   3.0153

FINAL SINGLE POINT ENERGY      -322.823882262058

DIPOLE MOMENT
-------------
                                X             Y             Z
Electronic contribution:      4.23405      -2.57959      -5.79616
Nuclear contribution   :     -5.01373       2.58052       6.78176
                        -----------------------------------------
Total Dipole Moment    :     -0.77968       0.00093       0.98560
                        -----------------------------------------
Magnitude (a.u.)       :      1.25670
Magnitude (Debye)      :      3.19429

                             ****ORCA TERMINATED NORMALLY****
TOTAL RUN TIME: 0 days 0 hours 0 minutes 6 seconds 212 msec
