                         Program Version 3.0.3 - RELEASE   -
|  1> ! RI PBE def2-SVP def2-SVP/J NBO PAL2
|  2> % maxcore 2000
|  3> % output
|  4>     # printlevel mini
|  5>     print[ P_Basis ] 0
|  6>     print[ P_SCFInfo ] 1
|  7>     print[ P_SCFIterInfo ] 1
|  8>     print[ P_OrbEn ] 0
|  9>     print[ P_Cartesian ] 0
| 10> end
| 11> *xyz 0 1
| 12>  C        1.0590520000     0.2352290000     0.0875000000
| 13>  C        2.5226430000     0.0518090000    -0.0540790000
| 14>  C        3.1817850000    -0.8788450000    -0.7693170000
| 15>  C        2.5226050000    -1.9297690000    -1.5763310000
| 16>  O        3.1214780000    -2.7550470000    -2.2105710000
| 17>  C        4.6121370000    -0.8761320000    -0.7678960000
| 18>  N        5.7627110000    -0.8589610000    -0.7552370000
| 19>  H        0.7866120000     0.1779980000     1.1463410000
| 20>  H        0.4575940000    -0.4829920000    -0.4639280000
| 21>  H        0.7859640000     1.2434000000    -0.2406130000
| 22>  H        3.1333610000     0.7653700000     0.4937990000
| 23>  H        1.4177180000    -1.9125690000    -1.5625990000
| 24> *
| 25>
| 26>                          ****END OF INPUT****
 Total Charge           Charge          ....    0
 Multiplicity           Mult            ....    1
 Number of Electrons    NEL             ....   50
 Basis Dimension        Dim             ....  123

MULLIKEN ATOMIC CHARGES
-----------------------
   0 C :    0.039688
   1 C :   -0.047471
   2 C :   -0.149001
   3 C :    0.146461
   4 O :   -0.120754
   5 C :   -0.129064
   6 N :    0.074969
   7 H :    0.061218
   8 H :    0.043439
   9 H :    0.059213
  10 H :    0.037888
  11 H :   -0.016586
Sum of atomic charges:   -0.0000000

LOEWDIN ATOMIC CHARGES
----------------------
   0 C :   -0.059571
   1 C :    0.061208
   2 C :   -0.126789
   3 C :    0.086596
   4 O :   -0.081824
   5 C :   -0.030924
   6 N :   -0.039216
   7 H :    0.056962
   8 H :    0.035188
   9 H :    0.056845
  10 H :    0.046144
  11 H :   -0.004618

  Mayer bond orders larger than 0.1
B(  0-C ,  1-C ) :   1.1140 B(  0-C ,  7-H ) :   0.9300 B(  0-C ,  8-H ) :   0.9538
B(  0-C ,  9-H ) :   0.9281 B(  1-C ,  2-C ) :   1.7441 B(  1-C , 10-H ) :   0.9463
B(  2-C ,  3-C ) :   0.9737 B(  2-C ,  5-C ) :   1.0981 B(  3-C ,  4-O ) :   2.1919
B(  3-C , 11-H ) :   0.9397 B(  5-C ,  6-N ) :   2.9998

FINAL SINGLE POINT ENERGY      -322.837751831967

DIPOLE MOMENT
-------------
                                X             Y             Z
Electronic contribution:      6.80103      -3.52011      -2.70777
Nuclear contribution   :     -8.81860       4.57032       3.51500
                        -----------------------------------------
Total Dipole Moment    :     -2.01757       1.05021       0.80723
                        -----------------------------------------
Magnitude (a.u.)       :      2.41353
Magnitude (Debye)      :      6.13472

                             ****ORCA TERMINATED NORMALLY****
TOTAL RUN TIME: 0 days 0 hours 0 minutes 5 seconds 670 msec
