                         Program Version 3.0.3 - RELEASE   -
|  1> ! RI PBE def2-SVP def2-SVP/J NBO PAL2
|  2> % maxcore 2000
|  3> % output
|  4>     # printlevel mini
|  5>     print[ P_Basis ] 0
|  6>     print[ P_SCFInfo ] 1
|  7>     print[ P_SCFIterInfo ] 1
|  8>     print[ P_OrbEn ] 0
|  9>     print[ P_Cartesian ] 0
| 10> end
| 11> *xyz 0 1
| 12>  C        1.0691780000     0.5867730000    -0.0660280000
| 13>  C        2.5039910000     0.2217130000     0.0366730000
| 14>  C        3.0606480000    -0.6810790000     0.8536260000
| 15>  C        2.3385670000    -1.5215690000     1.8670110000
| 16>  O        2.3181530000    -2.8604270000     1.4169240000
| 17>  C        4.4714010000    -0.9007970000     0.7759570000
| 18>  N        5.6087670000    -1.0839010000     0.7469630000
| 19>  H        0.7358570000     0.4814420000    -1.1028410000
| 20>  H        0.9257290000     1.6394770000     0.1984630000
| 21>  H        0.4199950000    -0.0189140000     0.5636950000
| 22>  H        3.1728580000     0.7511410000    -0.6370630000
| 23>  H        1.3222110000    -1.1413660000     2.0100470000
| 24>  H        2.8629610000    -1.4354820000     2.8260320000
| 25>  H        2.3356740000    -3.4454620000     2.1771310000
| 26> *
| 27>
| 28>                          ****END OF INPUT****
 Total Charge           Charge          ....    0
 Multiplicity           Mult            ....    1
 Number of Electrons    NEL             ....   52
 Basis Dimension        Dim             ....  133

MULLIKEN ATOMIC CHARGES
-----------------------
   0 C :    0.037914
   1 C :   -0.054907
   2 C :   -0.224871
   3 C :    0.260270
   4 O :   -0.265969
   5 C :   -0.121983
   6 N :    0.047122
   7 H :    0.047827
   8 H :    0.050153
   9 H :    0.034706
  10 H :    0.020238
  11 H :   -0.013216
  12 H :    0.020463
  13 H :    0.162254
Sum of atomic charges:   -0.0000000

LOEWDIN ATOMIC CHARGES
----------------------
   0 C :   -0.062656
   1 C :    0.021087
   2 C :   -0.096687
   3 C :    0.073980
   4 O :   -0.115153
   5 C :   -0.034593
   6 N :   -0.065281
   7 H :    0.049130
   8 H :    0.048741
   9 H :    0.033993
  10 H :    0.040276
  11 H :    0.008580
  12 H :    0.022843
  13 H :    0.075740

  Mayer bond orders larger than 0.1
B(  0-C ,  1-C ) :   1.1033 B(  0-C ,  7-H ) :   0.9354 B(  0-C ,  8-H ) :   0.9366
B(  0-C ,  9-H ) :   0.9540 B(  1-C ,  2-C ) :   1.8497 B(  1-C ,  6-N ) :   0.1005
B(  1-C , 10-H ) :   0.9429 B(  2-C ,  3-C ) :   1.0347 B(  2-C ,  5-C ) :   1.1138
B(  3-C ,  4-O ) :   1.1390 B(  3-C , 11-H ) :   0.8991 B(  3-C , 12-H ) :   0.9188
B(  4-O , 13-H ) :   0.9770 B(  5-C ,  6-N ) :   2.9905

FINAL SINGLE POINT ENERGY      -324.030306652028

DIPOLE MOMENT
-------------
                                X             Y             Z
Electronic contribution:      6.83053      -2.77604       0.29546
Nuclear contribution   :     -8.49018       3.19895       0.20254
                        -----------------------------------------
Total Dipole Moment    :     -1.65965       0.42291       0.49800
                        -----------------------------------------
Magnitude (a.u.)       :      1.78361
Magnitude (Debye)      :      4.53358

                             ****ORCA TERMINATED NORMALLY****
TOTAL RUN TIME: 0 days 0 hours 0 minutes 6 seconds 385 msec
