                         Program Version 3.0.3 - RELEASE   -
|  1> ! RI PBE def2-SVP def2-SVP/J NBO PAL2
|  2> % maxcore 2000
|  3> % output
|  4>     # printlevel mini
|  5>     print[ P_Basis ] 0
|  6>     print[ P_SCFInfo ] 1
|  7>     print[ P_SCFIterInfo ] 1
|  8>     print[ P_OrbEn ] 0
|  9>     print[ P_Cartesian ] 0
| 10> end
| 11> *xyz 0 1
| 12>  C        0.9980200000     0.0393440000     0.1050650000
| 13>  C        2.4750490000    -0.0361350000     0.1731790000
| 14>  C        3.2354460000    -0.8650680000    -0.5473170000
| 15>  C        4.6892510000    -0.9057860000    -0.4479190000
| 16>  O        5.4011340000    -1.6425570000    -1.0845060000
| 17>  C        5.3079620000     0.0364700000     0.5123840000
| 18>  N        5.8043180000     0.7620750000     1.2537830000
| 19>  H        0.6829440000     1.0509240000    -0.1703220000
| 20>  H        0.5632290000    -0.1572740000     1.0903330000
| 21>  H        0.5817140000    -0.6679820000    -0.6122550000
| 22>  H        2.9666390000     0.6424380000     0.8689040000
| 23>  H        2.8110840000    -1.5666590000    -1.2587410000
| 24> *
| 25>
| 26>                          ****END OF INPUT****
 Total Charge           Charge          ....    0
 Multiplicity           Mult            ....    1
 Number of Electrons    NEL             ....   50
 Basis Dimension        Dim             ....  123

MULLIKEN ATOMIC CHARGES
-----------------------
   0 C :    0.047514
   1 C :   -0.060184
   2 C :   -0.006754
   3 C :    0.056559
   4 O :   -0.111317
   5 C :   -0.183569
   6 N :    0.054651
   7 H :    0.055034
   8 H :    0.055613
   9 H :    0.040927
  10 H :    0.046148
  11 H :    0.005379
Sum of atomic charges:   -0.0000000

LOEWDIN ATOMIC CHARGES
----------------------
   0 C :   -0.056658
   1 C :    0.037302
   2 C :   -0.064339
   3 C :    0.017807
   4 O :   -0.077677
   5 C :   -0.058979
   6 N :   -0.024582
   7 H :    0.053184
   8 H :    0.053369
   9 H :    0.038864
  10 H :    0.040571
  11 H :    0.041137

  Mayer bond orders larger than 0.1
B(  0-C ,  1-C ) :   1.1003 B(  0-C ,  7-H ) :   0.9341 B(  0-C ,  8-H ) :   0.9343
B(  0-C ,  9-H ) :   0.9645 B(  1-C ,  2-C ) :   1.7331 B(  1-C , 10-H ) :   0.9237
B(  2-C ,  3-C ) :   1.0803 B(  2-C , 11-H ) :   0.9756 B(  3-C ,  4-O ) :   2.1346
B(  3-C ,  5-C ) :   0.9080 B(  5-C ,  6-N ) :   3.0143

FINAL SINGLE POINT ENERGY      -322.839462226135

DIPOLE MOMENT
-------------
                                X             Y             Z
Electronic contribution:      9.51943      -1.10373      -0.14944
Nuclear contribution   :    -11.38092       1.16253       0.02926
                        -----------------------------------------
Total Dipole Moment    :     -1.86149       0.05880      -0.12018
                        -----------------------------------------
Magnitude (a.u.)       :      1.86630
Magnitude (Debye)      :      4.74375

                             ****ORCA TERMINATED NORMALLY****
TOTAL RUN TIME: 0 days 0 hours 0 minutes 5 seconds 423 msec
