                         Program Version 3.0.3 - RELEASE   -
|  1> ! RI PBE def2-SVP def2-SVP/J NBO PAL2
|  2> % maxcore 2000
|  3> % output
|  4>     # printlevel mini
|  5>     print[ P_Basis ] 0
|  6>     print[ P_SCFInfo ] 1
|  7>     print[ P_SCFIterInfo ] 1
|  8>     print[ P_OrbEn ] 0
|  9>     print[ P_Cartesian ] 0
| 10> end
| 11> *xyz 0 1
| 12>  C        0.5512850000     0.5578250000     0.7589320000
| 13>  C        1.9822470000     0.1623850000     0.8809770000
| 14>  C        2.9978310000     0.9999180000     1.0450280000
| 15>  C        4.4214280000     0.5846800000     1.1963230000
| 16>  O        5.2149510000     1.2802520000     0.2627360000
| 17>  C        4.9415450000     0.8764460000     2.6051870000
| 18>  N        6.3819100000     0.6582710000     2.6306870000
| 19>  H       -0.0530850000     0.1049440000     1.5515670000
| 20>  H        0.1291540000     0.2137730000    -0.1906270000
| 21>  H        0.4295170000     1.6411580000     0.8143080000
| 22>  H        2.1962590000    -0.9046100000     0.8232660000
| 23>  H        2.8207960000     2.0741770000     1.0825030000
| 24>  H        4.4930310000    -0.5030070000     1.0220820000
| 25>  H        6.1027150000     1.2808980000     0.6549850000
| 26>  H        4.3791300000     0.2789080000     3.3341770000
| 27>  H        4.7563240000     1.9319300000     2.8256680000
| 28>  H        6.6040070000    -0.3262760000     2.7091540000
| 29>  H        6.8200460000     1.1343360000     3.4065470000
| 30> *
| 31>
| 32>                          ****END OF INPUT****
 Total Charge           Charge          ....    0
 Multiplicity           Mult            ....    1
 Number of Electrons    NEL             ....   56
 Basis Dimension        Dim             ....  153

MULLIKEN ATOMIC CHARGES
-----------------------
   0 C :    0.035017
   1 C :   -0.108754
   2 C :   -0.003058
   3 C :    0.096947
   4 O :   -0.264090
   5 C :    0.077816
   6 N :   -0.215658
   7 H :    0.032496
   8 H :    0.032152
   9 H :    0.023010
  10 H :   -0.005101
  11 H :   -0.012422
  12 H :   -0.025554
  13 H :    0.134696
  14 H :   -0.000703
  15 H :    0.001449
  16 H :    0.098779
  17 H :    0.102978
Sum of atomic charges:   -0.0000000

LOEWDIN ATOMIC CHARGES
----------------------
   0 C :   -0.066043
   1 C :   -0.040421
   2 C :   -0.045846
   3 C :    0.032481
   4 O :   -0.121938
   5 C :   -0.005340
   6 N :   -0.090526
   7 H :    0.036363
   8 H :    0.037094
   9 H :    0.031591
  10 H :    0.020906
  11 H :    0.022559
  12 H :    0.002511
  13 H :    0.041083
  14 H :    0.007067
  15 H :    0.021676
  16 H :    0.057512
  17 H :    0.059270

  Mayer bond orders larger than 0.1
B(  0-C ,  1-C ) :   1.0826 B(  0-C ,  7-H ) :   0.9468 B(  0-C ,  8-H ) :   0.9465
B(  0-C ,  9-H ) :   0.9613 B(  1-C ,  2-C ) :   1.9054 B(  1-C , 10-H ) :   0.9533
B(  2-C ,  3-C ) :   1.0187 B(  2-C , 11-H ) :   0.9469 B(  3-C ,  4-O ) :   1.0807
B(  3-C ,  5-C ) :   1.0227 B(  3-C , 12-H ) :   0.8986 B(  4-O , 13-H ) :   0.9388
B(  5-C ,  6-N ) :   1.0863 B(  5-C , 14-H ) :   0.9294 B(  5-C , 15-H ) :   0.9233
B(  6-N , 13-H ) :   0.1211 B(  6-N , 16-H ) :   0.9681 B(  6-N , 17-H ) :   0.9638

FINAL SINGLE POINT ENERGY      -326.440767365919

DIPOLE MOMENT
-------------
                                X             Y             Z
Electronic contribution:      3.69380       0.73291      -1.82442
Nuclear contribution   :     -3.54231      -1.13575       2.91777
                        -----------------------------------------
Total Dipole Moment    :      0.15149      -0.40283       1.09335
                        -----------------------------------------
Magnitude (a.u.)       :      1.17501
Magnitude (Debye)      :      2.98664

                             ****ORCA TERMINATED NORMALLY****
TOTAL RUN TIME: 0 days 0 hours 0 minutes 7 seconds 651 msec
