                         Program Version 3.0.3 - RELEASE   -
|  1> ! RI PBE def2-SVP def2-SVP/J NBO PAL2
|  2> % maxcore 2000
|  3> % output
|  4>     # printlevel mini
|  5>     print[ P_Basis ] 0
|  6>     print[ P_SCFInfo ] 1
|  7>     print[ P_SCFIterInfo ] 1
|  8>     print[ P_OrbEn ] 0
|  9>     print[ P_Cartesian ] 0
| 10> end
| 11> *xyz 0 1
| 12>  C        0.8734980000     0.0709740000    -0.0172550000
| 13>  C        2.3581900000     0.1118930000     0.0533470000
| 14>  C        3.0794870000    -0.1405630000     1.1374320000
| 15>  C        4.5769860000    -0.0635500000     1.1632600000
| 16>  O        5.0752670000     0.9907860000     1.9581060000
| 17>  C        5.1439460000    -1.3534340000     1.5992850000
| 18>  N        5.5669570000    -2.3562230000     1.9701250000
| 19>  H        0.5407320000    -0.6603730000    -0.7601380000
| 20>  H        0.4736620000     1.0399940000    -0.3312200000
| 21>  H        0.4303090000    -0.1903590000     0.9448220000
| 22>  H        2.8807030000     0.3697050000    -0.8670730000
| 23>  H        2.5955030000    -0.4115720000     2.0740240000
| 24>  H        4.9452680000     0.1317100000     0.1523690000
| 25>  H        4.8021030000     0.8477210000     2.8699050000
| 26> *
| 27>
| 28>                          ****END OF INPUT****
 Total Charge           Charge          ....    0
 Multiplicity           Mult            ....    1
 Number of Electrons    NEL             ....   52
 Basis Dimension        Dim             ....  133

MULLIKEN ATOMIC CHARGES
-----------------------
   0 C :    0.037915
   1 C :   -0.098321
   2 C :   -0.020939
   3 C :    0.221074
   4 O :   -0.256025
   5 C :   -0.244190
   6 N :    0.035368
   7 H :    0.045800
   8 H :    0.041815
   9 H :    0.027224
  10 H :    0.011022
  11 H :    0.001553
  12 H :    0.033331
  13 H :    0.164373
Sum of atomic charges:   -0.0000000

LOEWDIN ATOMIC CHARGES
----------------------
   0 C :   -0.061177
   1 C :   -0.014060
   2 C :   -0.057597
   3 C :    0.027556
   4 O :   -0.082219
   5 C :   -0.060112
   6 N :   -0.056804
   7 H :    0.044028
   8 H :    0.042998
   9 H :    0.034476
  10 H :    0.028581
  11 H :    0.026536
  12 H :    0.052181
  13 H :    0.075612

  Mayer bond orders larger than 0.1
B(  0-C ,  1-C ) :   1.0925 B(  0-C ,  7-H ) :   0.9445 B(  0-C ,  8-H ) :   0.9432
B(  0-C ,  9-H ) :   0.9623 B(  1-C ,  2-C ) :   1.9078 B(  1-C , 10-H ) :   0.9518
B(  2-C ,  3-C ) :   1.0375 B(  2-C , 11-H ) :   0.9378 B(  3-C ,  4-O ) :   1.0430
B(  3-C ,  5-C ) :   0.9672 B(  3-C , 12-H ) :   0.8729 B(  4-O , 13-H ) :   0.9763
B(  5-C ,  6-N ) :   3.0699

FINAL SINGLE POINT ENERGY      -324.025459176934

DIPOLE MOMENT
-------------
                                X             Y             Z
Electronic contribution:      8.07242      -2.44107       3.29409
Nuclear contribution   :     -9.25481       3.26521      -3.61266
                        -----------------------------------------
Total Dipole Moment    :     -1.18239       0.82414      -0.31856
                        -----------------------------------------
Magnitude (a.u.)       :      1.47605
Magnitude (Debye)      :      3.75183

                             ****ORCA TERMINATED NORMALLY****
TOTAL RUN TIME: 0 days 0 hours 0 minutes 5 seconds 787 msec
