                         Program Version 3.0.3 - RELEASE   -
|  1> ! RI PBE def2-SVP def2-SVP/J NBO PAL2
|  2> % maxcore 2000
|  3> % output
|  4>     # printlevel mini
|  5>     print[ P_Basis ] 0
|  6>     print[ P_SCFInfo ] 1
|  7>     print[ P_SCFIterInfo ] 1
|  8>     print[ P_OrbEn ] 0
|  9>     print[ P_Cartesian ] 0
| 10> end
| 11> *xyz 0 1
| 12>  C        0.8872330000     0.0151700000    -0.1276750000
| 13>  C        2.3697960000     0.0459290000     0.0293310000
| 14>  C        3.0692940000     1.0859050000     0.4869910000
| 15>  C        3.0760060000    -1.1881400000    -0.3630840000
| 16>  O        2.5275200000    -2.1742870000    -0.7861870000
| 17>  C        4.5466530000    -1.1943790000    -0.2213310000
| 18>  N        5.6918520000    -1.2322910000    -0.1233110000
| 19>  H        0.4437720000     0.9604360000     0.1835060000
| 20>  H        0.4545150000    -0.7949080000     0.4642210000
| 21>  H        0.6146000000    -0.1826940000    -1.1670810000
| 22>  H        2.5781720000     2.0057430000     0.7829480000
| 23>  H        4.1491870000     1.0484270000     0.5788700000
| 24> *
| 25>
| 26>                          ****END OF INPUT****
 Total Charge           Charge          ....    0
 Multiplicity           Mult            ....    1
 Number of Electrons    NEL             ....   50
 Basis Dimension        Dim             ....  123

MULLIKEN ATOMIC CHARGES
-----------------------
   0 C :    0.084050
   1 C :   -0.156190
   2 C :    0.010811
   3 C :    0.047030
   4 O :   -0.102249
   5 C :   -0.169097
   6 N :    0.071789
   7 H :    0.021739
   8 H :    0.051080
   9 H :    0.048670
  10 H :    0.035627
  11 H :    0.056740
Sum of atomic charges:   -0.0000000

LOEWDIN ATOMIC CHARGES
----------------------
   0 C :   -0.047541
   1 C :   -0.058555
   2 C :    0.015065
   3 C :    0.027568
   4 O :   -0.069233
   5 C :   -0.057122
   6 N :   -0.018914
   7 H :    0.036153
   8 H :    0.049267
   9 H :    0.048692
  10 H :    0.035247
  11 H :    0.039373

  Mayer bond orders larger than 0.1
B(  0-C ,  1-C ) :   1.0703 B(  0-C ,  7-H ) :   0.9458 B(  0-C ,  8-H ) :   0.9428
B(  0-C ,  9-H ) :   0.9438 B(  1-C ,  2-C ) :   1.8934 B(  1-C ,  3-C ) :   1.0110
B(  2-C , 10-H ) :   0.9304 B(  2-C , 11-H ) :   0.9104 B(  3-C ,  4-O ) :   2.1756
B(  3-C ,  5-C ) :   0.9383 B(  5-C ,  6-N ) :   3.0079

FINAL SINGLE POINT ENERGY      -322.837466296689

DIPOLE MOMENT
-------------
                                X             Y             Z
Electronic contribution:      5.82354      -4.86990      -1.24798
Nuclear contribution   :     -6.86446       5.97214       1.56116
                        -----------------------------------------
Total Dipole Moment    :     -1.04092       1.10224       0.31318
                        -----------------------------------------
Magnitude (a.u.)       :      1.54808
Magnitude (Debye)      :      3.93489

                             ****ORCA TERMINATED NORMALLY****
TOTAL RUN TIME: 0 days 0 hours 0 minutes 6 seconds 99 msec
