                         Program Version 3.0.3 - RELEASE   -
|  1> ! RI PBE def2-SVP def2-SVP/J NBO PAL2
|  2> % maxcore 2000
|  3> % output
|  4>     # printlevel mini
|  5>     print[ P_Basis ] 0
|  6>     print[ P_SCFInfo ] 1
|  7>     print[ P_SCFIterInfo ] 1
|  8>     print[ P_OrbEn ] 0
|  9>     print[ P_Cartesian ] 0
| 10> end
| 11> *xyz 0 1
| 12>  C        3.8153180000     2.1456520000     0.2198300000
| 13>  C        3.3715790000     0.7406950000     0.4713930000
| 14>  C        2.8518180000     0.3467150000     1.6292930000
| 15>  C        3.5548680000    -0.2433330000    -0.6529470000
| 16>  O        3.1781430000     0.3386050000    -1.8766480000
| 17>  C        5.0065790000    -0.7234830000    -0.7519540000
| 18>  N        5.1550040000    -1.5025160000    -1.9738960000
| 19>  H        3.6680640000     2.7662170000     1.1044530000
| 20>  H        3.2550670000     2.5725830000    -0.6148700000
| 21>  H        4.8720750000     2.1921690000    -0.0612710000
| 22>  H        2.7530720000     1.0270900000     2.4679610000
| 23>  H        2.5029150000    -0.6703770000     1.7754900000
| 24>  H        2.9249360000    -1.1237920000    -0.4432280000
| 25>  H        3.6717490000    -0.1652480000    -2.5436050000
| 26>  H        5.2735650000    -1.2624750000     0.1655180000
| 27>  H        5.6612820000     0.1483890000    -0.8303900000
| 28>  H        4.8093070000    -2.4464950000    -1.8545340000
| 29>  H        6.1199280000    -1.5630770000    -2.2666050000
| 30> *
| 31>
| 32>                          ****END OF INPUT****
 Total Charge           Charge          ....    0
 Multiplicity           Mult            ....    1
 Number of Electrons    NEL             ....   56
 Basis Dimension        Dim             ....  153

MULLIKEN ATOMIC CHARGES
-----------------------
   0 C :    0.084431
   1 C :   -0.169366
   2 C :   -0.030274
   3 C :    0.119382
   4 O :   -0.259959
   5 C :    0.079535
   6 N :   -0.218061
   7 H :    0.009118
   8 H :    0.043478
   9 H :    0.015700
  10 H :    0.006224
  11 H :    0.001792
  12 H :   -0.030381
  13 H :    0.137583
  14 H :    0.001201
  15 H :    0.003065
  16 H :    0.102182
  17 H :    0.104349
Sum of atomic charges:    0.0000000

LOEWDIN ATOMIC CHARGES
----------------------
   0 C :   -0.055665
   1 C :   -0.033884
   2 C :   -0.075877
   3 C :    0.041019
   4 O :   -0.117728
   5 C :   -0.003239
   6 N :   -0.089182
   7 H :    0.028771
   8 H :    0.042640
   9 H :    0.031152
  10 H :    0.019262
  11 H :    0.017012
  12 H :    0.004097
  13 H :    0.042785
  14 H :    0.008679
  15 H :    0.021704
  16 H :    0.058647
  17 H :    0.059807

  Mayer bond orders larger than 0.1
B(  0-C ,  1-C ) :   1.0824 B(  0-C ,  7-H ) :   0.9465 B(  0-C ,  8-H ) :   0.9327
B(  0-C ,  9-H ) :   0.9362 B(  1-C ,  2-C ) :   1.9848 B(  1-C ,  3-C ) :   1.0021
B(  2-C , 10-H ) :   0.9311 B(  2-C , 11-H ) :   0.9302 B(  3-C ,  4-O ) :   1.1052
B(  3-C ,  5-C ) :   1.0338 B(  3-C , 12-H ) :   0.8837 B(  4-O , 13-H ) :   0.9359
B(  5-C ,  6-N ) :   1.0976 B(  5-C , 14-H ) :   0.9305 B(  5-C , 15-H ) :   0.9173
B(  6-N , 13-H ) :   0.1231 B(  6-N , 16-H ) :   0.9673 B(  6-N , 17-H ) :   0.9640

FINAL SINGLE POINT ENERGY      -326.441049246557

DIPOLE MOMENT
-------------
                                X             Y             Z
Electronic contribution:     -1.74360      -0.79619      -2.12579
Nuclear contribution   :      2.66602       0.04357       2.14309
                        -----------------------------------------
Total Dipole Moment    :      0.92242      -0.75262       0.01730
                        -----------------------------------------
Magnitude (a.u.)       :      1.19063
Magnitude (Debye)      :      3.02633

                             ****ORCA TERMINATED NORMALLY****
TOTAL RUN TIME: 0 days 0 hours 0 minutes 7 seconds 930 msec
