                         Program Version 3.0.3 - RELEASE   -
|  1> ! RI PBE def2-SVP def2-SVP/J NBO PAL2
|  2> % maxcore 2000
|  3> % output
|  4>     # printlevel mini
|  5>     print[ P_Basis ] 0
|  6>     print[ P_SCFInfo ] 1
|  7>     print[ P_SCFIterInfo ] 1
|  8>     print[ P_OrbEn ] 0
|  9>     print[ P_Cartesian ] 0
| 10> end
| 11> *xyz 0 1
| 12>  C        1.0192250000     0.1579410000    -0.2252650000
| 13>  C        2.4767990000     0.0291340000     0.0802430000
| 14>  C        3.0312010000     0.4329360000     1.2169350000
| 15>  C        3.2871170000    -0.5932640000    -1.0370180000
| 16>  O        3.2574540000     0.1852560000    -2.2145590000
| 17>  C        4.6728860000    -0.8878730000    -0.6420450000
| 18>  N        5.7651340000    -1.0985430000    -0.3532350000
| 19>  H        0.4962190000     0.6857160000     0.5720110000
| 20>  H        0.5609540000    -0.8299040000    -0.3421540000
| 21>  H        0.8611080000     0.6922650000    -1.1651090000
| 22>  H        2.4303140000     0.8903730000     1.9947880000
| 23>  H        4.0904690000     0.3125940000     1.4138620000
| 24>  H        2.8267270000    -1.5470230000    -1.3194440000
| 25>  H        3.6384830000     1.0462110000    -2.0109190000
| 26> *
| 27>
| 28>                          ****END OF INPUT****
 Total Charge           Charge          ....    0
 Multiplicity           Mult            ....    1
 Number of Electrons    NEL             ....   52
 Basis Dimension        Dim             ....  133

MULLIKEN ATOMIC CHARGES
-----------------------
   0 C :    0.088627
   1 C :   -0.266692
   2 C :    0.008814
   3 C :    0.293349
   4 O :   -0.254736
   5 C :   -0.266404
   6 N :    0.053314
   7 H :    0.025095
   8 H :    0.034388
   9 H :    0.032942
  10 H :    0.016933
  11 H :    0.033886
  12 H :    0.034535
  13 H :    0.165948
Sum of atomic charges:   -0.0000000

LOEWDIN ATOMIC CHARGES
----------------------
   0 C :   -0.053725
   1 C :   -0.052510
   2 C :   -0.048312
   3 C :    0.032641
   4 O :   -0.080123
   5 C :   -0.054006
   6 N :   -0.052804
   7 H :    0.035777
   8 H :    0.041267
   9 H :    0.038253
  10 H :    0.028057
  11 H :    0.031809
  12 H :    0.054666
  13 H :    0.079008

  Mayer bond orders larger than 0.1
B(  0-C ,  1-C ) :   1.0898 B(  0-C ,  7-H ) :   0.9510 B(  0-C ,  8-H ) :   0.9399
B(  0-C ,  9-H ) :   0.9372 B(  1-C ,  2-C ) :   1.9923 B(  1-C ,  3-C ) :   0.9813
B(  2-C , 10-H ) :   0.9300 B(  2-C , 11-H ) :   0.9109 B(  3-C ,  4-O ) :   1.0506
B(  3-C ,  5-C ) :   0.9979 B(  3-C , 12-H ) :   0.8438 B(  4-O , 13-H ) :   0.9736
B(  5-C ,  6-N ) :   3.0332

FINAL SINGLE POINT ENERGY      -324.026917989451

DIPOLE MOMENT
-------------
                                X             Y             Z
Electronic contribution:      6.56007      -2.08036      -2.31833
Nuclear contribution   :     -7.77185       2.62841       2.45348
                        -----------------------------------------
Total Dipole Moment    :     -1.21178       0.54804       0.13515
                        -----------------------------------------
Magnitude (a.u.)       :      1.33680
Magnitude (Debye)      :      3.39787

                             ****ORCA TERMINATED NORMALLY****
TOTAL RUN TIME: 0 days 0 hours 0 minutes 6 seconds 168 msec
