                         Program Version 3.0.3 - RELEASE   -
|  1> ! RI PBE def2-SVP def2-SVP/J NBO PAL2
|  2> % maxcore 2000
|  3> % output
|  4>     # printlevel mini
|  5>     print[ P_Basis ] 0
|  6>     print[ P_SCFInfo ] 1
|  7>     print[ P_SCFIterInfo ] 1
|  8>     print[ P_OrbEn ] 0
|  9>     print[ P_Cartesian ] 0
| 10> end
| 11> *xyz 0 1
| 12>  C        0.8983760000    -0.0761840000    -0.0510760000
| 13>  C        2.3820180000     0.1215200000    -0.0408460000
| 14>  C        3.0590690000     1.2509730000     0.2284350000
| 15>  C        2.4499760000     2.5389760000     0.5730350000
| 16>  O        3.1097250000     3.5206130000     0.8061720000
| 17>  C        3.1416930000    -1.0492910000    -0.3595830000
| 18>  N        3.7207950000    -2.0104590000    -0.6200010000
| 19>  H        0.3534130000     0.8314550000     0.1940820000
| 20>  H        0.6237040000    -0.8552610000     0.6645880000
| 21>  H        0.5778340000    -0.4233330000    -1.0366240000
| 22>  H        4.1434780000     1.2499110000     0.1988860000
| 23>  H        1.3455300000     2.5833810000     0.6133320000
| 24> *
| 25>
| 26>                          ****END OF INPUT****
 Total Charge           Charge          ....    0
 Multiplicity           Mult            ....    1
 Number of Electrons    NEL             ....   50
 Basis Dimension        Dim             ....  123

MULLIKEN ATOMIC CHARGES
-----------------------
   0 C :    0.092896
   1 C :   -0.186863
   2 C :    0.003058
   3 C :    0.124598
   4 O :   -0.153786
   5 C :   -0.124386
   6 N :    0.065857
   7 H :    0.032922
   8 H :    0.063677
   9 H :    0.060801
  10 H :    0.030108
  11 H :   -0.008882
Sum of atomic charges:   -0.0000000

LOEWDIN ATOMIC CHARGES
----------------------
   0 C :   -0.039850
   1 C :   -0.029348
   2 C :   -0.036152
   3 C :    0.071973
   4 O :   -0.094184
   5 C :   -0.029830
   6 N :   -0.032644
   7 H :    0.035825
   8 H :    0.056028
   9 H :    0.055610
  10 H :    0.049493
  11 H :   -0.006922

  Mayer bond orders larger than 0.1
B(  0-C ,  1-C ) :   1.0870 B(  0-C ,  7-H ) :   0.9376 B(  0-C ,  8-H ) :   0.9360
B(  0-C ,  9-H ) :   0.9356 B(  1-C ,  2-C ) :   1.6745 B(  1-C ,  5-C ) :   1.1083
B(  2-C ,  3-C ) :   1.0266 B(  2-C , 10-H ) :   0.9522 B(  3-C ,  4-O ) :   2.1007
B(  3-C , 11-H ) :   0.9402 B(  5-C ,  6-N ) :   2.9779

FINAL SINGLE POINT ENERGY      -322.838633866683

DIPOLE MOMENT
-------------
                                X             Y             Z
Electronic contribution:      4.60032       0.02245      -0.11749
Nuclear contribution   :     -5.82240      -0.00427       0.15492
                        -----------------------------------------
Total Dipole Moment    :     -1.22209       0.01818       0.03743
                        -----------------------------------------
Magnitude (a.u.)       :      1.22280
Magnitude (Debye)      :      3.10810

                             ****ORCA TERMINATED NORMALLY****
TOTAL RUN TIME: 0 days 0 hours 0 minutes 5 seconds 620 msec
