                         Program Version 3.0.3 - RELEASE   -
|  1> ! RI PBE def2-SVP def2-SVP/J NBO PAL2
|  2> % maxcore 2000
|  3> % output
|  4>     # printlevel mini
|  5>     print[ P_Basis ] 0
|  6>     print[ P_SCFInfo ] 1
|  7>     print[ P_SCFIterInfo ] 1
|  8>     print[ P_OrbEn ] 0
|  9>     print[ P_Cartesian ] 0
| 10> end
| 11> *xyz 0 1
| 12>  C        0.8907750000    -0.2126600000    -0.0702630000
| 13>  C        2.3715010000    -0.0038890000     0.0394750000
| 14>  C        3.0791670000     1.0369510000    -0.4175880000
| 15>  C        2.5570820000     2.2427530000    -1.1214780000
| 16>  O        3.1076490000     3.4310010000    -0.5927840000
| 17>  C        3.0827580000    -1.0594510000     0.6957050000
| 18>  N        3.6218240000    -1.9260790000     1.2307920000
| 19>  H        0.3855180000     0.6634060000    -0.4722750000
| 20>  H        0.4656760000    -0.4469990000     0.9082790000
| 21>  H        0.6746810000    -1.0612930000    -0.7246950000
| 22>  H        4.1548490000     1.0355240000    -0.2633700000
| 23>  H        1.4620020000     2.2747470000    -1.1194100000
| 24>  H        2.8749580000     2.2148500000    -2.1688850000
| 25>  H        2.8732700000     3.4853390000     0.3377970000
| 26> *
| 27>
| 28>                          ****END OF INPUT****
 Total Charge           Charge          ....    0
 Multiplicity           Mult            ....    1
 Number of Electrons    NEL             ....   52
 Basis Dimension        Dim             ....  133

MULLIKEN ATOMIC CHARGES
-----------------------
   0 C :    0.095209
   1 C :   -0.211552
   2 C :   -0.110029
   3 C :    0.254974
   4 O :   -0.286865
   5 C :   -0.134512
   6 N :    0.044246
   7 H :    0.018565
   8 H :    0.048527
   9 H :    0.054432
  10 H :    0.024108
  11 H :    0.011103
  12 H :    0.035252
  13 H :    0.156542
Sum of atomic charges:   -0.0000000

LOEWDIN ATOMIC CHARGES
----------------------
   0 C :   -0.044029
   1 C :   -0.075333
   2 C :   -0.023962
   3 C :    0.054096
   4 O :   -0.110844
   5 C :   -0.035944
   6 N :   -0.058596
   7 H :    0.031942
   8 H :    0.046885
   9 H :    0.050022
  10 H :    0.041413
  11 H :    0.012353
  12 H :    0.040319
  13 H :    0.071678

  Mayer bond orders larger than 0.1
B(  0-C ,  1-C ) :   1.0854 B(  0-C ,  7-H ) :   0.9364 B(  0-C ,  8-H ) :   0.9412
B(  0-C ,  9-H ) :   0.9407 B(  1-C ,  2-C ) :   1.7857 B(  1-C ,  5-C ) :   1.1000
B(  2-C ,  3-C ) :   1.0542 B(  2-C , 10-H ) :   0.9458 B(  3-C ,  4-O ) :   1.0234
B(  3-C , 11-H ) :   0.9359 B(  3-C , 12-H ) :   0.9037 B(  4-O , 13-H ) :   0.9852
B(  5-C ,  6-N ) :   2.9880

FINAL SINGLE POINT ENERGY      -324.032217376716

DIPOLE MOMENT
-------------
                                X             Y             Z
Electronic contribution:      4.23949      -2.78946       2.47247
Nuclear contribution   :     -5.29648       3.61669      -2.86242
                        -----------------------------------------
Total Dipole Moment    :     -1.05699       0.82723      -0.38995
                        -----------------------------------------
Magnitude (a.u.)       :      1.39771
Magnitude (Debye)      :      3.55270

                             ****ORCA TERMINATED NORMALLY****
TOTAL RUN TIME: 0 days 0 hours 0 minutes 6 seconds 262 msec
