                         Program Version 3.0.3 - RELEASE   -
|  1> ! RI PBE def2-SVP def2-SVP/J NBO PAL2
|  2> % maxcore 2000
|  3> % output
|  4>     # printlevel mini
|  5>     print[ P_Basis ] 0
|  6>     print[ P_SCFInfo ] 1
|  7>     print[ P_SCFIterInfo ] 1
|  8>     print[ P_OrbEn ] 0
|  9>     print[ P_Cartesian ] 0
| 10> end
| 11> *xyz 0 1
| 12>  C        0.9203370000    -0.0659510000     0.0518420000
| 13>  C        2.4550640000    -0.0549590000     0.0979740000
| 14>  C        3.0338210000    -1.0753770000    -0.8926340000
| 15>  C        2.9233570000     1.3315850000    -0.3360680000
| 16>  O        3.5751900000     2.0908820000     0.3122000000
| 17>  C        2.9166480000    -0.3536190000     1.4504540000
| 18>  N        3.2611080000    -0.6257190000     2.5122590000
| 19>  H        0.5799560000     0.2027810000    -0.9510290000
| 20>  H        0.4981380000     0.6397580000     0.7682540000
| 21>  H        0.5471190000    -1.0639480000     0.2851580000
| 22>  H        2.7224440000    -0.8203020000    -1.9084330000
| 23>  H        2.6615510000    -2.0739010000    -0.6600620000
| 24>  H        4.1235840000    -1.0920140000    -0.8518030000
| 25>  H        2.5837650000     1.5827920000    -1.3658320000
| 26> *
| 27>
| 28>                          ****END OF INPUT****
 Total Charge           Charge          ....    0
 Multiplicity           Mult            ....    1
 Number of Electrons    NEL             ....   52
 Basis Dimension        Dim             ....  133

MULLIKEN ATOMIC CHARGES
-----------------------
   0 C :    0.055992
   1 C :   -0.376057
   2 C :    0.043372
   3 C :    0.151381
   4 O :   -0.108157
   5 C :   -0.139401
   6 N :    0.092539
   7 H :    0.031968
   8 H :    0.055606
   9 H :    0.047908
  10 H :    0.034700
  11 H :    0.051174
  12 H :    0.058955
  13 H :    0.000018
Sum of atomic charges:   -0.0000000

LOEWDIN ATOMIC CHARGES
----------------------
   0 C :   -0.023904
   1 C :   -0.130275
   2 C :   -0.026442
   3 C :    0.108878
   4 O :   -0.070869
   5 C :   -0.028692
   6 N :   -0.051400
   7 H :    0.032280
   8 H :    0.040873
   9 H :    0.040240
  10 H :    0.032862
  11 H :    0.041003
  12 H :    0.041352
  13 H :   -0.005906

  Mayer bond orders larger than 0.1
B(  0-C ,  1-C ) :   1.0463 B(  0-C ,  7-H ) :   0.9562 B(  0-C ,  8-H ) :   0.9587
B(  0-C ,  9-H ) :   0.9553 B(  1-C ,  2-C ) :   1.0455 B(  1-C ,  3-C ) :   0.8554
B(  1-C ,  5-C ) :   1.0102 B(  2-C , 10-H ) :   0.9561 B(  2-C , 11-H ) :   0.9547
B(  2-C , 12-H ) :   0.9586 B(  3-C ,  4-O ) :   2.2629 B(  3-C , 13-H ) :   0.9316
B(  5-C ,  6-N ) :   3.0984

FINAL SINGLE POINT ENERGY      -324.047545300663

DIPOLE MOMENT
-------------
                                X             Y             Z
Electronic contribution:      4.01128       3.34509       5.41552
Nuclear contribution   :     -4.95641      -3.75232      -7.08393
                        -----------------------------------------
Total Dipole Moment    :     -0.94513      -0.40723      -1.66841
                        -----------------------------------------
Magnitude (a.u.)       :      1.96028
Magnitude (Debye)      :      4.98263

                             ****ORCA TERMINATED NORMALLY****
TOTAL RUN TIME: 0 days 0 hours 0 minutes 6 seconds 239 msec
