                         Program Version 3.0.3 - RELEASE   -
|  1> ! RI PBE def2-SVP def2-SVP/J NBO PAL2
|  2> % maxcore 2000
|  3> % output
|  4>     # printlevel mini
|  5>     print[ P_Basis ] 0
|  6>     print[ P_SCFInfo ] 1
|  7>     print[ P_SCFIterInfo ] 1
|  8>     print[ P_OrbEn ] 0
|  9>     print[ P_Cartesian ] 0
| 10> end
| 11> *xyz 0 1
| 12>  C        0.9527380000     0.0803330000     0.0439530000
| 13>  C        2.4814780000     0.0670840000     0.0054280000
| 14>  C        2.9972880000    -0.3857310000    -1.3614620000
| 15>  C        3.0133300000     1.4756600000     0.3435930000
| 16>  O        4.4104950000     1.5572370000     0.3805990000
| 17>  C        2.9894970000    -0.8390100000     1.0390090000
| 18>  N        3.4208670000    -1.5113040000     1.8674460000
| 19>  H        0.5779450000     0.7857630000    -0.7014370000
| 20>  H        0.5809840000     0.3815120000     1.0250510000
| 21>  H        0.5491220000    -0.9065780000    -0.1866780000
| 22>  H        2.5867950000     0.2690810000    -2.1338340000
| 23>  H        2.6888130000    -1.4099410000    -1.5767830000
| 24>  H        4.0848160000    -0.3288700000    -1.4019940000
| 25>  H        2.5623230000     1.8092690000     1.2872310000
| 26>  H        2.6814130000     2.1542790000    -0.4466440000
| 27>  H        4.7287860000     1.0592060000     1.1406320000
| 28> *
| 29>
| 30>                          ****END OF INPUT****
 Total Charge           Charge          ....    0
 Multiplicity           Mult            ....    1
 Number of Electrons    NEL             ....   54
 Basis Dimension        Dim             ....  143

MULLIKEN ATOMIC CHARGES
-----------------------
   0 C :    0.075296
   1 C :   -0.415442
   2 C :    0.082694
   3 C :    0.232299
   4 O :   -0.265089
   5 C :   -0.167929
   6 N :    0.063604
   7 H :    0.027943
   8 H :    0.034696
   9 H :    0.037628
  10 H :    0.022620
  11 H :    0.031664
  12 H :    0.040292
  13 H :    0.013622
  14 H :    0.019007
  15 H :    0.167094
Sum of atomic charges:    0.0000000

LOEWDIN ATOMIC CHARGES
----------------------
   0 C :   -0.030370
   1 C :   -0.110363
   2 C :   -0.032994
   3 C :    0.074727
   4 O :   -0.101303
   5 C :   -0.036193
   6 N :   -0.074060
   7 H :    0.031999
   8 H :    0.032929
   9 H :    0.035809
  10 H :    0.031298
  11 H :    0.032888
  12 H :    0.033450
  13 H :    0.011440
  14 H :    0.025414
  15 H :    0.075331

  Mayer bond orders larger than 0.1
B(  0-C ,  1-C ) :   1.0524 B(  0-C ,  7-H ) :   0.9577 B(  0-C ,  8-H ) :   0.9540
B(  0-C ,  9-H ) :   0.9562 B(  1-C ,  2-C ) :   1.0510 B(  1-C ,  3-C ) :   0.9808
B(  1-C ,  5-C ) :   1.0055 B(  2-C , 10-H ) :   0.9558 B(  2-C , 11-H ) :   0.9550
B(  2-C , 12-H ) :   0.9498 B(  3-C ,  4-O ) :   1.0937 B(  3-C , 13-H ) :   0.9354
B(  3-C , 14-H ) :   0.9349 B(  4-O , 15-H ) :   0.9744 B(  5-C ,  6-N ) :   3.0793

FINAL SINGLE POINT ENERGY      -325.251650435435

DIPOLE MOMENT
-------------
                                X             Y             Z
Electronic contribution:      4.09487      -1.95538       4.72073
Nuclear contribution   :     -4.85354       2.53617      -5.36120
                        -----------------------------------------
Total Dipole Moment    :     -0.75867       0.58079      -0.64047
                        -----------------------------------------
Magnitude (a.u.)       :      1.15026
Magnitude (Debye)      :      2.92373

                             ****ORCA TERMINATED NORMALLY****
TOTAL RUN TIME: 0 days 0 hours 0 minutes 7 seconds 517 msec
