                         Program Version 3.0.3 - RELEASE   -
|  1> ! RI PBE def2-SVP def2-SVP/J NBO PAL2
|  2> % maxcore 2000
|  3> % output
|  4>     # printlevel mini
|  5>     print[ P_Basis ] 0
|  6>     print[ P_SCFInfo ] 1
|  7>     print[ P_SCFIterInfo ] 1
|  8>     print[ P_OrbEn ] 0
|  9>     print[ P_Cartesian ] 0
| 10> end
| 11> *xyz 0 1
| 12>  C        0.9071680000    -0.0498000000    -0.1141090000
| 13>  C        2.4283810000    -0.0509600000     0.0231730000
| 14>  C        3.0835130000    -1.0064610000    -0.9721920000
| 15>  C        2.9675630000     1.3419240000    -0.1622790000
| 16>  O        3.5700860000     1.9764840000     0.6582290000
| 17>  C        2.7078870000     1.9441570000    -1.4921770000
| 18>  N        2.5013010000     2.4023140000    -2.5267690000
| 19>  H        0.5251700000    -1.0584980000     0.0547260000
| 20>  H        0.6010570000     0.2606670000    -1.1163100000
| 21>  H        0.4376260000     0.6172010000     0.6116000000
| 22>  H        2.7086120000    -0.3279750000     1.0428200000
| 23>  H        2.8475950000    -0.7270310000    -2.0021270000
| 24>  H        2.7093480000    -2.0185750000    -0.8062760000
| 25>  H        4.1693930000    -1.0230460000    -0.8599080000
| 26> *
| 27>
| 28>                          ****END OF INPUT****
 Total Charge           Charge          ....    0
 Multiplicity           Mult            ....    1
 Number of Electrons    NEL             ....   52
 Basis Dimension        Dim             ....  133

MULLIKEN ATOMIC CHARGES
-----------------------
   0 C :    0.006891
   1 C :   -0.100338
   2 C :   -0.005553
   3 C :    0.009968
   4 O :   -0.097324
   5 C :   -0.145366
   6 N :    0.062705
   7 H :    0.035389
   8 H :    0.044455
   9 H :    0.040359
  10 H :    0.019754
  11 H :    0.047618
  12 H :    0.037379
  13 H :    0.044062
Sum of atomic charges:    0.0000000

LOEWDIN ATOMIC CHARGES
----------------------
   0 C :   -0.045975
   1 C :   -0.063183
   2 C :   -0.048396
   3 C :    0.042928
   4 O :   -0.060870
   5 C :   -0.060294
   6 N :   -0.014901
   7 H :    0.036403
   8 H :    0.033936
   9 H :    0.034680
  10 H :    0.039224
  11 H :    0.034338
  12 H :    0.036895
  13 H :    0.035212

  Mayer bond orders larger than 0.1
B(  0-C ,  1-C ) :   1.0618 B(  0-C ,  7-H ) :   0.9563 B(  0-C ,  8-H ) :   0.9565
B(  0-C ,  9-H ) :   0.9608 B(  1-C ,  2-C ) :   1.0587 B(  1-C ,  3-C ) :   0.9896
B(  1-C , 10-H ) :   0.8805 B(  2-C , 11-H ) :   0.9565 B(  2-C , 12-H ) :   0.9559
B(  2-C , 13-H ) :   0.9607 B(  3-C ,  4-O ) :   2.2332 B(  3-C ,  5-C ) :   0.8805
B(  5-C ,  6-N ) :   3.0200

FINAL SINGLE POINT ENERGY      -324.051109824975

DIPOLE MOMENT
-------------
                                X             Y             Z
Electronic contribution:      3.48321       8.63169      -0.77489
Nuclear contribution   :     -3.86168      -9.88045       1.22120
                        -----------------------------------------
Total Dipole Moment    :     -0.37847      -1.24877       0.44631
                        -----------------------------------------
Magnitude (a.u.)       :      1.37908
Magnitude (Debye)      :      3.50534

                             ****ORCA TERMINATED NORMALLY****
TOTAL RUN TIME: 0 days 0 hours 0 minutes 6 seconds 0 msec
