                         Program Version 3.0.3 - RELEASE   -
|  1> ! RI PBE def2-SVP def2-SVP/J NBO PAL2
|  2> % maxcore 2000
|  3> % output
|  4>     # printlevel mini
|  5>     print[ P_Basis ] 0
|  6>     print[ P_SCFInfo ] 1
|  7>     print[ P_SCFIterInfo ] 1
|  8>     print[ P_OrbEn ] 0
|  9>     print[ P_Cartesian ] 0
| 10> end
| 11> *xyz 0 1
| 12>  C        0.9622320000    -0.3023670000     0.1270000000
| 13>  C        2.4468480000    -0.0340030000    -0.0783020000
| 14>  C        2.8236560000    -0.1978960000    -1.5448530000
| 15>  C        2.8166790000     1.3429710000     0.4604250000
| 16>  O        2.4510440000     1.4153080000     1.8179640000
| 17>  C        4.3012670000     1.6737510000     0.3386390000
| 18>  N        4.5718290000     2.8978220000     1.0869220000
| 19>  H        0.7044850000    -1.3156030000    -0.1919370000
| 20>  H        0.3594450000     0.3954250000    -0.4639560000
| 21>  H        0.6828750000    -0.1859020000     1.1740800000
| 22>  H        3.0123900000    -0.7625230000     0.5174440000
| 23>  H        2.3528760000     0.5773690000    -2.1585160000
| 24>  H        2.4772360000    -1.1641840000    -1.9190490000
| 25>  H        3.9017970000    -0.1501100000    -1.7116170000
| 26>  H        2.2485990000     2.0967000000    -0.1190810000
| 27>  H        3.0063720000     2.1242860000     2.1794440000
| 28>  H        4.5974530000     1.7320750000    -0.7151340000
| 29>  H        4.8716400000     0.8630370000     0.8033100000
| 30>  H        4.3044120000     3.7171050000     0.5553290000
| 31>  H        5.5528640000     2.9881390000     1.3109780000
| 32> *
| 33>
| 34>                          ****END OF INPUT****
 Total Charge           Charge          ....    0
 Multiplicity           Mult            ....    1
 Number of Electrons    NEL             ....   58
 Basis Dimension        Dim             ....  163

MULLIKEN ATOMIC CHARGES
-----------------------
   0 C :    0.049437
   1 C :   -0.127839
   2 C :    0.014130
   3 C :    0.080617
   4 O :   -0.258562
   5 C :    0.088666
   6 N :   -0.220752
   7 H :    0.004685
   8 H :   -0.000195
   9 H :    0.028579
  10 H :   -0.001229
  11 H :    0.010142
  12 H :    0.010462
  13 H :    0.020396
  14 H :   -0.033951
  15 H :    0.135753
  16 H :   -0.001027
  17 H :    0.000305
  18 H :    0.098143
  19 H :    0.102240
Sum of atomic charges:    0.0000000

LOEWDIN ATOMIC CHARGES
----------------------
   0 C :   -0.055651
   1 C :   -0.053170
   2 C :   -0.059475
   3 C :    0.037994
   4 O :   -0.119489
   5 C :   -0.006676
   6 N :   -0.088247
   7 H :    0.020852
   8 H :    0.021279
   9 H :    0.028763
  10 H :    0.023612
  11 H :    0.022787
  12 H :    0.026165
  13 H :    0.020477
  14 H :   -0.004468
  15 H :    0.041652
  16 H :    0.005777
  17 H :    0.021893
  18 H :    0.057130
  19 H :    0.058794

  Mayer bond orders larger than 0.1
B(  0-C ,  1-C ) :   1.0951 B(  0-C ,  7-H ) :   0.9596 B(  0-C ,  8-H ) :   0.9546
B(  0-C ,  9-H ) :   0.9540 B(  1-C ,  2-C ) :   1.0685 B(  1-C ,  3-C ) :   1.0224
B(  1-C , 10-H ) :   0.8934 B(  2-C , 11-H ) :   0.9575 B(  2-C , 12-H ) :   0.9562
B(  2-C , 13-H ) :   0.9570 B(  3-C ,  4-O ) :   1.1047 B(  3-C ,  5-C ) :   1.0482
B(  3-C , 14-H ) :   0.8835 B(  4-O , 15-H ) :   0.9363 B(  5-C ,  6-N ) :   1.0808
B(  5-C , 16-H ) :   0.9236 B(  5-C , 17-H ) :   0.9174 B(  6-N , 15-H ) :   0.1233
B(  6-N , 18-H ) :   0.9672 B(  6-N , 19-H ) :   0.9647

FINAL SINGLE POINT ENERGY      -327.661399052672

DIPOLE MOMENT
-------------
                                X             Y             Z
Electronic contribution:      0.88234       2.58090       4.30671
Nuclear contribution   :      0.01977      -2.04392      -4.82762
                        -----------------------------------------
Total Dipole Moment    :      0.90211       0.53697      -0.52090
                        -----------------------------------------
Magnitude (a.u.)       :      1.17195
Magnitude (Debye)      :      2.97887

                             ****ORCA TERMINATED NORMALLY****
TOTAL RUN TIME: 0 days 0 hours 0 minutes 8 seconds 703 msec
