                         Program Version 3.0.3 - RELEASE   -
|  1> ! RI PBE def2-SVP def2-SVP/J NBO PAL2
|  2> % maxcore 2000
|  3> % output
|  4>     # printlevel mini
|  5>     print[ P_Basis ] 0
|  6>     print[ P_SCFInfo ] 1
|  7>     print[ P_SCFIterInfo ] 1
|  8>     print[ P_OrbEn ] 0
|  9>     print[ P_Cartesian ] 0
| 10> end
| 11> *xyz 0 1
| 12>  C        0.8622170000    -0.1189130000     0.0240380000
| 13>  C        2.3787300000    -0.0220690000    -0.0480660000
| 14>  C        2.8389100000     0.6355280000    -1.3399090000
| 15>  C        2.9383950000     0.6879390000     1.1936380000
| 16>  O        4.3405120000     0.6499720000     1.2836530000
| 17>  C        2.4448540000     2.0742880000     1.2788170000
| 18>  N        2.0760770000     3.1627780000     1.3136680000
| 19>  H        0.4777710000    -0.7052290000    -0.8127870000
| 20>  H        0.3998340000     0.8708110000    -0.0229570000
| 21>  H        0.5331720000    -0.6016350000     0.9481350000
| 22>  H        2.8024590000    -1.0312350000     0.0038150000
| 23>  H        2.4737630000     1.6642600000    -1.4111130000
| 24>  H        2.4538310000     0.0868270000    -2.2017770000
| 25>  H        3.9282550000     0.6468400000    -1.4324200000
| 26>  H        2.5749120000     0.1642260000     2.0832470000
| 27>  H        4.7118960000     1.1875360000     0.5776280000
| 28> *
| 29>
| 30>                          ****END OF INPUT****
 Total Charge           Charge          ....    0
 Multiplicity           Mult            ....    1
 Number of Electrons    NEL             ....   54
 Basis Dimension        Dim             ....  143

MULLIKEN ATOMIC CHARGES
-----------------------
   0 C :    0.004453
   1 C :   -0.119643
   2 C :   -0.013000
   3 C :    0.180891
   4 O :   -0.247684
   5 C :   -0.254472
   6 N :    0.043629
   7 H :    0.027705
   8 H :    0.041403
   9 H :    0.022943
  10 H :    0.026252
  11 H :    0.039289
  12 H :    0.029392
  13 H :    0.014382
  14 H :    0.038437
  15 H :    0.166023
Sum of atomic charges:   -0.0000000

LOEWDIN ATOMIC CHARGES
----------------------
   0 C :   -0.056359
   1 C :   -0.051956
   2 C :   -0.064209
   3 C :    0.028143
   4 O :   -0.077816
   5 C :   -0.059305
   6 N :   -0.058917
   7 H :    0.032468
   8 H :    0.033040
   9 H :    0.028737
  10 H :    0.033967
  11 H :    0.032788
  12 H :    0.034926
  13 H :    0.021993
  14 H :    0.049581
  15 H :    0.072918

  Mayer bond orders larger than 0.1
B(  0-C ,  1-C ) :   1.0622 B(  0-C ,  7-H ) :   0.9564 B(  0-C ,  8-H ) :   0.9581
B(  0-C ,  9-H ) :   0.9597 B(  1-C ,  2-C ) :   1.0600 B(  1-C ,  3-C ) :   1.0217
B(  1-C , 10-H ) :   0.9032 B(  2-C , 11-H ) :   0.9582 B(  2-C , 12-H ) :   0.9570
B(  2-C , 13-H ) :   0.9537 B(  3-C ,  4-O ) :   1.0761 B(  3-C ,  5-C ) :   0.9887
B(  3-C , 14-H ) :   0.8746 B(  4-O , 15-H ) :   0.9753 B(  5-C ,  6-N ) :   3.0495

FINAL SINGLE POINT ENERGY      -325.249198739871

DIPOLE MOMENT
-------------
                                X             Y             Z
Electronic contribution:      2.86442       4.99366       5.71174
Nuclear contribution   :     -2.74595      -6.03812      -6.36781
                        -----------------------------------------
Total Dipole Moment    :      0.11847      -1.04445      -0.65607
                        -----------------------------------------
Magnitude (a.u.)       :      1.23909
Magnitude (Debye)      :      3.14951

                             ****ORCA TERMINATED NORMALLY****
TOTAL RUN TIME: 0 days 0 hours 0 minutes 6 seconds 701 msec
