                         Program Version 3.0.3 - RELEASE   -
|  1> ! RI PBE def2-SVP def2-SVP/J NBO PAL2
|  2> % maxcore 2000
|  3> % output
|  4>     # printlevel mini
|  5>     print[ P_Basis ] 0
|  6>     print[ P_SCFInfo ] 1
|  7>     print[ P_SCFIterInfo ] 1
|  8>     print[ P_OrbEn ] 0
|  9>     print[ P_Cartesian ] 0
| 10> end
| 11> *xyz 0 1
| 12>  C        0.8759840000    -0.0429850000    -0.0133000000
| 13>  C        2.3983170000     0.0913130000     0.0371610000
| 14>  C        2.8510510000     1.4191850000     0.6441130000
| 15>  C        2.6515140000     2.5952520000    -0.2670740000
| 16>  O        2.2841820000     2.5222160000    -1.4069000000
| 17>  C        2.9878110000    -1.0174310000     0.7803010000
| 18>  N        3.4455060000    -1.8846040000     1.3811640000
| 19>  H        0.4580710000     0.7665210000    -0.6114270000
| 20>  H        0.4515560000    -0.0012550000     0.9919130000
| 21>  H        0.5861240000    -0.9919760000    -0.4651630000
| 22>  H        2.7870680000     0.0410590000    -0.9855960000
| 23>  H        3.9191430000     1.3990070000     0.8955990000
| 24>  H        2.3373130000     1.6196710000     1.5917640000
| 25>  H        2.8937690000     3.5785370000     0.1888460000
| 26> *
| 27>
| 28>                          ****END OF INPUT****
 Total Charge           Charge          ....    0
 Multiplicity           Mult            ....    1
 Number of Electrons    NEL             ....   52
 Basis Dimension        Dim             ....  133

MULLIKEN ATOMIC CHARGES
-----------------------
   0 C :    0.016257
   1 C :   -0.088714
   2 C :   -0.005407
   3 C :    0.103225
   4 O :   -0.157960
   5 C :   -0.234256
   6 N :    0.062926
   7 H :    0.045114
   8 H :    0.035057
   9 H :    0.046724
  10 H :    0.055953
  11 H :    0.065864
  12 H :    0.049029
  13 H :    0.006187
Sum of atomic charges:   -0.0000000

LOEWDIN ATOMIC CHARGES
----------------------
   0 C :   -0.039107
   1 C :   -0.059791
   2 C :   -0.066026
   3 C :    0.100096
   4 O :   -0.101081
   5 C :   -0.039676
   6 N :   -0.068977
   7 H :    0.035209
   8 H :    0.031970
   9 H :    0.039335
  10 H :    0.058848
  11 H :    0.061345
  12 H :    0.051021
  13 H :   -0.003167

  Mayer bond orders larger than 0.1
B(  0-C ,  1-C ) :   1.0687 B(  0-C ,  7-H ) :   0.9614 B(  0-C ,  8-H ) :   0.9598
B(  0-C ,  9-H ) :   0.9622 B(  1-C ,  2-C ) :   1.0498 B(  1-C ,  5-C ) :   1.0725
B(  1-C , 10-H ) :   0.8695 B(  2-C ,  3-C ) :   0.9754 B(  2-C , 11-H ) :   0.9015
B(  2-C , 12-H ) :   0.9045 B(  3-C ,  4-O ) :   2.1546 B(  3-C , 13-H ) :   0.9324
B(  5-C ,  6-N ) :   3.0746

FINAL SINGLE POINT ENERGY      -324.053042130069

DIPOLE MOMENT
-------------
                                X             Y             Z
Electronic contribution:      3.24896      -1.12100      -0.53216
Nuclear contribution   :     -3.60048       2.17604       0.63585
                        -----------------------------------------
Total Dipole Moment    :     -0.35151       1.05503       0.10370
                        -----------------------------------------
Magnitude (a.u.)       :      1.11688
Magnitude (Debye)      :      2.83888

                             ****ORCA TERMINATED NORMALLY****
TOTAL RUN TIME: 0 days 0 hours 0 minutes 6 seconds 176 msec
