                         Program Version 3.0.3 - RELEASE   -
|  1> ! RI PBE def2-SVP def2-SVP/J NBO PAL2
|  2> % maxcore 2000
|  3> % output
|  4>     # printlevel mini
|  5>     print[ P_Basis ] 0
|  6>     print[ P_SCFInfo ] 1
|  7>     print[ P_SCFIterInfo ] 1
|  8>     print[ P_OrbEn ] 0
|  9>     print[ P_Cartesian ] 0
| 10> end
| 11> *xyz 0 1
| 12>  C        1.3176600000     0.9775000000    -0.1526840000
| 13>  C        2.4866720000    -0.0041090000    -0.1010420000
| 14>  C        2.1324220000    -1.2843130000     0.6635520000
| 15>  C        3.3037240000    -2.2204160000     0.8511290000
| 16>  O        4.2826430000    -1.5458430000     1.6182400000
| 17>  C        2.9441150000    -0.3270200000    -1.4498970000
| 18>  N        3.2915740000    -0.5956960000    -2.5131440000
| 19>  H        1.0245670000     1.2502240000     0.8629030000
| 20>  H        0.4555620000     0.5298380000    -0.6513720000
| 21>  H        1.5873000000     1.8874710000    -0.6900200000
| 22>  H        3.3334600000     0.4651050000     0.4104000000
| 23>  H        1.3280610000    -1.8132890000     0.1437780000
| 24>  H        1.7510910000    -0.9910940000     1.6462990000
| 25>  H        3.7043530000    -2.5158370000    -0.1275960000
| 26>  H        2.9614850000    -3.1294370000     1.3630710000
| 27>  H        5.0904090000    -2.0633830000     1.6161840000
| 28> *
| 29>
| 30>                          ****END OF INPUT****
 Total Charge           Charge          ....    0
 Multiplicity           Mult            ....    1
 Number of Electrons    NEL             ....   54
 Basis Dimension        Dim             ....  143

MULLIKEN ATOMIC CHARGES
-----------------------
   0 C :    0.041567
   1 C :   -0.110047
   2 C :   -0.012564
   3 C :    0.160911
   4 O :   -0.282395
   5 C :   -0.230727
   6 N :    0.042862
   7 H :    0.029135
   8 H :    0.033197
   9 H :    0.038790
  10 H :    0.055976
  11 H :    0.026562
  12 H :    0.024584
  13 H :    0.016391
  14 H :    0.004253
  15 H :    0.161504
Sum of atomic charges:    0.0000000

LOEWDIN ATOMIC CHARGES
----------------------
   0 C :   -0.038957
   1 C :   -0.064544
   2 C :   -0.034791
   3 C :    0.058726
   4 O :   -0.127687
   5 C :   -0.036587
   6 N :   -0.077138
   7 H :    0.032273
   8 H :    0.032526
   9 H :    0.035576
  10 H :    0.055444
  11 H :    0.035273
  12 H :    0.033275
  13 H :    0.012050
  14 H :    0.009193
  15 H :    0.075368

  Mayer bond orders larger than 0.1
B(  0-C ,  1-C ) :   1.0890 B(  0-C ,  7-H ) :   0.9579 B(  0-C ,  8-H ) :   0.9588
B(  0-C ,  9-H ) :   0.9598 B(  1-C ,  2-C ) :   1.0578 B(  1-C ,  5-C ) :   1.0578
B(  1-C , 10-H ) :   0.8698 B(  2-C ,  3-C ) :   1.0986 B(  2-C , 11-H ) :   0.9263
B(  2-C , 12-H ) :   0.9232 B(  3-C ,  4-O ) :   1.0859 B(  3-C , 13-H ) :   0.9267
B(  3-C , 14-H ) :   0.9283 B(  4-O , 15-H ) :   0.9776 B(  5-C ,  6-N ) :   3.0571

FINAL SINGLE POINT ENERGY      -325.249922887012

DIPOLE MOMENT
-------------
                                X             Y             Z
Electronic contribution:      3.83291      -0.52817      -3.71807
Nuclear contribution   :     -4.10436       0.29222       4.89612
                        -----------------------------------------
Total Dipole Moment    :     -0.27145      -0.23594       1.17804
                        -----------------------------------------
Magnitude (a.u.)       :      1.23172
Magnitude (Debye)      :      3.13079

                             ****ORCA TERMINATED NORMALLY****
TOTAL RUN TIME: 0 days 0 hours 0 minutes 7 seconds 293 msec
