                         Program Version 3.0.3 - RELEASE   -
|  1> ! RI PBE def2-SVP def2-SVP/J NBO PAL2
|  2> % maxcore 2000
|  3> % output
|  4>     # printlevel mini
|  5>     print[ P_Basis ] 0
|  6>     print[ P_SCFInfo ] 1
|  7>     print[ P_SCFIterInfo ] 1
|  8>     print[ P_OrbEn ] 0
|  9>     print[ P_Cartesian ] 0
| 10> end
| 11> *xyz 0 1
| 12>  C        1.0169740000    -0.0609160000    -0.0773600000
| 13>  C        2.4591400000    -0.0281140000    -0.1078630000
| 14>  C        3.6635430000     0.0073840000    -0.1378850000
| 15>  C        5.0931610000     0.0258810000    -0.1524940000
| 16>  O        5.7762340000     0.7480470000    -0.8322110000
| 17>  C        5.7156790000    -0.9444300000     0.7638340000
| 18>  N        6.2083450000    -1.7000560000     1.4774410000
| 19>  H        0.5944180000     0.5100070000    -0.9067000000
| 20>  H        0.6520920000     0.3681480000     0.8596340000
| 21>  H        0.6565140000    -1.0906420000    -0.1383070000
| 22> *
| 23>
| 24>                          ****END OF INPUT****
 Total Charge           Charge          ....    0
 Multiplicity           Mult            ....    1
 Number of Electrons    NEL             ....   48
 Basis Dimension        Dim             ....  113

MULLIKEN ATOMIC CHARGES
-----------------------
   0 C :    0.051579
   1 C :   -0.158492
   2 C :    0.050956
   3 C :    0.013083
   4 O :   -0.097843
   5 C :   -0.135981
   6 N :    0.060378
   7 H :    0.072695
   8 H :    0.072669
   9 H :    0.070956
Sum of atomic charges:   -0.0000000

LOEWDIN ATOMIC CHARGES
----------------------
   0 C :   -0.059771
   1 C :    0.040372
   2 C :   -0.075354
   3 C :    0.011572
   4 O :   -0.056836
   5 C :   -0.048192
   6 N :   -0.009358
   7 H :    0.063301
   8 H :    0.068510
   9 H :    0.065757

  Mayer bond orders larger than 0.1
B(  0-C ,  1-C ) :   1.1394 B(  0-C ,  7-H ) :   0.9284 B(  0-C ,  8-H ) :   0.9194
B(  0-C ,  9-H ) :   0.9235 B(  1-C ,  2-C ) :   2.5174 B(  1-C ,  4-O ) :   0.1127
B(  2-C ,  3-C ) :   0.9143 B(  3-C ,  4-O ) :   2.1916 B(  3-C ,  5-C ) :   0.9396
B(  5-C ,  6-N ) :   3.0319

FINAL SINGLE POINT ENERGY      -321.590876960318

DIPOLE MOMENT
-------------
                                X             Y             Z
Electronic contribution:      8.14865      -0.33124       0.31569
Nuclear contribution   :    -10.18141       0.53545      -0.50258
                        -----------------------------------------
Total Dipole Moment    :     -2.03276       0.20421      -0.18689
                        -----------------------------------------
Magnitude (a.u.)       :      2.05152
Magnitude (Debye)      :      5.21455

                             ****ORCA TERMINATED NORMALLY****
TOTAL RUN TIME: 0 days 0 hours 0 minutes 4 seconds 901 msec
