                         Program Version 3.0.3 - RELEASE   -
|  1> ! RI PBE def2-SVP def2-SVP/J NBO PAL2
|  2> % maxcore 2000
|  3> % output
|  4>     # printlevel mini
|  5>     print[ P_Basis ] 0
|  6>     print[ P_SCFInfo ] 1
|  7>     print[ P_SCFIterInfo ] 1
|  8>     print[ P_OrbEn ] 0
|  9>     print[ P_Cartesian ] 0
| 10> end
| 11> *xyz 0 1
| 12>  C        0.9479820000    -0.0669910000    -0.0525570000
| 13>  C        2.3982410000    -0.0537410000    -0.0583750000
| 14>  C        3.5999130000    -0.0446990000    -0.0840130000
| 15>  C        5.0566420000    -0.0411400000    -0.0754110000
| 16>  O        5.5610200000     0.3311700000    -1.3358190000
| 17>  C        5.6008530000     0.9106000000     0.9951370000
| 18>  N        7.0484820000     0.9733250000     0.8584200000
| 19>  H        0.5600660000    -0.1505870000    -1.0708380000
| 20>  H        0.5442160000     0.8485490000     0.3867430000
| 21>  H        0.5654660000    -0.9145780000     0.5217010000
| 22>  H        5.3956700000    -1.0620140000     0.1750210000
| 23>  H        6.4638800000     0.6304310000    -1.1421420000
| 24>  H        5.2490010000     0.5907460000     1.9835820000
| 25>  H        5.1914510000     1.9037940000     0.7973880000
| 26>  H        7.5005780000     0.1936880000     1.3189440000
| 27>  H        7.4252500000     1.8238380000     1.2517180000
| 28> *
| 29>
| 30>                          ****END OF INPUT****
 Total Charge           Charge          ....    0
 Multiplicity           Mult            ....    1
 Number of Electrons    NEL             ....   54
 Basis Dimension        Dim             ....  143

MULLIKEN ATOMIC CHARGES
-----------------------
   0 C :    0.057460
   1 C :   -0.270957
   2 C :    0.003733
   3 C :    0.123953
   4 O :   -0.252661
   5 C :    0.042696
   6 N :   -0.210342
   7 H :    0.049255
   8 H :    0.044942
   9 H :    0.045888
  10 H :   -0.004417
  11 H :    0.138728
  12 H :    0.007534
  13 H :    0.020086
  14 H :    0.100119
  15 H :    0.103983
Sum of atomic charges:    0.0000000

LOEWDIN ATOMIC CHARGES
----------------------
   0 C :   -0.067429
   1 C :   -0.058809
   2 C :   -0.063366
   3 C :    0.027174
   4 O :   -0.115479
   5 C :    0.000465
   6 N :   -0.090037
   7 H :    0.052807
   8 H :    0.048774
   9 H :    0.049779
  10 H :    0.017141
  11 H :    0.044400
  12 H :    0.009549
  13 H :    0.026961
  14 H :    0.057727
  15 H :    0.060344

  Mayer bond orders larger than 0.1
B(  0-C ,  1-C ) :   1.1287 B(  0-C ,  7-H ) :   0.9307 B(  0-C ,  8-H ) :   0.9331
B(  0-C ,  9-H ) :   0.9346 B(  1-C ,  2-C ) :   2.6474 B(  2-C ,  3-C ) :   0.9266
B(  3-C ,  4-O ) :   1.1579 B(  3-C ,  5-C ) :   1.0343 B(  3-C , 10-H ) :   0.8738
B(  4-O , 11-H ) :   0.9406 B(  5-C ,  6-N ) :   1.0983 B(  5-C , 12-H ) :   0.9326
B(  5-C , 13-H ) :   0.9267 B(  6-N , 11-H ) :   0.1150 B(  6-N , 14-H ) :   0.9673
B(  6-N , 15-H ) :   0.9650

FINAL SINGLE POINT ENERGY      -325.200116422148

DIPOLE MOMENT
-------------
                                X             Y             Z
Electronic contribution:      1.08872      -0.77924      -2.50898
Nuclear contribution   :     -0.81333       0.96437       3.63756
                        -----------------------------------------
Total Dipole Moment    :      0.27539       0.18513       1.12858
                        -----------------------------------------
Magnitude (a.u.)       :      1.17635
Magnitude (Debye)      :      2.99004

                             ****ORCA TERMINATED NORMALLY****
TOTAL RUN TIME: 0 days 0 hours 0 minutes 7 seconds 52 msec
