                         Program Version 3.0.3 - RELEASE   -
|  1> ! RI PBE def2-SVP def2-SVP/J NBO PAL2
|  2> % maxcore 2000
|  3> % output
|  4>     # printlevel mini
|  5>     print[ P_Basis ] 0
|  6>     print[ P_SCFInfo ] 1
|  7>     print[ P_SCFIterInfo ] 1
|  8>     print[ P_OrbEn ] 0
|  9>     print[ P_Cartesian ] 0
| 10> end
| 11> *xyz 0 1
| 12>  C        0.9062450000     0.0137130000     0.0438720000
| 13>  C        2.3543160000     0.0343820000     0.0553890000
| 14>  C        3.5554420000     0.0498330000     0.0607530000
| 15>  C        5.0156710000     0.0796940000     0.0893790000
| 16>  O        5.5460050000     1.0941140000     0.9059810000
| 17>  C        5.5398060000    -1.2481100000     0.4758560000
| 18>  N        5.9612950000    -2.2701230000     0.7886400000
| 19>  H        0.5040710000     0.8601430000     0.6055180000
| 20>  H        0.5272010000    -0.9057350000     0.4956870000
| 21>  H        0.5258420000     0.0747790000    -0.9782960000
| 22>  H        5.3939960000     0.2887140000    -0.9173990000
| 23>  H        5.1391110000     1.0235070000     1.7759180000
| 24> *
| 25>
| 26>                          ****END OF INPUT****
 Total Charge           Charge          ....    0
 Multiplicity           Mult            ....    1
 Number of Electrons    NEL             ....   50
 Basis Dimension        Dim             ....  123

MULLIKEN ATOMIC CHARGES
-----------------------
   0 C :    0.054496
   1 C :   -0.215548
   2 C :   -0.076021
   3 C :    0.279382
   4 O :   -0.249823
   5 C :   -0.231791
   6 N :    0.037855
   7 H :    0.057843
   8 H :    0.060173
   9 H :    0.056986
  10 H :    0.056342
  11 H :    0.170105
Sum of atomic charges:   -0.0000000

LOEWDIN ATOMIC CHARGES
----------------------
   0 C :   -0.064182
   1 C :   -0.020227
   2 C :   -0.088208
   3 C :    0.027235
   4 O :   -0.074411
   5 C :   -0.051461
   6 N :   -0.048609
   7 H :    0.057667
   8 H :    0.057335
   9 H :    0.056878
  10 H :    0.067579
  11 H :    0.080404

  Mayer bond orders larger than 0.1
B(  0-C ,  1-C ) :   1.1351 B(  0-C ,  7-H ) :   0.9276 B(  0-C ,  8-H ) :   0.9301
B(  0-C ,  9-H ) :   0.9311 B(  1-C ,  2-C ) :   2.6810 B(  2-C ,  3-C ) :   0.9716
B(  3-C ,  4-O ) :   1.0750 B(  3-C ,  5-C ) :   0.9602 B(  3-C , 10-H ) :   0.8479
B(  4-O , 11-H ) :   0.9747 B(  5-C ,  6-N ) :   3.0791

FINAL SINGLE POINT ENERGY      -322.783059475772

DIPOLE MOMENT
-------------
                                X             Y             Z
Electronic contribution:      6.63956      -1.69905       0.69322
Nuclear contribution   :     -8.01437       2.54018      -0.80732
                        -----------------------------------------
Total Dipole Moment    :     -1.37481       0.84112      -0.11411
                        -----------------------------------------
Magnitude (a.u.)       :      1.61574
Magnitude (Debye)      :      4.10689

                             ****ORCA TERMINATED NORMALLY****
TOTAL RUN TIME: 0 days 0 hours 0 minutes 5 seconds 297 msec
