                         Program Version 3.0.3 - RELEASE   -
|  1> ! RI PBE def2-SVP def2-SVP/J NBO PAL2
|  2> % maxcore 2000
|  3> % output
|  4>     # printlevel mini
|  5>     print[ P_Basis ] 0
|  6>     print[ P_SCFInfo ] 1
|  7>     print[ P_SCFIterInfo ] 1
|  8>     print[ P_OrbEn ] 0
|  9>     print[ P_Cartesian ] 0
| 10> end
| 11> *xyz 0 1
| 12>  C        1.0635690000    -0.2984790000     0.0074380000
| 13>  C        2.5651430000    -0.0845800000    -0.0390920000
| 14>  C        2.9616280000     1.3899140000     0.0174450000
| 15>  C        4.4692870000     1.6083180000     0.1559430000
| 16>  O        5.2288220000     0.7397450000     0.4631840000
| 17>  C        2.4675400000     2.1581300000    -1.1176600000
| 18>  N        2.1027940000     2.7584140000    -2.0279900000
| 19>  H        0.8281960000    -1.3634350000    -0.0298800000
| 20>  H        0.5626750000     0.1830770000    -0.8357220000
| 21>  H        0.6323020000     0.1041690000     0.9280930000
| 22>  H        2.9886150000    -0.5226290000    -0.9465410000
| 23>  H        3.0572490000    -0.5807190000     0.7997060000
| 24>  H        2.5277440000     1.8528790000     0.9182540000
| 25>  H        4.8095250000     2.6473150000    -0.0257660000
| 26> *
| 27>
| 28>                          ****END OF INPUT****
 Total Charge           Charge          ....    0
 Multiplicity           Mult            ....    1
 Number of Electrons    NEL             ....   52
 Basis Dimension        Dim             ....  133

MULLIKEN ATOMIC CHARGES
-----------------------
   0 C :   -0.011895
   1 C :   -0.006544
   2 C :   -0.085065
   3 C :    0.138385
   4 O :   -0.129348
   5 C :   -0.237235
   6 N :    0.065834
   7 H :    0.034657
   8 H :    0.044282
   9 H :    0.018211
  10 H :    0.038866
  11 H :    0.037623
  12 H :    0.072721
  13 H :    0.019507
Sum of atomic charges:   -0.0000000

LOEWDIN ATOMIC CHARGES
----------------------
   0 C :   -0.063483
   1 C :   -0.023056
   2 C :   -0.102217
   3 C :    0.115112
   4 O :   -0.075033
   5 C :   -0.043473
   6 N :   -0.053897
   7 H :    0.034963
   8 H :    0.033675
   9 H :    0.027635
  10 H :    0.037409
  11 H :    0.035074
  12 H :    0.074613
  13 H :    0.002678

  Mayer bond orders larger than 0.1
B(  0-C ,  1-C ) :   1.1185 B(  0-C ,  7-H ) :   0.9614 B(  0-C ,  8-H ) :   0.9612
B(  0-C ,  9-H ) :   0.9611 B(  1-C ,  2-C ) :   1.0649 B(  1-C , 10-H ) :   0.9368
B(  1-C , 11-H ) :   0.9233 B(  2-C ,  3-C ) :   0.8908 B(  2-C ,  5-C ) :   1.0234
B(  2-C , 12-H ) :   0.8525 B(  3-C ,  4-O ) :   2.2119 B(  3-C , 13-H ) :   0.9365
B(  5-C ,  6-N ) :   3.0664

FINAL SINGLE POINT ENERGY      -324.049457603242

DIPOLE MOMENT
-------------
                                X             Y             Z
Electronic contribution:      4.98795       4.91760      -2.02409
Nuclear contribution   :     -5.20378      -5.26782       2.91786
                        -----------------------------------------
Total Dipole Moment    :     -0.21583      -0.35022       0.89377
                        -----------------------------------------
Magnitude (a.u.)       :      0.98391
Magnitude (Debye)      :      2.50089

                             ****ORCA TERMINATED NORMALLY****
TOTAL RUN TIME: 0 days 0 hours 0 minutes 6 seconds 380 msec
