                         Program Version 3.0.3 - RELEASE   -
|  1> ! RI PBE def2-SVP def2-SVP/J NBO PAL2
|  2> % maxcore 2000
|  3> % output
|  4>     # printlevel mini
|  5>     print[ P_Basis ] 0
|  6>     print[ P_SCFInfo ] 1
|  7>     print[ P_SCFIterInfo ] 1
|  8>     print[ P_OrbEn ] 0
|  9>     print[ P_Cartesian ] 0
| 10> end
| 11> *xyz 0 1
| 12>  C        2.9601230000     0.4988680000    -1.7420910000
| 13>  C        2.5723970000     0.2814910000    -0.2896950000
| 14>  C        3.0677240000     1.3352330000     0.7025650000
| 15>  C        2.4240230000     2.6927990000     0.4606680000
| 16>  O        2.7541620000     0.8962820000     2.0279760000
| 17>  C        4.5854360000     1.4780980000     0.6982540000
| 18>  N        5.2357390000     0.1978920000     0.9075620000
| 19>  H        2.5149770000    -0.2724980000    -2.3744660000
| 20>  H        4.0428090000     0.4373090000    -1.8692070000
| 21>  H        2.6232840000     1.4659420000    -2.1239830000
| 22>  H        2.9591480000    -0.6843530000     0.0424770000
| 23>  H        1.4778690000     0.2402510000    -0.2049090000
| 24>  H        1.3339150000     2.6114770000     0.5029880000
| 25>  H        2.6923620000     3.1013850000    -0.5161040000
| 26>  H        2.7418540000     3.3999820000     1.2294300000
| 27>  H        1.8345140000     0.6170680000     2.0404720000
| 28>  H        4.8349860000     2.2341010000     1.4587000000
| 29>  H        4.8979760000     1.8806780000    -0.2693800000
| 30>  H        4.9449210000    -0.1760440000     1.8033180000
| 31>  H        6.2405830000     0.3094280000     0.9383260000
| 32> *
| 33>
| 34>                          ****END OF INPUT****
 Total Charge           Charge          ....    0
 Multiplicity           Mult            ....    1
 Number of Electrons    NEL             ....   58
 Basis Dimension        Dim             ....  163

MULLIKEN ATOMIC CHARGES
-----------------------
   0 C :   -0.028210
   1 C :    0.035066
   2 C :   -0.175368
   3 C :    0.075299
   4 O :   -0.262511
   5 C :    0.135055
   6 N :   -0.199303
   7 H :    0.016710
   8 H :    0.035616
   9 H :    0.013120
  10 H :    0.009852
  11 H :   -0.007582
  12 H :    0.004071
  13 H :    0.009609
  14 H :    0.019379
  15 H :    0.149337
  16 H :   -0.009160
  17 H :   -0.000592
  18 H :    0.091816
  19 H :    0.087794
Sum of atomic charges:    0.0000000

LOEWDIN ATOMIC CHARGES
----------------------
   0 C :   -0.065946
   1 C :   -0.052183
   2 C :    0.011541
   3 C :   -0.067103
   4 O :   -0.109586
   5 C :    0.007229
   6 N :   -0.105780
   7 H :    0.029537
   8 H :    0.029461
   9 H :    0.020530
  10 H :    0.024928
  11 H :    0.014902
  12 H :    0.022568
  13 H :    0.025184
  14 H :    0.027383
  15 H :    0.063743
  16 H :    0.003042
  17 H :    0.018476
  18 H :    0.048994
  19 H :    0.053082

  Mayer bond orders larger than 0.1
B(  0-C ,  1-C ) :   1.1119 B(  0-C ,  7-H ) :   0.9501 B(  0-C ,  8-H ) :   0.9601
B(  0-C ,  9-H ) :   0.9619 B(  1-C ,  2-C ) :   1.0343 B(  1-C , 10-H ) :   0.9098
B(  1-C , 11-H ) :   0.9226 B(  2-C ,  3-C ) :   1.0612 B(  2-C ,  4-O ) :   1.0245
B(  2-C ,  5-C ) :   1.0191 B(  3-C , 12-H ) :   0.9476 B(  3-C , 13-H ) :   0.9423
B(  3-C , 14-H ) :   0.9451 B(  4-O , 15-H ) :   0.9791 B(  5-C ,  6-N ) :   1.1031
B(  5-C , 16-H ) :   0.9194 B(  5-C , 17-H ) :   0.9232 B(  6-N , 18-H ) :   0.9539
B(  6-N , 19-H ) :   0.9636

FINAL SINGLE POINT ENERGY      -327.659022397247

DIPOLE MOMENT
-------------
                                X             Y             Z
Electronic contribution:      0.58634      -1.31909       4.51010
Nuclear contribution   :     -0.71191       1.46370      -4.53179
                        -----------------------------------------
Total Dipole Moment    :     -0.12557       0.14460      -0.02169
                        -----------------------------------------
Magnitude (a.u.)       :      0.19274
Magnitude (Debye)      :      0.48991

                             ****ORCA TERMINATED NORMALLY****
TOTAL RUN TIME: 0 days 0 hours 0 minutes 7 seconds 961 msec
