                         Program Version 3.0.3 - RELEASE   -
|  1> ! RI PBE def2-SVP def2-SVP/J NBO PAL2
|  2> % maxcore 2000
|  3> % output
|  4>     # printlevel mini
|  5>     print[ P_Basis ] 0
|  6>     print[ P_SCFInfo ] 1
|  7>     print[ P_SCFIterInfo ] 1
|  8>     print[ P_OrbEn ] 0
|  9>     print[ P_Cartesian ] 0
| 10> end
| 11> *xyz 0 1
| 12>  C        2.9833070000    -0.4857660000    -1.3194320000
| 13>  C        2.5571420000    -0.0056830000     0.0546670000
| 14>  C        3.0575740000    -0.8815010000     1.2124960000
| 15>  C        2.6088850000    -0.3203570000     2.5592080000
| 16>  O        2.6356160000    -2.2259370000     1.0619810000
| 17>  C        4.5305800000    -0.9207830000     1.1873030000
| 18>  N        5.6789650000    -0.8920550000     1.1750190000
| 19>  H        2.5474520000     0.1448410000    -2.0964830000
| 20>  H        2.6619860000    -1.5138460000    -1.4930590000
| 21>  H        4.0694760000    -0.4507760000    -1.4290750000
| 22>  H        1.4633030000     0.0135950000     0.1323540000
| 23>  H        2.8979340000     1.0197410000     0.2261750000
| 24>  H        1.5163910000    -0.2745220000     2.5832150000
| 25>  H        2.9967330000     0.6871540000     2.7163040000
| 26>  H        2.9546800000    -0.9628950000     3.3691110000
| 27>  H        1.6785280000    -2.2399490000     1.1613350000
| 28> *
| 29>
| 30>                          ****END OF INPUT****
 Total Charge           Charge          ....    0
 Multiplicity           Mult            ....    1
 Number of Electrons    NEL             ....   54
 Basis Dimension        Dim             ....  143

MULLIKEN ATOMIC CHARGES
-----------------------
   0 C :    0.012059
   1 C :   -0.010581
   2 C :   -0.137330
   3 C :    0.065180
   4 O :   -0.224579
   5 C :   -0.143927
   6 N :    0.053095
   7 H :    0.024529
   8 H :    0.020765
   9 H :    0.043090
  10 H :    0.011811
  11 H :    0.024591
  12 H :    0.021795
  13 H :    0.034450
  14 H :    0.045597
  15 H :    0.159454
Sum of atomic charges:    0.0000000

LOEWDIN ATOMIC CHARGES
----------------------
   0 C :   -0.065884
   1 C :   -0.041854
   2 C :   -0.005131
   3 C :   -0.050997
   4 O :   -0.082850
   5 C :   -0.030234
   6 N :   -0.055657
   7 H :    0.031547
   8 H :    0.027374
   9 H :    0.035538
  10 H :    0.025561
  11 H :    0.034270
  12 H :    0.028598
  13 H :    0.039124
  14 H :    0.038207
  15 H :    0.072389

  Mayer bond orders larger than 0.1
B(  0-C ,  1-C ) :   1.1178 B(  0-C ,  7-H ) :   0.9551 B(  0-C ,  8-H ) :   0.9536
B(  0-C ,  9-H ) :   0.9586 B(  1-C ,  2-C ) :   1.0457 B(  1-C , 10-H ) :   0.9230
B(  1-C , 11-H ) :   0.9199 B(  2-C ,  3-C ) :   1.0877 B(  2-C ,  4-O ) :   1.1407
B(  2-C ,  5-C ) :   0.9744 B(  3-C , 12-H ) :   0.9481 B(  3-C , 13-H ) :   0.9411
B(  3-C , 14-H ) :   0.9488 B(  4-O , 15-H ) :   0.9755 B(  5-C ,  6-N ) :   3.0902

FINAL SINGLE POINT ENERGY      -325.249402061761

DIPOLE MOMENT
-------------
                                X             Y             Z
Electronic contribution:      5.28436      -3.22396       2.30780
Nuclear contribution   :     -7.04337       3.70256      -2.21675
                        -----------------------------------------
Total Dipole Moment    :     -1.75900       0.47860       0.09105
                        -----------------------------------------
Magnitude (a.u.)       :      1.82522
Magnitude (Debye)      :      4.63935

                             ****ORCA TERMINATED NORMALLY****
TOTAL RUN TIME: 0 days 0 hours 0 minutes 7 seconds 631 msec
