                         Program Version 3.0.3 - RELEASE   -
|  1> ! RI PBE def2-SVP def2-SVP/J NBO PAL2
|  2> % maxcore 2000
|  3> % output
|  4>     # printlevel mini
|  5>     print[ P_Basis ] 0
|  6>     print[ P_SCFInfo ] 1
|  7>     print[ P_SCFIterInfo ] 1
|  8>     print[ P_OrbEn ] 0
|  9>     print[ P_Cartesian ] 0
| 10> end
| 11> *xyz 0 1
| 12>  C        2.9636300000    -1.8576460000    -0.0417300000
| 13>  C        2.5164950000    -0.4087100000    -0.1385880000
| 14>  C        3.0915680000     0.4003910000    -1.3146130000
| 15>  C        2.5064670000     0.0653060000    -2.6850000000
| 16>  O        2.8282840000    -1.2549700000    -3.0467630000
| 17>  C        4.5508080000     0.3407790000    -1.3450660000
| 18>  N        5.7000400000     0.3096510000    -1.3587960000
| 19>  H        2.5390410000    -2.3178600000     0.8531290000
| 20>  H        4.0514390000    -1.9266870000     0.0321120000
| 21>  H        2.6516690000    -2.4350990000    -0.9109670000
| 22>  H        2.7877010000     0.1149260000     0.7828820000
| 23>  H        1.4257790000    -0.3511650000    -0.2167880000
| 24>  H        2.8352130000     1.4529070000    -1.1401870000
| 25>  H        2.8983800000     0.7833260000    -3.4151280000
| 26>  H        1.4179530000     0.2053890000    -2.6223110000
| 27>  H        2.7482220000    -1.3467800000    -3.9980250000
| 28> *
| 29>
| 30>                          ****END OF INPUT****
 Total Charge           Charge          ....    0
 Multiplicity           Mult            ....    1
 Number of Electrons    NEL             ....   54
 Basis Dimension        Dim             ....  143

MULLIKEN ATOMIC CHARGES
-----------------------
   0 C :   -0.015560
   1 C :   -0.018643
   2 C :   -0.104630
   3 C :    0.177084
   4 O :   -0.254699
   5 C :   -0.217239
   6 N :    0.052054
   7 H :    0.017269
   8 H :    0.041793
   9 H :    0.036459
  10 H :    0.025221
  11 H :    0.020780
  12 H :    0.045167
  13 H :    0.021573
  14 H :    0.009863
  15 H :    0.163509
Sum of atomic charges:   -0.0000000

LOEWDIN ATOMIC CHARGES
----------------------
   0 C :   -0.068699
   1 C :   -0.026369
   2 C :   -0.075642
   3 C :    0.072107
   4 O :   -0.107653
   5 C :   -0.036118
   6 N :   -0.070596
   7 H :    0.027822
   8 H :    0.033509
   9 H :    0.027521
  10 H :    0.031065
  11 H :    0.029239
  12 H :    0.060767
  13 H :    0.015640
  14 H :    0.008473
  15 H :    0.078935

  Mayer bond orders larger than 0.1
B(  0-C ,  1-C ) :   1.1249 B(  0-C ,  7-H ) :   0.9554 B(  0-C ,  8-H ) :   0.9578
B(  0-C ,  9-H ) :   0.9585 B(  1-C ,  2-C ) :   1.0612 B(  1-C , 10-H ) :   0.9358
B(  1-C , 11-H ) :   0.9309 B(  2-C ,  3-C ) :   1.0520 B(  2-C ,  5-C ) :   1.0594
B(  2-C , 12-H ) :   0.8678 B(  3-C ,  4-O ) :   1.1039 B(  3-C , 13-H ) :   0.9299
B(  3-C , 14-H ) :   0.9272 B(  4-O , 15-H ) :   0.9748 B(  5-C ,  6-N ) :   3.0615

FINAL SINGLE POINT ENERGY      -325.245660656151

DIPOLE MOMENT
-------------
                                X             Y             Z
Electronic contribution:      5.14782       2.38308      -2.84644
Nuclear contribution   :     -6.73272      -2.13601       2.33761
                        -----------------------------------------
Total Dipole Moment    :     -1.58490       0.24707      -0.50883
                        -----------------------------------------
Magnitude (a.u.)       :      1.68281
Magnitude (Debye)      :      4.27737

                             ****ORCA TERMINATED NORMALLY****
TOTAL RUN TIME: 0 days 0 hours 0 minutes 6 seconds 903 msec
