                         Program Version 3.0.3 - RELEASE   -
|  1> ! RI PBE def2-SVP def2-SVP/J NBO PAL2
|  2> % maxcore 2000
|  3> % output
|  4>     # printlevel mini
|  5>     print[ P_Basis ] 0
|  6>     print[ P_SCFInfo ] 1
|  7>     print[ P_SCFIterInfo ] 1
|  8>     print[ P_OrbEn ] 0
|  9>     print[ P_Cartesian ] 0
| 10> end
| 11> *xyz 0 1
| 12>  C        0.9588960000     0.3086650000    -0.0205970000
| 13>  C        2.4540640000     0.0335060000    -0.0300530000
| 14>  C        2.7922460000    -1.4420070000    -0.1521810000
| 15>  C        2.5161670000    -2.2415850000     1.0858950000
| 16>  O        2.1885660000    -1.8022600000     2.1529420000
| 17>  C        2.7051840000    -3.7002130000     0.9244790000
| 18>  N        2.8559450000    -4.8309570000     0.7779030000
| 19>  H        0.7619770000     1.3803040000     0.0462880000
| 20>  H        0.4721420000    -0.1707290000     0.8304860000
| 21>  H        0.4848880000    -0.0583320000    -0.9353710000
| 22>  H        2.9108720000     0.4278130000     0.8815750000
| 23>  H        2.9213900000     0.5583240000    -0.8677820000
| 24>  H        3.8562860000    -1.5978040000    -0.3774270000
| 25>  H        2.2577980000    -1.9184160000    -0.9838560000
| 26> *
| 27>
| 28>                          ****END OF INPUT****
 Total Charge           Charge          ....    0
 Multiplicity           Mult            ....    1
 Number of Electrons    NEL             ....   52
 Basis Dimension        Dim             ....  133

MULLIKEN ATOMIC CHARGES
-----------------------
   0 C :   -0.038442
   1 C :    0.005640
   2 C :   -0.027193
   3 C :   -0.031899
   4 O :   -0.110196
   5 C :   -0.116394
   6 N :    0.070043
   7 H :    0.033076
   8 H :    0.037279
   9 H :    0.019181
  10 H :    0.026787
  11 H :    0.019483
  12 H :    0.062003
  13 H :    0.050633
Sum of atomic charges:   -0.0000000

LOEWDIN ATOMIC CHARGES
----------------------
   0 C :   -0.065738
   1 C :   -0.041365
   2 C :   -0.061784
   3 C :    0.038407
   4 O :   -0.063302
   5 C :   -0.058882
   6 N :   -0.012165
   7 H :    0.032626
   8 H :    0.029058
   9 H :    0.024798
  10 H :    0.033282
  11 H :    0.032287
  12 H :    0.060682
  13 H :    0.052097

  Mayer bond orders larger than 0.1
B(  0-C ,  1-C ) :   1.1188 B(  0-C ,  7-H ) :   0.9637 B(  0-C ,  8-H ) :   0.9679
B(  0-C ,  9-H ) :   0.9640 B(  1-C ,  2-C ) :   1.0921 B(  1-C , 10-H ) :   0.9278
B(  1-C , 11-H ) :   0.9315 B(  2-C ,  3-C ) :   0.9960 B(  2-C , 12-H ) :   0.8970
B(  2-C , 13-H ) :   0.9070 B(  3-C ,  4-O ) :   2.1878 B(  3-C ,  5-C ) :   0.9325
B(  5-C ,  6-N ) :   3.0310

FINAL SINGLE POINT ENERGY      -324.051767031616

DIPOLE MOMENT
-------------
                                X             Y             Z
Electronic contribution:      2.57084      -9.95605       4.94323
Nuclear contribution   :     -2.46369      11.03015      -5.73505
                        -----------------------------------------
Total Dipole Moment    :      0.10715       1.07410      -0.79182
                        -----------------------------------------
Magnitude (a.u.)       :      1.33871
Magnitude (Debye)      :      3.40273

                             ****ORCA TERMINATED NORMALLY****
TOTAL RUN TIME: 0 days 0 hours 0 minutes 6 seconds 545 msec
