                         Program Version 3.0.3 - RELEASE   -
|  1> ! RI PBE def2-SVP def2-SVP/J NBO PAL2
|  2> % maxcore 2000
|  3> % output
|  4>     # printlevel mini
|  5>     print[ P_Basis ] 0
|  6>     print[ P_SCFInfo ] 1
|  7>     print[ P_SCFIterInfo ] 1
|  8>     print[ P_OrbEn ] 0
|  9>     print[ P_Cartesian ] 0
| 10> end
| 11> *xyz 0 1
| 12>  C        0.9472400000    -0.3251730000     0.0329060000
| 13>  C        2.4643950000    -0.2566510000     0.0005260000
| 14>  C        3.0090140000     1.0224070000     0.6162910000
| 15>  C        4.5182700000     1.1240730000     0.5620640000
| 16>  O        4.9352130000     1.1368700000    -0.7834270000
| 17>  C        5.0399310000     2.3729220000     1.2596770000
| 18>  N        6.4724810000     2.4892230000     1.0156190000
| 19>  H        0.5786110000    -1.2522960000    -0.4122380000
| 20>  H        0.5036010000     0.5068790000    -0.5213740000
| 21>  H        0.5677960000    -0.2759060000     1.0580570000
| 22>  H        2.8214030000    -0.3303990000    -1.0301600000
| 23>  H        2.8839580000    -1.1182620000     0.5331600000
| 24>  H        2.6882460000     1.0944370000     1.6631920000
| 25>  H        2.5892010000     1.8902740000     0.0932720000
| 26>  H        4.9476340000     0.2422200000     1.0738520000
| 27>  H        5.8198960000     1.5325690000    -0.7604320000
| 28>  H        4.7675020000     2.3467480000     2.3239160000
| 29>  H        4.5506680000     3.2435830000     0.8123600000
| 30>  H        6.9994820000     1.8748900000     1.6237980000
| 31>  H        6.8041580000     3.4306930000     1.1715410000
| 32> *
| 33>
| 34>                          ****END OF INPUT****
 Total Charge           Charge          ....    0
 Multiplicity           Mult            ....    1
 Number of Electrons    NEL             ....   58
 Basis Dimension        Dim             ....  163

MULLIKEN ATOMIC CHARGES
-----------------------
   0 C :    0.001301
   1 C :   -0.024632
   2 C :    0.004081
   3 C :    0.074274
   4 O :   -0.269676
   5 C :    0.074323
   6 N :   -0.212098
   7 H :    0.014655
   8 H :    0.015576
   9 H :    0.008520
  10 H :    0.022537
  11 H :   -0.000608
  12 H :   -0.007589
  13 H :   -0.002063
  14 H :   -0.031698
  15 H :    0.135146
  16 H :   -0.003092
  17 H :    0.002431
  18 H :    0.099124
  19 H :    0.099489
Sum of atomic charges:    0.0000000

LOEWDIN ATOMIC CHARGES
----------------------
   0 C :   -0.066398
   1 C :   -0.044635
   2 C :   -0.046675
   3 C :    0.034862
   4 O :   -0.122258
   5 C :   -0.008015
   6 N :   -0.091162
   7 H :    0.025272
   8 H :    0.023811
   9 H :    0.020602
  10 H :    0.027909
  11 H :    0.020800
  12 H :    0.020817
  13 H :    0.022556
  14 H :   -0.002657
  15 H :    0.043619
  16 H :    0.005228
  17 H :    0.021527
  18 H :    0.056854
  19 H :    0.057941

  Mayer bond orders larger than 0.1
B(  0-C ,  1-C ) :   1.1136 B(  0-C ,  7-H ) :   0.9610 B(  0-C ,  8-H ) :   0.9659
B(  0-C ,  9-H ) :   0.9647 B(  1-C ,  2-C ) :   1.1033 B(  1-C , 10-H ) :   0.9327
B(  1-C , 11-H ) :   0.9341 B(  2-C ,  3-C ) :   1.0573 B(  2-C , 12-H ) :   0.9248
B(  2-C , 13-H ) :   0.9167 B(  3-C ,  4-O ) :   1.0916 B(  3-C ,  5-C ) :   1.0456
B(  3-C , 14-H ) :   0.8865 B(  4-O , 15-H ) :   0.9429 B(  5-C ,  6-N ) :   1.0932
B(  5-C , 16-H ) :   0.9257 B(  5-C , 17-H ) :   0.9200 B(  6-N , 15-H ) :   0.1171
B(  6-N , 18-H ) :   0.9681 B(  6-N , 19-H ) :   0.9647

FINAL SINGLE POINT ENERGY      -327.661884992650

DIPOLE MOMENT
-------------
                                X             Y             Z
Electronic contribution:      5.12249       1.54193      -1.61723
Nuclear contribution   :     -4.61140      -1.05630       2.52513
                        -----------------------------------------
Total Dipole Moment    :      0.51109       0.48564       0.90791
                        -----------------------------------------
Magnitude (a.u.)       :      1.14950
Magnitude (Debye)      :      2.92179

                             ****ORCA TERMINATED NORMALLY****
TOTAL RUN TIME: 0 days 0 hours 0 minutes 8 seconds 586 msec
