                         Program Version 3.0.3 - RELEASE   -
|  1> ! RI PBE def2-SVP def2-SVP/J NBO PAL2
|  2> % maxcore 2000
|  3> % output
|  4>     # printlevel mini
|  5>     print[ P_Basis ] 0
|  6>     print[ P_SCFInfo ] 1
|  7>     print[ P_SCFIterInfo ] 1
|  8>     print[ P_OrbEn ] 0
|  9>     print[ P_Cartesian ] 0
| 10> end
| 11> *xyz 0 1
| 12>  C        1.1664290000     0.1250990000    -0.4483990000
| 13>  C        2.6776090000     0.1509650000    -0.2927600000
| 14>  C        3.1441530000    -0.5991770000     0.9446710000
| 15>  C        4.6552340000    -0.5727420000     1.1536480000
| 16>  O        5.0537340000    -1.1440670000     2.3753400000
| 17>  C        5.3522850000    -1.2126710000     0.0236220000
| 18>  N        5.8758230000    -1.7446840000    -0.8509110000
| 19>  H        0.8518250000     0.6723850000    -1.3391160000
| 20>  H        0.6708660000     0.5791690000     0.4139620000
| 21>  H        0.7971920000    -0.8997120000    -0.5413760000
| 22>  H        3.0237690000     1.1893480000    -0.2364830000
| 23>  H        3.1471980000    -0.2817420000    -1.1819340000
| 24>  H        2.8142400000    -1.6438590000     0.8954700000
| 25>  H        2.7002380000    -0.1641690000     1.8452970000
| 26>  H        4.9947630000     0.4671550000     1.1937240000
| 27>  H        4.7971420000    -2.0717000000     2.3801450000
| 28> *
| 29>
| 30>                          ****END OF INPUT****
 Total Charge           Charge          ....    0
 Multiplicity           Mult            ....    1
 Number of Electrons    NEL             ....   54
 Basis Dimension        Dim             ....  143

MULLIKEN ATOMIC CHARGES
-----------------------
   0 C :   -0.005233
   1 C :   -0.068098
   2 C :   -0.012332
   3 C :    0.187364
   4 O :   -0.253929
   5 C :   -0.252940
   6 N :    0.040054
   7 H :    0.026677
   8 H :    0.021142
   9 H :    0.021333
  10 H :    0.018032
  11 H :    0.037065
  12 H :    0.011464
  13 H :    0.027304
  14 H :    0.036599
  15 H :    0.165498
Sum of atomic charges:   -0.0000000

LOEWDIN ATOMIC CHARGES
----------------------
   0 C :   -0.061993
   1 C :   -0.046132
   2 C :   -0.044817
   3 C :    0.026874
   4 O :   -0.082214
   5 C :   -0.060870
   6 N :   -0.057602
   7 H :    0.030721
   8 H :    0.025814
   9 H :    0.026887
  10 H :    0.026806
  11 H :    0.031681
  12 H :    0.025970
  13 H :    0.032615
  14 H :    0.049412
  15 H :    0.076848

  Mayer bond orders larger than 0.1
B(  0-C ,  1-C ) :   1.1148 B(  0-C ,  7-H ) :   0.9609 B(  0-C ,  8-H ) :   0.9666
B(  0-C ,  9-H ) :   0.9660 B(  1-C ,  2-C ) :   1.0724 B(  1-C , 10-H ) :   0.9383
B(  1-C , 11-H ) :   0.9330 B(  2-C ,  3-C ) :   1.0696 B(  2-C , 12-H ) :   0.9201
B(  2-C , 13-H ) :   0.9258 B(  3-C ,  4-O ) :   1.0608 B(  3-C ,  5-C ) :   0.9885
B(  3-C , 14-H ) :   0.8689 B(  4-O , 15-H ) :   0.9791 B(  5-C ,  6-N ) :   3.0582

FINAL SINGLE POINT ENERGY      -325.247628762569

DIPOLE MOMENT
-------------
                                X             Y             Z
Electronic contribution:      9.89501      -3.65104       1.26258
Nuclear contribution   :    -10.97406       3.95028      -0.69010
                        -----------------------------------------
Total Dipole Moment    :     -1.07905       0.29924       0.57247
                        -----------------------------------------
Magnitude (a.u.)       :      1.25763
Magnitude (Debye)      :      3.19663

                             ****ORCA TERMINATED NORMALLY****
TOTAL RUN TIME: 0 days 0 hours 0 minutes 7 seconds 14 msec
