                         Program Version 3.0.3 - RELEASE   -
|  1> ! RI PBE def2-SVP def2-SVP/J NBO PAL2
|  2> % maxcore 2000
|  3> % output
|  4>     # printlevel mini
|  5>     print[ P_Basis ] 0
|  6>     print[ P_SCFInfo ] 1
|  7>     print[ P_SCFIterInfo ] 1
|  8>     print[ P_OrbEn ] 0
|  9>     print[ P_Cartesian ] 0
| 10> end
| 11> *xyz 0 1
| 12>  C        1.4761460000     0.8921620000    -0.5594340000
| 13>  C        2.2655260000     0.0522540000     0.0950400000
| 14>  C        2.9659090000    -1.1126200000    -0.5246440000
| 15>  C        4.4717160000    -1.0752230000    -0.3550570000
| 16>  O        4.7532220000    -1.2018630000     1.0320110000
| 17>  N        6.1054270000    -1.1291800000     1.2415950000
| 18>  C        6.4066470000    -1.2479610000     2.4640230000
| 19>  H        0.9921600000     1.7230270000    -0.0592360000
| 20>  H        1.2815990000     0.7776130000    -1.6219030000
| 21>  H        2.4369980000     0.2000260000     1.1585030000
| 22>  H        2.7442480000    -1.1551100000    -1.5950490000
| 23>  H        2.5978250000    -2.0460770000    -0.0820290000
| 24>  H        4.8874900000    -0.1330380000    -0.7261320000
| 25>  H        4.9428560000    -1.9018140000    -0.8973100000
| 26>  H        7.4603790000    -1.2004110000     2.7097010000
| 27>  H        5.6603510000    -1.3908650000     3.2444110000
| 28> *
| 29>
| 30>                          ****END OF INPUT****
 Total Charge           Charge          ....    0
 Multiplicity           Mult            ....    1
 Number of Electrons    NEL             ....   54
 Basis Dimension        Dim             ....  143

MULLIKEN ATOMIC CHARGES
-----------------------
   0 C :   -0.036513
   1 C :   -0.088477
   2 C :    0.037471
   3 C :    0.200693
   4 O :   -0.291756
   5 N :   -0.010155
   6 C :   -0.016741
   7 H :    0.024727
   8 H :    0.016805
   9 H :    0.015640
  10 H :    0.012475
  11 H :    0.028271
  12 H :    0.012133
  13 H :    0.013658
  14 H :    0.052377
  15 H :    0.029392
Sum of atomic charges:   -0.0000000

LOEWDIN ATOMIC CHARGES
----------------------
   0 C :   -0.064786
   1 C :   -0.029207
   2 C :   -0.052428
   3 C :    0.062862
   4 O :   -0.087576
   5 N :    0.011119
   6 C :   -0.046239
   7 H :    0.024876
   8 H :    0.020584
   9 H :    0.027424
  10 H :    0.036776
  11 H :    0.038769
  12 H :    0.012628
  13 H :    0.012546
  14 H :    0.027154
  15 H :    0.005499

  Mayer bond orders larger than 0.1
B(  0-C ,  1-C ) :   2.0178 B(  0-C ,  7-H ) :   0.9466 B(  0-C ,  8-H ) :   0.9461
B(  1-C ,  2-C ) :   1.0586 B(  1-C ,  9-H ) :   0.9575 B(  2-C ,  3-C ) :   1.0744
B(  2-C , 10-H ) :   0.9231 B(  2-C , 11-H ) :   0.9099 B(  3-C ,  4-O ) :   0.9444
B(  3-C , 12-H ) :   0.9380 B(  3-C , 13-H ) :   0.9407 B(  4-O ,  5-N ) :   0.9753
B(  4-O ,  6-C ) :   0.1218 B(  5-N ,  6-C ) :   1.9403 B(  6-C , 14-H ) :   0.9534
B(  6-C , 15-H ) :   0.9324

FINAL SINGLE POINT ENERGY      -325.176433295199

DIPOLE MOMENT
-------------
                                X             Y             Z
Electronic contribution:      3.53943      -1.26479       2.24896
Nuclear contribution   :     -3.60147       1.15452      -2.20509
                        -----------------------------------------
Total Dipole Moment    :     -0.06205      -0.11028       0.04387
                        -----------------------------------------
Magnitude (a.u.)       :      0.13392
Magnitude (Debye)      :      0.34040

                             ****ORCA TERMINATED NORMALLY****
TOTAL RUN TIME: 0 days 0 hours 0 minutes 7 seconds 34 msec
