                         Program Version 3.0.3 - RELEASE   -
|  1> ! RI PBE def2-SVP def2-SVP/J NBO PAL2
|  2> % maxcore 2000
|  3> % output
|  4>     # printlevel mini
|  5>     print[ P_Basis ] 0
|  6>     print[ P_SCFInfo ] 1
|  7>     print[ P_SCFIterInfo ] 1
|  8>     print[ P_OrbEn ] 0
|  9>     print[ P_Cartesian ] 0
| 10> end
| 11> *xyz 0 1
| 12>  C        0.5540090000     0.0158360000     0.1106110000
| 13>  C        2.0283320000     0.0305560000     0.3162430000
| 14>  C        2.9082210000     0.6083790000    -0.4918150000
| 15>  C        4.3783190000     0.5641540000    -0.2810640000
| 16>  O        4.8560420000     1.9054690000    -0.2030620000
| 17>  N        6.2251060000     1.9136320000    -0.2654920000
| 18>  C        6.7015150000     3.0789000000    -0.1444470000
| 19>  H        0.1792070000    -1.0089530000     0.0232770000
| 20>  H        0.2695060000     0.5616640000    -0.7906850000
| 21>  H        0.0361610000     0.4656890000     0.9634840000
| 22>  H        2.3995100000    -0.4825990000     1.2027600000
| 23>  H        2.5651630000     1.1374300000    -1.3788990000
| 24>  H        4.8845000000     0.0678690000    -1.1168070000
| 25>  H        4.6277050000     0.0258950000     0.6397940000
| 26>  H        7.7799820000     3.1683340000    -0.1905990000
| 27>  H        6.0765220000     3.9594640000    -0.0019110000
| 28> *
| 29>
| 30>                          ****END OF INPUT****
 Total Charge           Charge          ....    0
 Multiplicity           Mult            ....    1
 Number of Electrons    NEL             ....   54
 Basis Dimension        Dim             ....  143

MULLIKEN ATOMIC CHARGES
-----------------------
   0 C :    0.035970
   1 C :   -0.100264
   2 C :   -0.079401
   3 C :    0.270914
   4 O :   -0.289851
   5 N :   -0.012559
   6 C :   -0.020776
   7 H :    0.035576
   8 H :    0.023245
   9 H :    0.038122
  10 H :   -0.000483
  11 H :   -0.000899
  12 H :    0.016922
  13 H :    0.003631
  14 H :    0.052125
  15 H :    0.027728
Sum of atomic charges:   -0.0000000

LOEWDIN ATOMIC CHARGES
----------------------
   0 C :   -0.064063
   1 C :   -0.027948
   2 C :   -0.060573
   3 C :    0.057179
   4 O :   -0.087369
   5 N :    0.008882
   6 C :   -0.049853
   7 H :    0.038738
   8 H :    0.032510
   9 H :    0.039636
  10 H :    0.023632
  11 H :    0.025076
  12 H :    0.018721
  13 H :    0.014001
  14 H :    0.026268
  15 H :    0.005162

  Mayer bond orders larger than 0.1
B(  0-C ,  1-C ) :   1.0884 B(  0-C ,  7-H ) :   0.9467 B(  0-C ,  8-H ) :   0.9616
B(  0-C ,  9-H ) :   0.9471 B(  1-C ,  2-C ) :   1.9222 B(  1-C , 10-H ) :   0.9508
B(  2-C ,  3-C ) :   1.0489 B(  2-C , 11-H ) :   0.9518 B(  3-C ,  4-O ) :   0.9169
B(  3-C , 12-H ) :   0.9192 B(  3-C , 13-H ) :   0.9389 B(  4-O ,  5-N ) :   0.9777
B(  4-O ,  6-C ) :   0.1240 B(  5-N ,  6-C ) :   1.9382 B(  6-C , 14-H ) :   0.9535
B(  6-C , 15-H ) :   0.9322

FINAL SINGLE POINT ENERGY      -325.180482063190

DIPOLE MOMENT
-------------
                                X             Y             Z
Electronic contribution:      6.05989       2.47885      -0.47557
Nuclear contribution   :     -6.40809      -2.53274       0.53987
                        -----------------------------------------
Total Dipole Moment    :     -0.34820      -0.05389       0.06430
                        -----------------------------------------
Magnitude (a.u.)       :      0.35816
Magnitude (Debye)      :      0.91037

                             ****ORCA TERMINATED NORMALLY****
TOTAL RUN TIME: 0 days 0 hours 0 minutes 6 seconds 896 msec
