                         Program Version 3.0.3 - RELEASE   -
|  1> ! RI PBE def2-SVP def2-SVP/J NBO PAL2
|  2> % maxcore 2000
|  3> % output
|  4>     # printlevel mini
|  5>     print[ P_Basis ] 0
|  6>     print[ P_SCFInfo ] 1
|  7>     print[ P_SCFIterInfo ] 1
|  8>     print[ P_OrbEn ] 0
|  9>     print[ P_Cartesian ] 0
| 10> end
| 11> *xyz 0 1
| 12>  C        0.1720610000     0.0368770000    -0.8015070000
| 13>  C        1.5854310000    -0.2910010000    -0.4357400000
| 14>  C        2.5149310000    -0.5898370000    -1.3350680000
| 15>  C        1.8522000000    -0.2505150000     1.0337100000
| 16>  O        3.2006580000    -0.5686770000     1.3116540000
| 17>  N        3.4110740000    -0.5228730000     2.6657380000
| 18>  C        4.6063090000    -0.8003730000     2.9712750000
| 19>  H       -0.5297380000    -0.6611180000    -0.3331100000
| 20>  H        0.0261900000    -0.0054310000    -1.8809670000
| 21>  H       -0.1030240000     1.0394330000    -0.4574690000
| 22>  H        2.2754910000    -0.6071160000    -2.3924750000
| 23>  H        3.5307190000    -0.8233640000    -1.0447620000
| 24>  H        1.1927830000    -0.9590180000     1.5525440000
| 25>  H        1.6213670000     0.7482570000     1.4276340000
| 26>  H        4.8513860000    -0.7850730000     4.0260670000
| 27>  H        5.3641720000    -1.0445630000     2.2282760000
| 28> *
| 29>
| 30>                          ****END OF INPUT****
 Total Charge           Charge          ....    0
 Multiplicity           Mult            ....    1
 Number of Electrons    NEL             ....   54
 Basis Dimension        Dim             ....  143

MULLIKEN ATOMIC CHARGES
-----------------------
   0 C :    0.049486
   1 C :   -0.246750
   2 C :   -0.012488
   3 C :    0.294649
   4 O :   -0.279995
   5 N :   -0.008959
   6 C :   -0.017850
   7 H :    0.031372
   8 H :    0.023102
   9 H :    0.027264
  10 H :    0.009876
  11 H :    0.019103
  12 H :    0.014695
  13 H :    0.010665
  14 H :    0.052578
  15 H :    0.033253
Sum of atomic charges:   -0.0000000

LOEWDIN ATOMIC CHARGES
----------------------
   0 C :   -0.053740
   1 C :   -0.052050
   2 C :   -0.073430
   3 C :    0.059997
   4 O :   -0.073653
   5 N :    0.013229
   6 C :   -0.044797
   7 H :    0.036003
   8 H :    0.034567
   9 H :    0.035176
  10 H :    0.021445
  11 H :    0.021615
  12 H :    0.020998
  13 H :    0.020184
  14 H :    0.027464
  15 H :    0.006991

  Mayer bond orders larger than 0.1
B(  0-C ,  1-C ) :   1.0837 B(  0-C ,  7-H ) :   0.9461 B(  0-C ,  8-H ) :   0.9522
B(  0-C ,  9-H ) :   0.9467 B(  1-C ,  2-C ) :   2.0079 B(  1-C ,  3-C ) :   1.0145
B(  2-C , 10-H ) :   0.9298 B(  2-C , 11-H ) :   0.9263 B(  3-C ,  4-O ) :   0.9635
B(  3-C , 12-H ) :   0.9224 B(  3-C , 13-H ) :   0.9229 B(  4-O ,  5-N ) :   0.9726
B(  4-O ,  6-C ) :   0.1228 B(  5-N ,  6-C ) :   1.9375 B(  6-C , 14-H ) :   0.9533
B(  6-C , 15-H ) :   0.9332

FINAL SINGLE POINT ENERGY      -325.180324670456

DIPOLE MOMENT
-------------
                                X             Y             Z
Electronic contribution:      3.75241      -0.67397       3.75384
Nuclear contribution   :     -3.85619       0.69412      -3.75128
                        -----------------------------------------
Total Dipole Moment    :     -0.10378       0.02015       0.00256
                        -----------------------------------------
Magnitude (a.u.)       :      0.10575
Magnitude (Debye)      :      0.26880

                             ****ORCA TERMINATED NORMALLY****
TOTAL RUN TIME: 0 days 0 hours 0 minutes 7 seconds 503 msec
