                         Program Version 3.0.3 - RELEASE   -
|  1> ! RI PBE def2-SVP def2-SVP/J NBO PAL2
|  2> % maxcore 2000
|  3> % output
|  4>     # printlevel mini
|  5>     print[ P_Basis ] 0
|  6>     print[ P_SCFInfo ] 1
|  7>     print[ P_SCFIterInfo ] 1
|  8>     print[ P_OrbEn ] 0
|  9>     print[ P_Cartesian ] 0
| 10> end
| 11> *xyz 0 1
| 12>  C        0.9817500000    -0.1467080000    -0.0395580000
| 13>  C        2.4908750000    -0.2969760000    -0.0742790000
| 14>  C        2.9380480000    -1.5218590000     0.7056540000
| 15>  C        3.0063360000    -0.3256170000    -1.5032910000
| 16>  O        2.9535050000     0.9027790000     0.5897470000
| 17>  N        4.3164690000     0.9510980000     0.6580270000
| 18>  C        4.7315710000     1.9963990000     1.2369650000
| 19>  H        0.5089560000    -1.0055770000    -0.5192820000
| 20>  H        0.6742640000     0.7583480000    -0.5670290000
| 21>  H        0.6261050000    -0.0852740000     0.9908020000
| 22>  H        2.5418220000    -2.4282660000     0.2423380000
| 23>  H        2.5741380000    -1.4727340000     1.7344320000
| 24>  H        4.0263930000    -1.5894650000     0.7241360000
| 25>  H        2.6119920000    -1.1987110000    -2.0281030000
| 26>  H        4.0957050000    -0.3752950000    -1.5179580000
| 27>  H        2.6908570000     0.5716140000    -2.0405780000
| 28>  H        5.8051030000     2.1068570000     1.3300480000
| 29>  H        4.0595010000     2.7588080000     1.6291280000
| 30> *
| 31>
| 32>                          ****END OF INPUT****
 Total Charge           Charge          ....    0
 Multiplicity           Mult            ....    1
 Number of Electrons    NEL             ....   56
 Basis Dimension        Dim             ....  153

MULLIKEN ATOMIC CHARGES
-----------------------
   0 C :    0.061179
   1 C :   -0.130813
   2 C :    0.057575
   3 C :    0.050908
   4 O :   -0.278287
   5 N :    0.001581
   6 C :   -0.023460
   7 H :    0.017910
   8 H :    0.019956
   9 H :    0.019391
  10 H :    0.011824
  11 H :    0.014763
  12 H :    0.034398
  13 H :    0.014533
  14 H :    0.034983
  15 H :    0.018881
  16 H :    0.048810
  17 H :    0.025868
Sum of atomic charges:   -0.0000000

LOEWDIN ATOMIC CHARGES
----------------------
   0 C :   -0.055130
   1 C :    0.012599
   2 C :   -0.063620
   3 C :   -0.064862
   4 O :   -0.077234
   5 N :    0.012933
   6 C :   -0.053039
   7 H :    0.030934
   8 H :    0.028176
   9 H :    0.027747
  10 H :    0.028820
  11 H :    0.027350
  12 H :    0.029783
  13 H :    0.029247
  14 H :    0.029873
  15 H :    0.027828
  16 H :    0.024781
  17 H :    0.003813

  Mayer bond orders larger than 0.1
B(  0-C ,  1-C ) :   1.0594 B(  0-C ,  7-H ) :   0.9580 B(  0-C ,  8-H ) :   0.9530
B(  0-C ,  9-H ) :   0.9546 B(  1-C ,  2-C ) :   1.0663 B(  1-C ,  3-C ) :   1.0652
B(  1-C ,  4-O ) :   0.9065 B(  2-C , 10-H ) :   0.9530 B(  2-C , 11-H ) :   0.9486
B(  2-C , 12-H ) :   0.9477 B(  3-C , 13-H ) :   0.9538 B(  3-C , 14-H ) :   0.9475
B(  3-C , 15-H ) :   0.9495 B(  4-O ,  5-N ) :   0.9827 B(  4-O ,  6-C ) :   0.1264
B(  5-N ,  6-C ) :   1.9379 B(  6-C , 16-H ) :   0.9540 B(  6-C , 17-H ) :   0.9314

FINAL SINGLE POINT ENERGY      -326.409811659253

DIPOLE MOMENT
-------------
                                X             Y             Z
Electronic contribution:      2.95111       4.04135       2.27943
Nuclear contribution   :     -3.08301      -4.09450      -2.31253
                        -----------------------------------------
Total Dipole Moment    :     -0.13190      -0.05316      -0.03310
                        -----------------------------------------
Magnitude (a.u.)       :      0.14601
Magnitude (Debye)      :      0.37112

                             ****ORCA TERMINATED NORMALLY****
TOTAL RUN TIME: 0 days 0 hours 0 minutes 8 seconds 216 msec
