                         Program Version 3.0.3 - RELEASE   -
|  1> ! RI PBE def2-SVP def2-SVP/J NBO PAL2
|  2> % maxcore 2000
|  3> % output
|  4>     # printlevel mini
|  5>     print[ P_Basis ] 0
|  6>     print[ P_SCFInfo ] 1
|  7>     print[ P_SCFIterInfo ] 1
|  8>     print[ P_OrbEn ] 0
|  9>     print[ P_Cartesian ] 0
| 10> end
| 11> *xyz 0 1
| 12>  C        0.8309100000     0.0280660000     0.6300920000
| 13>  C        2.3073360000     0.0871810000     0.2630160000
| 14>  C        2.9145790000     1.4356380000     0.6179710000
| 15>  C        3.0366380000    -1.0635000000     0.9367920000
| 16>  O        4.3834420000    -1.1922820000     0.4988860000
| 17>  N        5.2612240000    -0.6971250000     1.4250450000
| 18>  C        6.4639760000    -0.7821720000     1.0407240000
| 19>  H        0.2727600000     0.8207840000     0.1271370000
| 20>  H        0.6905620000     0.1595660000     1.7077230000
| 21>  H        0.3815890000    -0.9281130000     0.3485090000
| 22>  H        2.4017620000    -0.0631960000    -0.8197450000
| 23>  H        3.9701740000     1.4852080000     0.3467800000
| 24>  H        2.3931610000     2.2432760000     0.0978350000
| 25>  H        2.8387710000     1.6245250000     1.6932520000
| 26>  H        2.5506940000    -2.0118210000     0.6866590000
| 27>  H        3.0332770000    -0.9460900000     2.0244490000
| 28>  H        7.2168750000    -0.4175130000     1.7283380000
| 29>  H        6.7471810000    -1.1983210000     0.0751270000
| 30> *
| 31>
| 32>                          ****END OF INPUT****
 Total Charge           Charge          ....    0
 Multiplicity           Mult            ....    1
 Number of Electrons    NEL             ....   56
 Basis Dimension        Dim             ....  153

MULLIKEN ATOMIC CHARGES
-----------------------
   0 C :    0.003764
   1 C :   -0.169300
   2 C :    0.015950
   3 C :    0.224942
   4 O :   -0.272413
   5 N :   -0.009651
   6 C :   -0.024789
   7 H :    0.021525
   8 H :    0.017937
   9 H :    0.017431
  10 H :    0.019924
  11 H :    0.023627
  12 H :    0.015316
  13 H :    0.016198
  14 H :    0.009683
  15 H :    0.007305
  16 H :    0.052978
  17 H :    0.029572
Sum of atomic charges:    0.0000000

LOEWDIN ATOMIC CHARGES
----------------------
   0 C :   -0.057075
   1 C :   -0.066077
   2 C :   -0.060418
   3 C :    0.056550
   4 O :   -0.075383
   5 N :    0.012442
   6 C :   -0.056613
   7 H :    0.028476
   8 H :    0.025254
   9 H :    0.024786
  10 H :    0.027987
  11 H :    0.026013
  12 H :    0.025484
  13 H :    0.025673
  14 H :    0.017912
  15 H :    0.012526
  16 H :    0.026848
  17 H :    0.005615

  Mayer bond orders larger than 0.1
B(  0-C ,  1-C ) :   1.0742 B(  0-C ,  7-H ) :   0.9592 B(  0-C ,  8-H ) :   0.9624
B(  0-C ,  9-H ) :   0.9601 B(  1-C ,  2-C ) :   1.0777 B(  1-C ,  3-C ) :   1.0614
B(  1-C , 10-H ) :   0.9096 B(  2-C , 11-H ) :   0.9550 B(  2-C , 12-H ) :   0.9595
B(  2-C , 13-H ) :   0.9629 B(  3-C ,  4-O ) :   0.9722 B(  3-C , 14-H ) :   0.9426
B(  3-C , 15-H ) :   0.9240 B(  4-O ,  5-N ) :   0.9766 B(  4-O ,  6-C ) :   0.1269
B(  5-N ,  6-C ) :   1.9293 B(  6-C , 16-H ) :   0.9521 B(  6-C , 17-H ) :   0.9323

FINAL SINGLE POINT ENERGY      -326.401962877351

DIPOLE MOMENT
-------------
                                X             Y             Z
Electronic contribution:      6.46470      -3.90610       0.29851
Nuclear contribution   :     -6.56740       3.93036      -0.43029
                        -----------------------------------------
Total Dipole Moment    :     -0.10270       0.02426      -0.13178
                        -----------------------------------------
Magnitude (a.u.)       :      0.16883
Magnitude (Debye)      :      0.42912

                             ****ORCA TERMINATED NORMALLY****
TOTAL RUN TIME: 0 days 0 hours 0 minutes 7 seconds 808 msec
