                         Program Version 3.0.3 - RELEASE   -
|  1> ! RI PBE def2-SVP def2-SVP/J NBO PAL2
|  2> % maxcore 2000
|  3> % output
|  4>     # printlevel mini
|  5>     print[ P_Basis ] 0
|  6>     print[ P_SCFInfo ] 1
|  7>     print[ P_SCFIterInfo ] 1
|  8>     print[ P_OrbEn ] 0
|  9>     print[ P_Cartesian ] 0
| 10> end
| 11> *xyz 0 1
| 12>  C        1.0716060000    -0.0096570000    -0.0610420000
| 13>  C        2.5209900000     0.0139960000    -0.0395750000
| 14>  C        3.7219680000     0.0368110000    -0.0182500000
| 15>  C        5.1716760000     0.0406800000    -0.0157160000
| 16>  O        5.6302620000     1.0470620000     0.8831730000
| 17>  N        7.0027050000     1.0441720000     0.8799750000
| 18>  C        7.4803410000     1.9171940000     1.6597500000
| 19>  H        0.7084200000    -0.8529250000    -0.6537170000
| 20>  H        0.6690940000     0.9070790000    -0.4985000000
| 21>  H        0.6668250000    -0.1108060000     0.9488060000
| 22>  H        5.5588270000     0.2465890000    -1.0197440000
| 23>  H        5.5595960000    -0.9336620000     0.3013400000
| 24>  H        8.5603760000     1.9784420000     1.7139850000
| 25>  H        6.8551140000     2.5820140000     2.2540150000
| 26> *
| 27>
| 28>                          ****END OF INPUT****
 Total Charge           Charge          ....    0
 Multiplicity           Mult            ....    1
 Number of Electrons    NEL             ....   52
 Basis Dimension        Dim             ....  133

MULLIKEN ATOMIC CHARGES
-----------------------
   0 C :    0.051499
   1 C :   -0.209908
   2 C :   -0.108487
   3 C :    0.278493
   4 O :   -0.282420
   5 N :   -0.012269
   6 C :   -0.021155
   7 H :    0.051990
   8 H :    0.051623
   9 H :    0.051150
  10 H :    0.031507
  11 H :    0.029516
  12 H :    0.054631
  13 H :    0.033831
Sum of atomic charges:   -0.0000000

LOEWDIN ATOMIC CHARGES
----------------------
   0 C :   -0.066604
   1 C :   -0.042370
   2 C :   -0.081057
   3 C :    0.052543
   4 O :   -0.081742
   5 N :    0.009241
   6 C :   -0.045784
   7 H :    0.053925
   8 H :    0.051993
   9 H :    0.052606
  10 H :    0.031159
  11 H :    0.030906
  12 H :    0.027476
  13 H :    0.007708

  Mayer bond orders larger than 0.1
B(  0-C ,  1-C ) :   1.1272 B(  0-C ,  7-H ) :   0.9332 B(  0-C ,  8-H ) :   0.9327
B(  0-C ,  9-H ) :   0.9321 B(  1-C ,  2-C ) :   2.6518 B(  2-C ,  3-C ) :   0.9998
B(  3-C ,  4-O ) :   0.9528 B(  3-C , 10-H ) :   0.9201 B(  3-C , 11-H ) :   0.9189
B(  4-O ,  5-N ) :   0.9775 B(  4-O ,  6-C ) :   0.1232 B(  5-N ,  6-C ) :   1.9412
B(  6-C , 12-H ) :   0.9528 B(  6-C , 13-H ) :   0.9323

FINAL SINGLE POINT ENERGY      -323.939816468772

DIPOLE MOMENT
-------------
                                X             Y             Z
Electronic contribution:      3.66379       0.41359       0.37006
Nuclear contribution   :     -4.05126      -0.41597      -0.36960
                        -----------------------------------------
Total Dipole Moment    :     -0.38747      -0.00238       0.00046
                        -----------------------------------------
Magnitude (a.u.)       :      0.38747
Magnitude (Debye)      :      0.98488

                             ****ORCA TERMINATED NORMALLY****
TOTAL RUN TIME: 0 days 0 hours 0 minutes 6 seconds 464 msec
