                         Program Version 3.0.3 - RELEASE   -
|  1> ! RI PBE def2-SVP def2-SVP/J NBO PAL2
|  2> % maxcore 2000
|  3> % output
|  4>     # printlevel mini
|  5>     print[ P_Basis ] 0
|  6>     print[ P_SCFInfo ] 1
|  7>     print[ P_SCFIterInfo ] 1
|  8>     print[ P_OrbEn ] 0
|  9>     print[ P_Cartesian ] 0
| 10> end
| 11> *xyz 0 1
| 12>  C        2.4390830000    -0.4038230000     1.0529490000
| 13>  C        2.2089500000     0.6122930000    -0.0523940000
| 14>  C        2.6724090000     0.1469900000    -1.4187120000
| 15>  C        2.3171190000     1.1146870000    -2.5266500000
| 16>  O        4.0937040000    -0.0082260000    -1.3259400000
| 17>  N        4.5609870000    -0.7735990000    -2.3581710000
| 18>  C        5.8211560000    -0.8837700000    -2.3446600000
| 19>  H        2.0883480000    -0.0244910000     2.0151860000
| 20>  H        3.4993480000    -0.6427330000     1.1504340000
| 21>  H        1.9045420000    -1.3355760000     0.8479170000
| 22>  H        2.7200020000     1.5525570000     0.1825160000
| 23>  H        1.1435200000     0.8508230000    -0.1291090000
| 24>  H        2.2497410000    -0.8409990000    -1.6377110000
| 25>  H        2.7272480000     2.1057270000    -2.3154990000
| 26>  H        1.2324130000     1.2023550000    -2.6238990000
| 27>  H        2.7199940000     0.7663880000    -3.4788870000
| 28>  H        6.2631860000    -1.4893930000    -3.1262650000
| 29>  H        6.4471520000    -0.4051190000    -1.5927140000
| 30> *
| 31>
| 32>                          ****END OF INPUT****
 Total Charge           Charge          ....    0
 Multiplicity           Mult            ....    1
 Number of Electrons    NEL             ....   56
 Basis Dimension        Dim             ....  153

MULLIKEN ATOMIC CHARGES
-----------------------
   0 C :    0.005875
   1 C :   -0.028123
   2 C :    0.072667
   3 C :    0.033400
   4 O :   -0.280183
   5 N :   -0.003108
   6 C :   -0.025635
   7 H :    0.016398
   8 H :    0.026485
   9 H :    0.012340
  10 H :    0.013595
  11 H :    0.015192
  12 H :   -0.000873
  13 H :    0.014845
  14 H :    0.019712
  15 H :    0.025840
  16 H :    0.052128
  17 H :    0.029445
Sum of atomic charges:   -0.0000000

LOEWDIN ATOMIC CHARGES
----------------------
   0 C :   -0.065343
   1 C :   -0.052271
   2 C :    0.041627
   3 C :   -0.072932
   4 O :   -0.077642
   5 N :    0.011726
   6 C :   -0.052010
   7 H :    0.026555
   8 H :    0.026676
   9 H :    0.024864
  10 H :    0.027440
  11 H :    0.030785
  12 H :    0.011410
  13 H :    0.027115
  14 H :    0.031083
  15 H :    0.029673
  16 H :    0.026092
  17 H :    0.005151

  Mayer bond orders larger than 0.1
B(  0-C ,  1-C ) :   1.1182 B(  0-C ,  7-H ) :   0.9617 B(  0-C ,  8-H ) :   0.9641
B(  0-C ,  9-H ) :   0.9622 B(  1-C ,  2-C ) :   1.0558 B(  1-C , 10-H ) :   0.9227
B(  1-C , 11-H ) :   0.9339 B(  2-C ,  3-C ) :   1.1050 B(  2-C ,  4-O ) :   0.9234
B(  2-C , 12-H ) :   0.9144 B(  3-C , 13-H ) :   0.9498 B(  3-C , 14-H ) :   0.9536
B(  3-C , 15-H ) :   0.9467 B(  4-O ,  5-N ) :   0.9760 B(  4-O ,  6-C ) :   0.1258
B(  5-N ,  6-C ) :   1.9357 B(  6-C , 16-H ) :   0.9531 B(  6-C , 17-H ) :   0.9315

FINAL SINGLE POINT ENERGY      -326.407311979699

DIPOLE MOMENT
-------------
                                X             Y             Z
Electronic contribution:      4.51352      -1.73233      -2.97682
Nuclear contribution   :     -4.56621       1.84955       3.06482
                        -----------------------------------------
Total Dipole Moment    :     -0.05269       0.11722       0.08799
                        -----------------------------------------
Magnitude (a.u.)       :      0.15576
Magnitude (Debye)      :      0.39590

                             ****ORCA TERMINATED NORMALLY****
TOTAL RUN TIME: 0 days 0 hours 0 minutes 8 seconds 63 msec
