                         Program Version 3.0.3 - RELEASE   -
|  1> ! RI PBE def2-SVP def2-SVP/J NBO PAL2
|  2> % maxcore 2000
|  3> % output
|  4>     # printlevel mini
|  5>     print[ P_Basis ] 0
|  6>     print[ P_SCFInfo ] 1
|  7>     print[ P_SCFIterInfo ] 1
|  8>     print[ P_OrbEn ] 0
|  9>     print[ P_Cartesian ] 0
| 10> end
| 11> *xyz 0 1
| 12>  C        1.0820150000     0.3044470000     0.1262130000
| 13>  C        2.5535250000     0.1229610000    -0.2146320000
| 14>  C        3.0583200000    -1.3122160000    -0.0889280000
| 15>  C        2.4098730000    -2.2561050000    -1.0961050000
| 16>  O        2.9433420000    -3.5478200000    -0.9887710000
| 17>  N        4.5031400000    -1.4523000000    -0.2453920000
| 18>  C        5.2977000000    -1.0353330000     0.8914470000
| 19>  H        0.8003060000     1.3592040000     0.0963250000
| 20>  H        0.8630770000    -0.0675030000     1.1311540000
| 21>  H        0.4310820000    -0.2264640000    -0.5714290000
| 22>  H        3.1531650000     0.7623480000     0.4413590000
| 23>  H        2.7429580000     0.4707260000    -1.2384330000
| 24>  H        2.8208420000    -1.6896980000     0.9142200000
| 25>  H        2.5575940000    -1.8466390000    -2.1111950000
| 26>  H        1.3332510000    -2.3235910000    -0.9256550000
| 27>  H        3.8818940000    -3.3969560000    -0.7962510000
| 28>  H        4.8009920000    -0.9585310000    -1.0797130000
| 29>  H        5.0621030000    -1.6701080000     1.7492200000
| 30>  H        5.1479730000     0.0108390000     1.1971310000
| 31>  H        6.3570680000    -1.1693820000     0.6638470000
| 32> *
| 33>
| 34>                          ****END OF INPUT****
 Total Charge           Charge          ....    0
 Multiplicity           Mult            ....    1
 Number of Electrons    NEL             ....   58
 Basis Dimension        Dim             ....  163

MULLIKEN ATOMIC CHARGES
-----------------------
   0 C :   -0.027242
   1 C :   -0.000667
   2 C :   -0.082304
   3 C :    0.224008
   4 O :   -0.282480
   5 N :   -0.261599
   6 C :    0.071821
   7 H :    0.020340
   8 H :    0.019284
   9 H :    0.032337
  10 H :    0.009572
  11 H :    0.001657
  12 H :   -0.000016
  13 H :   -0.024512
  14 H :    0.008063
  15 H :    0.133508
  16 H :    0.100205
  17 H :    0.025135
  18 H :    0.005035
  19 H :    0.027855
Sum of atomic charges:    0.0000000

LOEWDIN ATOMIC CHARGES
----------------------
   0 C :   -0.066052
   1 C :   -0.055603
   2 C :   -0.018251
   3 C :    0.048836
   4 O :   -0.128832
   5 N :   -0.081175
   6 C :   -0.004596
   7 H :    0.028766
   8 H :    0.026853
   9 H :    0.026202
  10 H :    0.023359
  11 H :    0.019380
  12 H :    0.020344
  13 H :   -0.003407
  14 H :    0.017614
  15 H :    0.040579
  16 H :    0.055039
  17 H :    0.024770
  18 H :    0.000855
  19 H :    0.025319

  Mayer bond orders larger than 0.1
B(  0-C ,  1-C ) :   1.1135 B(  0-C ,  7-H ) :   0.9564 B(  0-C ,  8-H ) :   0.9645
B(  0-C ,  9-H ) :   0.9659 B(  1-C ,  2-C ) :   1.0451 B(  1-C , 10-H ) :   0.9248
B(  1-C , 11-H ) :   0.9209 B(  2-C ,  3-C ) :   1.0301 B(  2-C ,  5-N ) :   1.0228
B(  2-C , 12-H ) :   0.9052 B(  3-C ,  4-O ) :   1.1005 B(  3-C , 13-H ) :   0.9098
B(  3-C , 14-H ) :   0.9340 B(  4-O , 15-H ) :   0.9499 B(  5-N ,  6-C ) :   1.0545
B(  5-N , 15-H ) :   0.1134 B(  5-N , 16-H ) :   0.9441 B(  6-C , 17-H ) :   0.9680
B(  6-C , 18-H ) :   0.9450 B(  6-C , 19-H ) :   0.9720

FINAL SINGLE POINT ENERGY      -327.649836003166

DIPOLE MOMENT
-------------
                                X             Y             Z
Electronic contribution:      1.13942      -5.19106      -2.15990
Nuclear contribution   :     -0.74734       6.21123       2.37418
                        -----------------------------------------
Total Dipole Moment    :      0.39209       1.02018       0.21428
                        -----------------------------------------
Magnitude (a.u.)       :      1.11374
Magnitude (Debye)      :      2.83089

                             ****ORCA TERMINATED NORMALLY****
TOTAL RUN TIME: 0 days 0 hours 0 minutes 8 seconds 715 msec
