                         Program Version 3.0.3 - RELEASE   -
|  1> ! RI PBE def2-SVP def2-SVP/J NBO PAL2
|  2> % maxcore 2000
|  3> % output
|  4>     # printlevel mini
|  5>     print[ P_Basis ] 0
|  6>     print[ P_SCFInfo ] 1
|  7>     print[ P_SCFIterInfo ] 1
|  8>     print[ P_OrbEn ] 0
|  9>     print[ P_Cartesian ] 0
| 10> end
| 11> *xyz 0 1
| 12>  C        0.8270770000    -0.1309400000    -0.0015840000
| 13>  C        2.3354420000    -0.2334590000     0.1433630000
| 14>  C        3.0594180000     0.9249810000    -0.5152440000
| 15>  C        4.5688410000     0.8403060000    -0.3813170000
| 16>  O        5.1386750000    -0.0660730000     0.1943980000
| 17>  N        5.2518330000     1.8590950000    -0.9573050000
| 18>  C        6.6913960000     1.9169060000    -0.9140420000
| 19>  H        0.3256710000    -0.9738060000     0.4790290000
| 20>  H        0.5260500000    -0.1240970000    -1.0534420000
| 21>  H        0.4428730000     0.7858340000     0.4555620000
| 22>  H        2.6959980000    -1.1702220000    -0.2892660000
| 23>  H        2.6139130000    -0.2724810000     1.1996000000
| 24>  H        2.7249990000     1.8768180000    -0.0841030000
| 25>  H        2.8073130000     0.9737690000    -1.5819210000
| 26>  H        4.7421520000     2.5874630000    -1.4233490000
| 27>  H        7.0520050000     1.9488040000     0.1167890000
| 28>  H        7.0269990000     2.8132130000    -1.4348310000
| 29>  H        7.1339350000     1.0405890000    -1.3935270000
| 30> *
| 31>
| 32>                          ****END OF INPUT****
 Total Charge           Charge          ....    0
 Multiplicity           Mult            ....    1
 Number of Electrons    NEL             ....   56
 Basis Dimension        Dim             ....  153

MULLIKEN ATOMIC CHARGES
-----------------------
   0 C :    0.000787
   1 C :   -0.036988
   2 C :   -0.035946
   3 C :    0.021501
   4 O :   -0.224963
   5 N :   -0.142997
   6 C :    0.089738
   7 H :    0.019574
   8 H :    0.011441
   9 H :    0.011664
  10 H :    0.020316
  11 H :    0.024837
  12 H :    0.020430
  13 H :    0.021210
  14 H :    0.105973
  15 H :    0.037330
  16 H :    0.016284
  17 H :    0.039809
Sum of atomic charges:   -0.0000000

LOEWDIN ATOMIC CHARGES
----------------------
   0 C :   -0.066220
   1 C :   -0.040447
   2 C :   -0.075458
   3 C :    0.026740
   4 O :   -0.192794
   5 N :   -0.010643
   6 C :    0.011589
   7 H :    0.027724
   8 H :    0.022113
   9 H :    0.022273
  10 H :    0.029140
  11 H :    0.029899
  12 H :    0.032116
  13 H :    0.032425
  14 H :    0.069804
  15 H :    0.027990
  16 H :    0.025193
  17 H :    0.028556

  Mayer bond orders larger than 0.1
B(  0-C ,  1-C ) :   1.1128 B(  0-C ,  7-H ) :   0.9608 B(  0-C ,  8-H ) :   0.9643
B(  0-C ,  9-H ) :   0.9638 B(  1-C ,  2-C ) :   1.1073 B(  1-C , 10-H ) :   0.9378
B(  1-C , 11-H ) :   0.9389 B(  2-C ,  3-C ) :   0.9469 B(  2-C , 12-H ) :   0.9191
B(  2-C , 13-H ) :   0.9184 B(  3-C ,  4-O ) :   2.0613 B(  3-C ,  5-N ) :   1.2422
B(  5-N ,  6-C ) :   1.0091 B(  5-N , 14-H ) :   0.9324 B(  6-C , 15-H ) :   0.9669
B(  6-C , 16-H ) :   0.9694 B(  6-C , 17-H ) :   0.9672

FINAL SINGLE POINT ENERGY      -326.493499745862

DIPOLE MOMENT
-------------
                                X             Y             Z
Electronic contribution:      5.24259      -0.16348       0.38759
Nuclear contribution   :     -5.47362       1.30345      -1.08405
                        -----------------------------------------
Total Dipole Moment    :     -0.23103       1.13997      -0.69646
                        -----------------------------------------
Magnitude (a.u.)       :      1.35572
Magnitude (Debye)      :      3.44596

                             ****ORCA TERMINATED NORMALLY****
TOTAL RUN TIME: 0 days 0 hours 0 minutes 8 seconds 109 msec
