                         Program Version 3.0.3 - RELEASE   -
|  1> ! RI PBE def2-SVP def2-SVP/J NBO PAL2
|  2> % maxcore 2000
|  3> % output
|  4>     # printlevel mini
|  5>     print[ P_Basis ] 0
|  6>     print[ P_SCFInfo ] 1
|  7>     print[ P_SCFIterInfo ] 1
|  8>     print[ P_OrbEn ] 0
|  9>     print[ P_Cartesian ] 0
| 10> end
| 11> *xyz 0 1
| 12>  C        1.0127460000     0.9514570000    -0.2089150000
| 13>  C        2.4403460000     0.4830900000    -0.4337180000
| 14>  C        3.0272800000    -0.2164160000     0.7828400000
| 15>  C        4.4449940000    -0.6767420000     0.5472000000
| 16>  O        4.8991710000    -1.3131100000     1.7341030000
| 17>  N        6.1863600000    -1.7492880000     1.5670750000
| 18>  C        6.6345460000    -2.3239770000     2.6008420000
| 19>  H        0.6114490000     1.4503160000    -1.0938690000
| 20>  H        0.9562110000     1.6565180000     0.6250040000
| 21>  H        0.3546700000     0.1104010000     0.0262180000
| 22>  H        3.0698440000     1.3399860000    -0.6995850000
| 23>  H        2.4725970000    -0.1950960000    -1.2940950000
| 24>  H        2.4098270000    -1.0811440000     1.0491530000
| 25>  H        3.0088520000     0.4585070000     1.6454310000
| 26>  H        5.1023190000     0.1689120000     0.3151850000
| 27>  H        4.4974820000    -1.3856840000    -0.2868750000
| 28>  H        7.6496350000    -2.6975860000     2.5460380000
| 29>  H        6.0456600000    -2.4464430000     3.5089570000
| 30> *
| 31>
| 32>                          ****END OF INPUT****
 Total Charge           Charge          ....    0
 Multiplicity           Mult            ....    1
 Number of Electrons    NEL             ....   56
 Basis Dimension        Dim             ....  153

MULLIKEN ATOMIC CHARGES
-----------------------
   0 C :   -0.013976
   1 C :   -0.074244
   2 C :   -0.048680
   3 C :    0.217779
   4 O :   -0.285362
   5 N :   -0.007993
   6 C :   -0.023922
   7 H :    0.022250
   8 H :    0.023753
   9 H :    0.020848
  10 H :    0.016809
  11 H :    0.019014
  12 H :    0.019760
  13 H :    0.021431
  14 H :    0.004025
  15 H :    0.007531
  16 H :    0.051702
  17 H :    0.029275
Sum of atomic charges:    0.0000000

LOEWDIN ATOMIC CHARGES
----------------------
   0 C :   -0.067146
   1 C :   -0.045144
   2 C :   -0.054059
   3 C :    0.055950
   4 O :   -0.085110
   5 N :    0.010304
   6 C :   -0.050444
   7 H :    0.027595
   8 H :    0.026356
   9 H :    0.026163
  10 H :    0.024279
  11 H :    0.024433
  12 H :    0.027313
  13 H :    0.027440
  14 H :    0.010064
  15 H :    0.010482
  16 H :    0.026464
  17 H :    0.005061

  Mayer bond orders larger than 0.1
B(  0-C ,  1-C ) :   1.1217 B(  0-C ,  7-H ) :   0.9613 B(  0-C ,  8-H ) :   0.9663
B(  0-C ,  9-H ) :   0.9634 B(  1-C ,  2-C ) :   1.0829 B(  1-C , 10-H ) :   0.9380
B(  1-C , 11-H ) :   0.9416 B(  2-C ,  3-C ) :   1.0783 B(  2-C , 12-H ) :   0.9311
B(  2-C , 13-H ) :   0.9348 B(  3-C ,  4-O ) :   0.9545 B(  3-C , 14-H ) :   0.9373
B(  3-C , 15-H ) :   0.9409 B(  4-O ,  5-N ) :   0.9758 B(  4-O ,  6-C ) :   0.1233
B(  5-N ,  6-C ) :   1.9394 B(  6-C , 16-H ) :   0.9523 B(  6-C , 17-H ) :   0.9324

FINAL SINGLE POINT ENERGY      -326.400909345173

DIPOLE MOMENT
-------------
                                X             Y             Z
Electronic contribution:      7.90559      -4.54967       3.79764
Nuclear contribution   :     -8.11181       4.62303      -3.78729
                        -----------------------------------------
Total Dipole Moment    :     -0.20622       0.07336       0.01035
                        -----------------------------------------
Magnitude (a.u.)       :      0.21912
Magnitude (Debye)      :      0.55696

                             ****ORCA TERMINATED NORMALLY****
TOTAL RUN TIME: 0 days 0 hours 0 minutes 7 seconds 704 msec
