                         Program Version 3.0.3 - RELEASE   -
|  1> ! RI PBE def2-SVP def2-SVP/J NBO PAL2
|  2> % maxcore 2000
|  3> % output
|  4>     # printlevel mini
|  5>     print[ P_Basis ] 0
|  6>     print[ P_SCFInfo ] 1
|  7>     print[ P_SCFIterInfo ] 1
|  8>     print[ P_OrbEn ] 0
|  9>     print[ P_Cartesian ] 0
| 10> end
| 11> *xyz 0 1
| 12>  C        0.9663120000    -0.1382000000     0.1147980000
| 13>  C        2.4159630000     0.1409560000    -0.0362630000
| 14>  C        3.1106570000     0.0353660000    -1.1641220000
| 15>  C        4.5593270000     0.3426530000    -1.1900800000
| 16>  O        5.2028490000     0.7016960000    -0.2207810000
| 17>  N        5.1356380000     0.1897630000    -2.4130300000
| 18>  N        6.4831750000     0.4283680000    -2.6425050000
| 19>  H        0.8013800000    -0.9227570000     0.8602280000
| 20>  H        0.5069280000    -0.4502120000    -0.8245420000
| 21>  H        0.4400240000     0.7487850000     0.4817620000
| 22>  H        2.9658440000     0.4601330000     0.8469750000
| 23>  H        2.6290760000    -0.2781270000    -2.0876060000
| 24>  H        4.6008430000    -0.1074710000    -3.2097720000
| 25>  H        7.0211540000    -0.1609570000    -2.0140710000
| 26>  H        6.6874300000     1.3844940000    -2.3672810000
| 27> *
| 28>
| 29>                          ****END OF INPUT****
 Total Charge           Charge          ....    0
 Multiplicity           Mult            ....    1
 Number of Electrons    NEL             ....   54
 Basis Dimension        Dim             ....  138

MULLIKEN ATOMIC CHARGES
-----------------------
   0 C :    0.046059
   1 C :   -0.076940
   2 C :   -0.065579
   3 C :    0.072884
   4 O :   -0.218187
   5 N :   -0.126168
   6 N :   -0.068608
   7 H :    0.044412
   8 H :    0.020515
   9 H :    0.044040
  10 H :    0.021206
  11 H :   -0.024747
  12 H :    0.118363
  13 H :    0.106826
  14 H :    0.105924
Sum of atomic charges:   -0.0000000

LOEWDIN ATOMIC CHARGES
----------------------
   0 C :   -0.064028
   1 C :    0.016195
   2 C :   -0.095317
   3 C :    0.006066
   4 O :   -0.207326
   5 N :    0.029927
   6 N :   -0.035226
   7 H :    0.044280
   8 H :    0.031247
   9 H :    0.044439
  10 H :    0.033845
  11 H :    0.017692
  12 H :    0.067290
  13 H :    0.055657
  14 H :    0.055259

  Mayer bond orders larger than 0.1
B(  0-C ,  1-C ) :   1.0883 B(  0-C ,  7-H ) :   0.9401 B(  0-C ,  8-H ) :   0.9580
B(  0-C ,  9-H ) :   0.9393 B(  1-C ,  2-C ) :   1.8689 B(  1-C , 10-H ) :   0.9406
B(  2-C ,  3-C ) :   0.9508 B(  2-C , 11-H ) :   0.9392 B(  3-C ,  4-O ) :   2.0853
B(  3-C ,  5-N ) :   1.1746 B(  5-N ,  6-N ) :   1.0535 B(  5-N , 12-H ) :   0.9335
B(  6-N , 13-H ) :   0.9690 B(  6-N , 14-H ) :   0.9681

FINAL SINGLE POINT ENERGY      -341.274569801447

DIPOLE MOMENT
-------------
                                X             Y             Z
Electronic contribution:      5.52973       0.97384      -0.96937
Nuclear contribution   :     -6.22617      -1.24485       0.44737
                        -----------------------------------------
Total Dipole Moment    :     -0.69644      -0.27101      -0.52199
                        -----------------------------------------
Magnitude (a.u.)       :      0.91157
Magnitude (Debye)      :      2.31703

                             ****ORCA TERMINATED NORMALLY****
TOTAL RUN TIME: 0 days 0 hours 0 minutes 6 seconds 738 msec
