                         Program Version 3.0.3 - RELEASE   -
|  1> ! RI PBE def2-SVP def2-SVP/J NBO PAL2
|  2> % maxcore 2000
|  3> % output
|  4>     # printlevel mini
|  5>     print[ P_Basis ] 0
|  6>     print[ P_SCFInfo ] 1
|  7>     print[ P_SCFIterInfo ] 1
|  8>     print[ P_OrbEn ] 0
|  9>     print[ P_Cartesian ] 0
| 10> end
| 11> *xyz 0 1
| 12>  C        0.9209950000     0.1110370000    -0.0946080000
| 13>  C        2.3984450000    -0.0978560000    -0.0808420000
| 14>  C        3.0144670000    -1.0897590000    -0.7192660000
| 15>  C        3.1603070000     0.8507560000     0.7915860000
| 16>  O        2.6923280000     1.3061970000     1.8186340000
| 17>  N        4.4101560000     1.1735520000     0.3634740000
| 18>  N        5.1840710000     2.1151670000     1.0356190000
| 19>  H        0.6679350000     1.0905720000    -0.5107440000
| 20>  H        0.5369650000     0.0999670000     0.9276480000
| 21>  H        0.4198340000    -0.6598410000    -0.6801980000
| 22>  H        2.4561390000    -1.8002970000    -1.3189820000
| 23>  H        4.0835480000    -1.2484960000    -0.6379580000
| 24>  H        4.6623430000     1.0129210000    -0.5962820000
| 25>  H        5.5798540000     1.6724180000     1.8588170000
| 26>  H        4.5565240000     2.8356620000     1.3840020000
| 27> *
| 28>
| 29>                          ****END OF INPUT****
 Total Charge           Charge          ....    0
 Multiplicity           Mult            ....    1
 Number of Electrons    NEL             ....   54
 Basis Dimension        Dim             ....  138

MULLIKEN ATOMIC CHARGES
-----------------------
   0 C :    0.076894
   1 C :   -0.186010
   2 C :   -0.038632
   3 C :    0.079433
   4 O :   -0.210784
   5 N :   -0.126316
   6 N :   -0.076323
   7 H :    0.031937
   8 H :    0.052684
   9 H :    0.014206
  10 H :    0.022257
  11 H :    0.020354
  12 H :    0.128391
  13 H :    0.110747
  14 H :    0.101160
Sum of atomic charges:    0.0000000

LOEWDIN ATOMIC CHARGES
----------------------
   0 C :   -0.049295
   1 C :   -0.056439
   2 C :   -0.056128
   3 C :    0.013150
   4 O :   -0.191040
   5 N :    0.033020
   6 N :   -0.037248
   7 H :    0.040984
   8 H :    0.046797
   9 H :    0.030636
  10 H :    0.025428
  11 H :    0.021184
  12 H :    0.069992
  13 H :    0.057583
  14 H :    0.051376

  Mayer bond orders larger than 0.1
B(  0-C ,  1-C ) :   1.0867 B(  0-C ,  7-H ) :   0.9436 B(  0-C ,  8-H ) :   0.9367
B(  0-C ,  9-H ) :   0.9504 B(  1-C ,  2-C ) :   1.9504 B(  1-C ,  3-C ) :   0.9134
B(  2-C , 10-H ) :   0.9337 B(  2-C , 11-H ) :   0.9393 B(  3-C ,  4-O ) :   2.0823
B(  3-C ,  5-N ) :   1.1913 B(  5-N ,  6-N ) :   1.0549 B(  5-N , 12-H ) :   0.9293
B(  6-N , 13-H ) :   0.9708 B(  6-N , 14-H ) :   0.9628

FINAL SINGLE POINT ENERGY      -341.270704509964

DIPOLE MOMENT
-------------
                                X             Y             Z
Electronic contribution:      2.29253       1.94072       2.51741
Nuclear contribution   :     -2.03165      -2.20601      -3.16737
                        -----------------------------------------
Total Dipole Moment    :      0.26088      -0.26529      -0.64997
                        -----------------------------------------
Magnitude (a.u.)       :      0.74893
Magnitude (Debye)      :      1.90362

                             ****ORCA TERMINATED NORMALLY****
TOTAL RUN TIME: 0 days 0 hours 0 minutes 6 seconds 696 msec
