                         Program Version 3.0.3 - RELEASE   -
|  1> ! RI PBE def2-SVP def2-SVP/J NBO PAL2
|  2> % maxcore 2000
|  3> % output
|  4>     # printlevel mini
|  5>     print[ P_Basis ] 0
|  6>     print[ P_SCFInfo ] 1
|  7>     print[ P_SCFIterInfo ] 1
|  8>     print[ P_OrbEn ] 0
|  9>     print[ P_Cartesian ] 0
| 10> end
| 11> *xyz 0 1
| 12>  C        0.8791580000    -0.4777790000    -0.0590020000
| 13>  C        2.3371530000    -0.0366140000    -0.0024470000
| 14>  C        3.2643960000    -1.1062450000    -0.5679480000
| 15>  C        2.5040840000     1.2437500000    -0.8013910000
| 16>  O        2.2684390000     1.3143240000    -1.9920490000
| 17>  N        2.9381020000     2.3164760000    -0.0935240000
| 18>  N        3.1450610000     3.5649040000    -0.6674320000
| 19>  H        0.7439290000    -1.4155510000     0.4847340000
| 20>  H        0.5775570000    -0.6311220000    -1.0968270000
| 21>  H        0.2142030000     0.2693480000     0.3807300000
| 22>  H        2.6107620000     0.1559560000     1.0420280000
| 23>  H        3.0341100000    -1.2783110000    -1.6209940000
| 24>  H        3.1366350000    -2.0459880000    -0.0258160000
| 25>  H        4.3136500000    -0.8107490000    -0.4939290000
| 26>  H        3.1305710000     2.2485300000     0.8899500000
| 27>  H        2.2757670000     3.8634060000    -1.0993080000
| 28>  H        3.8096120000     3.4580450000    -1.4278560000
| 29> *
| 30>
| 31>                          ****END OF INPUT****
 Total Charge           Charge          ....    0
 Multiplicity           Mult            ....    1
 Number of Electrons    NEL             ....   56
 Basis Dimension        Dim             ....  148

MULLIKEN ATOMIC CHARGES
-----------------------
   0 C :    0.030577
   1 C :   -0.140195
   2 C :    0.016287
   3 C :    0.032528
   4 O :   -0.219512
   5 N :   -0.116081
   6 N :   -0.075543
   7 H :    0.016172
   8 H :    0.037376
   9 H :    0.017340
  10 H :   -0.014639
  11 H :    0.038622
  12 H :    0.018878
  13 H :    0.020712
  14 H :    0.122430
  15 H :    0.107287
  16 H :    0.107760
Sum of atomic charges:   -0.0000000

LOEWDIN ATOMIC CHARGES
----------------------
   0 C :   -0.048878
   1 C :   -0.073757
   2 C :   -0.050567
   3 C :    0.017644
   4 O :   -0.203030
   5 N :    0.030116
   6 N :   -0.036582
   7 H :    0.025571
   8 H :    0.032040
   9 H :    0.026187
  10 H :    0.017168
  11 H :    0.032491
  12 H :    0.026045
  13 H :    0.026465
  14 H :    0.067615
  15 H :    0.055726
  16 H :    0.055745

  Mayer bond orders larger than 0.1
B(  0-C ,  1-C ) :   1.0716 B(  0-C ,  7-H ) :   0.9603 B(  0-C ,  8-H ) :   0.9599
B(  0-C ,  9-H ) :   0.9598 B(  1-C ,  2-C ) :   1.0737 B(  1-C ,  3-C ) :   0.9231
B(  1-C , 10-H ) :   0.9040 B(  2-C , 11-H ) :   0.9594 B(  2-C , 12-H ) :   0.9604
B(  2-C , 13-H ) :   0.9621 B(  3-C ,  4-O ) :   2.0958 B(  3-C ,  5-N ) :   1.1980
B(  5-N ,  6-N ) :   1.0490 B(  5-N , 14-H ) :   0.9322 B(  6-N , 15-H ) :   0.9688
B(  6-N , 16-H ) :   0.9699

FINAL SINGLE POINT ENERGY      -342.490102955623

DIPOLE MOMENT
-------------
                                X             Y             Z
Electronic contribution:      1.08262       5.81978      -2.12876
Nuclear contribution   :     -0.90538      -5.83216       2.95817
                        -----------------------------------------
Total Dipole Moment    :      0.17724      -0.01238       0.82940
                        -----------------------------------------
Magnitude (a.u.)       :      0.84822
Magnitude (Debye)      :      2.15600

                             ****ORCA TERMINATED NORMALLY****
TOTAL RUN TIME: 0 days 0 hours 0 minutes 7 seconds 932 msec
