                         Program Version 3.0.3 - RELEASE   -
|  1> ! RI PBE def2-SVP def2-SVP/J NBO PAL2
|  2> % maxcore 2000
|  3> % output
|  4>     # printlevel mini
|  5>     print[ P_Basis ] 0
|  6>     print[ P_SCFInfo ] 1
|  7>     print[ P_SCFIterInfo ] 1
|  8>     print[ P_OrbEn ] 0
|  9>     print[ P_Cartesian ] 0
| 10> end
| 11> *xyz 0 1
| 12>  C        1.1165080000    -0.1319850000    -0.0304140000
| 13>  C        2.5960050000    -0.3074030000     0.0830070000
| 14>  C        3.4470490000     0.9308410000    -0.0504830000
| 15>  C        3.8884990000     1.5128470000     1.2943670000
| 16>  O        4.9259590000     0.7965770000     1.9139630000
| 17>  N        3.0257690000    -1.4839090000     0.3141390000
| 18>  N        4.3802170000    -1.6731070000     0.4968510000
| 19>  H        0.7579200000     0.6124770000     0.6886270000
| 20>  H        0.6076780000    -1.0770590000     0.1533530000
| 21>  H        0.8439710000     0.2340010000    -1.0259030000
| 22>  H        2.8639950000     1.6906620000    -0.5788000000
| 23>  H        4.3408810000     0.7473240000    -0.6595360000
| 24>  H        3.0122510000     1.5963240000     1.9548380000
| 25>  H        4.2703440000     2.5251730000     1.1360340000
| 26>  H        4.7137020000    -0.1468790000     1.8977200000
| 27>  H        4.5883150000    -2.6512360000     0.3623180000
| 28>  H        4.9730400000    -1.1008370000    -0.1001800000
| 29> *
| 30>
| 31>                          ****END OF INPUT****
 Total Charge           Charge          ....    0
 Multiplicity           Mult            ....    1
 Number of Electrons    NEL             ....   56
 Basis Dimension        Dim             ....  148

MULLIKEN ATOMIC CHARGES
-----------------------
   0 C :    0.078142
   1 C :   -0.246999
   2 C :   -0.023722
   3 C :    0.195429
   4 O :   -0.292541
   5 N :   -0.105760
   6 N :   -0.077630
   7 H :    0.027236
   8 H :    0.026338
   9 H :    0.026171
  10 H :    0.007692
  11 H :    0.020901
  12 H :   -0.001444
  13 H :    0.010233
  14 H :    0.142278
  15 H :    0.118204
  16 H :    0.095473
Sum of atomic charges:   -0.0000000

LOEWDIN ATOMIC CHARGES
----------------------
   0 C :   -0.062061
   1 C :   -0.059795
   2 C :   -0.081160
   3 C :    0.064571
   4 O :   -0.127056
   5 N :   -0.066245
   6 N :   -0.005427
   7 H :    0.033377
   8 H :    0.035145
   9 H :    0.034290
  10 H :    0.037353
  11 H :    0.027797
  12 H :    0.004738
  13 H :    0.018659
  14 H :    0.041783
  15 H :    0.061829
  16 H :    0.042202

  Mayer bond orders larger than 0.1
B(  0-C ,  1-C ) :   1.0837 B(  0-C ,  7-H ) :   0.9431 B(  0-C ,  8-H ) :   0.9486
B(  0-C ,  9-H ) :   0.9411 B(  1-C ,  2-C ) :   1.0120 B(  1-C ,  5-N ) :   1.9525
B(  2-C ,  3-C ) :   1.0727 B(  2-C , 10-H ) :   0.8963 B(  2-C , 11-H ) :   0.9040
B(  3-C ,  4-O ) :   1.0959 B(  3-C , 12-H ) :   0.9292 B(  3-C , 13-H ) :   0.9365
B(  4-O , 14-H ) :   0.9545 B(  5-N ,  6-N ) :   1.0658 B(  6-N , 14-H ) :   0.1005
B(  6-N , 15-H ) :   0.9616 B(  6-N , 16-H ) :   0.9284

FINAL SINGLE POINT ENERGY      -342.453606366023

DIPOLE MOMENT
-------------
                                X             Y             Z
Electronic contribution:      2.65338      -2.76805       1.25545
Nuclear contribution   :     -2.74097       2.73031      -2.03195
                        -----------------------------------------
Total Dipole Moment    :     -0.08759      -0.03774      -0.77651
                        -----------------------------------------
Magnitude (a.u.)       :      0.78234
Magnitude (Debye)      :      1.98855

                             ****ORCA TERMINATED NORMALLY****
TOTAL RUN TIME: 0 days 0 hours 0 minutes 8 seconds 60 msec
