                         Program Version 3.0.3 - RELEASE   -
|  1> ! RI PBE def2-SVP def2-SVP/J NBO PAL2
|  2> % maxcore 2000
|  3> % output
|  4>     # printlevel mini
|  5>     print[ P_Basis ] 0
|  6>     print[ P_SCFInfo ] 1
|  7>     print[ P_SCFIterInfo ] 1
|  8>     print[ P_OrbEn ] 0
|  9>     print[ P_Cartesian ] 0
| 10> end
| 11> *xyz 0 1
| 12>  C        0.9987940000    -0.0417390000     0.0887500000
| 13>  C        2.4451150000    -0.0300850000     0.1410850000
| 14>  C        3.6487480000    -0.0309010000     0.1661160000
| 15>  C        5.0992710000    -0.0858130000     0.0986950000
| 16>  O        5.6933080000    -0.6048450000    -0.8230980000
| 17>  N        5.7412400000     0.4907180000     1.1510150000
| 18>  N        5.1502100000     1.1055900000     2.2432680000
| 19>  H        0.5633580000     0.4773890000     0.9454810000
| 20>  H        0.6255950000    -1.0688540000     0.0846110000
| 21>  H        0.6457610000     0.4455680000    -0.8234280000
| 22>  H        6.7482380000     0.4699950000     1.1341120000
| 23>  H        4.5603070000     0.4479170000     2.7388650000
| 24>  H        4.5772540000     1.8838810000     1.9397380000
| 25> *
| 26>
| 27>                          ****END OF INPUT****
 Total Charge           Charge          ....    0
 Multiplicity           Mult            ....    1
 Number of Electrons    NEL             ....   52
 Basis Dimension        Dim             ....  128

MULLIKEN ATOMIC CHARGES
-----------------------
   0 C :    0.057363
   1 C :   -0.182400
   2 C :   -0.140405
   3 C :    0.120556
   4 O :   -0.179526
   5 N :   -0.147525
   6 N :   -0.050203
   7 H :    0.051789
   8 H :    0.059119
   9 H :    0.060375
  10 H :    0.130581
  11 H :    0.110616
  12 H :    0.109661
Sum of atomic charges:   -0.0000000

LOEWDIN ATOMIC CHARGES
----------------------
   0 C :   -0.065132
   1 C :   -0.021930
   2 C :   -0.101292
   3 C :   -0.002885
   4 O :   -0.167179
   5 N :    0.035282
   6 N :   -0.029319
   7 H :    0.052257
   8 H :    0.058947
   9 H :    0.059183
  10 H :    0.072730
  11 H :    0.054734
  12 H :    0.054604

  Mayer bond orders larger than 0.1
B(  0-C ,  1-C ) :   1.1337 B(  0-C ,  7-H ) :   0.9335 B(  0-C ,  8-H ) :   0.9267
B(  0-C ,  9-H ) :   0.9263 B(  1-C ,  2-C ) :   2.6175 B(  2-C ,  3-C ) :   0.8158
B(  3-C ,  4-O ) :   2.1128 B(  3-C ,  5-N ) :   1.1591 B(  4-O ,  5-N ) :   0.1133
B(  5-N ,  6-N ) :   1.0621 B(  5-N , 10-H ) :   0.9227 B(  6-N , 11-H ) :   0.9649
B(  6-N , 12-H ) :   0.9653

FINAL SINGLE POINT ENERGY      -340.027403095270

DIPOLE MOMENT
-------------
                                X             Y             Z
Electronic contribution:      5.54430      -1.20957      -2.05501
Nuclear contribution   :     -6.74508       1.73673       2.98016
                        -----------------------------------------
Total Dipole Moment    :     -1.20078       0.52716       0.92515
                        -----------------------------------------
Magnitude (a.u.)       :      1.60489
Magnitude (Debye)      :      4.07931

                             ****ORCA TERMINATED NORMALLY****
TOTAL RUN TIME: 0 days 0 hours 0 minutes 5 seconds 855 msec
