                         Program Version 3.0.3 - RELEASE   -
|  1> ! RI PBE def2-SVP def2-SVP/J NBO PAL2
|  2> % maxcore 2000
|  3> % output
|  4>     # printlevel mini
|  5>     print[ P_Basis ] 0
|  6>     print[ P_SCFInfo ] 1
|  7>     print[ P_SCFIterInfo ] 1
|  8>     print[ P_OrbEn ] 0
|  9>     print[ P_Cartesian ] 0
| 10> end
| 11> *xyz 0 1
| 12>  C        1.5314060000    -0.8975770000     1.2561540000
| 13>  C        2.1485960000     0.1095460000     0.2895800000
| 14>  C        2.9004430000     1.2076660000     0.9765560000
| 15>  C        2.1421170000     2.1881630000     1.8272980000
| 16>  O        2.3534240000     3.5109060000     1.3398340000
| 17>  N        4.1698070000     1.2374320000     0.8539820000
| 18>  N        4.8658030000     2.1952320000     1.5295010000
| 19>  H        0.9793900000    -1.6692190000     0.7145420000
| 20>  H        0.8319080000    -0.4220310000     1.9494790000
| 21>  H        2.3069870000    -1.3878810000     1.8487590000
| 22>  H        1.3574450000     0.5486700000    -0.3307750000
| 23>  H        2.8438800000    -0.3967340000    -0.3825450000
| 24>  H        2.5061950000     2.1030050000     2.8625770000
| 25>  H        1.0738530000     1.9453620000     1.8199240000
| 26>  H        1.9264150000     4.1245700000     1.9431750000
| 27>  H        5.7951210000     2.2685840000     1.1476940000
| 28>  H        4.3980100000     3.0945970000     1.5755740000
| 29> *
| 30>
| 31>                          ****END OF INPUT****
 Total Charge           Charge          ....    0
 Multiplicity           Mult            ....    1
 Number of Electrons    NEL             ....   56
 Basis Dimension        Dim             ....  148

MULLIKEN ATOMIC CHARGES
-----------------------
   0 C :   -0.044069
   1 C :    0.069180
   2 C :   -0.240586
   3 C :    0.196855
   4 O :   -0.279546
   5 N :   -0.111423
   6 N :   -0.063173
   7 H :    0.023299
   8 H :    0.014376
   9 H :    0.030871
  10 H :    0.013054
  11 H :    0.008376
  12 H :    0.018756
  13 H :   -0.001786
  14 H :    0.160633
  15 H :    0.111459
  16 H :    0.093724
Sum of atomic charges:   -0.0000000

LOEWDIN ATOMIC CHARGES
----------------------
   0 C :   -0.066156
   1 C :   -0.045568
   2 C :   -0.082939
   3 C :    0.041202
   4 O :   -0.120503
   5 N :   -0.047254
   6 N :   -0.001989
   7 H :    0.026872
   8 H :    0.018822
   9 H :    0.028560
  10 H :    0.028073
  11 H :    0.031258
  12 H :    0.015751
  13 H :    0.011550
  14 H :    0.072948
  15 H :    0.057328
  16 H :    0.032047

  Mayer bond orders larger than 0.1
B(  0-C ,  1-C ) :   1.1000 B(  0-C ,  7-H ) :   0.9611 B(  0-C ,  8-H ) :   0.9656
B(  0-C ,  9-H ) :   0.9661 B(  1-C ,  2-C ) :   1.0758 B(  1-C , 10-H ) :   0.9186
B(  1-C , 11-H ) :   0.9211 B(  2-C ,  3-C ) :   1.0211 B(  2-C ,  5-N ) :   1.9249
B(  3-C ,  4-O ) :   1.0468 B(  3-C , 12-H ) :   0.9109 B(  3-C , 13-H ) :   0.9149
B(  4-O , 14-H ) :   0.9731 B(  5-N ,  6-N ) :   1.1198 B(  6-N , 15-H ) :   0.9651
B(  6-N , 16-H ) :   0.9181

FINAL SINGLE POINT ENERGY      -342.448443829515

DIPOLE MOMENT
-------------
                                X             Y             Z
Electronic contribution:      3.92914       4.46384      -0.79205
Nuclear contribution   :     -4.38635      -3.78665       1.28630
                        -----------------------------------------
Total Dipole Moment    :     -0.45721       0.67719       0.49425
                        -----------------------------------------
Magnitude (a.u.)       :      0.95494
Magnitude (Debye)      :      2.42726

                             ****ORCA TERMINATED NORMALLY****
TOTAL RUN TIME: 0 days 0 hours 0 minutes 7 seconds 899 msec
