                         Program Version 3.0.3 - RELEASE   -
|  1> ! RI PBE def2-SVP def2-SVP/J NBO PAL2
|  2> % maxcore 2000
|  3> % output
|  4>     # printlevel mini
|  5>     print[ P_Basis ] 0
|  6>     print[ P_SCFInfo ] 1
|  7>     print[ P_SCFIterInfo ] 1
|  8>     print[ P_OrbEn ] 0
|  9>     print[ P_Cartesian ] 0
| 10> end
| 11> *xyz 0 1
| 12>  C        0.9673530000     0.3276450000    -0.5397910000
| 13>  C        2.4354310000    -0.0153130000    -0.3604320000
| 14>  C        3.0548610000     0.6829690000     0.8421350000
| 15>  C        4.4761840000     0.2324660000     1.0904960000
| 16>  O        4.8098760000    -0.9361940000     1.1004520000
| 17>  N        5.3672860000     1.2321350000     1.3146000000
| 18>  N        6.6946440000     0.9917600000     1.6487960000
| 19>  H        0.5457100000    -0.1836680000    -1.4078430000
| 20>  H        0.8206950000     1.4018570000    -0.6854680000
| 21>  H        0.3829500000     0.0309740000     0.3357890000
| 22>  H        2.9944860000     0.2574850000    -1.2618060000
| 23>  H        2.5655050000    -1.0925440000    -0.2335910000
| 24>  H        2.4826220000     0.4331570000     1.7430870000
| 25>  H        3.0028430000     1.7708410000     0.7254060000
| 26>  H        5.0668270000     2.1884750000     1.3810600000
| 27>  H        7.1495510000     0.5554200000     0.8529640000
| 28>  H        6.7116750000     0.2990440000     2.3916460000
| 29> *
| 30>
| 31>                          ****END OF INPUT****
 Total Charge           Charge          ....    0
 Multiplicity           Mult            ....    1
 Number of Electrons    NEL             ....   56
 Basis Dimension        Dim             ....  148

MULLIKEN ATOMIC CHARGES
-----------------------
   0 C :   -0.005555
   1 C :   -0.068872
   2 C :    0.004488
   3 C :    0.002590
   4 O :   -0.217416
   5 N :   -0.113645
   6 N :   -0.076876
   7 H :    0.022018
   8 H :    0.016523
   9 H :    0.018459
  10 H :    0.012836
  11 H :    0.041679
  12 H :    0.034716
  13 H :   -0.005551
  14 H :    0.120278
  15 H :    0.109616
  16 H :    0.104712
Sum of atomic charges:   -0.0000000

LOEWDIN ATOMIC CHARGES
----------------------
   0 C :   -0.067811
   1 C :   -0.039103
   2 C :   -0.069229
   3 C :    0.011667
   4 O :   -0.201834
   5 N :    0.028019
   6 N :   -0.036700
   7 H :    0.028725
   8 H :    0.023303
   9 H :    0.025373
  10 H :    0.025355
  11 H :    0.031649
  12 H :    0.043183
  13 H :    0.019644
  14 H :    0.067232
  15 H :    0.056621
  16 H :    0.053904

  Mayer bond orders larger than 0.1
B(  0-C ,  1-C ) :   1.1193 B(  0-C ,  7-H ) :   0.9601 B(  0-C ,  8-H ) :   0.9638
B(  0-C ,  9-H ) :   0.9648 B(  1-C ,  2-C ) :   1.0864 B(  1-C , 10-H ) :   0.9452
B(  1-C , 11-H ) :   0.9342 B(  2-C ,  3-C ) :   0.9596 B(  2-C , 12-H ) :   0.9031
B(  2-C , 13-H ) :   0.9239 B(  3-C ,  4-O ) :   2.0947 B(  3-C ,  5-N ) :   1.1950
B(  5-N ,  6-N ) :   1.0514 B(  5-N , 14-H ) :   0.9320 B(  6-N , 15-H ) :   0.9693
B(  6-N , 16-H ) :   0.9693

FINAL SINGLE POINT ENERGY      -342.489487099842

DIPOLE MOMENT
-------------
                                X             Y             Z
Electronic contribution:      7.58115      -1.11756       3.28546
Nuclear contribution   :     -7.79182       1.93603      -3.30731
                        -----------------------------------------
Total Dipole Moment    :     -0.21067       0.81846      -0.02184
                        -----------------------------------------
Magnitude (a.u.)       :      0.84542
Magnitude (Debye)      :      2.14890

                             ****ORCA TERMINATED NORMALLY****
TOTAL RUN TIME: 0 days 0 hours 0 minutes 7 seconds 720 msec
