                         Program Version 3.0.3 - RELEASE   -
|  1> ! RI PBE def2-SVP def2-SVP/J NBO PAL2
|  2> % maxcore 2000
|  3> % output
|  4>     # printlevel mini
|  5>     print[ P_Basis ] 0
|  6>     print[ P_SCFInfo ] 1
|  7>     print[ P_SCFIterInfo ] 1
|  8>     print[ P_OrbEn ] 0
|  9>     print[ P_Cartesian ] 0
| 10> end
| 11> *xyz 0 1
| 12>  C        1.0604700000     0.1745080000    -0.0801080000
| 13>  C        2.5206630000     0.0205120000    -0.2907850000
| 14>  C        3.2067460000    -1.1089950000    -0.1395930000
| 15>  C        4.6565070000    -1.1457200000    -0.3738850000
| 16>  O        5.3459950000    -0.2061820000    -0.7522810000
| 17>  N        5.2410000000    -2.3567870000    -0.1823180000
| 18>  O        6.6170090000    -2.3613810000    -0.2303770000
| 19>  H        0.8599760000     0.9317380000     0.6845030000
| 20>  H        0.5871610000    -0.7604440000     0.2236120000
| 21>  H        0.5766970000     0.5281430000    -0.9961850000
| 22>  H        3.0829480000     0.9001500000    -0.5969370000
| 23>  H        2.7137130000    -2.0316290000     0.1563340000
| 24>  H        4.8853240000    -3.0085060000     0.4990360000
| 25>  H        6.7900810000    -1.4273980000    -0.4772960000
| 26> *
| 27>
| 28>                          ****END OF INPUT****
 Total Charge           Charge          ....    0
 Multiplicity           Mult            ....    1
 Number of Electrons    NEL             ....   54
 Basis Dimension        Dim             ....  133

MULLIKEN ATOMIC CHARGES
-----------------------
   0 C :    0.046010
   1 C :   -0.082078
   2 C :   -0.049201
   3 C :    0.100645
   4 O :   -0.257311
   5 N :    0.013541
   6 O :   -0.199482
   7 H :    0.046009
   8 H :    0.022402
   9 H :    0.046528
  10 H :    0.025799
  11 H :   -0.014877
  12 H :    0.134268
  13 H :    0.167747
Sum of atomic charges:   -0.0000000

LOEWDIN ATOMIC CHARGES
----------------------
   0 C :   -0.062996
   1 C :    0.016966
   2 C :   -0.093055
   3 C :   -0.000697
   4 O :   -0.205204
   5 N :    0.098022
   6 O :   -0.069184
   7 H :    0.045166
   8 H :    0.032194
   9 H :    0.045961
  10 H :    0.035747
  11 H :    0.022970
  12 H :    0.076162
  13 H :    0.057947

  Mayer bond orders larger than 0.1
B(  0-C ,  1-C ) :   1.0894 B(  0-C ,  7-H ) :   0.9397 B(  0-C ,  8-H ) :   0.9583
B(  0-C ,  9-H ) :   0.9388 B(  1-C ,  2-C ) :   1.8375 B(  1-C , 10-H ) :   0.9452
B(  2-C ,  3-C ) :   1.0040 B(  2-C , 11-H ) :   0.9434 B(  3-C ,  4-O ) :   1.9431
B(  3-C ,  5-N ) :   1.1776 B(  4-O , 13-H ) :   0.1295 B(  5-N ,  6-O ) :   1.0214
B(  5-N , 12-H ) :   0.9250 B(  6-O , 13-H ) :   0.9175

FINAL SINGLE POINT ENERGY      -361.092883014209

DIPOLE MOMENT
-------------
                                X             Y             Z
Electronic contribution:      7.95797      -2.49577      -0.86351
Nuclear contribution   :     -9.05550       2.15618       1.42929
                        -----------------------------------------
Total Dipole Moment    :     -1.09753      -0.33960       0.56578
                        -----------------------------------------
Magnitude (a.u.)       :      1.28062
Magnitude (Debye)      :      3.25509

                             ****ORCA TERMINATED NORMALLY****
TOTAL RUN TIME: 0 days 0 hours 0 minutes 6 seconds 260 msec
