                         Program Version 3.0.3 - RELEASE   -
|  1> ! RI PBE def2-SVP def2-SVP/J NBO PAL2
|  2> % maxcore 2000
|  3> % output
|  4>     # printlevel mini
|  5>     print[ P_Basis ] 0
|  6>     print[ P_SCFInfo ] 1
|  7>     print[ P_SCFIterInfo ] 1
|  8>     print[ P_OrbEn ] 0
|  9>     print[ P_Cartesian ] 0
| 10> end
| 11> *xyz 0 1
| 12>  C        0.9697020000    -0.1189640000     0.1686410000
| 13>  C        2.4418560000    -0.0399230000    -0.0648640000
| 14>  C        3.0003220000     0.4402010000    -1.1738900000
| 15>  C        3.2803190000    -0.6091300000     1.0230470000
| 16>  O        2.9387770000    -1.5504280000     1.7272170000
| 17>  N        4.4989040000    -0.0443730000     1.2076340000
| 18>  O        5.1985720000    -0.5005250000     2.3039850000
| 19>  H        0.6808170000     0.4537440000     1.0544630000
| 20>  H        0.6790050000    -1.1543680000     0.3593230000
| 21>  H        0.4170030000     0.2590730000    -0.6912750000
| 22>  H        2.3909320000     0.8417740000    -1.9758490000
| 23>  H        4.0725010000     0.4167060000    -1.3292330000
| 24>  H        4.6379070000     0.9407480000     1.0501410000
| 25>  H        4.5810940000    -1.1810450000     2.6467500000
| 26> *
| 27>
| 28>                          ****END OF INPUT****
 Total Charge           Charge          ....    0
 Multiplicity           Mult            ....    1
 Number of Electrons    NEL             ....   54
 Basis Dimension        Dim             ....  133

MULLIKEN ATOMIC CHARGES
-----------------------
   0 C :    0.081897
   1 C :   -0.195706
   2 C :   -0.022840
   3 C :    0.109261
   4 O :   -0.244810
   5 N :    0.010811
   6 O :   -0.199720
   7 H :    0.035470
   8 H :    0.054201
   9 H :    0.016143
  10 H :    0.023031
  11 H :    0.024929
  12 H :    0.140286
  13 H :    0.167047
Sum of atomic charges:    0.0000000

LOEWDIN ATOMIC CHARGES
----------------------
   0 C :   -0.047118
   1 C :   -0.058432
   2 C :   -0.047777
   3 C :    0.004547
   4 O :   -0.190891
   5 N :    0.101326
   6 O :   -0.070501
   7 H :    0.041905
   8 H :    0.047990
   9 H :    0.032273
  10 H :    0.026911
  11 H :    0.023803
  12 H :    0.078232
  13 H :    0.057732

  Mayer bond orders larger than 0.1
B(  0-C ,  1-C ) :   1.0794 B(  0-C ,  7-H ) :   0.9447 B(  0-C ,  8-H ) :   0.9381
B(  0-C ,  9-H ) :   0.9491 B(  1-C ,  2-C ) :   1.9494 B(  1-C ,  3-C ) :   0.9546
B(  2-C , 10-H ) :   0.9299 B(  2-C , 11-H ) :   0.9376 B(  3-C ,  4-O ) :   1.9618
B(  3-C ,  5-N ) :   1.1965 B(  4-O , 13-H ) :   0.1250 B(  5-N ,  6-O ) :   1.0213
B(  5-N , 12-H ) :   0.9257 B(  6-O , 13-H ) :   0.9208

FINAL SINGLE POINT ENERGY      -361.088790994630

DIPOLE MOMENT
-------------
                                X             Y             Z
Electronic contribution:      4.61431      -1.99254       3.72902
Nuclear contribution   :     -4.84285       2.91291      -4.24098
                        -----------------------------------------
Total Dipole Moment    :     -0.22854       0.92037      -0.51195
                        -----------------------------------------
Magnitude (a.u.)       :      1.07769
Magnitude (Debye)      :      2.73926

                             ****ORCA TERMINATED NORMALLY****
TOTAL RUN TIME: 0 days 0 hours 0 minutes 6 seconds 603 msec
