                         Program Version 3.0.3 - RELEASE   -
|  1> ! RI PBE def2-SVP def2-SVP/J NBO PAL2
|  2> % maxcore 2000
|  3> % output
|  4>     # printlevel mini
|  5>     print[ P_Basis ] 0
|  6>     print[ P_SCFInfo ] 1
|  7>     print[ P_SCFIterInfo ] 1
|  8>     print[ P_OrbEn ] 0
|  9>     print[ P_Cartesian ] 0
| 10> end
| 11> *xyz 0 1
| 12>  C        0.9762250000    -0.1958340000     0.1407000000
| 13>  C        2.4869650000    -0.3231680000    -0.0251390000
| 14>  C        3.0153520000    -1.6006040000     0.6191230000
| 15>  C        2.8312430000    -0.3232180000    -1.4947470000
| 16>  O        2.4402200000    -1.1621530000    -2.2949780000
| 17>  N        3.5840380000     0.7077520000    -1.9329140000
| 18>  O        4.0201110000     0.6318670000    -3.2385240000
| 19>  H        0.7096190000    -0.2155990000     1.1996750000
| 20>  H        0.4739920000    -1.0261580000    -0.3590730000
| 21>  H        0.6033110000     0.7361600000    -0.2891670000
| 22>  H        2.9687640000     0.5435550000     0.4434300000
| 23>  H        2.5741060000    -2.4737720000     0.1352550000
| 24>  H        2.7556350000    -1.6234400000     1.6796140000
| 25>  H        4.1017020000    -1.6784290000     0.5330760000
| 26>  H        4.2322500000     1.1972950000    -1.3386470000
| 27>  H        3.5756560000    -0.1927430000    -3.5275960000
| 28> *
| 29>
| 30>                          ****END OF INPUT****
 Total Charge           Charge          ....    0
 Multiplicity           Mult            ....    1
 Number of Electrons    NEL             ....   56
 Basis Dimension        Dim             ....  143

MULLIKEN ATOMIC CHARGES
-----------------------
   0 C :    0.026651
   1 C :   -0.135727
   2 C :    0.012559
   3 C :    0.068614
   4 O :   -0.256320
   5 N :    0.019690
   6 O :   -0.202753
   7 H :    0.020299
   8 H :    0.040276
   9 H :    0.022207
  10 H :   -0.007334
  11 H :    0.039711
  12 H :    0.024842
  13 H :    0.023986
  14 H :    0.135393
  15 H :    0.167906
Sum of atomic charges:    0.0000000

LOEWDIN ATOMIC CHARGES
----------------------
   0 C :   -0.046638
   1 C :   -0.068752
   2 C :   -0.051667
   3 C :    0.009782
   4 O :   -0.202197
   5 N :    0.098136
   6 O :   -0.075250
   7 H :    0.026920
   8 H :    0.033508
   9 H :    0.028961
  10 H :    0.021809
  11 H :    0.033968
  12 H :    0.028542
  13 H :    0.027473
  14 H :    0.076255
  15 H :    0.059151

  Mayer bond orders larger than 0.1
B(  0-C ,  1-C ) :   1.0673 B(  0-C ,  7-H ) :   0.9623 B(  0-C ,  8-H ) :   0.9616
B(  0-C ,  9-H ) :   0.9599 B(  1-C ,  2-C ) :   1.0668 B(  1-C ,  3-C ) :   0.9569
B(  1-C , 10-H ) :   0.9072 B(  2-C , 11-H ) :   0.9584 B(  2-C , 12-H ) :   0.9607
B(  2-C , 13-H ) :   0.9615 B(  3-C ,  4-O ) :   1.9613 B(  3-C ,  5-N ) :   1.2194
B(  4-O ,  5-N ) :   0.1015 B(  4-O , 15-H ) :   0.1233 B(  5-N ,  6-O ) :   1.0168
B(  5-N , 14-H ) :   0.9267 B(  6-O , 15-H ) :   0.9228

FINAL SINGLE POINT ENERGY      -362.307752515251

DIPOLE MOMENT
-------------
                                X             Y             Z
Electronic contribution:      3.23053       2.17936      -7.86346
Nuclear contribution   :     -2.89214      -1.75730       8.86023
                        -----------------------------------------
Total Dipole Moment    :      0.33839       0.42206       0.99677
                        -----------------------------------------
Magnitude (a.u.)       :      1.13411
Magnitude (Debye)      :      2.88267

                             ****ORCA TERMINATED NORMALLY****
TOTAL RUN TIME: 0 days 0 hours 0 minutes 7 seconds 162 msec
