                         Program Version 3.0.3 - RELEASE   -
|  1> ! RI PBE def2-SVP def2-SVP/J NBO PAL2
|  2> % maxcore 2000
|  3> % output
|  4>     # printlevel mini
|  5>     print[ P_Basis ] 0
|  6>     print[ P_SCFInfo ] 1
|  7>     print[ P_SCFIterInfo ] 1
|  8>     print[ P_OrbEn ] 0
|  9>     print[ P_Cartesian ] 0
| 10> end
| 11> *xyz 0 1
| 12>  C        1.1126860000    -0.2210410000     0.0544930000
| 13>  C        2.5108100000    -0.1856880000    -0.4598150000
| 14>  C        3.6000380000     0.3195960000     0.4451880000
| 15>  C        4.2626160000    -0.8357580000     1.1577350000
| 16>  O        4.2808540000    -0.9652670000     2.3497700000
| 17>  N        2.7106470000    -0.6133770000    -1.6410850000
| 18>  O        4.0483370000    -0.5531700000    -2.0090810000
| 19>  H        1.0591030000    -0.8060420000     0.9776560000
| 20>  H        0.4453710000    -0.6584210000    -0.6866950000
| 21>  H        0.7687130000     0.7891560000     0.2958850000
| 22>  H        3.2005130000     1.0056430000     1.1923940000
| 23>  H        4.3623910000     0.8205780000    -0.1598110000
| 24>  H        4.7341700000    -1.5840910000     0.4898320000
| 25>  H        4.0305520000    -0.8603990000    -2.9193840000
| 26> *
| 27>
| 28>                          ****END OF INPUT****
 Total Charge           Charge          ....    0
 Multiplicity           Mult            ....    1
 Number of Electrons    NEL             ....   54
 Basis Dimension        Dim             ....  133

MULLIKEN ATOMIC CHARGES
-----------------------
   0 C :    0.087062
   1 C :   -0.282724
   2 C :    0.115760
   3 C :    0.078909
   4 O :   -0.157415
   5 N :   -0.013966
   6 O :   -0.185198
   7 H :    0.038124
   8 H :    0.033167
   9 H :    0.036880
  10 H :    0.014441
  11 H :    0.051490
  12 H :    0.006057
  13 H :    0.177412
Sum of atomic charges:   -0.0000000

LOEWDIN ATOMIC CHARGES
----------------------
   0 C :   -0.056327
   1 C :   -0.055998
   2 C :   -0.084091
   3 C :    0.099495
   4 O :   -0.103182
   5 N :   -0.024396
   6 O :   -0.057830
   7 H :    0.041933
   8 H :    0.038881
   9 H :    0.040591
  10 H :    0.038104
  11 H :    0.052151
  12 H :   -0.006154
  13 H :    0.076822

  Mayer bond orders larger than 0.1
B(  0-C ,  1-C ) :   1.1017 B(  0-C ,  7-H ) :   0.9392 B(  0-C ,  8-H ) :   0.9456
B(  0-C ,  9-H ) :   0.9386 B(  1-C ,  2-C ) :   0.9974 B(  1-C ,  5-N ) :   1.9252
B(  2-C ,  3-C ) :   0.9685 B(  2-C , 10-H ) :   0.9064 B(  2-C , 11-H ) :   0.8779
B(  3-C ,  4-O ) :   2.1753 B(  3-C , 12-H ) :   0.9240 B(  5-N ,  6-O ) :   0.9923
B(  6-O , 13-H ) :   0.9728

FINAL SINGLE POINT ENERGY      -361.081168389666

DIPOLE MOMENT
-------------
                                X             Y             Z
Electronic contribution:      3.68335      -1.44952      -0.32855
Nuclear contribution   :     -3.82583       1.71702      -0.50491
                        -----------------------------------------
Total Dipole Moment    :     -0.14249       0.26750      -0.83346
                        -----------------------------------------
Magnitude (a.u.)       :      0.88685
Magnitude (Debye)      :      2.25420

                             ****ORCA TERMINATED NORMALLY****
TOTAL RUN TIME: 0 days 0 hours 0 minutes 6 seconds 345 msec
