                         Program Version 3.0.3 - RELEASE   -
|  1> ! RI PBE def2-SVP def2-SVP/J NBO PAL2
|  2> % maxcore 2000
|  3> % output
|  4>     # printlevel mini
|  5>     print[ P_Basis ] 0
|  6>     print[ P_SCFInfo ] 1
|  7>     print[ P_SCFIterInfo ] 1
|  8>     print[ P_OrbEn ] 0
|  9>     print[ P_Cartesian ] 0
| 10> end
| 11> *xyz 0 1
| 12>  C        1.0786010000    -0.0632340000    -0.1140660000
| 13>  C        2.3446950000     0.7064220000    -0.2852860000
| 14>  C        3.6421500000     0.0785590000     0.1226950000
| 15>  C        4.0572220000     0.4980770000     1.5320950000
| 16>  O        5.2435860000    -0.1382230000     1.9507540000
| 17>  N        2.2355820000     1.8826510000    -0.7595080000
| 18>  O        3.4653320000     2.5246220000    -0.8738740000
| 19>  H        1.0948640000    -0.9669860000    -0.7309840000
| 20>  H        0.2187860000     0.5441380000    -0.3938550000
| 21>  H        0.9635790000    -0.3887900000     0.9245940000
| 22>  H        4.4238640000     0.3778200000    -0.5812210000
| 23>  H        3.5520710000    -1.0102230000     0.0946730000
| 24>  H        3.2912130000     0.2013160000     2.2527400000
| 25>  H        4.1486230000     1.5893660000     1.5754730000
| 26>  H        5.9654070000     0.1801210000     1.4026700000
| 27>  H        3.2225440000     3.3671640000    -1.2660090000
| 28> *
| 29>
| 30>                          ****END OF INPUT****
 Total Charge           Charge          ....    0
 Multiplicity           Mult            ....    1
 Number of Electrons    NEL             ....   56
 Basis Dimension        Dim             ....  143

MULLIKEN ATOMIC CHARGES
-----------------------
   0 C :    0.091450
   1 C :   -0.279854
   2 C :    0.070781
   3 C :    0.153270
   4 O :   -0.279635
   5 N :   -0.027450
   6 O :   -0.187533
   7 H :    0.033095
   8 H :    0.023393
   9 H :    0.026825
  10 H :    0.014060
  11 H :    0.007481
  12 H :    0.010318
  13 H :    0.016684
  14 H :    0.154379
  15 H :    0.172735
Sum of atomic charges:   -0.0000000

LOEWDIN ATOMIC CHARGES
----------------------
   0 C :   -0.056929
   1 C :   -0.057734
   2 C :   -0.073107
   3 C :    0.061662
   4 O :   -0.119066
   5 N :   -0.030521
   6 O :   -0.062869
   7 H :    0.038510
   8 H :    0.035049
   9 H :    0.036035
  10 H :    0.029051
  11 H :    0.030431
  12 H :    0.019680
  13 H :    0.007898
  14 H :    0.068847
  15 H :    0.073063

  Mayer bond orders larger than 0.1
B(  0-C ,  1-C ) :   1.0978 B(  0-C ,  7-H ) :   0.9373 B(  0-C ,  8-H ) :   0.9445
B(  0-C ,  9-H ) :   0.9418 B(  1-C ,  2-C ) :   0.9970 B(  1-C ,  5-N ) :   1.9347
B(  2-C ,  3-C ) :   1.0727 B(  2-C , 10-H ) :   0.8895 B(  2-C , 11-H ) :   0.9087
B(  3-C ,  4-O ) :   1.0658 B(  3-C , 12-H ) :   0.9373 B(  3-C , 13-H ) :   0.9424
B(  4-O , 14-H ) :   0.9859 B(  5-N ,  6-O ) :   0.9899 B(  6-O , 15-H ) :   0.9747

FINAL SINGLE POINT ENERGY      -362.276661443450

DIPOLE MOMENT
-------------
                                X             Y             Z
Electronic contribution:      1.96796       3.39315      -1.41887
Nuclear contribution   :     -1.88265      -3.13588       1.03379
                        -----------------------------------------
Total Dipole Moment    :      0.08532       0.25727      -0.38508
                        -----------------------------------------
Magnitude (a.u.)       :      0.47091
Magnitude (Debye)      :      1.19695

                             ****ORCA TERMINATED NORMALLY****
TOTAL RUN TIME: 0 days 0 hours 0 minutes 7 seconds 38 msec
