                         Program Version 3.0.3 - RELEASE   -
|  1> ! RI PBE def2-SVP def2-SVP/J NBO PAL2
|  2> % maxcore 2000
|  3> % output
|  4>     # printlevel mini
|  5>     print[ P_Basis ] 0
|  6>     print[ P_SCFInfo ] 1
|  7>     print[ P_SCFIterInfo ] 1
|  8>     print[ P_OrbEn ] 0
|  9>     print[ P_Cartesian ] 0
| 10> end
| 11> *xyz 0 1
| 12>  C        0.8999720000    -0.0677190000    -0.0136120000
| 13>  C        2.3454350000    -0.0872810000     0.0344250000
| 14>  C        3.5479420000    -0.0976590000     0.0677260000
| 15>  C        4.9903070000    -0.1238950000     0.0001560000
| 16>  O        5.6117970000    -0.3469390000    -1.0150940000
| 17>  N        5.6434650000     0.0500660000     1.1986700000
| 18>  O        4.9953220000     0.7177300000     2.2232450000
| 19>  H        0.5309330000    -0.6082750000    -0.8881340000
| 20>  H        0.5366930000     0.9615080000    -0.0718500000
| 21>  H        0.4723940000    -0.5250090000     0.8817270000
| 22>  H        6.6120870000     0.3283660000     1.1119410000
| 23>  H        4.7896430000     0.0362170000     2.8722910000
| 24> *
| 25>
| 26>                          ****END OF INPUT****
 Total Charge           Charge          ....    0
 Multiplicity           Mult            ....    1
 Number of Electrons    NEL             ....   52
 Basis Dimension        Dim             ....  123

MULLIKEN ATOMIC CHARGES
-----------------------
   0 C :    0.055694
   1 C :   -0.186070
   2 C :   -0.057718
   3 C :    0.088786
   4 O :   -0.175621
   5 N :   -0.024502
   6 O :   -0.193488
   7 H :    0.059917
   8 H :    0.058908
   9 H :    0.054402
  10 H :    0.134039
  11 H :    0.185652
Sum of atomic charges:   -0.0000000

LOEWDIN ATOMIC CHARGES
----------------------
   0 C :   -0.064401
   1 C :   -0.008901
   2 C :   -0.091820
   3 C :   -0.000870
   4 O :   -0.154156
   5 N :    0.063559
   6 O :   -0.062972
   7 H :    0.056763
   8 H :    0.059590
   9 H :    0.055257
  10 H :    0.067961
  11 H :    0.079991

  Mayer bond orders larger than 0.1
B(  0-C ,  1-C ) :   1.1325 B(  0-C ,  7-H ) :   0.9297 B(  0-C ,  8-H ) :   0.9265
B(  0-C ,  9-H ) :   0.9306 B(  1-C ,  2-C ) :   2.6120 B(  2-C ,  3-C ) :   0.8409
B(  3-C ,  4-O ) :   2.1107 B(  3-C ,  5-N ) :   1.1331 B(  4-O ,  5-N ) :   0.1059
B(  5-N ,  6-O ) :   0.9942 B(  5-N , 10-H ) :   0.9174 B(  6-O , 11-H ) :   0.9708

FINAL SINGLE POINT ENERGY      -359.841687125663

DIPOLE MOMENT
-------------
                                X             Y             Z
Electronic contribution:      6.09818      -0.11169      -0.53564
Nuclear contribution   :     -6.90690       0.07671       1.72771
                        -----------------------------------------
Total Dipole Moment    :     -0.80872      -0.03499       1.19207
                        -----------------------------------------
Magnitude (a.u.)       :      1.44093
Magnitude (Debye)      :      3.66256

                             ****ORCA TERMINATED NORMALLY****
TOTAL RUN TIME: 0 days 0 hours 0 minutes 5 seconds 327 msec
