                         Program Version 3.0.3 - RELEASE   -
|  1> ! RI PBE def2-SVP def2-SVP/J NBO PAL2
|  2> % maxcore 2000
|  3> % output
|  4>     # printlevel mini
|  5>     print[ P_Basis ] 0
|  6>     print[ P_SCFInfo ] 1
|  7>     print[ P_SCFIterInfo ] 1
|  8>     print[ P_OrbEn ] 0
|  9>     print[ P_Cartesian ] 0
| 10> end
| 11> *xyz 0 1
| 12>  C        1.0901340000    -0.0368470000     0.2048900000
| 13>  C        2.5724810000     0.1695580000    -0.0919770000
| 14>  C        2.9025650000     1.5890940000    -0.4274150000
| 15>  C        2.9452700000     2.5936010000     0.6697920000
| 16>  O        2.7847740000     2.2814060000     1.8229460000
| 17>  N        3.1346600000     1.8686670000    -1.6536360000
| 18>  O        3.4162060000     3.1916270000    -1.8911390000
| 19>  H        0.8944960000    -1.0829050000     0.4491440000
| 20>  H        0.4793690000     0.2274900000    -0.6613360000
| 21>  H        0.7697310000     0.5707900000     1.0525090000
| 22>  H        2.8829860000    -0.4551690000    -0.9314240000
| 23>  H        3.1612620000    -0.1202830000     0.7827900000
| 24>  H        3.1381630000     3.6377930000     0.3774150000
| 25>  H        3.5640940000     3.2110000000    -2.8407560000
| 26> *
| 27>
| 28>                          ****END OF INPUT****
 Total Charge           Charge          ....    0
 Multiplicity           Mult            ....    1
 Number of Electrons    NEL             ....   54
 Basis Dimension        Dim             ....  133

MULLIKEN ATOMIC CHARGES
-----------------------
   0 C :   -0.040523
   1 C :    0.064277
   2 C :   -0.211740
   3 C :    0.166771
   4 O :   -0.150481
   5 N :    0.001520
   6 O :   -0.154287
   7 H :    0.028720
   8 H :    0.027052
   9 H :    0.036730
  10 H :    0.018673
  11 H :    0.029420
  12 H :    0.000156
  13 H :    0.183713
Sum of atomic charges:   -0.0000000

LOEWDIN ATOMIC CHARGES
----------------------
   0 C :   -0.059583
   1 C :   -0.039371
   2 C :   -0.098256
   3 C :    0.075454
   4 O :   -0.098538
   5 N :    0.012270
   6 O :   -0.030287
   7 H :    0.030723
   8 H :    0.026540
   9 H :    0.029087
  10 H :    0.033439
  11 H :    0.039020
  12 H :   -0.003043
  13 H :    0.082545

  Mayer bond orders larger than 0.1
B(  0-C ,  1-C ) :   1.1015 B(  0-C ,  7-H ) :   0.9616 B(  0-C ,  8-H ) :   0.9655
B(  0-C ,  9-H ) :   0.9682 B(  1-C ,  2-C ) :   1.0676 B(  1-C , 10-H ) :   0.9223
B(  1-C , 11-H ) :   0.9097 B(  2-C ,  3-C ) :   0.9515 B(  2-C ,  5-N ) :   1.8471
B(  3-C ,  4-O ) :   2.1247 B(  3-C , 12-H ) :   0.9340 B(  5-N ,  6-O ) :   1.0319
B(  6-O , 13-H ) :   0.9709

FINAL SINGLE POINT ENERGY      -361.078795468802

DIPOLE MOMENT
-------------
                                X             Y             Z
Electronic contribution:      3.80331       5.59287      -0.74156
Nuclear contribution   :     -3.70677      -5.49647      -0.25050
                        -----------------------------------------
Total Dipole Moment    :      0.09654       0.09639      -0.99206
                        -----------------------------------------
Magnitude (a.u.)       :      1.00139
Magnitude (Debye)      :      2.54534

                             ****ORCA TERMINATED NORMALLY****
TOTAL RUN TIME: 0 days 0 hours 0 minutes 6 seconds 955 msec
