                         Program Version 3.0.3 - RELEASE   -
|  1> ! RI PBE def2-SVP def2-SVP/J NBO PAL2
|  2> % maxcore 2000
|  3> % output
|  4>     # printlevel mini
|  5>     print[ P_Basis ] 0
|  6>     print[ P_SCFInfo ] 1
|  7>     print[ P_SCFIterInfo ] 1
|  8>     print[ P_OrbEn ] 0
|  9>     print[ P_Cartesian ] 0
| 10> end
| 11> *xyz 0 1
| 12>  C        1.8457950000    -1.1861630000     0.7457190000
| 13>  C        2.4916880000    -0.0303630000    -0.0121380000
| 14>  C        3.0077390000    -0.4435000000    -1.3530370000
| 15>  C        2.0403800000    -0.8244050000    -2.4466050000
| 16>  O        2.2085440000    -2.1428700000    -2.9079200000
| 17>  N        4.2701510000    -0.4583730000    -1.5046610000
| 18>  O        4.6331510000    -0.8620400000    -2.7946540000
| 19>  H        1.4285510000    -0.8377370000     1.6926860000
| 20>  H        2.5809530000    -1.9637340000     0.9616750000
| 21>  H        1.0371670000    -1.6449350000     0.1721510000
| 22>  H        3.3185090000     0.3896190000     0.5639550000
| 23>  H        1.7550350000     0.7695300000    -0.1561200000
| 24>  H        2.1457590000    -0.0953900000    -3.2636680000
| 25>  H        1.0177700000    -0.7522890000    -2.0724360000
| 26>  H        3.1188750000    -2.2072720000    -3.2174500000
| 27>  H        5.5924430000    -0.8239890000    -2.7672070000
| 28> *
| 29>
| 30>                          ****END OF INPUT****
 Total Charge           Charge          ....    0
 Multiplicity           Mult            ....    1
 Number of Electrons    NEL             ....   56
 Basis Dimension        Dim             ....  143

MULLIKEN ATOMIC CHARGES
-----------------------
   0 C :   -0.027712
   1 C :    0.042806
   2 C :   -0.265227
   3 C :    0.296370
   4 O :   -0.289443
   5 N :   -0.031489
   6 O :   -0.202001
   7 H :    0.026218
   8 H :    0.034411
   9 H :    0.031020
  10 H :    0.015819
  11 H :    0.024220
  12 H :    0.017717
  13 H :   -0.004634
  14 H :    0.153930
  15 H :    0.177993
Sum of atomic charges:   -0.0000000

LOEWDIN ATOMIC CHARGES
----------------------
   0 C :   -0.059252
   1 C :   -0.043336
   2 C :   -0.065348
   3 C :    0.046398
   4 O :   -0.117125
   5 N :   -0.025636
   6 O :   -0.060617
   7 H :    0.029155
   8 H :    0.031210
   9 H :    0.028318
  10 H :    0.032412
  11 H :    0.034558
  12 H :    0.019433
  13 H :    0.022346
  14 H :    0.051205
  15 H :    0.076281

  Mayer bond orders larger than 0.1
B(  0-C ,  1-C ) :   1.1107 B(  0-C ,  7-H ) :   0.9593 B(  0-C ,  8-H ) :   0.9641
B(  0-C ,  9-H ) :   0.9646 B(  1-C ,  2-C ) :   1.0812 B(  1-C , 10-H ) :   0.9192
B(  1-C , 11-H ) :   0.9128 B(  2-C ,  3-C ) :   0.9776 B(  2-C ,  5-N ) :   1.9297
B(  3-C ,  4-O ) :   1.0757 B(  3-C , 12-H ) :   0.9102 B(  3-C , 13-H ) :   0.9191
B(  4-O , 14-H ) :   0.9668 B(  5-N ,  6-O ) :   0.9688 B(  6-O , 15-H ) :   0.9713

FINAL SINGLE POINT ENERGY      -362.276327130073

DIPOLE MOMENT
-------------
                                X             Y             Z
Electronic contribution:      4.60020      -0.39393      -5.19047
Nuclear contribution   :     -4.24941       0.75800       5.25328
                        -----------------------------------------
Total Dipole Moment    :      0.35079       0.36407       0.06281
                        -----------------------------------------
Magnitude (a.u.)       :      0.50946
Magnitude (Debye)      :      1.29494

                             ****ORCA TERMINATED NORMALLY****
TOTAL RUN TIME: 0 days 0 hours 0 minutes 6 seconds 842 msec
