                         Program Version 3.0.3 - RELEASE   -
|  1> ! RI PBE def2-SVP def2-SVP/J NBO PAL2
|  2> % maxcore 2000
|  3> % output
|  4>     # printlevel mini
|  5>     print[ P_Basis ] 0
|  6>     print[ P_SCFInfo ] 1
|  7>     print[ P_SCFIterInfo ] 1
|  8>     print[ P_OrbEn ] 0
|  9>     print[ P_Cartesian ] 0
| 10> end
| 11> *xyz 0 1
| 12>  C        1.4271320000    -0.0202210000     0.4186810000
| 13>  C        2.9196270000     0.0162860000     0.1436800000
| 14>  C        3.2494400000    -0.3078270000    -1.3092260000
| 15>  C        4.7164340000    -0.1636240000    -1.5975180000
| 16>  O        5.3744570000     0.8369280000    -1.3495390000
| 17>  N        5.3315490000    -1.2459180000    -2.1242660000
| 18>  O        6.6335970000    -1.0590830000    -2.5377440000
| 19>  H        1.2140350000     0.2137480000     1.4637510000
| 20>  H        1.0048370000    -1.0069090000     0.2079130000
| 21>  H        0.8933640000     0.7070450000    -0.1994670000
| 22>  H        3.4377240000    -0.6951610000     0.7947700000
| 23>  H        3.3277580000     1.0026750000     0.3763590000
| 24>  H        2.7236420000     0.3922940000    -1.9681340000
| 25>  H        2.9052380000    -1.3156240000    -1.5643750000
| 26>  H        4.8421770000    -1.9158220000    -2.6947740000
| 27>  H        6.7824800000    -0.1344760000    -2.2477320000
| 28> *
| 29>
| 30>                          ****END OF INPUT****
 Total Charge           Charge          ....    0
 Multiplicity           Mult            ....    1
 Number of Electrons    NEL             ....   56
 Basis Dimension        Dim             ....  143

MULLIKEN ATOMIC CHARGES
-----------------------
   0 C :   -0.002756
   1 C :   -0.070900
   2 C :    0.032773
   3 C :    0.026483
   4 O :   -0.253755
   5 N :    0.022424
   6 O :   -0.205579
   7 H :    0.025779
   8 H :    0.015229
   9 H :    0.019733
  10 H :    0.022727
  11 H :    0.038263
  12 H :    0.036711
  13 H :   -0.008447
  14 H :    0.134375
  15 H :    0.166940
Sum of atomic charges:   -0.0000000

LOEWDIN ATOMIC CHARGES
----------------------
   0 C :   -0.066240
   1 C :   -0.037144
   2 C :   -0.061202
   3 C :    0.003543
   4 O :   -0.200527
   5 N :    0.095967
   6 O :   -0.076042
   7 H :    0.030454
   8 H :    0.023419
   9 H :    0.026227
  10 H :    0.028320
  11 H :    0.032017
  12 H :    0.044665
  13 H :    0.022623
  14 H :    0.075871
  15 H :    0.058049

  Mayer bond orders larger than 0.1
B(  0-C ,  1-C ) :   1.1186 B(  0-C ,  7-H ) :   0.9609 B(  0-C ,  8-H ) :   0.9642
B(  0-C ,  9-H ) :   0.9644 B(  1-C ,  2-C ) :   1.0837 B(  1-C , 10-H ) :   0.9429
B(  1-C , 11-H ) :   0.9365 B(  2-C ,  3-C ) :   1.0004 B(  2-C , 12-H ) :   0.8972
B(  2-C , 13-H ) :   0.9236 B(  3-C ,  4-O ) :   1.9593 B(  3-C ,  5-N ) :   1.2133
B(  4-O ,  5-N ) :   0.1014 B(  4-O , 15-H ) :   0.1250 B(  5-N ,  6-O ) :   1.0150
B(  5-N , 14-H ) :   0.9258 B(  6-O , 15-H ) :   0.9220

FINAL SINGLE POINT ENERGY      -362.307107378854

DIPOLE MOMENT
-------------
                                X             Y             Z
Electronic contribution:      9.74789      -0.44152      -5.05409
Nuclear contribution   :    -10.68323      -0.16754       4.81814
                        -----------------------------------------
Total Dipole Moment    :     -0.93534      -0.60906      -0.23595
                        -----------------------------------------
Magnitude (a.u.)       :      1.14083
Magnitude (Debye)      :      2.89976

                             ****ORCA TERMINATED NORMALLY****
TOTAL RUN TIME: 0 days 0 hours 0 minutes 7 seconds 4 msec
