                         Program Version 3.0.3 - RELEASE   -
|  1> ! RI PBE def2-SVP def2-SVP/J NBO PAL2
|  2> % maxcore 2000
|  3> % output
|  4>     # printlevel mini
|  5>     print[ P_Basis ] 0
|  6>     print[ P_SCFInfo ] 1
|  7>     print[ P_SCFIterInfo ] 1
|  8>     print[ P_OrbEn ] 0
|  9>     print[ P_Cartesian ] 0
| 10> end
| 11> *xyz 0 1
| 12>  C        1.0423620000    -0.1603170000     0.0722740000
| 13>  C        2.3687070000    -0.0421770000     0.0661140000
| 14>  C        3.0733880000     0.1153060000    -1.1695600000
| 15>  N        3.6626810000     0.2563710000    -2.1488510000
| 16>  C        3.2126970000    -0.0258430000     1.2955570000
| 17>  C        2.8914820000    -0.8419990000     2.4596390000
| 18>  O        3.9393210000    -1.2094010000     1.5789150000
| 19>  H        0.4716790000    -0.1571180000    -0.8479130000
| 20>  H        0.5009100000    -0.2574020000     1.0050600000
| 21>  H        3.7871430000     0.8882330000     1.4394990000
| 22>  H        2.0208350000    -1.4917290000     2.4369190000
| 23>  H        3.2051740000    -0.5070040000     3.4448580000
| 24> *
| 25>
| 26>                          ****END OF INPUT****
 Total Charge           Charge          ....    0
 Multiplicity           Mult            ....    1
 Number of Electrons    NEL             ....   50
 Basis Dimension        Dim             ....  123

MULLIKEN ATOMIC CHARGES
-----------------------
   0 C :    0.055442
   1 C :   -0.187479
   2 C :   -0.095798
   3 N :    0.070309
   4 C :    0.083261
   5 C :    0.129796
   6 O :   -0.263300
   7 H :    0.047370
   8 H :    0.036286
   9 H :    0.046891
  10 H :    0.039094
  11 H :    0.038128
Sum of atomic charges:   -0.0000000

LOEWDIN ATOMIC CHARGES
----------------------
   0 C :    0.019239
   1 C :   -0.076203
   2 C :   -0.030189
   3 N :   -0.041449
   4 C :    0.053363
   5 C :    0.064581
   6 O :   -0.134745
   7 H :    0.041395
   8 H :    0.033267
   9 H :    0.029440
  10 H :    0.019370
  11 H :    0.021930

  Mayer bond orders larger than 0.1
B(  0-C ,  1-C ) :   1.9530 B(  0-C ,  3-N ) :   0.1120 B(  0-C ,  7-H ) :   0.9325
B(  0-C ,  8-H ) :   0.9291 B(  1-C ,  2-C ) :   1.1069 B(  1-C ,  4-C ) :   0.9793
B(  2-C ,  3-N ) :   2.9958 B(  4-C ,  5-C ) :   1.0998 B(  4-C ,  6-O ) :   1.0175
B(  4-C ,  9-H ) :   0.9215 B(  5-C ,  6-O ) :   0.9934 B(  5-C , 10-H ) :   0.9375
B(  5-C , 11-H ) :   0.9291

FINAL SINGLE POINT ENERGY      -322.794658010776

DIPOLE MOMENT
-------------
                                X             Y             Z
Electronic contribution:      2.98088       0.23686      -3.91186
Nuclear contribution   :     -4.20585      -0.02217       5.27301
                        -----------------------------------------
Total Dipole Moment    :     -1.22498       0.21469       1.36114
                        -----------------------------------------
Magnitude (a.u.)       :      1.84374
Magnitude (Debye)      :      4.68641

                             ****ORCA TERMINATED NORMALLY****
TOTAL RUN TIME: 0 days 0 hours 0 minutes 6 seconds 81 msec
