                         Program Version 3.0.3 - RELEASE   -
|  1> ! RI PBE def2-SVP def2-SVP/J NBO PAL2
|  2> % maxcore 2000
|  3> % output
|  4>     # printlevel mini
|  5>     print[ P_Basis ] 0
|  6>     print[ P_SCFInfo ] 1
|  7>     print[ P_SCFIterInfo ] 1
|  8>     print[ P_OrbEn ] 0
|  9>     print[ P_Cartesian ] 0
| 10> end
| 11> *xyz 0 1
| 12>  C        1.2118010000     0.0948160000    -0.1823560000
| 13>  C        2.6884570000    -0.2553890000    -0.0479050000
| 14>  C        2.8520500000    -1.6409800000     0.5796820000
| 15>  N        3.2976480000    -0.1686030000    -1.3705920000
| 16>  C        3.3303540000     0.7596190000     0.8875980000
| 17>  C        4.5455400000     1.5038900000     0.5723660000
| 18>  O        3.2714650000     2.1242060000     0.5244080000
| 19>  H        0.6976600000    -0.6430220000    -0.8056550000
| 20>  H        1.1034880000     1.0806930000    -0.6367960000
| 21>  H        0.7228230000     0.1077020000     0.7940820000
| 22>  H        2.3840750000    -2.3980010000    -0.0545800000
| 23>  H        2.3910920000    -1.6970050000     1.5698820000
| 24>  H        3.9108050000    -1.8956420000     0.6886930000
| 25>  H        2.6739050000    -0.5518290000    -2.0694500000
| 26>  H        4.1540660000    -0.7084790000    -1.4075110000
| 27>  H        3.1077850000     0.5820430000     1.9409890000
| 28>  H        5.0106550000     1.3620430000    -0.3984240000
| 29>  H        5.1959200000     1.8371390000     1.3782600000
| 30> *
| 31>
| 32>                          ****END OF INPUT****
 Total Charge           Charge          ....    0
 Multiplicity           Mult            ....    1
 Number of Electrons    NEL             ....   56
 Basis Dimension        Dim             ....  153

MULLIKEN ATOMIC CHARGES
-----------------------
   0 C :    0.052037
   1 C :   -0.222005
   2 C :    0.065690
   3 N :   -0.117954
   4 C :    0.057712
   5 C :    0.150908
   6 O :   -0.287187
   7 H :    0.010181
   8 H :    0.039545
   9 H :    0.014043
  10 H :    0.006144
  11 H :    0.009532
  12 H :    0.011351
  13 H :    0.083855
  14 H :    0.081376
  15 H :    0.003549
  16 H :    0.018381
  17 H :    0.022843
Sum of atomic charges:   -0.0000000

LOEWDIN ATOMIC CHARGES
----------------------
   0 C :   -0.050300
   1 C :   -0.039223
   2 C :   -0.063900
   3 N :   -0.075635
   4 C :    0.035704
   5 C :    0.053056
   6 O :   -0.146341
   7 H :    0.020655
   8 H :    0.032881
   9 H :    0.029193
  10 H :    0.022507
  11 H :    0.024363
  12 H :    0.021837
  13 H :    0.052260
  14 H :    0.048441
  15 H :    0.011698
  16 H :    0.011413
  17 H :    0.011391

  Mayer bond orders larger than 0.1
B(  0-C ,  1-C ) :   1.0547 B(  0-C ,  7-H ) :   0.9526 B(  0-C ,  8-H ) :   0.9518
B(  0-C ,  9-H ) :   0.9567 B(  1-C ,  2-C ) :   1.0429 B(  1-C ,  3-N ) :   1.1400
B(  1-C ,  4-C ) :   0.9284 B(  2-C , 10-H ) :   0.9502 B(  2-C , 11-H ) :   0.9453
B(  2-C , 12-H ) :   0.9526 B(  3-N , 13-H ) :   0.9596 B(  3-N , 14-H ) :   0.9579
B(  4-C ,  5-C ) :   1.1180 B(  4-C ,  6-O ) :   0.9710 B(  4-C , 15-H ) :   0.9366
B(  5-C ,  6-O ) :   1.0107 B(  5-C , 16-H ) :   0.9052 B(  5-C , 17-H ) :   0.9337

FINAL SINGLE POINT ENERGY      -326.425009182076

DIPOLE MOMENT
-------------
                                X             Y             Z
Electronic contribution:      1.97407       5.17912       0.29026
Nuclear contribution   :     -1.78409      -6.21176      -0.28189
                        -----------------------------------------
Total Dipole Moment    :      0.18998      -1.03264       0.00837
                        -----------------------------------------
Magnitude (a.u.)       :      1.05000
Magnitude (Debye)      :      2.66889

                             ****ORCA TERMINATED NORMALLY****
TOTAL RUN TIME: 0 days 0 hours 0 minutes 7 seconds 824 msec
