                         Program Version 3.0.3 - RELEASE   -
|  1> ! RI PBE def2-SVP def2-SVP/J NBO PAL2
|  2> % maxcore 2000
|  3> % output
|  4>     # printlevel mini
|  5>     print[ P_Basis ] 0
|  6>     print[ P_SCFInfo ] 1
|  7>     print[ P_SCFIterInfo ] 1
|  8>     print[ P_OrbEn ] 0
|  9>     print[ P_Cartesian ] 0
| 10> end
| 11> *xyz 0 1
| 12>  C        0.9914350000    -0.2845770000     0.1887220000
| 13>  C        2.4985100000    -0.0263840000     0.1297510000
| 14>  C        2.9367660000     0.7642890000     1.2749970000
| 15>  N        3.2792470000     1.3973980000     2.1712550000
| 16>  C        3.2649450000    -1.3290390000     0.0153820000
| 17>  C        4.5096400000    -1.6120560000     0.7182820000
| 18>  O        3.2725980000    -2.1666250000     1.1496610000
| 19>  H        0.4358140000     0.6517510000     0.2442950000
| 20>  H        0.7479730000    -0.8885570000     1.0633140000
| 21>  H        0.6751240000    -0.8237350000    -0.7063030000
| 22>  H        2.7287460000     0.5656440000    -0.7646270000
| 23>  H        3.0724410000    -1.8470070000    -0.9243350000
| 24>  H        4.9312740000    -0.8607840000     1.3802890000
| 25>  H        5.2111850000    -2.3230170000     0.2902180000
| 26> *
| 27>
| 28>                          ****END OF INPUT****
 Total Charge           Charge          ....    0
 Multiplicity           Mult            ....    1
 Number of Electrons    NEL             ....   52
 Basis Dimension        Dim             ....  133

MULLIKEN ATOMIC CHARGES
-----------------------
   0 C :    0.014592
   1 C :    0.038058
   2 C :   -0.264565
   3 N :    0.055525
   4 C :   -0.017978
   5 C :    0.168364
   6 O :   -0.285644
   7 H :    0.046556
   8 H :    0.055431
   9 H :    0.031045
  10 H :    0.050304
  11 H :    0.025132
  12 H :    0.045709
  13 H :    0.037469
Sum of atomic charges:    0.0000000

LOEWDIN ATOMIC CHARGES
----------------------
   0 C :   -0.036473
   1 C :   -0.072001
   2 C :   -0.034255
   3 N :   -0.061712
   4 C :    0.048395
   5 C :    0.063837
   6 O :   -0.144448
   7 H :    0.037284
   8 H :    0.040655
   9 H :    0.033222
  10 H :    0.061115
  11 H :    0.019726
  12 H :    0.024560
  13 H :    0.020093

  Mayer bond orders larger than 0.1
B(  0-C ,  1-C ) :   1.0909 B(  0-C ,  7-H ) :   0.9619 B(  0-C ,  8-H ) :   0.9585
B(  0-C ,  9-H ) :   0.9583 B(  1-C ,  2-C ) :   1.0500 B(  1-C ,  4-C ) :   0.9630
B(  1-C , 10-H ) :   0.8649 B(  2-C ,  3-N ) :   3.0421 B(  4-C ,  5-C ) :   1.1126
B(  4-C ,  6-O ) :   0.9731 B(  4-C , 11-H ) :   0.9336 B(  5-C ,  6-O ) :   0.9956
B(  5-C , 12-H ) :   0.9090 B(  5-C , 13-H ) :   0.9406

FINAL SINGLE POINT ENERGY      -324.017813926951

DIPOLE MOMENT
-------------
                                X             Y             Z
Electronic contribution:      2.53822       1.35803       3.21548
Nuclear contribution   :     -2.68600      -1.78020      -4.67060
                        -----------------------------------------
Total Dipole Moment    :     -0.14778      -0.42216      -1.45512
                        -----------------------------------------
Magnitude (a.u.)       :      1.52231
Magnitude (Debye)      :      3.86940

                             ****ORCA TERMINATED NORMALLY****
TOTAL RUN TIME: 0 days 0 hours 0 minutes 6 seconds 657 msec
