                         Program Version 3.0.3 - RELEASE   -
|  1> ! RI PBE def2-SVP def2-SVP/J NBO PAL2
|  2> % maxcore 2000
|  3> % output
|  4>     # printlevel mini
|  5>     print[ P_Basis ] 0
|  6>     print[ P_SCFInfo ] 1
|  7>     print[ P_SCFIterInfo ] 1
|  8>     print[ P_OrbEn ] 0
|  9>     print[ P_Cartesian ] 0
| 10> end
| 11> *xyz 0 1
| 12>  C        0.7756060000     0.1070340000    -0.2154750000
| 13>  C        2.2971090000     0.1168690000    -0.1990010000
| 14>  C        2.8854000000     0.0897500000    -1.6074930000
| 15>  N        2.5370180000    -1.1446790000    -2.2960880000
| 16>  C        2.8128390000     1.3130480000     0.5500350000
| 17>  C        3.1297590000     1.2675780000     1.9726520000
| 18>  O        4.1608360000     1.2691920000     0.9981430000
| 19>  H        0.4122370000    -0.7257060000    -0.8181530000
| 20>  H        0.3872010000     1.0315710000    -0.6546730000
| 21>  H        0.3663530000     0.0183420000     0.7936380000
| 22>  H        2.6583640000    -0.7743740000     0.3315740000
| 23>  H        3.9683980000     0.2648620000    -1.5353570000
| 24>  H        2.4644130000     0.9246070000    -2.1797420000
| 25>  H        3.0428710000    -1.9243710000    -1.8924610000
| 26>  H        2.8054460000    -1.0969650000    -3.2703860000
| 27>  H        2.5243690000     2.2801560000     0.1331890000
| 28>  H        3.0039060000     0.3309820000     2.5119460000
| 29>  H        3.0586840000     2.1688720000     2.5766440000
| 30> *
| 31>
| 32>                          ****END OF INPUT****
 Total Charge           Charge          ....    0
 Multiplicity           Mult            ....    1
 Number of Electrons    NEL             ....   56
 Basis Dimension        Dim             ....  153

MULLIKEN ATOMIC CHARGES
-----------------------
   0 C :    0.051036
   1 C :   -0.051091
   2 C :    0.076902
   3 N :   -0.200064
   4 C :   -0.005999
   5 C :    0.153277
   6 O :   -0.294344
   7 H :    0.026047
   8 H :    0.004435
   9 H :    0.009570
  10 H :   -0.019324
  11 H :    0.011550
  12 H :   -0.004058
  13 H :    0.089859
  14 H :    0.093174
  15 H :    0.010400
  16 H :    0.021854
  17 H :    0.026774
Sum of atomic charges:   -0.0000000

LOEWDIN ATOMIC CHARGES
----------------------
   0 C :   -0.053508
   1 C :   -0.060142
   2 C :    0.011471
   3 N :   -0.108196
   4 C :    0.044229
   5 C :    0.054707
   6 O :   -0.159451
   7 H :    0.028152
   8 H :    0.022440
   9 H :    0.022389
  10 H :    0.025418
  11 H :    0.005534
  12 H :    0.017987
  13 H :    0.052002
  14 H :    0.054993
  15 H :    0.013631
  16 H :    0.013366
  17 H :    0.014978

  Mayer bond orders larger than 0.1
B(  0-C ,  1-C ) :   1.0626 B(  0-C ,  7-H ) :   0.9445 B(  0-C ,  8-H ) :   0.9593
B(  0-C ,  9-H ) :   0.9633 B(  1-C ,  2-C ) :   1.0399 B(  1-C ,  4-C ) :   1.0068
B(  1-C , 10-H ) :   0.8858 B(  2-C ,  3-N ) :   1.1052 B(  2-C , 11-H ) :   0.9385
B(  2-C , 12-H ) :   0.9244 B(  3-N , 13-H ) :   0.9694 B(  3-N , 14-H ) :   0.9642
B(  4-C ,  5-C ) :   1.0936 B(  4-C ,  6-O ) :   0.9578 B(  4-C , 15-H ) :   0.9290
B(  5-C ,  6-O ) :   1.0127 B(  5-C , 16-H ) :   0.9253 B(  5-C , 17-H ) :   0.9346

FINAL SINGLE POINT ENERGY      -326.422593766989

DIPOLE MOMENT
-------------
                                X             Y             Z
Electronic contribution:      4.19162       1.76530       2.19714
Nuclear contribution   :     -4.35361      -1.89191      -2.30110
                        -----------------------------------------
Total Dipole Moment    :     -0.16200      -0.12660      -0.10396
                        -----------------------------------------
Magnitude (a.u.)       :      0.23039
Magnitude (Debye)      :      0.58560

                             ****ORCA TERMINATED NORMALLY****
TOTAL RUN TIME: 0 days 0 hours 0 minutes 7 seconds 640 msec
