                         Program Version 3.0.3 - RELEASE   -
|  1> ! RI PBE def2-SVP def2-SVP/J NBO PAL2
|  2> % maxcore 2000
|  3> % output
|  4>     # printlevel mini
|  5>     print[ P_Basis ] 0
|  6>     print[ P_SCFInfo ] 1
|  7>     print[ P_SCFIterInfo ] 1
|  8>     print[ P_OrbEn ] 0
|  9>     print[ P_Cartesian ] 0
| 10> end
| 11> *xyz 0 1
| 12>  C        1.5578410000     0.7872990000    -0.0810380000
| 13>  C        1.5531250000    -0.7316770000    -0.1030790000
| 14>  C        2.6411420000    -1.3738880000     0.7485330000
| 15>  N        2.4798030000    -2.8200050000     0.7263990000
| 16>  C        4.0145030000    -1.0683500000     0.2202070000
| 17>  C        4.8602290000    -0.0264400000     0.7891990000
| 18>  O        5.0955600000    -1.3919410000     1.0876300000
| 19>  H        1.4590790000     1.1707950000     0.9385080000
| 20>  H        0.7271640000     1.1879770000    -0.6656980000
| 21>  H        2.4808420000     1.1947560000    -0.4995400000
| 22>  H        0.5846410000    -1.0983180000     0.2559320000
| 23>  H        1.6540250000    -1.1032660000    -1.1282450000
| 24>  H        2.5854420000    -0.9508310000     1.7665800000
| 25>  H        3.1927120000    -3.2563430000     1.2989820000
| 26>  H        1.5794710000    -3.0844340000     1.1069690000
| 27>  H        4.1793690000    -1.3653540000    -0.8157530000
| 28>  H        4.4859210000     0.5712150000     1.6172990000
| 29>  H        5.6165110000     0.4513960000     0.1711260000
| 30> *
| 31>
| 32>                          ****END OF INPUT****
 Total Charge           Charge          ....    0
 Multiplicity           Mult            ....    1
 Number of Electrons    NEL             ....   56
 Basis Dimension        Dim             ....  153

MULLIKEN ATOMIC CHARGES
-----------------------
   0 C :   -0.011794
   1 C :    0.001560
   2 C :    0.048292
   3 N :   -0.179093
   4 C :   -0.003647
   5 C :    0.150179
   6 O :   -0.294006
   7 H :    0.014342
   8 H :    0.021605
   9 H :    0.022686
  10 H :    0.000652
  11 H :    0.011588
  12 H :   -0.030010
  13 H :    0.094763
  14 H :    0.084089
  15 H :    0.014257
  16 H :    0.024356
  17 H :    0.030182
Sum of atomic charges:   -0.0000000

LOEWDIN ATOMIC CHARGES
----------------------
   0 C :   -0.066012
   1 C :   -0.042410
   2 C :   -0.007741
   3 N :   -0.097247
   4 C :    0.039050
   5 C :    0.053233
   6 O :   -0.158073
   7 H :    0.023543
   8 H :    0.029159
   9 H :    0.024183
  10 H :    0.022593
  11 H :    0.025282
  12 H :    0.003240
  13 H :    0.055118
  14 H :    0.049772
  15 H :    0.016829
  16 H :    0.013070
  17 H :    0.016412

  Mayer bond orders larger than 0.1
B(  0-C ,  1-C ) :   1.1108 B(  0-C ,  7-H ) :   0.9631 B(  0-C ,  8-H ) :   0.9585
B(  0-C ,  9-H ) :   0.9639 B(  1-C ,  2-C ) :   1.0438 B(  1-C , 10-H ) :   0.9272
B(  1-C , 11-H ) :   0.9271 B(  2-C ,  3-N ) :   1.0392 B(  2-C ,  4-C ) :   1.0140
B(  2-C , 12-H ) :   0.8919 B(  3-N , 13-H ) :   0.9583 B(  3-N , 14-H ) :   0.9584
B(  4-C ,  5-C ) :   1.0728 B(  4-C ,  6-O ) :   0.9526 B(  4-C , 15-H ) :   0.9271
B(  5-C ,  6-O ) :   1.0120 B(  5-C , 16-H ) :   0.9256 B(  5-C , 17-H ) :   0.9349

FINAL SINGLE POINT ENERGY      -326.424821695075

DIPOLE MOMENT
-------------
                                X             Y             Z
Electronic contribution:      5.41661      -3.52958       1.49481
Nuclear contribution   :     -5.91655       3.99470      -1.35227
                        -----------------------------------------
Total Dipole Moment    :     -0.49994       0.46512       0.14254
                        -----------------------------------------
Magnitude (a.u.)       :      0.69756
Magnitude (Debye)      :      1.77306

                             ****ORCA TERMINATED NORMALLY****
TOTAL RUN TIME: 0 days 0 hours 0 minutes 7 seconds 936 msec
