                         Program Version 3.0.3 - RELEASE   -
|  1> ! RI PBE def2-SVP def2-SVP/J NBO PAL2
|  2> % maxcore 2000
|  3> % output
|  4>     # printlevel mini
|  5>     print[ P_Basis ] 0
|  6>     print[ P_SCFInfo ] 1
|  7>     print[ P_SCFIterInfo ] 1
|  8>     print[ P_OrbEn ] 0
|  9>     print[ P_Cartesian ] 0
| 10> end
| 11> *xyz 0 1
| 12>  C        1.0894940000     1.6790910000     0.5316910000
| 13>  C        2.4513820000     1.0952970000     0.1984010000
| 14>  C        2.4819510000    -0.4164690000     0.3142500000
| 15>  N        3.7902930000    -0.9495740000    -0.0167520000
| 16>  C        3.9118290000    -2.3930410000     0.1072720000
| 17>  C        3.3877870000    -3.0641570000    -1.1522790000
| 18>  O        3.9949750000    -2.5103090000    -2.2907570000
| 19>  H        1.0906980000     2.7670430000     0.4398950000
| 20>  H        0.7900850000     1.4331580000     1.5542420000
| 21>  H        0.3188170000     1.2913260000    -0.1401300000
| 22>  H        3.2079910000     1.5215230000     0.8687590000
| 23>  H        2.7468570000     1.3761610000    -0.8172190000
| 24>  H        1.7473520000    -0.8448480000    -0.3758810000
| 25>  H        2.1626180000    -0.7149140000     1.3289250000
| 26>  H        4.4963970000    -0.4880610000     0.5405460000
| 27>  H        3.3894180000    -2.7919830000     0.9921810000
| 28>  H        4.9737760000    -2.6332330000     0.2085110000
| 29>  H        2.2924900000    -2.9676850000    -1.2058530000
| 30>  H        3.6171170000    -4.1329680000    -1.1269300000
| 31>  H        4.1019730000    -1.5721460000    -2.0736700000
| 32> *
| 33>
| 34>                          ****END OF INPUT****
 Total Charge           Charge          ....    0
 Multiplicity           Mult            ....    1
 Number of Electrons    NEL             ....   58
 Basis Dimension        Dim             ....  163

MULLIKEN ATOMIC CHARGES
-----------------------
   0 C :   -0.036575
   1 C :   -0.043375
   2 C :    0.092397
   3 N :   -0.268444
   4 C :    0.030487
   5 C :    0.164573
   6 O :   -0.290883
   7 H :    0.031500
   8 H :    0.019805
   9 H :    0.025708
  10 H :    0.010482
  11 H :    0.013522
  12 H :    0.013829
  13 H :   -0.016339
  14 H :    0.108279
  15 H :   -0.010851
  16 H :    0.011582
  17 H :   -0.001347
  18 H :    0.010078
  19 H :    0.135573
Sum of atomic charges:   -0.0000000

LOEWDIN ATOMIC CHARGES
----------------------
   0 C :   -0.066915
   1 C :   -0.051040
   2 C :    0.012310
   3 N :   -0.090020
   4 C :   -0.010020
   5 C :    0.042338
   6 O :   -0.131375
   7 H :    0.030277
   8 H :    0.024944
   9 H :    0.027317
  10 H :    0.021115
  11 H :    0.024973
  12 H :    0.020404
  13 H :    0.000688
  14 H :    0.057506
  15 H :    0.004642
  16 H :    0.022707
  17 H :   -0.001163
  18 H :    0.018493
  19 H :    0.042820

  Mayer bond orders larger than 0.1
B(  0-C ,  1-C ) :   1.1168 B(  0-C ,  7-H ) :   0.9625 B(  0-C ,  8-H ) :   0.9649
B(  0-C ,  9-H ) :   0.9657 B(  1-C ,  2-C ) :   1.0915 B(  1-C , 10-H ) :   0.9374
B(  1-C , 11-H ) :   0.9344 B(  2-C ,  3-N ) :   1.0201 B(  2-C , 12-H ) :   0.9331
B(  2-C , 13-H ) :   0.9204 B(  3-N ,  4-C ) :   1.0682 B(  3-N , 14-H ) :   0.9398
B(  3-N , 19-H ) :   0.1033 B(  4-C ,  5-C ) :   1.0834 B(  4-C , 15-H ) :   0.9102
B(  4-C , 16-H ) :   0.9358 B(  5-C ,  6-O ) :   1.0869 B(  5-C , 17-H ) :   0.9179
B(  5-C , 18-H ) :   0.9387 B(  6-O , 19-H ) :   0.9560

FINAL SINGLE POINT ENERGY      -327.649751725418

DIPOLE MOMENT
-------------
                                X             Y             Z
Electronic contribution:      3.99499      -3.84355      -3.51749
Nuclear contribution   :     -4.11879       4.34559       4.49310
                        -----------------------------------------
Total Dipole Moment    :     -0.12380       0.50203       0.97561
                        -----------------------------------------
Magnitude (a.u.)       :      1.10416
Magnitude (Debye)      :      2.80656

                             ****ORCA TERMINATED NORMALLY****
TOTAL RUN TIME: 0 days 0 hours 0 minutes 8 seconds 501 msec
