                         Program Version 3.0.3 - RELEASE   -
|  1> ! RI PBE def2-SVP def2-SVP/J NBO PAL2
|  2> % maxcore 2000
|  3> % output
|  4>     # printlevel mini
|  5>     print[ P_Basis ] 0
|  6>     print[ P_SCFInfo ] 1
|  7>     print[ P_SCFIterInfo ] 1
|  8>     print[ P_OrbEn ] 0
|  9>     print[ P_Cartesian ] 0
| 10> end
| 11> *xyz 0 1
| 12>  C        0.3246710000    -0.4593160000    -0.1291720000
| 13>  C        1.4604130000    -0.0047150000     0.3800940000
| 14>  C        2.5029860000     0.7213170000    -0.4023690000
| 15>  N        3.7930100000     0.0665670000    -0.2702860000
| 16>  C        4.8664950000     0.7346670000    -0.9640730000
| 17>  C        6.2076330000     0.1783010000    -0.5595320000
| 18>  O        7.1663570000     0.1364510000    -1.2786200000
| 19>  H       -0.4072210000    -0.9737630000     0.4825690000
| 20>  H        0.0820990000    -0.3251850000    -1.1791430000
| 21>  H        1.6879140000    -0.1595100000     1.4323120000
| 22>  H        2.6134920000     1.7377220000    -0.0024790000
| 23>  H        2.1730360000     0.8273320000    -1.4491020000
| 24>  H        3.7132210000    -0.8931710000    -0.5852870000
| 25>  H        4.8742130000     1.7879050000    -0.6483510000
| 26>  H        4.7982240000     0.7356190000    -2.0624980000
| 27>  H        6.2474560000    -0.1884210000     0.4890470000
| 28> *
| 29>
| 30>                          ****END OF INPUT****
 Total Charge           Charge          ....    0
 Multiplicity           Mult            ....    1
 Number of Electrons    NEL             ....   54
 Basis Dimension        Dim             ....  143

MULLIKEN ATOMIC CHARGES
-----------------------
   0 C :   -0.033587
   1 C :   -0.107381
   2 C :    0.177847
   3 N :   -0.297103
   4 C :    0.120238
   5 C :    0.063165
   6 O :   -0.155316
   7 H :    0.032335
   8 H :    0.021455
   9 H :    0.015117
  10 H :    0.017464
  11 H :   -0.008502
  12 H :    0.105783
  13 H :    0.039102
  14 H :    0.017001
  15 H :   -0.007619
Sum of atomic charges:    0.0000000

LOEWDIN ATOMIC CHARGES
----------------------
   0 C :   -0.056826
   1 C :   -0.037730
   2 C :    0.014029
   3 N :   -0.097948
   4 C :   -0.028872
   5 C :    0.082139
   6 O :   -0.102140
   7 H :    0.027419
   8 H :    0.022649
   9 H :    0.029200
  10 H :    0.031406
  11 H :    0.006091
  12 H :    0.059197
  13 H :    0.047575
  14 H :    0.015740
  15 H :   -0.011928

  Mayer bond orders larger than 0.1
B(  0-C ,  1-C ) :   1.9944 B(  0-C ,  7-H ) :   0.9468 B(  0-C ,  8-H ) :   0.9477
B(  1-C ,  2-C ) :   1.0608 B(  1-C ,  9-H ) :   0.9583 B(  2-C ,  3-N ) :   0.9981
B(  2-C , 10-H ) :   0.9111 B(  2-C , 11-H ) :   0.9192 B(  3-N ,  4-C ) :   1.0060
B(  3-N , 12-H ) :   0.9462 B(  4-C ,  5-C ) :   0.9486 B(  4-C , 13-H ) :   0.9038
B(  4-C , 14-H ) :   0.9093 B(  5-C ,  6-O ) :   2.1823 B(  5-C , 15-H ) :   0.9221

FINAL SINGLE POINT ENERGY      -325.221937237858

DIPOLE MOMENT
-------------
                                X             Y             Z
Electronic contribution:      7.04348      -0.61414      -0.64747
Nuclear contribution   :     -7.98247       0.70794       0.76521
                        -----------------------------------------
Total Dipole Moment    :     -0.93900       0.09380       0.11775
                        -----------------------------------------
Magnitude (a.u.)       :      0.95099
Magnitude (Debye)      :      2.41722

                             ****ORCA TERMINATED NORMALLY****
TOTAL RUN TIME: 0 days 0 hours 0 minutes 6 seconds 842 msec
