                         Program Version 3.0.3 - RELEASE   -
|  1> ! RI PBE def2-SVP def2-SVP/J NBO PAL2
|  2> % maxcore 2000
|  3> % output
|  4>     # printlevel mini
|  5>     print[ P_Basis ] 0
|  6>     print[ P_SCFInfo ] 1
|  7>     print[ P_SCFIterInfo ] 1
|  8>     print[ P_OrbEn ] 0
|  9>     print[ P_Cartesian ] 0
| 10> end
| 11> *xyz 0 1
| 12>  C        0.8762680000     0.7220060000    -0.0801630000
| 13>  C        2.1051710000    -0.0786950000     0.1861200000
| 14>  C        3.3177910000     0.4612160000     0.2913690000
| 15>  N        4.5019310000    -0.2218340000     0.5375610000
| 16>  C        4.4977010000    -1.6534300000     0.7065000000
| 17>  C        5.6811080000     0.4626210000     0.6210010000
| 18>  O        6.7622860000    -0.0315170000     0.8287640000
| 19>  H        0.3834730000     0.4017030000    -1.0037340000
| 20>  H        1.1043100000     1.7858800000    -0.1743810000
| 21>  H        0.1424530000     0.6063700000     0.7239330000
| 22>  H        1.9808430000    -1.1514670000     0.2958410000
| 23>  H        3.4530620000     1.5337410000     0.1832130000
| 24>  H        3.8695540000    -1.9356180000     1.5556940000
| 25>  H        5.5222100000    -1.9707280000     0.8870570000
| 26>  H        4.1135200000    -2.1426830000    -0.1925920000
| 27>  H        5.5383200000     1.5477360000     0.4710080000
| 28> *
| 29>
| 30>                          ****END OF INPUT****
 Total Charge           Charge          ....    0
 Multiplicity           Mult            ....    1
 Number of Electrons    NEL             ....   54
 Basis Dimension        Dim             ....  143

MULLIKEN ATOMIC CHARGES
-----------------------
   0 C :    0.026470
   1 C :   -0.158950
   2 C :    0.090969
   3 N :   -0.199511
   4 C :    0.077467
   5 C :    0.147103
   6 O :   -0.210353
   7 H :    0.033212
   8 H :    0.021328
   9 H :    0.039709
  10 H :    0.002701
  11 H :    0.000159
  12 H :    0.042203
  13 H :    0.052753
  14 H :    0.044026
  15 H :   -0.009285
Sum of atomic charges:   -0.0000000

LOEWDIN ATOMIC CHARGES
----------------------
   0 C :   -0.061430
   1 C :   -0.090710
   2 C :   -0.005426
   3 N :    0.007602
   4 C :    0.019682
   5 C :    0.056581
   6 O :   -0.163675
   7 H :    0.035592
   8 H :    0.031162
   9 H :    0.036468
  10 H :    0.023956
  11 H :    0.023794
  12 H :    0.029799
  13 H :    0.035542
  14 H :    0.030147
  15 H :   -0.009083

  Mayer bond orders larger than 0.1
B(  0-C ,  1-C ) :   1.0891 B(  0-C ,  7-H ) :   0.9474 B(  0-C ,  8-H ) :   0.9614
B(  0-C ,  9-H ) :   0.9493 B(  1-C ,  2-C ) :   1.8118 B(  1-C , 10-H ) :   0.9552
B(  2-C ,  3-N ) :   1.0792 B(  2-C , 11-H ) :   0.9429 B(  3-N ,  4-C ) :   0.9930
B(  3-N ,  5-C ) :   1.1297 B(  4-C , 12-H ) :   0.9616 B(  4-C , 13-H ) :   0.9457
B(  4-C , 14-H ) :   0.9620 B(  5-C ,  6-O ) :   2.0384 B(  5-C , 15-H ) :   0.9222

FINAL SINGLE POINT ENERGY      -325.273188724269

DIPOLE MOMENT
-------------
                                X             Y             Z
Electronic contribution:      7.97977       0.69218       1.02689
Nuclear contribution   :     -9.14748      -0.73397      -1.18858
                        -----------------------------------------
Total Dipole Moment    :     -1.16771      -0.04179      -0.16169
                        -----------------------------------------
Magnitude (a.u.)       :      1.17959
Magnitude (Debye)      :      2.99828

                             ****ORCA TERMINATED NORMALLY****
TOTAL RUN TIME: 0 days 0 hours 0 minutes 7 seconds 278 msec
