                         Program Version 3.0.3 - RELEASE   -
|  1> ! RI PBE def2-SVP def2-SVP/J NBO PAL2
|  2> % maxcore 2000
|  3> % output
|  4>     # printlevel mini
|  5>     print[ P_Basis ] 0
|  6>     print[ P_SCFInfo ] 1
|  7>     print[ P_SCFIterInfo ] 1
|  8>     print[ P_OrbEn ] 0
|  9>     print[ P_Cartesian ] 0
| 10> end
| 11> *xyz 0 1
| 12>  C        0.5977490000     0.0252410000     0.0346630000
| 13>  C        2.0591330000    -0.0062470000     0.3216990000
| 14>  C        2.9057930000     0.9506730000    -0.0476200000
| 15>  N        4.2700510000     0.9396770000     0.2101800000
| 16>  C        5.1180640000     1.9409250000    -0.1833030000
| 17>  C        6.5590070000     1.7208820000     0.2045120000
| 18>  O        4.7354490000     2.9174640000    -0.7896200000
| 19>  H        0.2881530000    -0.8379880000    -0.5635980000
| 20>  H        0.3219080000     0.9288150000    -0.5124900000
| 21>  H        0.0075780000    -0.0031450000     0.9565200000
| 22>  H        2.4385040000    -0.8699680000     0.8661130000
| 23>  H        2.5896350000     1.8336140000    -0.5909460000
| 24>  H        4.6556350000     0.1567140000     0.7114780000
| 25>  H        6.9447770000     0.7994770000    -0.2394110000
| 26>  H        6.6615790000     1.6399220000     1.2897840000
| 27>  H        7.1486740000     2.5629530000    -0.1490600000
| 28> *
| 29>
| 30>                          ****END OF INPUT****
 Total Charge           Charge          ....    0
 Multiplicity           Mult            ....    1
 Number of Electrons    NEL             ....   54
 Basis Dimension        Dim             ....  143

MULLIKEN ATOMIC CHARGES
-----------------------
   0 C :    0.029646
   1 C :   -0.129652
   2 C :    0.060007
   3 N :   -0.066979
   4 C :   -0.010831
   5 C :   -0.011055
   6 O :   -0.203723
   7 H :    0.031965
   8 H :    0.024428
   9 H :    0.032203
  10 H :   -0.013371
  11 H :    0.016313
  12 H :    0.106286
  13 H :    0.043318
  14 H :    0.044694
  15 H :    0.046751
Sum of atomic charges:   -0.0000000

LOEWDIN ATOMIC CHARGES
----------------------
   0 C :   -0.061056
   1 C :   -0.088865
   2 C :    0.004479
   3 N :    0.029962
   4 C :    0.028039
   5 C :   -0.092018
   6 O :   -0.176824
   7 H :    0.033930
   8 H :    0.033317
   9 H :    0.034321
  10 H :    0.017341
  11 H :    0.030931
  12 H :    0.078583
  13 H :    0.041075
  14 H :    0.041149
  15 H :    0.045635

  Mayer bond orders larger than 0.1
B(  0-C ,  1-C ) :   1.1013 B(  0-C ,  7-H ) :   0.9492 B(  0-C ,  8-H ) :   0.9639
B(  0-C ,  9-H ) :   0.9479 B(  1-C ,  2-C ) :   1.8099 B(  1-C , 10-H ) :   0.9520
B(  2-C ,  3-N ) :   1.1004 B(  2-C , 11-H ) :   0.9565 B(  3-N ,  4-C ) :   1.1383
B(  3-N , 12-H ) :   0.9235 B(  4-C ,  5-C ) :   1.0218 B(  4-C ,  6-O ) :   2.0802
B(  5-C , 13-H ) :   0.9480 B(  5-C , 14-H ) :   0.9485 B(  5-C , 15-H ) :   0.9502

FINAL SINGLE POINT ENERGY      -325.285579565093

DIPOLE MOMENT
-------------
                                X             Y             Z
Electronic contribution:      2.97345       3.40398      -1.32425
Nuclear contribution   :     -2.69707      -4.51819       1.98524
                        -----------------------------------------
Total Dipole Moment    :      0.27638      -1.11422       0.66099
                        -----------------------------------------
Magnitude (a.u.)       :      1.32468
Magnitude (Debye)      :      3.36707

                             ****ORCA TERMINATED NORMALLY****
TOTAL RUN TIME: 0 days 0 hours 0 minutes 7 seconds 115 msec
