                         Program Version 3.0.3 - RELEASE   -
|  1> ! RI PBE def2-SVP def2-SVP/J NBO PAL2
|  2> % maxcore 2000
|  3> % output
|  4>     # printlevel mini
|  5>     print[ P_Basis ] 0
|  6>     print[ P_SCFInfo ] 1
|  7>     print[ P_SCFIterInfo ] 1
|  8>     print[ P_OrbEn ] 0
|  9>     print[ P_Cartesian ] 0
| 10> end
| 11> *xyz 0 1
| 12>  C        0.3440710000     0.3040120000    -0.0141840000
| 13>  C        1.8258000000     0.3286860000    -0.2849720000
| 14>  C        2.3273020000     0.7962720000    -1.4274520000
| 15>  N        2.5886650000    -0.1820300000     0.7727230000
| 16>  C        3.9501340000    -0.3098720000     0.8672920000
| 17>  C        4.4094160000    -0.9115720000     2.1759670000
| 18>  O        4.7204730000     0.0220660000    -0.0050510000
| 19>  H       -0.0752240000     1.3106800000    -0.0546690000
| 20>  H        0.1092000000    -0.1083260000     0.9699300000
| 21>  H       -0.1764790000    -0.3044560000    -0.7555810000
| 22>  H        1.6399920000     1.1677120000    -2.1774320000
| 23>  H        3.3862370000     0.8163040000    -1.6269920000
| 24>  H        2.0645340000    -0.4975290000     1.5705820000
| 25>  H        3.9919000000    -1.9122920000     2.3146400000
| 26>  H        4.0951380000    -0.2948230000     3.0220360000
| 27>  H        5.4945420000    -0.9760630000     2.1650520000
| 28> *
| 29>
| 30>                          ****END OF INPUT****
 Total Charge           Charge          ....    0
 Multiplicity           Mult            ....    1
 Number of Electrons    NEL             ....   54
 Basis Dimension        Dim             ....  143

MULLIKEN ATOMIC CHARGES
-----------------------
   0 C :    0.034645
   1 C :   -0.103684
   2 C :   -0.051890
   3 N :   -0.042972
   4 C :    0.010108
   5 C :   -0.026445
   6 O :   -0.194351
   7 H :    0.050110
   8 H :   -0.000656
   9 H :    0.052565
  10 H :   -0.003254
  11 H :    0.036616
  12 H :    0.102208
  13 H :    0.043833
  14 H :    0.044363
  15 H :    0.048803
Sum of atomic charges:   -0.0000000

LOEWDIN ATOMIC CHARGES
----------------------
   0 C :   -0.060466
   1 C :   -0.004254
   2 C :   -0.107202
   3 N :    0.028918
   4 C :    0.035667
   5 C :   -0.093730
   6 O :   -0.159479
   7 H :    0.043881
   8 H :    0.023554
   9 H :    0.044325
  10 H :    0.021590
  11 H :    0.025927
  12 H :    0.074876
  13 H :    0.040480
  14 H :    0.040251
  15 H :    0.045662

  Mayer bond orders larger than 0.1
B(  0-C ,  1-C ) :   1.0570 B(  0-C ,  7-H ) :   0.9541 B(  0-C ,  8-H ) :   0.9480
B(  0-C ,  9-H ) :   0.9537 B(  1-C ,  2-C ) :   1.9394 B(  1-C ,  3-N ) :   1.0864
B(  2-C , 10-H ) :   0.9258 B(  2-C , 11-H ) :   0.9215 B(  3-N ,  4-C ) :   1.1460
B(  3-N , 12-H ) :   0.9116 B(  4-C ,  5-C ) :   1.0215 B(  4-C ,  6-O ) :   2.0714
B(  5-C , 13-H ) :   0.9477 B(  5-C , 14-H ) :   0.9486 B(  5-C , 15-H ) :   0.9514

FINAL SINGLE POINT ENERGY      -325.279562499005

DIPOLE MOMENT
-------------
                                X             Y             Z
Electronic contribution:      4.06172       0.31177      -1.30336
Nuclear contribution   :     -5.15045      -0.70661       2.36167
                        -----------------------------------------
Total Dipole Moment    :     -1.08872      -0.39484       1.05831
                        -----------------------------------------
Magnitude (a.u.)       :      1.56883
Magnitude (Debye)      :      3.98766

                             ****ORCA TERMINATED NORMALLY****
TOTAL RUN TIME: 0 days 0 hours 0 minutes 7 seconds 538 msec
