                         Program Version 3.0.3 - RELEASE   -
|  1> ! RI PBE def2-SVP def2-SVP/J NBO PAL2
|  2> % maxcore 2000
|  3> % output
|  4>     # printlevel mini
|  5>     print[ P_Basis ] 0
|  6>     print[ P_SCFInfo ] 1
|  7>     print[ P_SCFIterInfo ] 1
|  8>     print[ P_OrbEn ] 0
|  9>     print[ P_Cartesian ] 0
| 10> end
| 11> *xyz 0 1
| 12>  C        0.6505000000    -0.3569210000    -0.3864000000
| 13>  C        2.0378150000     0.1567580000    -0.7265640000
| 14>  C        2.0550420000     0.7831080000    -2.1114620000
| 15>  N        2.4409550000     1.1266620000     0.2870020000
| 16>  C        3.8617430000     1.4193270000     0.3570640000
| 17>  C        4.0707270000     2.6131240000     1.2675860000
| 18>  O        3.3283240000     3.7193590000     0.8220750000
| 19>  H        0.3135820000    -1.0851070000    -1.1264720000
| 20>  H       -0.0655020000     0.4692360000    -0.3668440000
| 21>  H        0.6353340000    -0.8453530000     0.5924790000
| 22>  H        2.7305010000    -0.7038910000    -0.7303510000
| 23>  H        1.3511460000     1.6182210000    -2.1542130000
| 24>  H        1.7674520000     0.0470700000    -2.8658960000
| 25>  H        3.0434330000     1.1599080000    -2.3804750000
| 26>  H        2.1303130000     0.7987050000     1.1951320000
| 27>  H        4.2119540000     1.6817710000    -0.6444510000
| 28>  H        4.4658430000     0.5646270000     0.7040460000
| 29>  H        5.1255950000     2.8991270000     1.2818360000
| 30>  H        3.7907420000     2.3418030000     2.2992670000
| 31>  H        2.4934800000     3.3459550000     0.5072200000
| 32> *
| 33>
| 34>                          ****END OF INPUT****
 Total Charge           Charge          ....    0
 Multiplicity           Mult            ....    1
 Number of Electrons    NEL             ....   58
 Basis Dimension        Dim             ....  163

MULLIKEN ATOMIC CHARGES
-----------------------
   0 C :   -0.014744
   1 C :   -0.042082
   2 C :    0.022477
   3 N :   -0.257185
   4 C :    0.041349
   5 C :    0.176139
   6 O :   -0.290563
   7 H :    0.026054
   8 H :    0.028503
   9 H :    0.019492
  10 H :   -0.006538
  11 H :    0.020411
  12 H :    0.017285
  13 H :    0.016681
  14 H :    0.096264
  15 H :    0.019377
  16 H :   -0.006413
  17 H :    0.011011
  18 H :   -0.015261
  19 H :    0.137743
Sum of atomic charges:    0.0000000

LOEWDIN ATOMIC CHARGES
----------------------
   0 C :   -0.066195
   1 C :    0.002187
   2 C :   -0.064570
   3 N :   -0.091480
   4 C :   -0.009441
   5 C :    0.047756
   6 O :   -0.129186
   7 H :    0.031339
   8 H :    0.028563
   9 H :    0.023610
  10 H :    0.005522
  11 H :    0.027062
  12 H :    0.028247
  13 H :    0.023733
  14 H :    0.053711
  15 H :    0.021610
  16 H :    0.005028
  17 H :    0.019844
  18 H :   -0.002644
  19 H :    0.045305

  Mayer bond orders larger than 0.1
B(  0-C ,  1-C ) :   1.0840 B(  0-C ,  7-H ) :   0.9608 B(  0-C ,  8-H ) :   0.9576
B(  0-C ,  9-H ) :   0.9551 B(  1-C ,  2-C ) :   1.0915 B(  1-C ,  3-N ) :   1.0293
B(  1-C , 10-H ) :   0.9022 B(  2-C , 11-H ) :   0.9551 B(  2-C , 12-H ) :   0.9564
B(  2-C , 13-H ) :   0.9501 B(  3-N ,  4-C ) :   1.0087 B(  3-N , 14-H ) :   0.9329
B(  4-C ,  5-C ) :   1.0831 B(  4-C , 15-H ) :   0.9243 B(  4-C , 16-H ) :   0.9152
B(  5-C ,  6-O ) :   1.0852 B(  5-C , 17-H ) :   0.9375 B(  5-C , 18-H ) :   0.9200
B(  6-O , 19-H ) :   0.9582

FINAL SINGLE POINT ENERGY      -327.651958175279

DIPOLE MOMENT
-------------
                                X             Y             Z
Electronic contribution:      1.95537       4.33000       2.72931
Nuclear contribution   :     -2.12396      -5.35382      -2.76476
                        -----------------------------------------
Total Dipole Moment    :     -0.16859      -1.02382      -0.03545
                        -----------------------------------------
Magnitude (a.u.)       :      1.03821
Magnitude (Debye)      :      2.63892

                             ****ORCA TERMINATED NORMALLY****
TOTAL RUN TIME: 0 days 0 hours 0 minutes 8 seconds 663 msec
