                         Program Version 3.0.3 - RELEASE   -
|  1> ! RI PBE def2-SVP def2-SVP/J NBO PAL2
|  2> % maxcore 2000
|  3> % output
|  4>     # printlevel mini
|  5>     print[ P_Basis ] 0
|  6>     print[ P_SCFInfo ] 1
|  7>     print[ P_SCFIterInfo ] 1
|  8>     print[ P_OrbEn ] 0
|  9>     print[ P_Cartesian ] 0
| 10> end
| 11> *xyz 0 1
| 12>  C        0.7511300000     0.4984000000     0.2077660000
| 13>  C        2.2525530000     0.4577470000    -0.0464850000
| 14>  C        2.5150390000     0.4756990000    -1.5520140000
| 15>  N        2.8425250000     1.6334500000     0.6183200000
| 16>  C        2.8958910000    -0.7983120000     0.5601020000
| 17>  C        2.6719390000    -1.0081630000     2.0499520000
| 18>  O        3.2168860000     0.0135520000     2.8462560000
| 19>  H        0.3039420000     1.3640250000    -0.2903990000
| 20>  H        0.5298630000     0.5732490000     1.2733980000
| 21>  H        0.2661130000    -0.3976980000    -0.1852010000
| 22>  H        2.1123800000     1.3876640000    -2.0025920000
| 23>  H        2.0509570000    -0.3798920000    -2.0499510000
| 24>  H        3.5889170000     0.4405960000    -1.7581170000
| 25>  H        2.3660800000     2.4789250000     0.3244810000
| 26>  H        3.8157650000     1.7341600000     0.3489670000
| 27>  H        3.9759080000    -0.7578950000     0.3701600000
| 28>  H        2.5167830000    -1.6744450000     0.0224530000
| 29>  H        3.1513060000    -1.9452720000     2.3504150000
| 30>  H        1.5960250000    -1.1316540000     2.2490670000
| 31>  H        3.0492880000     0.8431560000     2.3640210000
| 32> *
| 33>
| 34>                          ****END OF INPUT****
 Total Charge           Charge          ....    0
 Multiplicity           Mult            ....    1
 Number of Electrons    NEL             ....   58
 Basis Dimension        Dim             ....  163

MULLIKEN ATOMIC CHARGES
-----------------------
   0 C :    0.068622
   1 C :   -0.294969
   2 C :    0.088946
   3 N :   -0.155602
   4 C :   -0.004284
   5 C :    0.228892
   6 O :   -0.305999
   7 H :    0.006299
   8 H :    0.033054
   9 H :    0.019026
  10 H :    0.004170
  11 H :    0.011051
  12 H :    0.009159
  13 H :    0.091930
  14 H :    0.098041
  15 H :    0.002033
  16 H :    0.000976
  17 H :   -0.007856
  18 H :   -0.021586
  19 H :    0.128097
Sum of atomic charges:   -0.0000000

LOEWDIN ATOMIC CHARGES
----------------------
   0 C :   -0.052634
   1 C :   -0.028923
   2 C :   -0.062599
   3 N :   -0.051916
   4 C :   -0.056421
   5 C :    0.055952
   6 O :   -0.143676
   7 H :    0.022894
   8 H :    0.028758
   9 H :    0.030089
  10 H :    0.019927
  11 H :    0.027013
  12 H :    0.021784
  13 H :    0.053674
  14 H :    0.055689
  15 H :    0.021199
  16 H :    0.028209
  17 H :    0.014834
  18 H :   -0.003864
  19 H :    0.020012

  Mayer bond orders larger than 0.1
B(  0-C ,  1-C ) :   1.0522 B(  0-C ,  7-H ) :   0.9483 B(  0-C ,  8-H ) :   0.9529
B(  0-C ,  9-H ) :   0.9592 B(  1-C ,  2-C ) :   1.0555 B(  1-C ,  3-N ) :   1.0092
B(  1-C ,  4-C ) :   1.0285 B(  2-C , 10-H ) :   0.9517 B(  2-C , 11-H ) :   0.9476
B(  2-C , 12-H ) :   0.9515 B(  3-N , 13-H ) :   0.9580 B(  3-N , 14-H ) :   0.9543
B(  3-N , 19-H ) :   0.1617 B(  4-C ,  5-C ) :   1.0827 B(  4-C , 15-H ) :   0.9188
B(  4-C , 16-H ) :   0.9139 B(  5-C ,  6-O ) :   1.0952 B(  5-C , 17-H ) :   0.9299
B(  5-C , 18-H ) :   0.9170 B(  6-O , 19-H ) :   0.9350

FINAL SINGLE POINT ENERGY      -327.663712286336

DIPOLE MOMENT
-------------
                                X             Y             Z
Electronic contribution:      2.25381       0.51914       4.40020
Nuclear contribution   :     -2.50456      -0.11739      -5.63668
                        -----------------------------------------
Total Dipole Moment    :     -0.25075       0.40175      -1.23648
                        -----------------------------------------
Magnitude (a.u.)       :      1.32407
Magnitude (Debye)      :      3.36551

                             ****ORCA TERMINATED NORMALLY****
TOTAL RUN TIME: 0 days 0 hours 0 minutes 9 seconds 22 msec
