                         Program Version 3.0.3 - RELEASE   -
|  1> ! RI PBE def2-SVP def2-SVP/J NBO PAL2
|  2> % maxcore 2000
|  3> % output
|  4>     # printlevel mini
|  5>     print[ P_Basis ] 0
|  6>     print[ P_SCFInfo ] 1
|  7>     print[ P_SCFIterInfo ] 1
|  8>     print[ P_OrbEn ] 0
|  9>     print[ P_Cartesian ] 0
| 10> end
| 11> *xyz 0 1
| 12>  C        1.0245720000    -0.1298220000    -0.2030200000
| 13>  C        2.4883860000     0.1062710000     0.1456660000
| 14>  C        2.9653850000     1.4713810000    -0.3329150000
| 15>  N        2.7514310000    -0.0975670000     1.5626080000
| 16>  C        2.1187350000     0.7470620000     2.5459570000
| 17>  C        3.5896390000    -1.0781560000     1.9747640000
| 18>  O        3.8764710000    -1.3336330000     3.1232120000
| 19>  H        0.8849060000    -0.0814670000    -1.2850780000
| 20>  H        0.3782000000     0.6295660000     0.2437870000
| 21>  H        0.6925530000    -1.1108980000     0.1424020000
| 22>  H        3.0833410000    -0.6565690000    -0.3677830000
| 23>  H        2.3786330000     2.2795910000     0.1104970000
| 24>  H        2.8575070000     1.5468590000    -1.4170610000
| 25>  H        4.0157200000     1.6302640000    -0.0806700000
| 26>  H        1.0296140000     0.6636730000     2.5008690000
| 27>  H        2.3955920000     1.7955230000     2.4073510000
| 28>  H        2.4575360000     0.4190780000     3.5270470000
| 29>  H        4.0046690000    -1.6502550000     1.1231550000
| 30> *
| 31>
| 32>                          ****END OF INPUT****
 Total Charge           Charge          ....    0
 Multiplicity           Mult            ....    1
 Number of Electrons    NEL             ....   56
 Basis Dimension        Dim             ....  153

MULLIKEN ATOMIC CHARGES
-----------------------
   0 C :    0.013060
   1 C :   -0.038150
   2 C :    0.006242
   3 N :   -0.242720
   4 C :    0.068948
   5 C :    0.151293
   6 O :   -0.234019
   7 H :    0.028406
   8 H :    0.024311
   9 H :    0.026417
  10 H :    0.012655
  11 H :    0.021728
  12 H :    0.030750
  13 H :    0.030670
  14 H :    0.039633
  15 H :    0.035567
  16 H :    0.049009
  17 H :   -0.023799
Sum of atomic charges:   -0.0000000

LOEWDIN ATOMIC CHARGES
----------------------
   0 C :   -0.065307
   1 C :    0.015593
   2 C :   -0.066777
   3 N :   -0.024080
   4 C :    0.011465
   5 C :    0.043415
   6 O :   -0.187595
   7 H :    0.033092
   8 H :    0.025884
   9 H :    0.030305
  10 H :    0.024986
  11 H :    0.025601
  12 H :    0.033597
  13 H :    0.031044
  14 H :    0.024682
  15 H :    0.024190
  16 H :    0.035209
  17 H :   -0.015305

  Mayer bond orders larger than 0.1
B(  0-C ,  1-C ) :   1.0838 B(  0-C ,  7-H ) :   0.9586 B(  0-C ,  8-H ) :   0.9540
B(  0-C ,  9-H ) :   0.9572 B(  1-C ,  2-C ) :   1.0854 B(  1-C ,  3-N ) :   0.9930
B(  1-C , 10-H ) :   0.9027 B(  2-C , 11-H ) :   0.9521 B(  2-C , 12-H ) :   0.9586
B(  2-C , 13-H ) :   0.9571 B(  3-N ,  4-C ) :   0.9854 B(  3-N ,  5-C ) :   1.1890
B(  3-N ,  6-O ) :   0.1090 B(  4-C , 14-H ) :   0.9642 B(  4-C , 15-H ) :   0.9630
B(  4-C , 16-H ) :   0.9444 B(  5-C ,  6-O ) :   2.0126 B(  5-C , 17-H ) :   0.9155

FINAL SINGLE POINT ENERGY      -326.484134935466

DIPOLE MOMENT
-------------
                                X             Y             Z
Electronic contribution:      4.29936      -4.76568       5.44331
Nuclear contribution   :     -4.97897       5.49376      -6.59629
                        -----------------------------------------
Total Dipole Moment    :     -0.67961       0.72808      -1.15298
                        -----------------------------------------
Magnitude (a.u.)       :      1.52359
Magnitude (Debye)      :      3.87267

                             ****ORCA TERMINATED NORMALLY****
TOTAL RUN TIME: 0 days 0 hours 0 minutes 7 seconds 748 msec
