                         Program Version 3.0.3 - RELEASE   -
|  1> ! RI PBE def2-SVP def2-SVP/J NBO PAL2
|  2> % maxcore 2000
|  3> % output
|  4>     # printlevel mini
|  5>     print[ P_Basis ] 0
|  6>     print[ P_SCFInfo ] 1
|  7>     print[ P_SCFIterInfo ] 1
|  8>     print[ P_OrbEn ] 0
|  9>     print[ P_Cartesian ] 0
| 10> end
| 11> *xyz 0 1
| 12>  C        0.8323050000     0.2566960000    -0.2117010000
| 13>  C        2.3360870000     0.1582090000    -0.0035950000
| 14>  C        2.9839420000     1.5288560000     0.1224980000
| 15>  N        2.6436950000    -0.6646480000     1.1497740000
| 16>  C        3.3383780000    -1.8292340000     1.0798600000
| 17>  C        3.5402280000    -2.5190380000     2.4098990000
| 18>  O        3.7662220000    -2.2851000000     0.0375640000
| 19>  H        0.6039240000     0.8453150000    -1.1031900000
| 20>  H        0.3495790000     0.7458660000     0.6408100000
| 21>  H        0.3913770000    -0.7343670000    -0.3322310000
| 22>  H        2.7815000000    -0.3738130000    -0.8471100000
| 23>  H        2.5907060000     2.0702070000     0.9893300000
| 24>  H        2.7822390000     2.1340840000    -0.7642930000
| 25>  H        4.0654490000     1.4380210000     0.2376410000
| 26>  H        2.3229610000    -0.3556160000     2.0524380000
| 27>  H        4.0912950000    -1.8766960000     3.1014370000
| 28>  H        4.1026300000    -3.4351150000     2.2469510000
| 29>  H        2.5798720000    -2.7635250000     2.8707980000
| 30> *
| 31>
| 32>                          ****END OF INPUT****
 Total Charge           Charge          ....    0
 Multiplicity           Mult            ....    1
 Number of Electrons    NEL             ....   56
 Basis Dimension        Dim             ....  153

MULLIKEN ATOMIC CHARGES
-----------------------
   0 C :    0.020950
   1 C :   -0.020446
   2 C :    0.000674
   3 N :   -0.133954
   4 C :   -0.005778
   5 C :   -0.008530
   6 O :   -0.226654
   7 H :    0.022691
   8 H :    0.006969
   9 H :    0.028703
  10 H :    0.026312
  11 H :    0.009122
  12 H :    0.026831
  13 H :    0.035715
  14 H :    0.097725
  15 H :    0.040715
  16 H :    0.041443
  17 H :    0.037511
Sum of atomic charges:   -0.0000000

LOEWDIN ATOMIC CHARGES
----------------------
   0 C :   -0.063940
   1 C :    0.011923
   2 C :   -0.067463
   3 N :    0.005386
   4 C :    0.022192
   5 C :   -0.093671
   6 O :   -0.196495
   7 H :    0.030336
   8 H :    0.020315
   9 H :    0.030010
  10 H :    0.031044
  11 H :    0.020837
  12 H :    0.031042
  13 H :    0.031306
  14 H :    0.066714
  15 H :    0.038955
  16 H :    0.042905
  17 H :    0.038605

  Mayer bond orders larger than 0.1
B(  0-C ,  1-C ) :   1.0965 B(  0-C ,  7-H ) :   0.9606 B(  0-C ,  8-H ) :   0.9560
B(  0-C ,  9-H ) :   0.9607 B(  1-C ,  2-C ) :   1.0945 B(  1-C ,  3-N ) :   0.9403
B(  1-C , 10-H ) :   0.8949 B(  2-C , 11-H ) :   0.9552 B(  2-C , 12-H ) :   0.9600
B(  2-C , 13-H ) :   0.9622 B(  3-N ,  4-C ) :   1.2076 B(  3-N , 14-H ) :   0.9276
B(  4-C ,  5-C ) :   1.0175 B(  4-C ,  6-O ) :   2.0493 B(  5-C , 15-H ) :   0.9496
B(  5-C , 16-H ) :   0.9507 B(  5-C , 17-H ) :   0.9488

FINAL SINGLE POINT ENERGY      -326.499286739088

DIPOLE MOMENT
-------------
                                X             Y             Z
Electronic contribution:      2.99016      -4.86772      -0.81290
Nuclear contribution   :     -3.60935       5.67852       1.72159
                        -----------------------------------------
Total Dipole Moment    :     -0.61918       0.81080       0.90869
                        -----------------------------------------
Magnitude (a.u.)       :      1.36620
Magnitude (Debye)      :      3.47261

                             ****ORCA TERMINATED NORMALLY****
TOTAL RUN TIME: 0 days 0 hours 0 minutes 7 seconds 10 msec
