                         Program Version 3.0.3 - RELEASE   -
|  1> ! RI PBE def2-SVP def2-SVP/J NBO PAL2
|  2> % maxcore 2000
|  3> % output
|  4>     # printlevel mini
|  5>     print[ P_Basis ] 0
|  6>     print[ P_SCFInfo ] 1
|  7>     print[ P_SCFIterInfo ] 1
|  8>     print[ P_OrbEn ] 0
|  9>     print[ P_Cartesian ] 0
| 10> end
| 11> *xyz 0 1
| 12>  C        0.9192850000    -0.1083390000    -0.0358010000
| 13>  C        2.4162800000     0.1405610000    -0.0534110000
| 14>  C        2.7182930000     1.6220940000     0.0996850000
| 15>  N        3.0263500000    -0.6258570000     1.0294520000
| 16>  C        4.4558520000    -0.8004610000     0.9387350000
| 17>  C        5.0153910000    -1.3536120000     2.2232900000
| 18>  O        5.9496330000    -2.1032230000     2.2882970000
| 19>  H        0.4235750000     0.4515790000    -0.8308530000
| 20>  H        0.4949350000     0.2033110000     0.9222670000
| 21>  H        0.6905140000    -1.1680150000    -0.1827520000
| 22>  H        2.8073910000    -0.1903670000    -1.0322750000
| 23>  H        2.3231880000     1.9893490000     1.0500830000
| 24>  H        2.2581360000     2.1889130000    -0.7128440000
| 25>  H        3.7898220000     1.8315520000     0.0731440000
| 26>  H        2.5799280000    -1.5337000000     1.0789820000
| 27>  H        4.9258980000     0.1844840000     0.8193850000
| 28>  H        4.8044010000    -1.4222310000     0.1002950000
| 29>  H        4.4899260000    -0.9967490000     3.1354320000
| 30> *
| 31>
| 32>                          ****END OF INPUT****
 Total Charge           Charge          ....    0
 Multiplicity           Mult            ....    1
 Number of Electrons    NEL             ....   56
 Basis Dimension        Dim             ....  153

MULLIKEN ATOMIC CHARGES
-----------------------
   0 C :    0.001781
   1 C :   -0.043695
   2 C :    0.026574
   3 N :   -0.259492
   4 C :    0.131360
   5 C :    0.058989
   6 O :   -0.158585
   7 H :    0.021637
   8 H :    0.025492
   9 H :    0.019579
  10 H :   -0.013764
  11 H :    0.018704
  12 H :    0.017215
  13 H :    0.014561
  14 H :    0.100097
  15 H :    0.040429
  16 H :    0.008483
  17 H :   -0.009367
Sum of atomic charges:   -0.0000000

LOEWDIN ATOMIC CHARGES
----------------------
   0 C :   -0.061975
   1 C :    0.002611
   2 C :   -0.063263
   3 N :   -0.094648
   4 C :   -0.026941
   5 C :    0.081520
   6 O :   -0.104769
   7 H :    0.030962
   8 H :    0.028234
   9 H :    0.023685
  10 H :    0.002806
  11 H :    0.027303
  12 H :    0.029153
  13 H :    0.021626
  14 H :    0.055954
  15 H :    0.045833
  16 H :    0.014297
  17 H :   -0.012388

  Mayer bond orders larger than 0.1
B(  0-C ,  1-C ) :   1.0831 B(  0-C ,  7-H ) :   0.9581 B(  0-C ,  8-H ) :   0.9577
B(  0-C ,  9-H ) :   0.9595 B(  1-C ,  2-C ) :   1.0897 B(  1-C ,  3-N ) :   1.0200
B(  1-C , 10-H ) :   0.9019 B(  2-C , 11-H ) :   0.9555 B(  2-C , 12-H ) :   0.9544
B(  2-C , 13-H ) :   0.9518 B(  3-N ,  4-C ) :   1.0049 B(  3-N , 14-H ) :   0.9428
B(  4-C ,  5-C ) :   0.9503 B(  4-C , 15-H ) :   0.8991 B(  4-C , 16-H ) :   0.9041
B(  5-C ,  6-O ) :   2.1808 B(  5-C , 17-H ) :   0.9233

FINAL SINGLE POINT ENERGY      -326.448944406276

DIPOLE MOMENT
-------------
                                X             Y             Z
Electronic contribution:      7.51589      -5.76738       4.81303
Nuclear contribution   :     -8.31267       6.19969      -5.38055
                        -----------------------------------------
Total Dipole Moment    :     -0.79678       0.43231      -0.56752
                        -----------------------------------------
Magnitude (a.u.)       :      1.06950
Magnitude (Debye)      :      2.71845

                             ****ORCA TERMINATED NORMALLY****
TOTAL RUN TIME: 0 days 0 hours 0 minutes 8 seconds 260 msec
