                         Program Version 3.0.3 - RELEASE   -
|  1> ! RI PBE def2-SVP def2-SVP/J NBO PAL2
|  2> % maxcore 2000
|  3> % output
|  4>     # printlevel mini
|  5>     print[ P_Basis ] 0
|  6>     print[ P_SCFInfo ] 1
|  7>     print[ P_SCFIterInfo ] 1
|  8>     print[ P_OrbEn ] 0
|  9>     print[ P_Cartesian ] 0
| 10> end
| 11> *xyz 0 1
| 12>  C        0.9012890000     0.0245330000    -0.2126180000
| 13>  C        2.2834120000    -0.1036610000     0.4148490000
| 14>  C        3.3077170000    -0.4074680000    -0.5746700000
| 15>  N        4.1117590000    -0.6315040000    -1.3658680000
| 16>  C        2.6644130000     1.1286050000     1.2665170000
| 17>  C        4.1040640000     1.2734640000     1.6539170000
| 18>  O        1.8084440000     1.8954340000     1.6123530000
| 19>  H        0.6255100000    -0.8995810000    -0.7207280000
| 20>  H        0.8824270000     0.8405830000    -0.9352520000
| 21>  H        0.1706370000     0.2435700000     0.5643330000
| 22>  H        2.2853500000    -0.9407320000     1.1284390000
| 23>  H        4.6896840000     1.5515960000     0.7728470000
| 24>  H        4.5129530000     0.3247830000     2.0109920000
| 25>  H        4.2033400000     2.0433780000     2.4162880000
| 26> *
| 27>
| 28>                          ****END OF INPUT****
 Total Charge           Charge          ....    0
 Multiplicity           Mult            ....    1
 Number of Electrons    NEL             ....   52
 Basis Dimension        Dim             ....  133

MULLIKEN ATOMIC CHARGES
-----------------------
   0 C :    0.034879
   1 C :   -0.085949
   2 C :   -0.238810
   3 N :    0.051687
   4 C :   -0.054589
   5 C :    0.034863
   6 O :   -0.131250
   7 H :    0.039519
   8 H :    0.047395
   9 H :    0.048462
  10 H :    0.079752
  11 H :    0.076457
  12 H :    0.049080
  13 H :    0.048504
Sum of atomic charges:   -0.0000000

LOEWDIN ATOMIC CHARGES
----------------------
   0 C :   -0.037904
   1 C :   -0.096322
   2 C :   -0.044482
   3 N :   -0.064363
   4 C :    0.072721
   5 C :   -0.084233
   6 O :   -0.093662
   7 H :    0.036888
   8 H :    0.040127
   9 H :    0.038662
  10 H :    0.074444
  11 H :    0.063607
  12 H :    0.049543
  13 H :    0.044973

  Mayer bond orders larger than 0.1
B(  0-C ,  1-C ) :   1.1013 B(  0-C ,  7-H ) :   0.9557 B(  0-C ,  8-H ) :   0.9642
B(  0-C ,  9-H ) :   0.9478 B(  1-C ,  2-C ) :   1.0421 B(  1-C ,  4-C ) :   0.8512
B(  1-C , 10-H ) :   0.8554 B(  2-C ,  3-N ) :   3.0490 B(  4-C ,  5-C ) :   1.0699
B(  4-C ,  6-O ) :   2.2164 B(  5-C , 11-H ) :   0.9166 B(  5-C , 12-H ) :   0.9399
B(  5-C , 13-H ) :   0.9417

FINAL SINGLE POINT ENERGY      -324.062414038459

DIPOLE MOMENT
-------------
                                X             Y             Z
Electronic contribution:      1.24726       0.03288      -1.28592
Nuclear contribution   :     -1.51528      -0.24129       2.04347
                        -----------------------------------------
Total Dipole Moment    :     -0.26802      -0.20841       0.75755
                        -----------------------------------------
Magnitude (a.u.)       :      0.83015
Magnitude (Debye)      :      2.11007

                             ****ORCA TERMINATED NORMALLY****
TOTAL RUN TIME: 0 days 0 hours 0 minutes 6 seconds 390 msec
