                         Program Version 3.0.3 - RELEASE   -
|  1> ! RI PBE def2-SVP def2-SVP/J NBO PAL2
|  2> % maxcore 2000
|  3> % output
|  4>     # printlevel mini
|  5>     print[ P_Basis ] 0
|  6>     print[ P_SCFInfo ] 1
|  7>     print[ P_SCFIterInfo ] 1
|  8>     print[ P_OrbEn ] 0
|  9>     print[ P_Cartesian ] 0
| 10> end
| 11> *xyz 0 1
| 12>  C        1.9673790000    -0.2906300000    -1.0463660000
| 13>  C        2.2177340000     0.5613420000     0.1921940000
| 14>  C        1.8668950000     2.0275140000    -0.0665190000
| 15>  N        0.4365610000     2.2230750000    -0.2563340000
| 16>  C        1.4905830000    -0.0273130000     1.3988870000
| 17>  C        1.7796350000     0.6652010000     2.7163020000
| 18>  O        1.2032000000    -0.0069120000     3.8194220000
| 19>  H        2.4894670000     0.1111710000    -1.9195860000
| 20>  H        0.9002880000    -0.3438530000    -1.2830250000
| 21>  H        2.3121240000    -1.3159910000    -0.8933770000
| 22>  H        3.2961520000     0.5383910000     0.3996960000
| 23>  H        2.4736980000     2.3767260000    -0.9174870000
| 24>  H        2.1711300000     2.6299340000     0.7937000000
| 25>  H        0.1366450000     1.8413160000    -1.1445400000
| 26>  H        0.2112730000     3.2089590000    -0.2727810000
| 27>  H        1.7683790000    -1.0815000000     1.5044700000
| 28>  H        0.4115500000     0.0059300000     1.2089910000
| 29>  H        1.4399610000     1.7086710000     2.6848670000
| 30>  H        2.8564960000     0.6776550000     2.9105000000
| 31>  H        0.2529200000    -0.0380860000     3.6818970000
| 32> *
| 33>
| 34>                          ****END OF INPUT****
 Total Charge           Charge          ....    0
 Multiplicity           Mult            ....    1
 Number of Electrons    NEL             ....   58
 Basis Dimension        Dim             ....  163

MULLIKEN ATOMIC CHARGES
-----------------------
   0 C :    0.029990
   1 C :   -0.164278
   2 C :    0.078291
   3 N :   -0.207326
   4 C :   -0.002683
   5 C :    0.170178
   6 O :   -0.286444
   7 H :    0.008518
   8 H :    0.013615
   9 H :    0.016935
  10 H :    0.006474
  11 H :   -0.007939
  12 H :    0.007056
  13 H :    0.085024
  14 H :    0.091962
  15 H :    0.004564
  16 H :    0.001490
  17 H :    0.000607
  18 H :    0.004112
  19 H :    0.149854
Sum of atomic charges:   -0.0000000

LOEWDIN ATOMIC CHARGES
----------------------
   0 C :   -0.060447
   1 C :   -0.051931
   2 C :    0.007765
   3 N :   -0.107165
   4 C :   -0.060657
   5 C :    0.053862
   6 O :   -0.124459
   7 H :    0.022817
   8 H :    0.021831
   9 H :    0.027587
  10 H :    0.025162
  11 H :   -0.000450
  12 H :    0.016859
  13 H :    0.049132
  14 H :    0.054617
  15 H :    0.022513
  16 H :    0.016897
  17 H :    0.002804
  18 H :    0.017619
  19 H :    0.065643

  Mayer bond orders larger than 0.1
B(  0-C ,  1-C ) :   1.0839 B(  0-C ,  7-H ) :   0.9554 B(  0-C ,  8-H ) :   0.9582
B(  0-C ,  9-H ) :   0.9566 B(  1-C ,  2-C ) :   1.0546 B(  1-C ,  4-C ) :   1.0306
B(  1-C , 10-H ) :   0.9072 B(  2-C ,  3-N ) :   1.0930 B(  2-C , 11-H ) :   0.9284
B(  2-C , 12-H ) :   0.9319 B(  3-N , 13-H ) :   0.9651 B(  3-N , 14-H ) :   0.9663
B(  4-C ,  5-C ) :   1.0763 B(  4-C , 15-H ) :   0.9256 B(  4-C , 16-H ) :   0.9166
B(  5-C ,  6-O ) :   1.0576 B(  5-C , 17-H ) :   0.9351 B(  5-C , 18-H ) :   0.9339
B(  6-O , 19-H ) :   0.9884

FINAL SINGLE POINT ENERGY      -327.647470691728

DIPOLE MOMENT
-------------
                                X             Y             Z
Electronic contribution:     -0.96489      -0.11242       4.87713
Nuclear contribution   :      0.72320       0.61135      -5.76980
                        -----------------------------------------
Total Dipole Moment    :     -0.24169       0.49894      -0.89267
                        -----------------------------------------
Magnitude (a.u.)       :      1.05081
Magnitude (Debye)      :      2.67095

                             ****ORCA TERMINATED NORMALLY****
TOTAL RUN TIME: 0 days 0 hours 0 minutes 8 seconds 482 msec
