                         Program Version 3.0.3 - RELEASE   -
|  1> ! RI PBE def2-SVP def2-SVP/J NBO PAL2
|  2> % maxcore 2000
|  3> % output
|  4>     # printlevel mini
|  5>     print[ P_Basis ] 0
|  6>     print[ P_SCFInfo ] 1
|  7>     print[ P_SCFIterInfo ] 1
|  8>     print[ P_OrbEn ] 0
|  9>     print[ P_Cartesian ] 0
| 10> end
| 11> *xyz 0 1
| 12>  C        1.1347590000     0.0990630000     0.0212870000
| 13>  C        2.6140210000    -0.0488920000     0.1894660000
| 14>  C        3.3515940000    -0.7150410000    -0.9466520000
| 15>  N        4.1682510000     0.2559010000    -1.6870010000
| 16>  C        3.2602960000     0.4132350000     1.2607670000
| 17>  C        4.7477320000     0.3274400000     1.4643370000
| 18>  O        5.4735940000     1.2398780000     0.6709630000
| 19>  H        0.8902430000     0.6507200000    -0.8939350000
| 20>  H        0.6853770000     0.6253280000     0.8643830000
| 21>  H        0.6508270000    -0.8796400000    -0.0688520000
| 22>  H        2.6297200000    -1.2359170000    -1.5896200000
| 23>  H        4.0339140000    -1.4752380000    -0.5534410000
| 24>  H        3.5801890000     0.9797770000    -2.0841530000
| 25>  H        4.6464510000    -0.1967910000    -2.4574310000
| 26>  H        2.6828590000     0.9261430000     2.0266500000
| 27>  H        5.0859930000    -0.7051660000     1.2791630000
| 28>  H        4.9906630000     0.5549360000     2.5044590000
| 29>  H        5.2060060000     1.0578460000    -0.2500800000
| 30> *
| 31>
| 32>                          ****END OF INPUT****
 Total Charge           Charge          ....    0
 Multiplicity           Mult            ....    1
 Number of Electrons    NEL             ....   56
 Basis Dimension        Dim             ....  153

MULLIKEN ATOMIC CHARGES
-----------------------
   0 C :    0.060257
   1 C :   -0.202138
   2 C :    0.157555
   3 N :   -0.216340
   4 C :   -0.143017
   5 C :    0.283791
   6 O :   -0.309474
   7 H :    0.021218
   8 H :    0.019957
   9 H :    0.031406
  10 H :   -0.007951
  11 H :    0.015549
  12 H :    0.104448
  13 H :    0.103533
  14 H :   -0.014666
  15 H :   -0.022450
  16 H :   -0.007251
  17 H :    0.125571
Sum of atomic charges:    0.0000000

LOEWDIN ATOMIC CHARGES
----------------------
   0 C :   -0.057239
   1 C :   -0.056222
   2 C :    0.013669
   3 N :   -0.062299
   4 C :   -0.057256
   5 C :    0.051190
   6 O :   -0.142284
   7 H :    0.030446
   8 H :    0.031944
   9 H :    0.034679
  10 H :    0.007808
  11 H :    0.029529
  12 H :    0.058596
  13 H :    0.059104
  14 H :    0.021221
  15 H :    0.001466
  16 H :    0.018800
  17 H :    0.016851

  Mayer bond orders larger than 0.1
B(  0-C ,  1-C ) :   1.1025 B(  0-C ,  7-H ) :   0.9417 B(  0-C ,  8-H ) :   0.9539
B(  0-C ,  9-H ) :   0.9397 B(  1-C ,  2-C ) :   1.0588 B(  1-C ,  4-C ) :   1.9075
B(  2-C ,  3-N ) :   1.0641 B(  2-C , 10-H ) :   0.9199 B(  2-C , 11-H ) :   0.9076
B(  3-N , 12-H ) :   0.9608 B(  3-N , 13-H ) :   0.9579 B(  3-N , 17-H ) :   0.1641
B(  4-C ,  5-C ) :   1.0492 B(  4-C , 14-H ) :   0.9407 B(  5-C ,  6-O ) :   1.0795
B(  5-C , 15-H ) :   0.9056 B(  5-C , 16-H ) :   0.9238 B(  6-O , 17-H ) :   0.9334

FINAL SINGLE POINT ENERGY      -326.438008977739

DIPOLE MOMENT
-------------
                                X             Y             Z
Electronic contribution:      3.20827       1.58960       1.17143
Nuclear contribution   :     -4.06963      -2.21542      -2.14484
                        -----------------------------------------
Total Dipole Moment    :     -0.86136      -0.62583      -0.97340
                        -----------------------------------------
Magnitude (a.u.)       :      1.44261
Magnitude (Debye)      :      3.66681

                             ****ORCA TERMINATED NORMALLY****
TOTAL RUN TIME: 0 days 0 hours 0 minutes 8 seconds 432 msec
