                         Program Version 3.0.3 - RELEASE   -
|  1> ! RI PBE def2-SVP def2-SVP/J NBO PAL2
|  2> % maxcore 2000
|  3> % output
|  4>     # printlevel mini
|  5>     print[ P_Basis ] 0
|  6>     print[ P_SCFInfo ] 1
|  7>     print[ P_SCFIterInfo ] 1
|  8>     print[ P_OrbEn ] 0
|  9>     print[ P_Cartesian ] 0
| 10> end
| 11> *xyz 0 1
| 12>  C        0.8297510000    -0.0995480000    -0.3438600000
| 13>  C        2.1806150000    -0.7931000000    -0.3873400000
| 14>  C        2.8317710000    -0.9852030000     0.9819260000
| 15>  N        2.0314520000    -1.7832720000     1.9183070000
| 16>  C        4.2225640000    -1.5981290000     0.8590170000
| 17>  C        4.9979570000    -1.6414190000     2.1674190000
| 18>  O        4.4383830000    -2.5111040000     3.1183090000
| 19>  H        0.4300950000     0.0491420000    -1.3490580000
| 20>  H        0.9056550000     0.8839820000     0.1295520000
| 21>  H        0.0899000000    -0.6814630000     0.2122870000
| 22>  H        2.8651940000    -0.2145890000    -1.0171150000
| 23>  H        2.0816390000    -1.7751040000    -0.8675270000
| 24>  H        2.9432200000     0.0036480000     1.4475640000
| 25>  H        1.7843490000    -2.6721930000     1.4943770000
| 26>  H        1.1653600000    -1.3132170000     2.1491850000
| 27>  H        4.7965290000    -1.0186900000     0.1276390000
| 28>  H        4.1377690000    -2.6167920000     0.4591210000
| 29>  H        5.0775890000    -0.6165390000     2.5677530000
| 30>  H        6.0183130000    -1.9872760000     1.9770380000
| 31>  H        3.4807050000    -2.3395540000     3.0898870000
| 32> *
| 33>
| 34>                          ****END OF INPUT****
 Total Charge           Charge          ....    0
 Multiplicity           Mult            ....    1
 Number of Electrons    NEL             ....   58
 Basis Dimension        Dim             ....  163

MULLIKEN ATOMIC CHARGES
-----------------------
   0 C :   -0.008674
   1 C :   -0.000231
   2 C :   -0.069576
   3 N :   -0.185698
   4 C :   -0.034322
   5 C :    0.226193
   6 O :   -0.302410
   7 H :    0.026435
   8 H :    0.018097
   9 H :    0.006439
  10 H :    0.011700
  11 H :    0.004220
  12 H :    0.001741
  13 H :    0.099827
  14 H :    0.098103
  15 H :    0.004378
  16 H :    0.002365
  17 H :   -0.023908
  18 H :   -0.002204
  19 H :    0.127525
Sum of atomic charges:    0.0000000

LOEWDIN ATOMIC CHARGES
----------------------
   0 C :   -0.072421
   1 C :   -0.058284
   2 C :   -0.002654
   3 N :   -0.055225
   4 C :   -0.065652
   5 C :    0.055108
   6 O :   -0.142549
   7 H :    0.031119
   8 H :    0.026380
   9 H :    0.016528
  10 H :    0.027735
  11 H :    0.021841
  12 H :    0.021351
  13 H :    0.056065
  14 H :    0.054191
  15 H :    0.029422
  16 H :    0.021796
  17 H :   -0.002618
  18 H :    0.015607
  19 H :    0.022258

  Mayer bond orders larger than 0.1
B(  0-C ,  1-C ) :   1.1201 B(  0-C ,  7-H ) :   0.9575 B(  0-C ,  8-H ) :   0.9601
B(  0-C ,  9-H ) :   0.9553 B(  1-C ,  2-C ) :   1.0472 B(  1-C , 10-H ) :   0.9212
B(  1-C , 11-H ) :   0.9230 B(  2-C ,  3-N ) :   1.0556 B(  2-C ,  4-C ) :   1.0726
B(  2-C , 12-H ) :   0.9092 B(  3-N , 13-H ) :   0.9594 B(  3-N , 14-H ) :   0.9637
B(  3-N , 19-H ) :   0.1537 B(  4-C ,  5-C ) :   1.0798 B(  4-C , 15-H ) :   0.9136
B(  4-C , 16-H ) :   0.9132 B(  5-C ,  6-O ) :   1.0959 B(  5-C , 17-H ) :   0.9181
B(  5-C , 18-H ) :   0.9326 B(  6-O , 19-H ) :   0.9388

FINAL SINGLE POINT ENERGY      -327.662629286863

DIPOLE MOMENT
-------------
                                X             Y             Z
Electronic contribution:      2.90939      -2.76018       4.28503
Nuclear contribution   :     -3.83137       3.23906      -5.16161
                        -----------------------------------------
Total Dipole Moment    :     -0.92199       0.47888      -0.87657
                        -----------------------------------------
Magnitude (a.u.)       :      1.35933
Magnitude (Debye)      :      3.45513

                             ****ORCA TERMINATED NORMALLY****
TOTAL RUN TIME: 0 days 0 hours 0 minutes 7 seconds 833 msec
