                         Program Version 3.0.3 - RELEASE   -
|  1> ! RI PBE def2-SVP def2-SVP/J NBO PAL2
|  2> % maxcore 2000
|  3> % output
|  4>     # printlevel mini
|  5>     print[ P_Basis ] 0
|  6>     print[ P_SCFInfo ] 1
|  7>     print[ P_SCFIterInfo ] 1
|  8>     print[ P_OrbEn ] 0
|  9>     print[ P_Cartesian ] 0
| 10> end
| 11> *xyz 0 1
| 12>  C        1.8446070000     1.0462170000    -0.8947190000
| 13>  C        2.4634780000    -0.0835890000    -0.0752730000
| 14>  C        2.8980620000    -1.2469420000    -0.9178920000
| 15>  N        1.8750510000    -1.9592810000    -1.4543020000
| 16>  C        4.2194150000    -1.4857110000    -1.1398120000
| 17>  C        4.7463020000    -2.5638140000    -1.9303390000
| 18>  O        5.9237770000    -2.7685170000    -2.1398620000
| 19>  H        1.5413690000     1.8679720000    -0.2431220000
| 20>  H        0.9633490000     0.7109440000    -1.4451630000
| 21>  H        2.5625230000     1.4336260000    -1.6201520000
| 22>  H        1.7408010000    -0.4372780000     0.6704620000
| 23>  H        3.3284010000     0.2863600000     0.4760600000
| 24>  H        0.9538430000    -1.8532910000    -1.0708180000
| 25>  H        2.0516580000    -2.8030720000    -1.9679030000
| 26>  H        4.9443340000    -0.8188880000    -0.6894520000
| 27>  H        3.9966400000    -3.2622260000    -2.3737140000
| 28> *
| 29>
| 30>                          ****END OF INPUT****
 Total Charge           Charge          ....    0
 Multiplicity           Mult            ....    1
 Number of Electrons    NEL             ....   54
 Basis Dimension        Dim             ....  143

MULLIKEN ATOMIC CHARGES
-----------------------
   0 C :   -0.013340
   1 C :    0.024632
   2 C :   -0.095853
   3 N :   -0.031091
   4 C :   -0.043164
   5 C :    0.098601
   6 O :   -0.201797
   7 H :    0.033306
   8 H :    0.016226
   9 H :    0.037287
  10 H :    0.022562
  11 H :    0.018207
  12 H :    0.113299
  13 H :    0.110883
  14 H :   -0.020613
  15 H :   -0.069144
Sum of atomic charges:   -0.0000000

LOEWDIN ATOMIC CHARGES
----------------------
   0 C :   -0.057134
   1 C :   -0.039452
   2 C :    0.036817
   3 N :    0.034308
   4 C :   -0.163503
   5 C :    0.044660
   6 O :   -0.153079
   7 H :    0.031571
   8 H :    0.022449
   9 H :    0.034198
  10 H :    0.030992
  11 H :    0.038377
  12 H :    0.073433
  13 H :    0.067791
  14 H :    0.030473
  15 H :   -0.031903

  Mayer bond orders larger than 0.1
B(  0-C ,  1-C ) :   1.1093 B(  0-C ,  7-H ) :   0.9617 B(  0-C ,  8-H ) :   0.9641
B(  0-C ,  9-H ) :   0.9654 B(  1-C ,  2-C ) :   1.0528 B(  1-C , 10-H ) :   0.9174
B(  1-C , 11-H ) :   0.9185 B(  2-C ,  3-N ) :   1.3352 B(  2-C ,  4-C ) :   1.5345
B(  3-N , 12-H ) :   0.9410 B(  3-N , 13-H ) :   0.9406 B(  4-C ,  5-C ) :   1.1099
B(  4-C , 14-H ) :   0.9395 B(  5-C ,  6-O ) :   2.0679 B(  5-C , 15-H ) :   0.9227

FINAL SINGLE POINT ENERGY      -325.266050895497

DIPOLE MOMENT
-------------
                                X             Y             Z
Electronic contribution:      5.85920      -5.89455      -2.11670
Nuclear contribution   :     -8.00309       6.36263       2.66526
                        -----------------------------------------
Total Dipole Moment    :     -2.14389       0.46808       0.54856
                        -----------------------------------------
Magnitude (a.u.)       :      2.26192
Magnitude (Debye)      :      5.74936

                             ****ORCA TERMINATED NORMALLY****
TOTAL RUN TIME: 0 days 0 hours 0 minutes 7 seconds 282 msec
