                         Program Version 3.0.3 - RELEASE   -
|  1> ! RI PBE def2-SVP def2-SVP/J NBO PAL2
|  2> % maxcore 2000
|  3> % output
|  4>     # printlevel mini
|  5>     print[ P_Basis ] 0
|  6>     print[ P_SCFInfo ] 1
|  7>     print[ P_SCFIterInfo ] 1
|  8>     print[ P_OrbEn ] 0
|  9>     print[ P_Cartesian ] 0
| 10> end
| 11> *xyz 0 1
| 12>  C        0.8448670000    -0.0512570000     0.2059900000
| 13>  C        2.3641600000    -0.0802670000     0.1951080000
| 14>  C        3.0033150000     1.2615870000    -0.1483370000
| 15>  N        2.6589430000     2.3477940000     0.7690060000
| 16>  C        4.5348140000     1.2018840000    -0.2098020000
| 17>  C        5.0731700000     0.2936210000    -1.2917940000
| 18>  O        5.0388290000     2.4956210000    -0.4420720000
| 19>  H        0.4333050000    -1.0387430000     0.4252060000
| 20>  H        0.4502800000     0.2622800000    -0.7650730000
| 21>  H        0.4557820000     0.6366110000     0.9611220000
| 22>  H        2.7004800000    -0.8309030000    -0.5257900000
| 23>  H        2.7379480000    -0.4072790000     1.1742550000
| 24>  H        2.6603800000     1.5766040000    -1.1425160000
| 25>  H        2.7379890000     2.0421120000     1.7331210000
| 26>  H        1.7114710000     2.6703530000     0.6295060000
| 27>  H        4.8900870000     0.8342270000     0.7712140000
| 28>  H        4.6631590000     0.5755720000    -2.2652920000
| 29>  H        4.8402870000    -0.7546340000    -1.0981370000
| 30>  H        6.1584820000     0.3959520000    -1.3415550000
| 31>  H        4.4307610000     3.0799570000     0.0375720000
| 32> *
| 33>
| 34>                          ****END OF INPUT****
 Total Charge           Charge          ....    0
 Multiplicity           Mult            ....    1
 Number of Electrons    NEL             ....   58
 Basis Dimension        Dim             ....  163

MULLIKEN ATOMIC CHARGES
-----------------------
   0 C :    0.002765
   1 C :   -0.011058
   2 C :   -0.065641
   3 N :   -0.186515
   4 C :    0.109601
   5 C :    0.013708
   6 O :   -0.266363
   7 H :    0.021549
   8 H :    0.015579
   9 H :   -0.000186
  10 H :    0.014961
  11 H :   -0.000345
  12 H :   -0.005772
  13 H :    0.094577
  14 H :    0.101004
  15 H :   -0.034856
  16 H :    0.012768
  17 H :    0.017432
  18 H :    0.033172
  19 H :    0.133621
Sum of atomic charges:   -0.0000000

LOEWDIN ATOMIC CHARGES
----------------------
   0 C :   -0.068286
   1 C :   -0.057052
   2 C :   -0.015346
   3 N :   -0.070254
   4 C :    0.038875
   5 C :   -0.070602
   6 O :   -0.124294
   7 H :    0.029149
   8 H :    0.025398
   9 H :    0.014519
  10 H :    0.027964
  11 H :    0.020077
  12 H :    0.019786
  13 H :    0.054131
  14 H :    0.055393
  15 H :   -0.003386
  16 H :    0.026114
  17 H :    0.024309
  18 H :    0.034679
  19 H :    0.038827

  Mayer bond orders larger than 0.1
B(  0-C ,  1-C ) :   1.1136 B(  0-C ,  7-H ) :   0.9591 B(  0-C ,  8-H ) :   0.9634
B(  0-C ,  9-H ) :   0.9575 B(  1-C ,  2-C ) :   1.0387 B(  1-C , 10-H ) :   0.9213
B(  1-C , 11-H ) :   0.9211 B(  2-C ,  3-N ) :   1.0733 B(  2-C ,  4-C ) :   1.0142
B(  2-C , 12-H ) :   0.8989 B(  3-N , 13-H ) :   0.9659 B(  3-N , 14-H ) :   0.9660
B(  3-N , 19-H ) :   0.1223 B(  4-C ,  5-C ) :   1.0879 B(  4-C ,  6-O ) :   1.1066
B(  4-C , 15-H ) :   0.8852 B(  5-C , 16-H ) :   0.9517 B(  5-C , 17-H ) :   0.9505
B(  5-C , 18-H ) :   0.9513 B(  6-O , 19-H ) :   0.9405

FINAL SINGLE POINT ENERGY      -327.664617974079

DIPOLE MOMENT
-------------
                                X             Y             Z
Electronic contribution:      3.55499       4.49101       0.27834
Nuclear contribution   :     -4.54160      -4.90314       0.18439
                        -----------------------------------------
Total Dipole Moment    :     -0.98661      -0.41214       0.46273
                        -----------------------------------------
Magnitude (a.u.)       :      1.16506
Magnitude (Debye)      :      2.96136

                             ****ORCA TERMINATED NORMALLY****
TOTAL RUN TIME: 0 days 0 hours 0 minutes 8 seconds 838 msec
