                         Program Version 3.0.3 - RELEASE   -
|  1> ! RI PBE def2-SVP def2-SVP/J NBO PAL2
|  2> % maxcore 2000
|  3> % output
|  4>     # printlevel mini
|  5>     print[ P_Basis ] 0
|  6>     print[ P_SCFInfo ] 1
|  7>     print[ P_SCFIterInfo ] 1
|  8>     print[ P_OrbEn ] 0
|  9>     print[ P_Cartesian ] 0
| 10> end
| 11> *xyz 0 1
| 12>  C        3.2063940000     1.0712550000    -1.0531150000
| 13>  C        2.6997740000     0.0516530000    -0.0470380000
| 14>  C        3.2194820000    -1.3737080000    -0.2931600000
| 15>  N        2.8914280000    -1.8569470000    -1.6109910000
| 16>  C        2.9046160000    -3.3045050000    -1.7205550000
| 17>  C        4.6997670000    -1.4102150000     0.0295440000
| 18>  O        5.5633620000    -1.6345610000    -0.7738710000
| 19>  H        2.8121080000     2.0637850000    -0.8261440000
| 20>  H        2.8844150000     0.8138050000    -2.0642680000
| 21>  H        4.2977680000     1.1416420000    -1.0527390000
| 22>  H        1.6085370000     0.0083440000    -0.0813590000
| 23>  H        2.9732190000     0.3576980000     0.9691630000
| 24>  H        2.7304060000    -2.0236370000     0.4459310000
| 25>  H        3.5602190000    -1.4745880000    -2.2696860000
| 26>  H        2.1063320000    -3.7229950000    -1.1011570000
| 27>  H        3.8535460000    -3.7727150000    -1.4221210000
| 28>  H        2.6980210000    -3.5881310000    -2.7540870000
| 29>  H        4.9582060000    -1.1765910000     1.0875450000
| 30> *
| 31>
| 32>                          ****END OF INPUT****
 Total Charge           Charge          ....    0
 Multiplicity           Mult            ....    1
 Number of Electrons    NEL             ....   56
 Basis Dimension        Dim             ....  153

MULLIKEN ATOMIC CHARGES
-----------------------
   0 C :   -0.035704
   1 C :   -0.002687
   2 C :   -0.018409
   3 N :   -0.222794
   4 C :    0.067033
   5 C :    0.104245
   6 O :   -0.160777
   7 H :    0.024214
   8 H :    0.028483
   9 H :    0.030174
  10 H :    0.031928
  11 H :    0.007323
  12 H :    0.016082
  13 H :    0.104120
  14 H :    0.017615
  15 H :    0.007264
  16 H :    0.022909
  17 H :   -0.021018
Sum of atomic charges:   -0.0000000

LOEWDIN ATOMIC CHARGES
----------------------
   0 C :   -0.070154
   1 C :   -0.036611
   2 C :   -0.039970
   3 N :   -0.087381
   4 C :   -0.003215
   5 C :    0.082737
   6 O :   -0.107831
   7 H :    0.030954
   8 H :    0.027496
   9 H :    0.026400
  10 H :    0.032766
  11 H :    0.023308
  12 H :    0.037397
  13 H :    0.051742
  14 H :    0.019711
  15 H :    0.002173
  16 H :    0.024946
  17 H :   -0.014469

  Mayer bond orders larger than 0.1
B(  0-C ,  1-C ) :   1.1082 B(  0-C ,  7-H ) :   0.9602 B(  0-C ,  8-H ) :   0.9583
B(  0-C ,  9-H ) :   0.9646 B(  1-C ,  2-C ) :   1.0384 B(  1-C , 10-H ) :   0.9311
B(  1-C , 11-H ) :   0.9319 B(  2-C ,  3-N ) :   1.0932 B(  2-C ,  5-C ) :   0.9041
B(  2-C , 12-H ) :   0.8841 B(  3-N ,  4-C ) :   1.0549 B(  3-N , 13-H ) :   0.9269
B(  4-C , 14-H ) :   0.9669 B(  4-C , 15-H ) :   0.9496 B(  4-C , 16-H ) :   0.9735
B(  5-C ,  6-O ) :   2.1685 B(  5-C , 17-H ) :   0.9135

FINAL SINGLE POINT ENERGY      -326.448645539558

DIPOLE MOMENT
-------------
                                X             Y             Z
Electronic contribution:      4.41436      -1.79655       0.63756
Nuclear contribution   :     -4.88563       1.89665      -0.23446
                        -----------------------------------------
Total Dipole Moment    :     -0.47127       0.10011       0.40310
                        -----------------------------------------
Magnitude (a.u.)       :      0.62818
Magnitude (Debye)      :      1.59671

                             ****ORCA TERMINATED NORMALLY****
TOTAL RUN TIME: 0 days 0 hours 0 minutes 8 seconds 517 msec
