                         Program Version 3.0.3 - RELEASE   -
|  1> ! RI PBE def2-SVP def2-SVP/J NBO PAL2
|  2> % maxcore 2000
|  3> % output
|  4>     # printlevel mini
|  5>     print[ P_Basis ] 0
|  6>     print[ P_SCFInfo ] 1
|  7>     print[ P_SCFIterInfo ] 1
|  8>     print[ P_OrbEn ] 0
|  9>     print[ P_Cartesian ] 0
| 10> end
| 11> *xyz 0 1
| 12>  C        1.2749760000    -0.2294710000     0.1495540000
| 13>  C        2.6448050000    -0.8527850000    -0.0539630000
| 14>  C        3.7464130000     0.1977730000    -0.0813000000
| 15>  N        5.0724310000    -0.3570400000    -0.2553020000
| 16>  C        5.7719280000    -0.8557860000     0.8975730000
| 17>  C        5.6114730000    -0.4229680000    -1.4932430000
| 18>  O        5.0751970000    -0.0489750000    -2.5129210000
| 19>  H        0.4916040000    -0.9897240000     0.1628160000
| 20>  H        1.0400000000     0.4748520000    -0.6528490000
| 21>  H        1.2223420000     0.3169400000     1.0957330000
| 22>  H        2.6722110000    -1.4037650000    -0.9984450000
| 23>  H        2.8436120000    -1.5782170000     0.7423030000
| 24>  H        3.7385850000     0.7789710000     0.8478930000
| 25>  H        3.5748100000     0.8862410000    -0.9113740000
| 26>  H        5.9316240000    -0.0615240000     1.6343500000
| 27>  H        6.7456390000    -1.2420710000     0.5927200000
| 28>  H        5.2218830000    -1.6677900000     1.3835000000
| 29>  H        6.6271680000    -0.8628800000    -1.4835580000
| 30> *
| 31>
| 32>                          ****END OF INPUT****
 Total Charge           Charge          ....    0
 Multiplicity           Mult            ....    1
 Number of Electrons    NEL             ....   56
 Basis Dimension        Dim             ....  153

MULLIKEN ATOMIC CHARGES
-----------------------
   0 C :   -0.032093
   1 C :   -0.051278
   2 C :    0.097386
   3 N :   -0.253034
   4 C :    0.097890
   5 C :    0.156571
   6 O :   -0.240049
   7 H :    0.029080
   8 H :    0.030731
   9 H :    0.017209
  10 H :    0.031188
  11 H :    0.015082
  12 H :    0.004380
  13 H :    0.028389
  14 H :    0.034757
  15 H :    0.029426
  16 H :    0.031847
  17 H :   -0.027480
Sum of atomic charges:   -0.0000000

LOEWDIN ATOMIC CHARGES
----------------------
   0 C :   -0.065943
   1 C :   -0.052579
   2 C :    0.028842
   3 N :   -0.027003
   4 C :    0.018915
   5 C :    0.044636
   6 O :   -0.190311
   7 H :    0.030917
   8 H :    0.029350
   9 H :    0.024315
  10 H :    0.031556
  11 H :    0.020875
  12 H :    0.019295
  13 H :    0.029445
  14 H :    0.024110
  15 H :    0.029121
  16 H :    0.021397
  17 H :   -0.016938

  Mayer bond orders larger than 0.1
B(  0-C ,  1-C ) :   1.1225 B(  0-C ,  7-H ) :   0.9602 B(  0-C ,  8-H ) :   0.9673
B(  0-C ,  9-H ) :   0.9647 B(  1-C ,  2-C ) :   1.0974 B(  1-C , 10-H ) :   0.9349
B(  1-C , 11-H ) :   0.9359 B(  2-C ,  3-N ) :   0.9767 B(  2-C , 12-H ) :   0.9341
B(  2-C , 13-H ) :   0.9197 B(  3-N ,  4-C ) :   1.0108 B(  3-N ,  5-C ) :   1.1963
B(  3-N ,  6-O ) :   0.1030 B(  4-C , 14-H ) :   0.9611 B(  4-C , 15-H ) :   0.9552
B(  4-C , 16-H ) :   0.9591 B(  5-C ,  6-O ) :   1.9953 B(  5-C , 17-H ) :   0.9174

FINAL SINGLE POINT ENERGY      -326.482865689878

DIPOLE MOMENT
-------------
                                X             Y             Z
Electronic contribution:      5.40014       0.92528      -5.77454
Nuclear contribution   :     -5.35447      -1.22228       7.16608
                        -----------------------------------------
Total Dipole Moment    :      0.04567      -0.29700       1.39154
                        -----------------------------------------
Magnitude (a.u.)       :      1.42362
Magnitude (Debye)      :      3.61855

                             ****ORCA TERMINATED NORMALLY****
TOTAL RUN TIME: 0 days 0 hours 0 minutes 8 seconds 363 msec
