                         Program Version 3.0.3 - RELEASE   -
|  1> ! RI PBE def2-SVP def2-SVP/J NBO PAL2
|  2> % maxcore 2000
|  3> % output
|  4>     # printlevel mini
|  5>     print[ P_Basis ] 0
|  6>     print[ P_SCFInfo ] 1
|  7>     print[ P_SCFIterInfo ] 1
|  8>     print[ P_OrbEn ] 0
|  9>     print[ P_Cartesian ] 0
| 10> end
| 11> *xyz 0 1
| 12>  C        2.6469150000     1.6290090000    -0.1399990000
| 13>  C        2.3228830000     0.1609860000     0.0756350000
| 14>  C        2.9403880000    -0.7622410000    -0.9665470000
| 15>  N        4.3861410000    -0.7587180000    -0.9686470000
| 16>  C        5.1110360000    -1.6168290000    -0.2079120000
| 17>  C        6.6100520000    -1.4730280000    -0.3087180000
| 18>  O        4.5953660000    -2.4551280000     0.5057190000
| 19>  H        2.1728510000     2.2554160000     0.6184790000
| 20>  H        2.2978030000     1.9741570000    -1.1182840000
| 21>  H        3.7233300000     1.8125440000    -0.0840260000
| 22>  H        1.2378570000     0.0137730000     0.0536660000
| 23>  H        2.6605900000    -0.1619720000     1.0646470000
| 24>  H        2.5982130000    -0.4831400000    -1.9683390000
| 25>  H        2.6263960000    -1.7902860000    -0.7785580000
| 26>  H        4.8740100000    -0.0711000000    -1.5133690000
| 27>  H        6.9340000000    -0.6911650000    -0.9975830000
| 28>  H        7.0287860000    -2.4280500000    -0.6291380000
| 29>  H        7.0061900000    -1.2603390000     0.6853940000
| 30> *
| 31>
| 32>                          ****END OF INPUT****
 Total Charge           Charge          ....    0
 Multiplicity           Mult            ....    1
 Number of Electrons    NEL             ....   56
 Basis Dimension        Dim             ....  153

MULLIKEN ATOMIC CHARGES
-----------------------
   0 C :   -0.038622
   1 C :   -0.036789
   2 C :    0.103594
   3 N :   -0.138701
   4 C :   -0.023718
   5 C :    0.022147
   6 O :   -0.234151
   7 H :    0.028690
   8 H :    0.012080
   9 H :    0.012418
  10 H :    0.021753
  11 H :    0.026480
  12 H :    0.004149
  13 H :    0.027035
  14 H :    0.108405
  15 H :    0.003375
  16 H :    0.051033
  17 H :    0.050821
Sum of atomic charges:   -0.0000000

LOEWDIN ATOMIC CHARGES
----------------------
   0 C :   -0.072943
   1 C :   -0.054487
   2 C :    0.023759
   3 N :    0.003255
   4 C :    0.022212
   5 C :   -0.088840
   6 O :   -0.203848
   7 H :    0.030600
   8 H :    0.022147
   9 H :    0.018743
  10 H :    0.029583
  11 H :    0.031096
  12 H :    0.019850
  13 H :    0.031581
  14 H :    0.067676
  15 H :    0.021948
  16 H :    0.049151
  17 H :    0.048517

  Mayer bond orders larger than 0.1
B(  0-C ,  1-C ) :   1.1096 B(  0-C ,  7-H ) :   0.9627 B(  0-C ,  8-H ) :   0.9670
B(  0-C ,  9-H ) :   0.9647 B(  1-C ,  2-C ) :   1.0940 B(  1-C , 10-H ) :   0.9349
B(  1-C , 11-H ) :   0.9339 B(  2-C ,  3-N ) :   1.0049 B(  2-C , 12-H ) :   0.9425
B(  2-C , 13-H ) :   0.9194 B(  3-N ,  4-C ) :   1.2049 B(  3-N , 14-H ) :   0.9237
B(  4-C ,  5-C ) :   1.0280 B(  4-C ,  6-O ) :   2.0341 B(  5-C , 15-H ) :   0.9470
B(  5-C , 16-H ) :   0.9448 B(  5-C , 17-H ) :   0.9463

FINAL SINGLE POINT ENERGY      -326.496925358214

DIPOLE MOMENT
-------------
                                X             Y             Z
Electronic contribution:      1.97522      -5.86456       0.62766
Nuclear contribution   :     -1.76448       6.90006      -1.43546
                        -----------------------------------------
Total Dipole Moment    :      0.21074       1.03551      -0.80780
                        -----------------------------------------
Magnitude (a.u.)       :      1.33012
Magnitude (Debye)      :      3.38090

                             ****ORCA TERMINATED NORMALLY****
TOTAL RUN TIME: 0 days 0 hours 0 minutes 8 seconds 257 msec
