                         Program Version 3.0.3 - RELEASE   -
|  1> ! RI PBE def2-SVP def2-SVP/J NBO PAL2
|  2> % maxcore 2000
|  3> % output
|  4>     # printlevel mini
|  5>     print[ P_Basis ] 0
|  6>     print[ P_SCFInfo ] 1
|  7>     print[ P_SCFIterInfo ] 1
|  8>     print[ P_OrbEn ] 0
|  9>     print[ P_Cartesian ] 0
| 10> end
| 11> *xyz 0 1
| 12>  C        0.8079330000     0.4310050000    -0.3210490000
| 13>  C        2.3115300000     0.2458260000    -0.2140730000
| 14>  C        2.6945030000    -0.8896300000     0.7149960000
| 15>  N        4.1328480000    -1.0678320000     0.7676010000
| 16>  C        4.5655990000    -2.1123800000     1.6622530000
| 17>  C        6.0235680000    -2.4358030000     1.4611300000
| 18>  O        6.7569450000    -2.8231300000     2.3275620000
| 19>  H        0.5568680000     1.2576150000    -0.9885920000
| 20>  H        0.3621530000     0.6458100000     0.6540550000
| 21>  H        0.3259940000    -0.4686890000    -0.7133690000
| 22>  H        2.7704980000     1.1745410000     0.1467350000
| 23>  H        2.7438760000     0.0509280000    -1.2000900000
| 24>  H        2.2550950000    -1.8252230000     0.3485160000
| 25>  H        2.2535490000    -0.7102680000     1.7119540000
| 26>  H        4.5714730000    -0.1902440000     1.0218830000
| 27>  H        4.0198820000    -3.0314050000     1.4039770000
| 28>  H        4.3853300000    -1.9304520000     2.7328410000
| 29>  H        6.3769670000    -2.2972690000     0.4162510000
| 30> *
| 31>
| 32>                          ****END OF INPUT****
 Total Charge           Charge          ....    0
 Multiplicity           Mult            ....    1
 Number of Electrons    NEL             ....   56
 Basis Dimension        Dim             ....  153

MULLIKEN ATOMIC CHARGES
-----------------------
   0 C :   -0.022108
   1 C :   -0.052253
   2 C :    0.088075
   3 N :   -0.277072
   4 C :    0.129633
   5 C :    0.059569
   6 O :   -0.158379
   7 H :    0.025592
   8 H :    0.019873
   9 H :    0.021990
  10 H :    0.009260
  11 H :    0.019671
  12 H :    0.003879
  13 H :   -0.011983
  14 H :    0.100622
  15 H :    0.039083
  16 H :    0.013059
  17 H :   -0.008511
Sum of atomic charges:   -0.0000000

LOEWDIN ATOMIC CHARGES
----------------------
   0 C :   -0.064321
   1 C :   -0.051982
   2 C :    0.012290
   3 N :   -0.098140
   4 C :   -0.027224
   5 C :    0.081386
   6 O :   -0.103881
   7 H :    0.029258
   8 H :    0.024884
   9 H :    0.025997
  10 H :    0.021382
  11 H :    0.026396
  12 H :    0.019277
  13 H :   -0.000553
  14 H :    0.055864
  15 H :    0.047505
  16 H :    0.014396
  17 H :   -0.012532

  Mayer bond orders larger than 0.1
B(  0-C ,  1-C ) :   1.1150 B(  0-C ,  7-H ) :   0.9627 B(  0-C ,  8-H ) :   0.9646
B(  0-C ,  9-H ) :   0.9672 B(  1-C ,  2-C ) :   1.0882 B(  1-C , 10-H ) :   0.9382
B(  1-C , 11-H ) :   0.9343 B(  2-C ,  3-N ) :   1.0375 B(  2-C , 12-H ) :   0.9324
B(  2-C , 13-H ) :   0.9221 B(  3-N ,  4-C ) :   1.0052 B(  3-N , 14-H ) :   0.9446
B(  4-C ,  5-C ) :   0.9476 B(  4-C , 15-H ) :   0.9047 B(  4-C , 16-H ) :   0.9080
B(  5-C ,  6-O ) :   2.1792 B(  5-C , 17-H ) :   0.9236

FINAL SINGLE POINT ENERGY      -326.446902881426

DIPOLE MOMENT
-------------
                                X             Y             Z
Electronic contribution:     10.52861      -5.31059       3.99348
Nuclear contribution   :    -11.41402       5.82751      -4.30149
                        -----------------------------------------
Total Dipole Moment    :     -0.88541       0.51692      -0.30801
                        -----------------------------------------
Magnitude (a.u.)       :      1.07053
Magnitude (Debye)      :      2.72106

                             ****ORCA TERMINATED NORMALLY****
TOTAL RUN TIME: 0 days 0 hours 0 minutes 8 seconds 50 msec
