                         Program Version 3.0.3 - RELEASE   -
|  1> ! RI PBE def2-SVP def2-SVP/J NBO PAL2
|  2> % maxcore 2000
|  3> % output
|  4>     # printlevel mini
|  5>     print[ P_Basis ] 0
|  6>     print[ P_SCFInfo ] 1
|  7>     print[ P_SCFIterInfo ] 1
|  8>     print[ P_OrbEn ] 0
|  9>     print[ P_Cartesian ] 0
| 10> end
| 11> *xyz 0 1
| 12>  C        0.8336340000    -0.0030060000     0.2884370000
| 13>  C        2.2945150000     0.1884960000     0.0853160000
| 14>  C        3.0862620000    -0.6806430000    -0.5419180000
| 15>  N        4.4453940000    -0.4745260000    -0.7076350000
| 16>  C        5.1421070000    -1.3581780000    -1.3087990000
| 17>  N        6.4568350000    -1.1219950000    -1.5533040000
| 18>  O        6.9788750000    -0.0155930000    -0.9038820000
| 19>  H        0.2585650000     0.8090310000    -0.1688440000
| 20>  H        0.5759110000    -0.0052340000     1.3528330000
| 21>  H        0.4888640000    -0.9450120000    -0.1436690000
| 22>  H        2.7481110000     1.0970330000     0.4732340000
| 23>  H        2.6615900000    -1.6041730000    -0.9484380000
| 24>  H        4.7691420000    -2.3064470000    -1.7059460000
| 25>  H        7.0898480000    -1.9056720000    -1.4755420000
| 26>  H        6.1808380000     0.3463290000    -0.4623330000
| 27> *
| 28>
| 29>                          ****END OF INPUT****
 Total Charge           Charge          ....    0
 Multiplicity           Mult            ....    1
 Number of Electrons    NEL             ....   54
 Basis Dimension        Dim             ....  138

MULLIKEN ATOMIC CHARGES
-----------------------
   0 C :    0.032057
   1 C :   -0.091310
   2 C :    0.033541
   3 N :   -0.198294
   4 C :    0.062289
   5 N :    0.041990
   6 O :   -0.220339
   7 H :    0.033866
   8 H :    0.032303
   9 H :    0.013035
  10 H :   -0.007545
  11 H :   -0.033831
  12 H :   -0.000166
  13 H :    0.140136
  14 H :    0.162269
Sum of atomic charges:   -0.0000000

LOEWDIN ATOMIC CHARGES
----------------------
   0 C :   -0.063771
   1 C :   -0.059019
   2 C :   -0.026313
   3 N :   -0.133260
   4 C :    0.004391
   5 N :    0.098987
   6 O :   -0.079769
   7 H :    0.035973
   8 H :    0.035096
   9 H :    0.028257
  10 H :    0.024208
  11 H :    0.002954
  12 H :    0.005801
  13 H :    0.077393
  14 H :    0.049073

  Mayer bond orders larger than 0.1
B(  0-C ,  1-C ) :   1.0869 B(  0-C ,  7-H ) :   0.9471 B(  0-C ,  8-H ) :   0.9474
B(  0-C ,  9-H ) :   0.9602 B(  1-C ,  2-C ) :   1.7950 B(  1-C , 10-H ) :   0.9516
B(  2-C ,  3-N ) :   1.1871 B(  2-C , 11-H ) :   0.9406 B(  3-N ,  4-C ) :   1.6316
B(  3-N , 14-H ) :   0.1394 B(  4-C ,  5-N ) :   1.2274 B(  4-C , 12-H ) :   0.9369
B(  5-N ,  6-O ) :   1.0180 B(  5-N , 13-H ) :   0.9257 B(  6-O , 14-H ) :   0.9189

FINAL SINGLE POINT ENERGY      -341.223307039882

DIPOLE MOMENT
-------------
                                X             Y             Z
Electronic contribution:      8.48377      -0.36228      -2.14913
Nuclear contribution   :     -8.61983      -0.52647       2.12362
                        -----------------------------------------
Total Dipole Moment    :     -0.13606      -0.88874      -0.02551
                        -----------------------------------------
Magnitude (a.u.)       :      0.89946
Magnitude (Debye)      :      2.28624

                             ****ORCA TERMINATED NORMALLY****
TOTAL RUN TIME: 0 days 0 hours 0 minutes 6 seconds 481 msec
