                         Program Version 3.0.3 - RELEASE   -
|  1> ! RI PBE def2-SVP def2-SVP/J NBO PAL2
|  2> % maxcore 2000
|  3> % output
|  4>     # printlevel mini
|  5>     print[ P_Basis ] 0
|  6>     print[ P_SCFInfo ] 1
|  7>     print[ P_SCFIterInfo ] 1
|  8>     print[ P_OrbEn ] 0
|  9>     print[ P_Cartesian ] 0
| 10> end
| 11> *xyz 0 1
| 12>  C        0.8502980000     0.0478660000     0.0423680000
| 13>  C        2.3313140000     0.2136960000     0.0280850000
| 14>  C        3.1487830000    -0.5259240000    -0.7162980000
| 15>  N        4.5284280000    -0.3931150000    -0.7487880000
| 16>  C        5.3231090000    -1.1900540000    -1.5417040000
| 17>  N        6.6585810000    -0.9222850000    -1.4494310000
| 18>  O        4.8790330000    -2.0583000000    -2.2631080000
| 19>  H        0.4819160000    -0.1955510000     1.0444780000
| 20>  H        0.5370100000    -0.7517620000    -0.6319220000
| 21>  H        0.3392360000     0.9658100000    -0.2664690000
| 22>  H        2.7493800000     0.9886460000     0.6692670000
| 23>  H        2.7918300000    -1.3109180000    -1.3730680000
| 24>  H        4.9505570000     0.3121740000    -0.1695390000
| 25>  H        7.0478580000    -0.2112770000    -0.8606400000
| 26>  H        7.2718770000    -1.4814360000    -2.0115200000
| 27> *
| 28>
| 29>                          ****END OF INPUT****
 Total Charge           Charge          ....    0
 Multiplicity           Mult            ....    1
 Number of Electrons    NEL             ....   54
 Basis Dimension        Dim             ....  138

MULLIKEN ATOMIC CHARGES
-----------------------
   0 C :    0.032881
   1 C :   -0.143895
   2 C :    0.070632
   3 N :   -0.103016
   4 C :    0.061259
   5 N :   -0.094823
   6 O :   -0.229767
   7 H :    0.026614
   8 H :    0.022447
   9 H :    0.027752
  10 H :   -0.018995
  11 H :    0.018566
  12 H :    0.099585
  13 H :    0.101615
  14 H :    0.129146
Sum of atomic charges:   -0.0000000

LOEWDIN ATOMIC CHARGES
----------------------
   0 C :   -0.061035
   1 C :   -0.104192
   2 C :    0.007095
   3 N :    0.010670
   4 C :    0.025964
   5 N :   -0.015031
   6 O :   -0.219240
   7 H :    0.031131
   8 H :    0.032371
   9 H :    0.031456
  10 H :    0.014290
  11 H :    0.032136
  12 H :    0.071785
  13 H :    0.063985
  14 H :    0.078614

  Mayer bond orders larger than 0.1
B(  0-C ,  1-C ) :   1.1016 B(  0-C ,  7-H ) :   0.9499 B(  0-C ,  8-H ) :   0.9641
B(  0-C ,  9-H ) :   0.9501 B(  1-C ,  2-C ) :   1.7955 B(  1-C , 10-H ) :   0.9557
B(  2-C ,  3-N ) :   1.1182 B(  2-C , 11-H ) :   0.9581 B(  3-N ,  4-C ) :   1.0857
B(  3-N , 12-H ) :   0.9226 B(  4-C ,  5-N ) :   1.1871 B(  4-C ,  6-O ) :   2.0525
B(  5-N , 13-H ) :   0.9452 B(  5-N , 14-H ) :   0.9460

FINAL SINGLE POINT ENERGY      -341.320946383914

DIPOLE MOMENT
-------------
                                X             Y             Z
Electronic contribution:      6.44659      -2.67285      -3.07301
Nuclear contribution   :     -5.48607       3.68690       3.86653
                        -----------------------------------------
Total Dipole Moment    :      0.96052       1.01405       0.79351
                        -----------------------------------------
Magnitude (a.u.)       :      1.60641
Magnitude (Debye)      :      4.08318

                             ****ORCA TERMINATED NORMALLY****
TOTAL RUN TIME: 0 days 0 hours 0 minutes 6 seconds 762 msec
