                         Program Version 3.0.3 - RELEASE   -
|  1> ! RI PBE def2-SVP def2-SVP/J NBO PAL2
|  2> % maxcore 2000
|  3> % output
|  4>     # printlevel mini
|  5>     print[ P_Basis ] 0
|  6>     print[ P_SCFInfo ] 1
|  7>     print[ P_SCFIterInfo ] 1
|  8>     print[ P_OrbEn ] 0
|  9>     print[ P_Cartesian ] 0
| 10> end
| 11> *xyz 0 1
| 12>  C        0.9621370000    -0.4324790000     0.0026950000
| 13>  C        2.4473800000    -0.2525220000     0.0949640000
| 14>  C        3.1577790000    -0.7652670000     1.1032660000
| 15>  N        3.1182520000     0.4648980000    -0.8926260000
| 16>  C        2.5058020000     0.9661110000    -1.8950280000
| 17>  N        3.2043510000     1.7317340000    -2.7708150000
| 18>  O        4.5780550000     1.7012850000    -2.6098090000
| 19>  H        0.5943440000    -1.0063980000     0.8520780000
| 20>  H        0.6790050000    -0.9645890000    -0.9116450000
| 21>  H        0.4429960000     0.5315090000    -0.0054920000
| 22>  H        2.6813830000    -1.3338030000     1.8909980000
| 23>  H        4.2295560000    -0.6193150000     1.1482220000
| 24>  H        1.4416760000     0.8891830000    -2.1235430000
| 25>  H        2.9598910000     1.6697630000    -3.7486300000
| 26>  H        4.6616120000     1.1433900000    -1.8047340000
| 27> *
| 28>
| 29>                          ****END OF INPUT****
 Total Charge           Charge          ....    0
 Multiplicity           Mult            ....    1
 Number of Electrons    NEL             ....   54
 Basis Dimension        Dim             ....  138

MULLIKEN ATOMIC CHARGES
-----------------------
   0 C :    0.056063
   1 C :   -0.110882
   2 C :   -0.028528
   3 N :   -0.188552
   4 C :    0.038590
   5 N :    0.049636
   6 O :   -0.218675
   7 H :    0.017034
   8 H :    0.033062
   9 H :    0.036135
  10 H :    0.003035
  11 H :    0.010966
  12 H :    0.000570
  13 H :    0.138028
  14 H :    0.163518
Sum of atomic charges:   -0.0000000

LOEWDIN ATOMIC CHARGES
----------------------
   0 C :   -0.069095
   1 C :   -0.016334
   2 C :   -0.087026
   3 N :   -0.133708
   4 C :    0.002037
   5 N :    0.103978
   6 O :   -0.079333
   7 H :    0.036975
   8 H :    0.033367
   9 H :    0.034963
  10 H :    0.020079
  11 H :    0.022478
  12 H :    0.006040
  13 H :    0.077168
  14 H :    0.048411

  Mayer bond orders larger than 0.1
B(  0-C ,  1-C ) :   1.0700 B(  0-C ,  7-H ) :   0.9381 B(  0-C ,  8-H ) :   0.9368
B(  0-C ,  9-H ) :   0.9374 B(  1-C ,  2-C ) :   1.8779 B(  1-C ,  3-N ) :   1.2039
B(  2-C , 10-H ) :   0.9274 B(  2-C , 11-H ) :   0.9322 B(  3-N ,  4-C ) :   1.6263
B(  3-N , 14-H ) :   0.1439 B(  4-C ,  5-N ) :   1.2391 B(  4-C , 12-H ) :   0.9330
B(  5-N ,  6-O ) :   1.0189 B(  5-N , 13-H ) :   0.9262 B(  6-O , 14-H ) :   0.9137

FINAL SINGLE POINT ENERGY      -341.221993165279

DIPOLE MOMENT
-------------
                                X             Y             Z
Electronic contribution:      4.09387       3.41079      -4.07978
Nuclear contribution   :     -5.01057      -3.62006       3.51360
                        -----------------------------------------
Total Dipole Moment    :     -0.91670      -0.20927      -0.56618
                        -----------------------------------------
Magnitude (a.u.)       :      1.09759
Magnitude (Debye)      :      2.78984

                             ****ORCA TERMINATED NORMALLY****
TOTAL RUN TIME: 0 days 0 hours 0 minutes 7 seconds 139 msec
