                         Program Version 3.0.3 - RELEASE   -
|  1> ! RI PBE def2-SVP def2-SVP/J NBO PAL2
|  2> % maxcore 2000
|  3> % output
|  4>     # printlevel mini
|  5>     print[ P_Basis ] 0
|  6>     print[ P_SCFInfo ] 1
|  7>     print[ P_SCFIterInfo ] 1
|  8>     print[ P_OrbEn ] 0
|  9>     print[ P_Cartesian ] 0
| 10> end
| 11> *xyz 0 1
| 12>  C        0.9784980000    -0.1062410000     0.1256380000
| 13>  C        2.3104900000     0.5191570000     0.3735240000
| 14>  C        2.6162880000     1.1098820000     1.5322530000
| 15>  N        3.2683740000     0.4843180000    -0.6429370000
| 16>  C        3.1746990000    -0.0653100000    -1.9029800000
| 17>  N        4.3157630000     0.0850610000    -2.6424560000
| 18>  O        2.1976110000    -0.6311590000    -2.3440350000
| 19>  H        0.3630430000     0.0133270000     1.0167060000
| 20>  H        1.0752610000    -1.1663260000    -0.1116210000
| 21>  H        0.4774330000     0.3513770000    -0.7281630000
| 22>  H        1.8912660000     1.1488880000     2.3320410000
| 23>  H        3.5848090000     1.5642650000     1.7117210000
| 24>  H        4.1403840000     0.9259540000    -0.4032100000
| 25>  H        5.1446160000     0.5451840000    -2.3180210000
| 26>  H        4.3017460000    -0.2974590000    -3.5689700000
| 27> *
| 28>
| 29>                          ****END OF INPUT****
 Total Charge           Charge          ....    0
 Multiplicity           Mult            ....    1
 Number of Electrons    NEL             ....   54
 Basis Dimension        Dim             ....  138

MULLIKEN ATOMIC CHARGES
-----------------------
   0 C :    0.110107
   1 C :   -0.118964
   2 C :   -0.075026
   3 N :   -0.072246
   4 C :    0.065960
   5 N :   -0.105315
   6 O :   -0.228818
   7 H :    0.007704
   8 H :    0.045279
   9 H :    0.041714
  10 H :    0.010739
  11 H :   -0.010649
  12 H :    0.097645
  13 H :    0.102222
  14 H :    0.129648
Sum of atomic charges:   -0.0000000

LOEWDIN ATOMIC CHARGES
----------------------
   0 C :   -0.056302
   1 C :    0.019812
   2 C :   -0.144619
   3 N :    0.011826
   4 C :    0.028560
   5 N :   -0.017314
   6 O :   -0.211924
   7 H :    0.031045
   8 H :    0.043224
   9 H :    0.042215
  10 H :    0.024525
  11 H :    0.012364
  12 H :    0.074305
  13 H :    0.063888
  14 H :    0.078394

  Mayer bond orders larger than 0.1
B(  0-C ,  1-C ) :   1.1097 B(  0-C ,  7-H ) :   0.9337 B(  0-C ,  8-H ) :   0.9271
B(  0-C ,  9-H ) :   0.9282 B(  1-C ,  2-C ) :   1.8820 B(  1-C ,  3-N ) :   1.1208
B(  2-C , 10-H ) :   0.9286 B(  2-C , 11-H ) :   0.9333 B(  3-N ,  4-C ) :   1.0881
B(  3-N , 12-H ) :   0.9105 B(  4-C ,  5-N ) :   1.1828 B(  4-C ,  6-O ) :   2.0455
B(  5-N , 13-H ) :   0.9453 B(  5-N , 14-H ) :   0.9463

FINAL SINGLE POINT ENERGY      -341.318573545672

DIPOLE MOMENT
-------------
                                X             Y             Z
Electronic contribution:      1.99869      -0.99906      -4.38779
Nuclear contribution   :     -0.67394       1.49720       4.32907
                        -----------------------------------------
Total Dipole Moment    :      1.32474       0.49813      -0.05872
                        -----------------------------------------
Magnitude (a.u.)       :      1.41652
Magnitude (Debye)      :      3.60050

                             ****ORCA TERMINATED NORMALLY****
TOTAL RUN TIME: 0 days 0 hours 0 minutes 6 seconds 923 msec
