                         Program Version 3.0.3 - RELEASE   -
|  1> ! RI PBE def2-SVP def2-SVP/J NBO PAL2
|  2> % maxcore 2000
|  3> % output
|  4>     # printlevel mini
|  5>     print[ P_Basis ] 0
|  6>     print[ P_SCFInfo ] 1
|  7>     print[ P_SCFIterInfo ] 1
|  8>     print[ P_OrbEn ] 0
|  9>     print[ P_Cartesian ] 0
| 10> end
| 11> *xyz 0 1
| 12>  C        0.9725480000     0.0004170000    -0.0732370000
| 13>  C        2.4533790000     0.0689210000     0.1536380000
| 14>  C        3.0553010000     1.0307210000     0.8819560000
| 15>  N        2.4689690000     2.0757190000     1.5227970000
| 16>  C        3.2442780000    -0.9819210000    -0.4659670000
| 17>  N        4.5110170000    -1.0766530000    -0.3732540000
| 18>  O        4.9826700000    -2.1853430000    -1.0724910000
| 19>  H        0.4313640000     0.8135900000     0.4135380000
| 20>  H        0.5500710000    -0.9346340000     0.3094680000
| 21>  H        0.7266030000     0.0501480000    -1.1392110000
| 22>  H        4.1345730000     0.9906730000     0.9855360000
| 23>  H        1.4781670000     2.2214050000     1.5029640000
| 24>  H        3.0244980000     2.7299440000     2.0359880000
| 25>  H        2.7038940000    -1.7345840000    -1.0470080000
| 26>  H        5.9304590000    -2.1417030000    -0.9243580000
| 27> *
| 28>
| 29>                          ****END OF INPUT****
 Total Charge           Charge          ....    0
 Multiplicity           Mult            ....    1
 Number of Electrons    NEL             ....   54
 Basis Dimension        Dim             ....  138

MULLIKEN ATOMIC CHARGES
-----------------------
   0 C :    0.055405
   1 C :   -0.131049
   2 C :   -0.013820
   3 N :   -0.058981
   4 C :    0.003264
   5 N :   -0.070588
   6 O :   -0.182764
   7 H :   -0.013353
   8 H :    0.030087
   9 H :    0.030373
  10 H :    0.000504
  11 H :    0.100061
  12 H :    0.119442
  13 H :   -0.030755
  14 H :    0.162175
Sum of atomic charges:   -0.0000000

LOEWDIN ATOMIC CHARGES
----------------------
   0 C :   -0.056591
   1 C :   -0.144686
   2 C :    0.016654
   3 N :    0.018307
   4 C :   -0.040875
   5 N :   -0.049595
   6 O :   -0.065179
   7 H :    0.019304
   8 H :    0.033747
   9 H :    0.033623
  10 H :    0.026987
  11 H :    0.065239
  12 H :    0.073714
  13 H :    0.002076
  14 H :    0.067275

  Mayer bond orders larger than 0.1
B(  0-C ,  1-C ) :   1.0916 B(  0-C ,  7-H ) :   0.9499 B(  0-C ,  8-H ) :   0.9473
B(  0-C ,  9-H ) :   0.9477 B(  1-C ,  2-C ) :   1.6720 B(  1-C ,  4-C ) :   1.1117
B(  2-C ,  3-N ) :   1.2769 B(  2-C , 10-H ) :   0.9215 B(  3-N , 11-H ) :   0.9565
B(  3-N , 12-H ) :   0.9569 B(  4-C ,  5-N ) :   1.8403 B(  4-C , 13-H ) :   0.9372
B(  5-N ,  6-O ) :   0.9653 B(  6-O , 14-H ) :   0.9795

FINAL SINGLE POINT ENERGY      -341.231393486747

DIPOLE MOMENT
-------------
                                X             Y             Z
Electronic contribution:      5.35093      -2.18592      -0.83039
Nuclear contribution   :     -5.65826       3.16404       1.46429
                        -----------------------------------------
Total Dipole Moment    :     -0.30733       0.97812       0.63390
                        -----------------------------------------
Magnitude (a.u.)       :      1.20540
Magnitude (Debye)      :      3.06390

                             ****ORCA TERMINATED NORMALLY****
TOTAL RUN TIME: 0 days 0 hours 0 minutes 6 seconds 937 msec
