                         Program Version 3.0.3 - RELEASE   -
|  1> ! RI PBE def2-SVP def2-SVP/J NBO PAL2
|  2> % maxcore 2000
|  3> % output
|  4>     # printlevel mini
|  5>     print[ P_Basis ] 0
|  6>     print[ P_SCFInfo ] 1
|  7>     print[ P_SCFIterInfo ] 1
|  8>     print[ P_OrbEn ] 0
|  9>     print[ P_Cartesian ] 0
| 10> end
| 11> *xyz 0 1
| 12>  C        0.9380950000    -0.0897950000    -0.0987960000
| 13>  C        2.4294330000    -0.0143680000    -0.0094680000
| 14>  C        3.0458920000     0.6905550000     0.9576520000
| 15>  N        2.4169040000     1.3114100000     1.9991120000
| 16>  C        3.2030790000    -0.6678640000    -1.0814150000
| 17>  N        4.5392390000    -0.8985900000    -0.8422910000
| 18>  O        2.7046610000    -0.9664180000    -2.1525660000
| 19>  H        0.4742720000     0.9016070000    -0.0330320000
| 20>  H        0.5092580000    -0.7083820000     0.6975990000
| 21>  H        0.6565710000    -0.5238670000    -1.0574010000
| 22>  H        4.1250160000     0.8012520000     0.9595660000
| 23>  H        1.4172040000     1.4142910000     1.9465550000
| 24>  H        2.8951860000     2.0688160000     2.4533310000
| 25>  H        4.8348590000    -1.0861660000     0.0995220000
| 26>  H        4.9932310000    -1.4404910000    -1.5593700000
| 27> *
| 28>
| 29>                          ****END OF INPUT****
 Total Charge           Charge          ....    0
 Multiplicity           Mult            ....    1
 Number of Electrons    NEL             ....   54
 Basis Dimension        Dim             ....  138

MULLIKEN ATOMIC CHARGES
-----------------------
   0 C :    0.044914
   1 C :   -0.177456
   2 C :   -0.037867
   3 N :   -0.065124
   4 C :    0.034253
   5 N :   -0.082626
   6 O :   -0.213942
   7 H :    0.011489
   8 H :    0.025785
   9 H :    0.031615
  10 H :   -0.007256
  11 H :    0.107131
  12 H :    0.117088
  13 H :    0.104471
  14 H :    0.107526
Sum of atomic charges:   -0.0000000

LOEWDIN ATOMIC CHARGES
----------------------
   0 C :   -0.060728
   1 C :   -0.146552
   2 C :    0.004041
   3 N :    0.011897
   4 C :    0.023692
   5 N :   -0.016764
   6 O :   -0.199662
   7 H :    0.022352
   8 H :    0.029416
   9 H :    0.039197
  10 H :    0.020165
  11 H :    0.070022
  12 H :    0.073111
  13 H :    0.061689
  14 H :    0.068123

  Mayer bond orders larger than 0.1
B(  0-C ,  1-C ) :   1.1180 B(  0-C ,  7-H ) :   0.9432 B(  0-C ,  8-H ) :   0.9485
B(  0-C ,  9-H ) :   0.9232 B(  1-C ,  2-C ) :   1.6649 B(  1-C ,  4-C ) :   0.9976
B(  2-C ,  3-N ) :   1.2746 B(  2-C , 10-H ) :   0.9342 B(  3-N , 11-H ) :   0.9510
B(  3-N , 12-H ) :   0.9528 B(  4-C ,  5-N ) :   1.2089 B(  4-C ,  6-O ) :   2.0646
B(  5-N , 13-H ) :   0.9400 B(  5-N , 14-H ) :   0.9396

FINAL SINGLE POINT ENERGY      -341.316832285534

DIPOLE MOMENT
-------------
                                X             Y             Z
Electronic contribution:      2.53782      -1.32968      -2.90608
Nuclear contribution   :     -2.02846       2.02031       4.57992
                        -----------------------------------------
Total Dipole Moment    :      0.50936       0.69063       1.67384
                        -----------------------------------------
Magnitude (a.u.)       :      1.88100
Magnitude (Debye)      :      4.78113

                             ****ORCA TERMINATED NORMALLY****
TOTAL RUN TIME: 0 days 0 hours 0 minutes 6 seconds 949 msec
