                         Program Version 3.0.3 - RELEASE   -
|  1> ! RI PBE def2-SVP def2-SVP/J NBO PAL2
|  2> % maxcore 2000
|  3> % output
|  4>     # printlevel mini
|  5>     print[ P_Basis ] 0
|  6>     print[ P_SCFInfo ] 1
|  7>     print[ P_SCFIterInfo ] 1
|  8>     print[ P_OrbEn ] 0
|  9>     print[ P_Cartesian ] 0
| 10> end
| 11> *xyz 0 1
| 12>  C        1.0621950000    -0.0220070000     0.0000180000
| 13>  C        2.5866270000     0.0204100000     0.1040190000
| 14>  C        3.0574800000    -0.8178010000     1.2878440000
| 15>  N        3.1230430000    -0.4356070000    -1.1809760000
| 16>  C        3.0027210000     1.4611710000     0.2279990000
| 17>  N        3.6253190000     1.8863260000     1.2417330000
| 18>  O        3.9008430000     3.2407900000     1.1482400000
| 19>  H        0.7274460000    -1.0513560000    -0.1603790000
| 20>  H        0.7162830000     0.5827630000    -0.8404130000
| 21>  H        0.5992080000     0.3465850000     0.9168280000
| 22>  H        2.7367100000    -1.8537300000     1.1485840000
| 23>  H        2.6494370000    -0.4511640000     2.2315000000
| 24>  H        4.1458950000    -0.7980920000     1.3696580000
| 25>  H        2.7615470000    -1.3580150000    -1.3964170000
| 26>  H        4.1323340000    -0.5157190000    -1.1283240000
| 27>  H        2.7518590000     2.1242190000    -0.6024500000
| 28>  H        4.3704460000     3.4227970000     1.9667360000
| 29> *
| 30>
| 31>                          ****END OF INPUT****
 Total Charge           Charge          ....    0
 Multiplicity           Mult            ....    1
 Number of Electrons    NEL             ....   56
 Basis Dimension        Dim             ....  148

MULLIKEN ATOMIC CHARGES
-----------------------
   0 C :    0.063951
   1 C :   -0.255112
   2 C :    0.116571
   3 N :   -0.158247
   4 C :    0.033521
   5 N :   -0.039781
   6 O :   -0.173903
   7 H :    0.009392
   8 H :    0.024631
   9 H :    0.023443
  10 H :   -0.000947
  11 H :    0.010673
  12 H :    0.009550
  13 H :    0.081861
  14 H :    0.086759
  15 H :   -0.000685
  16 H :    0.168322
Sum of atomic charges:   -0.0000000

LOEWDIN ATOMIC CHARGES
----------------------
   0 C :   -0.045804
   1 C :   -0.037641
   2 C :   -0.063781
   3 N :   -0.084651
   4 C :   -0.025323
   5 N :   -0.017616
   6 O :   -0.056400
   7 H :    0.023265
   8 H :    0.028131
   9 H :    0.029817
  10 H :    0.019055
  11 H :    0.027683
  12 H :    0.023290
  13 H :    0.048887
  14 H :    0.051250
  15 H :    0.007987
  16 H :    0.071853

  Mayer bond orders larger than 0.1
B(  0-C ,  1-C ) :   1.0402 B(  0-C ,  7-H ) :   0.9493 B(  0-C ,  8-H ) :   0.9554
B(  0-C ,  9-H ) :   0.9617 B(  1-C ,  2-C ) :   1.0755 B(  1-C ,  3-N ) :   1.0194
B(  1-C ,  4-C ) :   0.9674 B(  2-C , 10-H ) :   0.9505 B(  2-C , 11-H ) :   0.9350
B(  2-C , 12-H ) :   0.9425 B(  3-N , 13-H ) :   0.9591 B(  3-N , 14-H ) :   0.9661
B(  4-C ,  5-N ) :   1.9301 B(  4-C ,  6-O ) :   0.1136 B(  4-C , 15-H ) :   0.9468
B(  5-N ,  6-O ) :   0.9835 B(  6-O , 16-H ) :   0.9764

FINAL SINGLE POINT ENERGY      -342.433067938745

DIPOLE MOMENT
-------------
                                X             Y             Z
Electronic contribution:      3.58231       6.52778       0.84121
Nuclear contribution   :     -3.46798      -6.92248      -0.58206
                        -----------------------------------------
Total Dipole Moment    :      0.11434      -0.39470       0.25916
                        -----------------------------------------
Magnitude (a.u.)       :      0.48582
Magnitude (Debye)      :      1.23485

                             ****ORCA TERMINATED NORMALLY****
TOTAL RUN TIME: 0 days 0 hours 0 minutes 7 seconds 981 msec
