                         Program Version 3.0.3 - RELEASE   -
|  1> ! RI PBE def2-SVP def2-SVP/J NBO PAL2
|  2> % maxcore 2000
|  3> % output
|  4>     # printlevel mini
|  5>     print[ P_Basis ] 0
|  6>     print[ P_SCFInfo ] 1
|  7>     print[ P_SCFIterInfo ] 1
|  8>     print[ P_OrbEn ] 0
|  9>     print[ P_Cartesian ] 0
| 10> end
| 11> *xyz 0 1
| 12>  C        1.0782020000     0.1237910000     0.1895010000
| 13>  C        2.5976400000    -0.0273900000     0.2260990000
| 14>  C        3.0644240000    -0.4278190000     1.6241930000
| 15>  N        2.9626650000    -1.0917050000    -0.6884460000
| 16>  C        3.2657470000     1.3066100000    -0.1855950000
| 17>  N        2.9999490000     2.3827500000     0.5943780000
| 18>  O        3.9903480000     1.3872840000    -1.1558740000
| 19>  H        0.6203760000    -0.8370170000     0.4308810000
| 20>  H        0.7409440000     0.4229860000    -0.8064390000
| 21>  H        0.7173050000     0.8683180000     0.9020290000
| 22>  H        2.6270750000    -1.3942020000     1.8808140000
| 23>  H        2.7702330000     0.2985830000     2.3844870000
| 24>  H        4.1528070000    -0.5249830000     1.6578770000
| 25>  H        3.9739080000    -1.1717090000    -0.7150970000
| 26>  H        2.7047250000    -0.8196910000    -1.6314180000
| 27>  H        2.4041200000     2.3333550000     1.3984650000
| 28>  H        3.4202300000     3.2629500000     0.3512360000
| 29> *
| 30>
| 31>                          ****END OF INPUT****
 Total Charge           Charge          ....    0
 Multiplicity           Mult            ....    1
 Number of Electrons    NEL             ....   56
 Basis Dimension        Dim             ....  148

MULLIKEN ATOMIC CHARGES
-----------------------
   0 C :    0.088529
   1 C :   -0.301355
   2 C :    0.081437
   3 N :   -0.113900
   4 C :   -0.000905
   5 N :   -0.035816
   6 O :   -0.190922
   7 H :    0.029575
   8 H :    0.015623
   9 H :   -0.003141
  10 H :    0.025833
  11 H :   -0.001960
  12 H :    0.018656
  13 H :    0.083407
  14 H :    0.084160
  15 H :    0.106069
  16 H :    0.114710
Sum of atomic charges:   -0.0000000

LOEWDIN ATOMIC CHARGES
----------------------
   0 C :   -0.048277
   1 C :   -0.060184
   2 C :   -0.050167
   3 N :   -0.074581
   4 C :    0.016529
   5 N :    0.016239
   6 O :   -0.193069
   7 H :    0.031650
   8 H :    0.028296
   9 H :    0.017424
  10 H :    0.031323
  11 H :    0.017610
  12 H :    0.028855
  13 H :    0.050414
  14 H :    0.050735
  15 H :    0.064881
  16 H :    0.072322

  Mayer bond orders larger than 0.1
B(  0-C ,  1-C ) :   1.0460 B(  0-C ,  7-H ) :   0.9540 B(  0-C ,  8-H ) :   0.9524
B(  0-C ,  9-H ) :   0.9535 B(  1-C ,  2-C ) :   1.0493 B(  1-C ,  3-N ) :   1.1148
B(  1-C ,  4-C ) :   0.8313 B(  2-C , 10-H ) :   0.9509 B(  2-C , 11-H ) :   0.9521
B(  2-C , 12-H ) :   0.9516 B(  3-N , 13-H ) :   0.9601 B(  3-N , 14-H ) :   0.9583
B(  4-C ,  5-N ) :   1.2481 B(  4-C ,  6-O ) :   2.1758 B(  5-N , 15-H ) :   0.9421
B(  5-N , 16-H ) :   0.9311

FINAL SINGLE POINT ENERGY      -342.519262889381

DIPOLE MOMENT
-------------
                                X             Y             Z
Electronic contribution:      3.65602       3.32955      -3.78231
Nuclear contribution   :     -4.15142      -2.69979       4.70336
                        -----------------------------------------
Total Dipole Moment    :     -0.49540       0.62977       0.92106
                        -----------------------------------------
Magnitude (a.u.)       :      1.22081
Magnitude (Debye)      :      3.10305

                             ****ORCA TERMINATED NORMALLY****
TOTAL RUN TIME: 0 days 0 hours 0 minutes 8 seconds 169 msec
