                         Program Version 3.0.3 - RELEASE   -
|  1> ! RI PBE def2-SVP def2-SVP/J NBO PAL2
|  2> % maxcore 2000
|  3> % output
|  4>     # printlevel mini
|  5>     print[ P_Basis ] 0
|  6>     print[ P_SCFInfo ] 1
|  7>     print[ P_SCFIterInfo ] 1
|  8>     print[ P_OrbEn ] 0
|  9>     print[ P_Cartesian ] 0
| 10> end
| 11> *xyz 0 1
| 12>  C        1.2465970000     0.3491010000    -0.1472700000
| 13>  C        2.5378180000     0.0621380000     0.6035380000
| 14>  C        2.6263410000     0.8843090000     1.8809490000
| 15>  N        2.6005190000    -1.3465670000     0.9299950000
| 16>  C        3.5764720000    -2.0374180000     0.5143790000
| 17>  N        3.7002930000    -3.3462710000     0.8912540000
| 18>  O        2.5713140000    -3.8545120000     1.5235190000
| 19>  H        1.1719530000     1.4105940000    -0.3953190000
| 20>  H        0.3853690000     0.0768780000     0.4680020000
| 21>  H        1.1958890000    -0.2265340000    -1.0737790000
| 22>  H        3.3859740000     0.3384890000    -0.0454720000
| 23>  H        1.8045000000     0.6242040000     2.5526360000
| 24>  H        2.5664920000     1.9525150000     1.6582270000
| 25>  H        3.5646170000     0.6923690000     2.4052420000
| 26>  H        4.3985280000    -1.6723720000    -0.1102670000
| 27>  H        3.9961440000    -3.9827670000     0.1625520000
| 28>  H        1.9942720000    -3.0614570000     1.5608140000
| 29> *
| 30>
| 31>                          ****END OF INPUT****
 Total Charge           Charge          ....    0
 Multiplicity           Mult            ....    1
 Number of Electrons    NEL             ....   56
 Basis Dimension        Dim             ....  148

MULLIKEN ATOMIC CHARGES
-----------------------
   0 C :    0.035687
   1 C :   -0.044796
   2 C :    0.025821
   3 N :   -0.243867
   4 C :    0.043064
   5 N :    0.030440
   6 O :   -0.233080
   7 H :    0.015890
   8 H :    0.018799
   9 H :    0.012223
  10 H :   -0.013217
  11 H :    0.023279
  12 H :    0.018450
  13 H :    0.017899
  14 H :    0.002364
  15 H :    0.135234
  16 H :    0.155811
Sum of atomic charges:   -0.0000000

LOEWDIN ATOMIC CHARGES
----------------------
   0 C :   -0.062058
   1 C :    0.001132
   2 C :   -0.063804
   3 N :   -0.147934
   4 C :   -0.002193
   5 N :    0.080826
   6 O :   -0.089973
   7 H :    0.026549
   8 H :    0.026848
   9 H :    0.023877
  10 H :    0.006087
  11 H :    0.028050
  12 H :    0.026419
  13 H :    0.025750
  14 H :    0.003558
  15 H :    0.073528
  16 H :    0.043339

  Mayer bond orders larger than 0.1
B(  0-C ,  1-C ) :   1.0831 B(  0-C ,  7-H ) :   0.9572 B(  0-C ,  8-H ) :   0.9566
B(  0-C ,  9-H ) :   0.9571 B(  1-C ,  2-C ) :   1.0803 B(  1-C ,  3-N ) :   1.0022
B(  1-C , 10-H ) :   0.8963 B(  2-C , 11-H ) :   0.9571 B(  2-C , 12-H ) :   0.9573
B(  2-C , 13-H ) :   0.9570 B(  3-N ,  4-C ) :   1.7261 B(  3-N ,  5-N ) :   0.1022
B(  3-N , 16-H ) :   0.1448 B(  4-C ,  5-N ) :   1.2088 B(  4-C , 14-H ) :   0.9337
B(  5-N ,  6-O ) :   1.0142 B(  5-N , 15-H ) :   0.9270 B(  6-O , 16-H ) :   0.9192

FINAL SINGLE POINT ENERGY      -342.434314841962

DIPOLE MOMENT
-------------
                                X             Y             Z
Electronic contribution:      2.60355      -8.88184       0.85421
Nuclear contribution   :     -2.21430       9.21954      -1.64523
                        -----------------------------------------
Total Dipole Moment    :      0.38925       0.33770      -0.79102
                        -----------------------------------------
Magnitude (a.u.)       :      0.94407
Magnitude (Debye)      :      2.39963

                             ****ORCA TERMINATED NORMALLY****
TOTAL RUN TIME: 0 days 0 hours 0 minutes 7 seconds 404 msec
