                         Program Version 3.0.3 - RELEASE   -
|  1> ! RI PBE def2-SVP def2-SVP/J NBO PAL2
|  2> % maxcore 2000
|  3> % output
|  4>     # printlevel mini
|  5>     print[ P_Basis ] 0
|  6>     print[ P_SCFInfo ] 1
|  7>     print[ P_SCFIterInfo ] 1
|  8>     print[ P_OrbEn ] 0
|  9>     print[ P_Cartesian ] 0
| 10> end
| 11> *xyz 0 1
| 12>  C        0.9361640000     0.1634810000    -0.0199590000
| 13>  C        2.4492090000     0.0655360000     0.0563450000
| 14>  C        2.9796940000     0.4477010000     1.4312150000
| 15>  N        2.8629930000    -1.2712570000    -0.3345120000
| 16>  C        4.1268180000    -1.4959740000    -0.8081320000
| 17>  N        4.4523600000    -2.8327250000    -0.9414930000
| 18>  O        4.9098560000    -0.6077100000    -1.0799360000
| 19>  H        0.6050930000     1.1724160000     0.2333390000
| 20>  H        0.4619830000    -0.5240670000     0.6887660000
| 21>  H        0.5771180000    -0.0772820000    -1.0223280000
| 22>  H        2.8948370000     0.7351140000    -0.6827440000
| 23>  H        2.5687050000    -0.2104760000     2.2034480000
| 24>  H        2.7010220000     1.4742290000     1.6821090000
| 25>  H        4.0679090000     0.3738890000     1.4513490000
| 26>  H        2.4108930000    -2.0350170000     0.1428270000
| 27>  H        3.7092680000    -3.4797140000    -1.1479550000
| 28>  H        5.2913080000    -2.9757320000    -1.4789460000
| 29> *
| 30>
| 31>                          ****END OF INPUT****
 Total Charge           Charge          ....    0
 Multiplicity           Mult            ....    1
 Number of Electrons    NEL             ....   56
 Basis Dimension        Dim             ....  148

MULLIKEN ATOMIC CHARGES
-----------------------
   0 C :    0.021672
   1 C :   -0.036809
   2 C :    0.016384
   3 N :   -0.166025
   4 C :    0.056764
   5 N :   -0.110812
   6 O :   -0.241634
   7 H :    0.020892
   8 H :    0.006029
   9 H :    0.022238
  10 H :    0.030213
  11 H :    0.001064
  12 H :    0.015884
  13 H :    0.042777
  14 H :    0.099032
  15 H :    0.103990
  16 H :    0.118342
Sum of atomic charges:   -0.0000000

LOEWDIN ATOMIC CHARGES
----------------------
   0 C :   -0.062215
   1 C :    0.011978
   2 C :   -0.069364
   3 N :   -0.026778
   4 C :    0.018271
   5 N :   -0.037589
   6 O :   -0.223664
   7 H :    0.030678
   8 H :    0.020215
   9 H :    0.026707
  10 H :    0.033132
  11 H :    0.018750
  12 H :    0.027779
  13 H :    0.033599
  14 H :    0.062350
  15 H :    0.063195
  16 H :    0.072955

  Mayer bond orders larger than 0.1
B(  0-C ,  1-C ) :   1.0843 B(  0-C ,  7-H ) :   0.9618 B(  0-C ,  8-H ) :   0.9549
B(  0-C ,  9-H ) :   0.9629 B(  1-C ,  2-C ) :   1.0970 B(  1-C ,  3-N ) :   0.9774
B(  1-C , 10-H ) :   0.9024 B(  2-C , 11-H ) :   0.9516 B(  2-C , 12-H ) :   0.9576
B(  2-C , 13-H ) :   0.9562 B(  3-N ,  4-C ) :   1.1466 B(  3-N , 14-H ) :   0.9241
B(  4-C ,  5-N ) :   1.1562 B(  4-C ,  6-O ) :   2.0251 B(  5-N , 15-H ) :   0.9462
B(  5-N , 16-H ) :   0.9489

FINAL SINGLE POINT ENERGY      -342.534921485765

DIPOLE MOMENT
-------------
                                X             Y             Z
Electronic contribution:      5.83180      -3.33821      -4.07690
Nuclear contribution   :     -6.79058       2.37628       4.23481
                        -----------------------------------------
Total Dipole Moment    :     -0.95879      -0.96193       0.15791
                        -----------------------------------------
Magnitude (a.u.)       :      1.36730
Magnitude (Debye)      :      3.47541

                             ****ORCA TERMINATED NORMALLY****
TOTAL RUN TIME: 0 days 0 hours 0 minutes 7 seconds 948 msec
