                         Program Version 3.0.3 - RELEASE   -
|  1> ! RI PBE def2-SVP def2-SVP/J NBO PAL2
|  2> % maxcore 2000
|  3> % output
|  4>     # printlevel mini
|  5>     print[ P_Basis ] 0
|  6>     print[ P_SCFInfo ] 1
|  7>     print[ P_SCFIterInfo ] 1
|  8>     print[ P_OrbEn ] 0
|  9>     print[ P_Cartesian ] 0
| 10> end
| 11> *xyz 0 1
| 12>  C        0.9051770000    -0.4122270000     0.1239590000
| 13>  C        2.1813660000     0.3177600000    -0.2980690000
| 14>  C        3.2823720000     0.0577960000     0.6164000000
| 15>  N        4.1747900000    -0.1716620000     1.3055260000
| 16>  C        2.5209460000    -0.0052560000    -1.7670510000
| 17>  N        3.7755350000    -0.4191060000    -2.0211400000
| 18>  O        1.6687110000     0.1359400000    -2.6137780000
| 19>  H        0.5822220000    -0.0800490000     1.1105490000
| 20>  H        1.0692840000    -1.4902300000     0.1560810000
| 21>  H        0.1264950000    -0.1963940000    -0.6060920000
| 22>  H        1.9935210000     1.3973610000    -0.2856980000
| 23>  H        4.4574120000    -0.5433240000    -1.2929270000
| 24>  H        4.0219690000    -0.6275100000    -2.9734720000
| 25> *
| 26>
| 27>                          ****END OF INPUT****
 Total Charge           Charge          ....    0
 Multiplicity           Mult            ....    1
 Number of Electrons    NEL             ....   52
 Basis Dimension        Dim             ....  128

MULLIKEN ATOMIC CHARGES
-----------------------
   0 C :    0.016186
   1 C :   -0.059279
   2 C :   -0.264619
   3 N :    0.052983
   4 C :   -0.010760
   5 N :   -0.018977
   6 O :   -0.185907
   7 H :    0.039307
   8 H :    0.045224
   9 H :    0.057661
  10 H :    0.075429
  11 H :    0.127113
  12 H :    0.125637
Sum of atomic charges:   -0.0000000

LOEWDIN ATOMIC CHARGES
----------------------
   0 C :   -0.033076
   1 C :   -0.090332
   2 C :   -0.049296
   3 N :   -0.069946
   4 C :    0.034621
   5 N :    0.032387
   6 O :   -0.174421
   7 H :    0.035755
   8 H :    0.037276
   9 H :    0.040410
  10 H :    0.074541
  11 H :    0.080341
  12 H :    0.081741

  Mayer bond orders larger than 0.1
B(  0-C ,  1-C ) :   1.0840 B(  0-C ,  7-H ) :   0.9619 B(  0-C ,  8-H ) :   0.9635
B(  0-C ,  9-H ) :   0.9496 B(  1-C ,  2-C ) :   1.0305 B(  1-C ,  4-C ) :   0.8483
B(  1-C , 10-H ) :   0.8465 B(  2-C ,  3-N ) :   3.0212 B(  4-C ,  5-N ) :   1.3440
B(  4-C ,  6-O ) :   2.1026 B(  5-N ,  6-O ) :   0.1091 B(  5-N , 11-H ) :   0.9182
B(  5-N , 12-H ) :   0.9341

FINAL SINGLE POINT ENERGY      -340.112951137724

DIPOLE MOMENT
-------------
                                X             Y             Z
Electronic contribution:      3.36534       0.89696      -0.74823
Nuclear contribution   :     -3.26229      -0.97605       0.43789
                        -----------------------------------------
Total Dipole Moment    :      0.10305      -0.07909      -0.31034
                        -----------------------------------------
Magnitude (a.u.)       :      0.33643
Magnitude (Debye)      :      0.85513

                             ****ORCA TERMINATED NORMALLY****
TOTAL RUN TIME: 0 days 0 hours 0 minutes 5 seconds 462 msec
