                         Program Version 3.0.3 - RELEASE   -
|  1> ! RI PBE def2-SVP def2-SVP/J NBO PAL2
|  2> % maxcore 2000
|  3> % output
|  4>     # printlevel mini
|  5>     print[ P_Basis ] 0
|  6>     print[ P_SCFInfo ] 1
|  7>     print[ P_SCFIterInfo ] 1
|  8>     print[ P_OrbEn ] 0
|  9>     print[ P_Cartesian ] 0
| 10> end
| 11> *xyz 0 1
| 12>  C        0.9855680000    -0.0459670000    -0.1507350000
| 13>  C        2.4720040000    -0.1031010000     0.1859010000
| 14>  C        2.7990230000     0.7026970000     1.4469250000
| 15>  N        2.4715580000     2.1072020000     1.2650120000
| 16>  C        2.9188470000    -1.5155980000     0.3592030000
| 17>  N        3.8361380000    -1.9953210000    -0.3678800000
| 18>  O        4.1063050000    -3.3184860000    -0.0541350000
| 19>  H        0.6540450000     0.9914990000    -0.2022160000
| 20>  H        0.3944020000    -0.5493890000     0.6207630000
| 21>  H        0.7801610000    -0.5351210000    -1.1048940000
| 22>  H        3.0501770000     0.3161690000    -0.6454940000
| 23>  H        3.8521960000     0.5238620000     1.7103080000
| 24>  H        2.1953710000     0.3197600000     2.2776470000
| 25>  H        3.1178870000     2.5383900000     0.6149600000
| 26>  H        2.5526650000     2.6100470000     2.1389240000
| 27>  H        2.4398250000    -2.1352280000     1.1232590000
| 28>  H        4.8008280000    -3.5498250000    -0.6766590000
| 29> *
| 30>
| 31>                          ****END OF INPUT****
 Total Charge           Charge          ....    0
 Multiplicity           Mult            ....    1
 Number of Electrons    NEL             ....   56
 Basis Dimension        Dim             ....  148

MULLIKEN ATOMIC CHARGES
-----------------------
   0 C :    0.030581
   1 C :   -0.072549
   2 C :    0.073651
   3 N :   -0.196195
   4 C :   -0.017712
   5 N :   -0.048245
   6 O :   -0.180473
   7 H :    0.026239
   8 H :    0.008237
   9 H :    0.022372
  10 H :    0.002368
  11 H :    0.003181
  12 H :    0.000951
  13 H :    0.091302
  14 H :    0.091754
  15 H :   -0.003706
  16 H :    0.168242
Sum of atomic charges:   -0.0000000

LOEWDIN ATOMIC CHARGES
----------------------
   0 C :   -0.053926
   1 C :   -0.058880
   2 C :    0.012179
   3 N :   -0.104905
   4 C :   -0.024101
   5 N :   -0.018589
   6 O :   -0.060056
   7 H :    0.027032
   8 H :    0.022982
   9 H :    0.026324
  10 H :    0.028473
  11 H :    0.002401
  12 H :    0.018805
  13 H :    0.052526
  14 H :    0.054808
  15 H :    0.003371
  16 H :    0.071554

  Mayer bond orders larger than 0.1
B(  0-C ,  1-C ) :   1.0590 B(  0-C ,  7-H ) :   0.9468 B(  0-C ,  8-H ) :   0.9602
B(  0-C ,  9-H ) :   0.9632 B(  1-C ,  2-C ) :   1.0337 B(  1-C ,  4-C ) :   0.9985
B(  1-C , 10-H ) :   0.9001 B(  2-C ,  3-N ) :   1.1092 B(  2-C , 11-H ) :   0.9343
B(  2-C , 12-H ) :   0.9287 B(  3-N , 13-H ) :   0.9688 B(  3-N , 14-H ) :   0.9642
B(  4-C ,  5-N ) :   1.9074 B(  4-C ,  6-O ) :   0.1124 B(  4-C , 15-H ) :   0.9360
B(  5-N ,  6-O ) :   0.9857 B(  6-O , 16-H ) :   0.9770

FINAL SINGLE POINT ENERGY      -342.429100884838

DIPOLE MOMENT
-------------
                                X             Y             Z
Electronic contribution:      4.50630      -5.93998      -1.63554
Nuclear contribution   :     -4.09370       6.20979       1.84023
                        -----------------------------------------
Total Dipole Moment    :      0.41260       0.26981       0.20469
                        -----------------------------------------
Magnitude (a.u.)       :      0.53379
Magnitude (Debye)      :      1.35679

                             ****ORCA TERMINATED NORMALLY****
TOTAL RUN TIME: 0 days 0 hours 0 minutes 7 seconds 318 msec
