                         Program Version 3.0.3 - RELEASE   -
|  1> ! RI PBE def2-SVP def2-SVP/J NBO PAL2
|  2> % maxcore 2000
|  3> % output
|  4>     # printlevel mini
|  5>     print[ P_Basis ] 0
|  6>     print[ P_SCFInfo ] 1
|  7>     print[ P_SCFIterInfo ] 1
|  8>     print[ P_OrbEn ] 0
|  9>     print[ P_Cartesian ] 0
| 10> end
| 11> *xyz 0 1
| 12>  C        0.7950380000    -0.0127710000     0.0136420000
| 13>  C        2.3032210000    -0.1944060000     0.1440290000
| 14>  C        2.9406920000     0.9328360000     0.9563570000
| 15>  N        2.7627670000     2.2145200000     0.2933980000
| 16>  C        2.5977660000    -1.5180910000     0.8274600000
| 17>  N        3.1256530000    -2.4872580000     0.0380400000
| 18>  O        2.3704140000    -1.7001000000     2.0060960000
| 19>  H        0.5785690000     0.9797130000    -0.3825830000
| 20>  H        0.3262980000    -0.1079640000     0.9954830000
| 21>  H        0.3559490000    -0.7628630000    -0.6483950000
| 22>  H        2.7534240000    -0.1939470000    -0.8574370000
| 23>  H        3.9934340000     0.6799960000     1.1528170000
| 24>  H        2.4434580000     0.9662730000     1.9283270000
| 25>  H        3.3992030000     2.3074330000    -0.4886980000
| 26>  H        2.9627350000     2.9757380000     0.9282440000
| 27>  H        3.2674930000    -2.3522610000    -0.9451670000
| 28>  H        3.2822860000    -3.3970390000     0.4368860000
| 29> *
| 30>
| 31>                          ****END OF INPUT****
 Total Charge           Charge          ....    0
 Multiplicity           Mult            ....    1
 Number of Electrons    NEL             ....   56
 Basis Dimension        Dim             ....  148

MULLIKEN ATOMIC CHARGES
-----------------------
   0 C :    0.051799
   1 C :   -0.130076
   2 C :    0.082337
   3 N :   -0.196457
   4 C :    0.005078
   5 N :   -0.047090
   6 O :   -0.214787
   7 H :    0.023142
   8 H :    0.025700
   9 H :    0.009865
  10 H :   -0.028373
  11 H :   -0.001848
  12 H :    0.019243
  13 H :    0.086837
  14 H :    0.093067
  15 H :    0.108165
  16 H :    0.113398
Sum of atomic charges:   -0.0000000

LOEWDIN ATOMIC CHARGES
----------------------
   0 C :   -0.048817
   1 C :   -0.077313
   2 C :    0.016319
   3 N :   -0.105022
   4 C :    0.033432
   5 N :    0.013744
   6 O :   -0.195570
   7 H :    0.025797
   8 H :    0.029902
   9 H :    0.021673
  10 H :    0.012360
  11 H :    0.003007
  12 H :    0.026158
  13 H :    0.049994
  14 H :    0.055012
  15 H :    0.068719
  16 H :    0.070604

  Mayer bond orders larger than 0.1
B(  0-C ,  1-C ) :   1.0659 B(  0-C ,  7-H ) :   0.9474 B(  0-C ,  8-H ) :   0.9586
B(  0-C ,  9-H ) :   0.9613 B(  1-C ,  2-C ) :   1.0327 B(  1-C ,  4-C ) :   0.9102
B(  1-C , 10-H ) :   0.9036 B(  2-C ,  3-N ) :   1.1162 B(  2-C , 11-H ) :   0.9407
B(  2-C , 12-H ) :   0.9238 B(  3-N , 13-H ) :   0.9700 B(  3-N , 14-H ) :   0.9661
B(  4-C ,  5-N ) :   1.2536 B(  4-C ,  6-O ) :   2.0950 B(  5-N , 15-H ) :   0.9423
B(  5-N , 16-H ) :   0.9366

FINAL SINGLE POINT ENERGY      -342.513302209843

DIPOLE MOMENT
-------------
                                X             Y             Z
Electronic contribution:      1.62985      -4.63918       2.53036
Nuclear contribution   :     -0.82799       4.63291      -3.70855
                        -----------------------------------------
Total Dipole Moment    :      0.80186      -0.00627      -1.17819
                        -----------------------------------------
Magnitude (a.u.)       :      1.42518
Magnitude (Debye)      :      3.62253

                             ****ORCA TERMINATED NORMALLY****
TOTAL RUN TIME: 0 days 0 hours 0 minutes 8 seconds 1 msec
