                         Program Version 3.0.3 - RELEASE   -
|  1> ! RI PBE def2-SVP def2-SVP/J NBO PAL2
|  2> % maxcore 2000
|  3> % output
|  4>     # printlevel mini
|  5>     print[ P_Basis ] 0
|  6>     print[ P_SCFInfo ] 1
|  7>     print[ P_SCFIterInfo ] 1
|  8>     print[ P_OrbEn ] 0
|  9>     print[ P_Cartesian ] 0
| 10> end
| 11> *xyz 0 1
| 12>  C        2.8763640000    -1.3118510000     0.2591750000
| 13>  C        2.5327140000     0.1603040000     0.1013750000
| 14>  C        3.0260020000     0.7877050000    -1.2003930000
| 15>  N        2.4495230000     2.0917200000    -1.5155490000
| 16>  C        4.5135840000     0.9564490000    -1.2903840000
| 17>  N        5.2591750000     0.7694410000    -0.2870350000
| 18>  O        6.5886130000     1.0239060000    -0.5765990000
| 19>  H        2.4391840000    -1.7187740000     1.1737550000
| 20>  H        3.9553370000    -1.4628210000     0.3069240000
| 21>  H        2.4886800000    -1.8985100000    -0.5792030000
| 22>  H        2.9313130000     0.7332050000     0.9445900000
| 23>  H        1.4441000000     0.2843290000     0.1228690000
| 24>  H        2.7422820000     0.1216330000    -2.0281520000
| 25>  H        2.6407670000     2.7433280000    -0.7625790000
| 26>  H        1.4428760000     2.0192950000    -1.6011690000
| 27>  H        4.9266700000     1.2959300000    -2.2417040000
| 28>  H        7.0318050000     0.8381020000     0.2556690000
| 29> *
| 30>
| 31>                          ****END OF INPUT****
 Total Charge           Charge          ....    0
 Multiplicity           Mult            ....    1
 Number of Electrons    NEL             ....   56
 Basis Dimension        Dim             ....  148

MULLIKEN ATOMIC CHARGES
-----------------------
   0 C :   -0.018373
   1 C :    0.021672
   2 C :   -0.005273
   3 N :   -0.183773
   4 C :   -0.011565
   5 N :   -0.044377
   6 O :   -0.173127
   7 H :    0.014243
   8 H :    0.027952
   9 H :    0.013032
  10 H :    0.004349
  11 H :   -0.005493
  12 H :    0.010117
  13 H :    0.089959
  14 H :    0.088574
  15 H :    0.002705
  16 H :    0.169380
Sum of atomic charges:   -0.0000000

LOEWDIN ATOMIC CHARGES
----------------------
   0 C :   -0.068174
   1 C :   -0.059706
   2 C :   -0.012567
   3 N :   -0.087607
   4 C :   -0.028704
   5 N :   -0.016318
   6 O :   -0.054424
   7 H :    0.026585
   8 H :    0.024538
   9 H :    0.022187
  10 H :    0.021977
  11 H :    0.018560
  12 H :    0.031224
  13 H :    0.051389
  14 H :    0.050526
  15 H :    0.008331
  16 H :    0.072182

  Mayer bond orders larger than 0.1
B(  0-C ,  1-C ) :   1.1040 B(  0-C ,  7-H ) :   0.9558 B(  0-C ,  8-H ) :   0.9640
B(  0-C ,  9-H ) :   0.9632 B(  1-C ,  2-C ) :   1.0563 B(  1-C , 10-H ) :   0.9059
B(  1-C , 11-H ) :   0.9281 B(  2-C ,  3-N ) :   1.0750 B(  2-C ,  4-C ) :   1.0042
B(  2-C , 12-H ) :   0.8941 B(  3-N , 13-H ) :   0.9694 B(  3-N , 14-H ) :   0.9664
B(  4-C ,  5-N ) :   1.8998 B(  4-C ,  6-O ) :   0.1126 B(  4-C , 15-H ) :   0.9435
B(  5-N ,  6-O ) :   0.9873 B(  6-O , 16-H ) :   0.9763

FINAL SINGLE POINT ENERGY      -342.430212516705

DIPOLE MOMENT
-------------
                                X             Y             Z
Electronic contribution:      6.48576       3.26533      -1.38732
Nuclear contribution   :     -6.75274      -3.32631       1.78644
                        -----------------------------------------
Total Dipole Moment    :     -0.26698      -0.06099       0.39912
                        -----------------------------------------
Magnitude (a.u.)       :      0.48404
Magnitude (Debye)      :      1.23034

                             ****ORCA TERMINATED NORMALLY****
TOTAL RUN TIME: 0 days 0 hours 0 minutes 7 seconds 627 msec
