                         Program Version 3.0.3 - RELEASE   -
|  1> ! RI PBE def2-SVP def2-SVP/J NBO PAL2
|  2> % maxcore 2000
|  3> % output
|  4>     # printlevel mini
|  5>     print[ P_Basis ] 0
|  6>     print[ P_SCFInfo ] 1
|  7>     print[ P_SCFIterInfo ] 1
|  8>     print[ P_OrbEn ] 0
|  9>     print[ P_Cartesian ] 0
| 10> end
| 11> *xyz 0 1
| 12>  C        3.0270660000     1.4312910000     0.9181200000
| 13>  C        2.9733850000     0.6256230000    -0.3695990000
| 14>  C        3.4298770000    -0.8286200000    -0.2341150000
| 15>  N        2.9339170000    -1.7279490000    -1.2733530000
| 16>  C        4.9562150000    -0.9462970000    -0.1271320000
| 17>  N        5.4431040000    -2.1328240000    -0.5423140000
| 18>  O        5.6515620000    -0.0575140000     0.3235610000
| 19>  H        2.6478600000     2.4432730000     0.7575140000
| 20>  H        4.0487630000     1.4984010000     1.2890160000
| 21>  H        2.4092370000     0.9676560000     1.6936960000
| 22>  H        3.5759450000     1.1164600000    -1.1416650000
| 23>  H        1.9424780000     0.6036300000    -0.7406130000
| 24>  H        3.0537380000    -1.2188570000     0.7211240000
| 25>  H        3.0745810000    -1.3124340000    -2.1881840000
| 26>  H        1.9372380000    -1.8679770000    -1.1681370000
| 27>  H        4.8120160000    -2.7927240000    -0.9661750000
| 28>  H        6.4323080000    -2.2984270000    -0.4901440000
| 29> *
| 30>
| 31>                          ****END OF INPUT****
 Total Charge           Charge          ....    0
 Multiplicity           Mult            ....    1
 Number of Electrons    NEL             ....   56
 Basis Dimension        Dim             ....  148

MULLIKEN ATOMIC CHARGES
-----------------------
   0 C :   -0.015690
   1 C :    0.009012
   2 C :   -0.051862
   3 N :   -0.192493
   4 C :   -0.017428
   5 N :   -0.026915
   6 O :   -0.206318
   7 H :    0.012283
   8 H :    0.043832
   9 H :    0.009415
  10 H :    0.012066
  11 H :   -0.014087
  12 H :    0.028011
  13 H :    0.097249
  14 H :    0.097257
  15 H :    0.105837
  16 H :    0.109831
Sum of atomic charges:   -0.0000000

LOEWDIN ATOMIC CHARGES
----------------------
   0 C :   -0.068575
   1 C :   -0.053283
   2 C :   -0.028410
   3 N :   -0.084921
   4 C :    0.017373
   5 N :    0.021192
   6 O :   -0.196321
   7 H :    0.025227
   8 H :    0.029867
   9 H :    0.020451
  10 H :    0.026424
  11 H :    0.015417
  12 H :    0.036836
  13 H :    0.055021
  14 H :    0.055583
  15 H :    0.058699
  16 H :    0.069421

  Mayer bond orders larger than 0.1
B(  0-C ,  1-C ) :   1.1062 B(  0-C ,  7-H ) :   0.9513 B(  0-C ,  8-H ) :   0.9607
B(  0-C ,  9-H ) :   0.9614 B(  1-C ,  2-C ) :   1.0531 B(  1-C , 10-H ) :   0.9235
B(  1-C , 11-H ) :   0.9335 B(  2-C ,  3-N ) :   1.0870 B(  2-C ,  4-C ) :   0.8775
B(  2-C , 12-H ) :   0.8928 B(  3-N , 13-H ) :   0.9708 B(  3-N , 14-H ) :   0.9619
B(  4-C ,  5-N ) :   1.3238 B(  4-C ,  6-O ) :   2.0857 B(  5-N ,  6-O ) :   0.1024
B(  5-N , 15-H ) :   0.9045 B(  5-N , 16-H ) :   0.9382

FINAL SINGLE POINT ENERGY      -342.520959795202

DIPOLE MOMENT
-------------
                                X             Y             Z
Electronic contribution:      5.45066      -3.16456      -0.46322
Nuclear contribution   :     -6.23637       2.31314      -0.23483
                        -----------------------------------------
Total Dipole Moment    :     -0.78571      -0.85142      -0.69805
                        -----------------------------------------
Magnitude (a.u.)       :      1.35260
Magnitude (Debye)      :      3.43805

                             ****ORCA TERMINATED NORMALLY****
TOTAL RUN TIME: 0 days 0 hours 0 minutes 8 seconds 22 msec
