                         Program Version 3.0.3 - RELEASE   -
|  1> ! RI PBE def2-SVP def2-SVP/J NBO PAL2
|  2> % maxcore 2000
|  3> % output
|  4>     # printlevel mini
|  5>     print[ P_Basis ] 0
|  6>     print[ P_SCFInfo ] 1
|  7>     print[ P_SCFIterInfo ] 1
|  8>     print[ P_OrbEn ] 0
|  9>     print[ P_Cartesian ] 0
| 10> end
| 11> *xyz 0 1
| 12>  C        2.2710170000     0.9012410000    -1.3068750000
| 13>  C        2.5163150000    -0.0946810000    -0.1776960000
| 14>  C        2.9094810000     0.5640420000     1.1066210000
| 15>  N        1.9918300000     1.2891400000     1.8113170000
| 16>  C        0.5739750000     1.0373600000     1.7529150000
| 17>  N        4.1447770000     0.4661510000     1.4433320000
| 18>  O        4.3745200000     1.1601580000     2.6490490000
| 19>  H        1.9944380000     0.3801870000    -2.2260530000
| 20>  H        3.1748270000     1.4814340000    -1.5026170000
| 21>  H        1.4719190000     1.6057230000    -1.0664330000
| 22>  H        3.3321350000    -0.7673490000    -0.4449940000
| 23>  H        1.6275640000    -0.7145400000    -0.0193830000
| 24>  H        2.3498970000     1.6130820000     2.6959960000
| 25>  H        0.2100490000     1.0841400000     0.7253930000
| 26>  H        0.0574590000     1.8169000000     2.3142490000
| 27>  H        0.2839230000     0.0657580000     2.1741920000
| 28>  H        5.3030740000     0.9847510000     2.8120960000
| 29> *
| 30>
| 31>                          ****END OF INPUT****
 Total Charge           Charge          ....    0
 Multiplicity           Mult            ....    1
 Number of Electrons    NEL             ....   56
 Basis Dimension        Dim             ....  148

MULLIKEN ATOMIC CHARGES
-----------------------
   0 C :   -0.012403
   1 C :    0.023762
   2 C :   -0.099557
   3 N :   -0.150845
   4 C :    0.069948
   5 N :   -0.085614
   6 O :   -0.221376
   7 H :    0.022284
   8 H :    0.028438
   9 H :    0.021205
  10 H :    0.016886
  11 H :    0.015415
  12 H :    0.117839
  13 H :    0.030915
  14 H :    0.029102
  15 H :    0.024916
  16 H :    0.169086
Sum of atomic charges:   -0.0000000

LOEWDIN ATOMIC CHARGES
----------------------
   0 C :   -0.059191
   1 C :   -0.047353
   2 C :   -0.040302
   3 N :   -0.021925
   4 C :    0.007388
   5 N :   -0.096712
   6 O :   -0.090517
   7 H :    0.027233
   8 H :    0.031369
   9 H :    0.022882
  10 H :    0.038906
  11 H :    0.028344
  12 H :    0.063211
  13 H :    0.024089
  14 H :    0.029790
  15 H :    0.013288
  16 H :    0.069502

  Mayer bond orders larger than 0.1
B(  0-C ,  1-C ) :   1.1090 B(  0-C ,  7-H ) :   0.9614 B(  0-C ,  8-H ) :   0.9599
B(  0-C ,  9-H ) :   0.9638 B(  1-C ,  2-C ) :   1.0734 B(  1-C , 10-H ) :   0.9074
B(  1-C , 11-H ) :   0.9117 B(  2-C ,  3-N ) :   1.2100 B(  2-C ,  5-N ) :   1.8163
B(  3-N ,  4-C ) :   1.0435 B(  3-N ,  5-N ) :   0.1094 B(  3-N , 12-H ) :   0.9060
B(  4-C , 13-H ) :   0.9569 B(  4-C , 14-H ) :   0.9689 B(  4-C , 15-H ) :   0.9594
B(  5-N ,  6-O ) :   0.9496 B(  6-O , 16-H ) :   0.9756

FINAL SINGLE POINT ENERGY      -342.446030480883

DIPOLE MOMENT
-------------
                                X             Y             Z
Electronic contribution:      6.06948       0.27625       5.15662
Nuclear contribution   :     -6.67298      -0.22900      -4.94913
                        -----------------------------------------
Total Dipole Moment    :     -0.60350       0.04725       0.20750
                        -----------------------------------------
Magnitude (a.u.)       :      0.63992
Magnitude (Debye)      :      1.62654

                             ****ORCA TERMINATED NORMALLY****
TOTAL RUN TIME: 0 days 0 hours 0 minutes 7 seconds 788 msec
