                         Program Version 3.0.3 - RELEASE   -
|  1> ! RI PBE def2-SVP def2-SVP/J NBO PAL2
|  2> % maxcore 2000
|  3> % output
|  4>     # printlevel mini
|  5>     print[ P_Basis ] 0
|  6>     print[ P_SCFInfo ] 1
|  7>     print[ P_SCFIterInfo ] 1
|  8>     print[ P_OrbEn ] 0
|  9>     print[ P_Cartesian ] 0
| 10> end
| 11> *xyz 0 1
| 12>  C        2.3617640000    -0.9382200000    -1.4570430000
| 13>  C        2.4030800000     0.2725440000    -0.5420450000
| 14>  C        3.2755570000     0.0679950000     0.6897720000
| 15>  N        4.6624450000    -0.1066730000     0.3403350000
| 16>  C        5.2608320000    -1.1707780000     0.6763220000
| 17>  N        6.5470610000    -1.3901220000     0.2681810000
| 18>  O        7.1520830000    -0.2735500000    -0.2968150000
| 19>  H        1.7231790000    -0.7579470000    -2.3245340000
| 20>  H        1.9695230000    -1.8158090000    -0.9336540000
| 21>  H        3.3601760000    -1.1865860000    -1.8234300000
| 22>  H        1.3917670000     0.5243070000    -0.2056270000
| 23>  H        2.7783630000     1.1421570000    -1.0906910000
| 24>  H        2.8941550000    -0.7874100000     1.2715900000
| 25>  H        3.1940960000     0.9539280000     1.3290930000
| 26>  H        4.8258250000    -1.9952040000     1.2508090000
| 27>  H        7.1621430000    -1.7965810000     0.9609710000
| 28>  H        6.4166510000     0.3766480000    -0.2777220000
| 29> *
| 30>
| 31>                          ****END OF INPUT****
 Total Charge           Charge          ....    0
 Multiplicity           Mult            ....    1
 Number of Electrons    NEL             ....   56
 Basis Dimension        Dim             ....  148

MULLIKEN ATOMIC CHARGES
-----------------------
   0 C :   -0.036819
   1 C :   -0.028403
   2 C :    0.102286
   3 N :   -0.267630
   4 C :    0.051400
   5 N :    0.027571
   6 O :   -0.231648
   7 H :    0.022590
   8 H :    0.010719
   9 H :    0.030438
  10 H :    0.007787
  11 H :    0.016848
  12 H :   -0.015388
  13 H :    0.016509
  14 H :    0.002410
  15 H :    0.134986
  16 H :    0.156344
Sum of atomic charges:   -0.0000000

LOEWDIN ATOMIC CHARGES
----------------------
   0 C :   -0.071047
   1 C :   -0.051660
   2 C :    0.012130
   3 N :   -0.155242
   4 C :   -0.001719
   5 N :    0.081341
   6 O :   -0.089569
   7 H :    0.028014
   8 H :    0.022111
   9 H :    0.026613
  10 H :    0.024435
  11 H :    0.026382
  12 H :    0.003405
  13 H :    0.024300
  14 H :    0.003300
  15 H :    0.073651
  16 H :    0.043557

  Mayer bond orders larger than 0.1
B(  0-C ,  1-C ) :   1.1134 B(  0-C ,  7-H ) :   0.9623 B(  0-C ,  8-H ) :   0.9669
B(  0-C ,  9-H ) :   0.9646 B(  1-C ,  2-C ) :   1.0854 B(  1-C , 10-H ) :   0.9322
B(  1-C , 11-H ) :   0.9341 B(  2-C ,  3-N ) :   1.0437 B(  2-C , 12-H ) :   0.9148
B(  2-C , 13-H ) :   0.9293 B(  3-N ,  4-C ) :   1.7177 B(  3-N ,  5-N ) :   0.1020
B(  3-N , 16-H ) :   0.1452 B(  4-C ,  5-N ) :   1.2115 B(  4-C , 14-H ) :   0.9330
B(  5-N ,  6-O ) :   1.0155 B(  5-N , 15-H ) :   0.9272 B(  6-O , 16-H ) :   0.9186

FINAL SINGLE POINT ENERGY      -342.431733154611

DIPOLE MOMENT
-------------
                                X             Y             Z
Electronic contribution:      9.00105      -0.15980       1.94500
Nuclear contribution   :     -9.35729      -0.23783      -1.20655
                        -----------------------------------------
Total Dipole Moment    :     -0.35624      -0.39763       0.73845
                        -----------------------------------------
Magnitude (a.u.)       :      0.91123
Magnitude (Debye)      :      2.31615

                             ****ORCA TERMINATED NORMALLY****
TOTAL RUN TIME: 0 days 0 hours 0 minutes 7 seconds 379 msec
