                         Program Version 3.0.3 - RELEASE   -
|  1> ! RI PBE def2-SVP def2-SVP/J NBO PAL2
|  2> % maxcore 2000
|  3> % output
|  4>     # printlevel mini
|  5>     print[ P_Basis ] 0
|  6>     print[ P_SCFInfo ] 1
|  7>     print[ P_SCFIterInfo ] 1
|  8>     print[ P_OrbEn ] 0
|  9>     print[ P_Cartesian ] 0
| 10> end
| 11> *xyz 0 1
| 12>  C        1.9800590000     0.0351790000     2.0651050000
| 13>  C        2.1698450000     0.4005790000     0.6032420000
| 14>  C        3.0574290000    -0.5724630000    -0.1623190000
| 15>  N        4.4121530000    -0.6427290000     0.3341820000
| 16>  C        4.8425440000    -1.6882450000     1.1015680000
| 17>  N        6.1116550000    -1.5188710000     1.6245560000
| 18>  O        4.1761220000    -2.6772560000     1.3324680000
| 19>  H        1.3341810000     0.7571310000     2.5698220000
| 20>  H        2.9342250000     0.0141020000     2.5965250000
| 21>  H        1.5307530000    -0.9551090000     2.1677830000
| 22>  H        2.5874050000     1.4121850000     0.5213190000
| 23>  H        1.1995640000     0.4357730000     0.0960030000
| 24>  H        3.0799850000    -0.2978580000    -1.2221810000
| 25>  H        2.6574330000    -1.5855240000    -0.0916790000
| 26>  H        4.9344780000     0.2159740000     0.3798380000
| 27>  H        6.7718560000    -0.9723380000     1.0964960000
| 28>  H        6.4884110000    -2.3702310000     2.0069610000
| 29> *
| 30>
| 31>                          ****END OF INPUT****
 Total Charge           Charge          ....    0
 Multiplicity           Mult            ....    1
 Number of Electrons    NEL             ....   56
 Basis Dimension        Dim             ....  148

MULLIKEN ATOMIC CHARGES
-----------------------
   0 C :   -0.032207
   1 C :   -0.055050
   2 C :    0.102735
   3 N :   -0.182456
   4 C :    0.053348
   5 N :   -0.114964
   6 O :   -0.238106
   7 H :    0.021285
   8 H :    0.029274
   9 H :    0.031660
  10 H :    0.002766
  11 H :    0.014057
  12 H :    0.009838
  13 H :    0.035324
  14 H :    0.100140
  15 H :    0.101913
  16 H :    0.120443
Sum of atomic charges:   -0.0000000

LOEWDIN ATOMIC CHARGES
----------------------
   0 C :   -0.069770
   1 C :   -0.057314
   2 C :    0.021456
   3 N :   -0.027773
   4 C :    0.016519
   5 N :   -0.038979
   6 O :   -0.224747
   7 H :    0.026305
   8 H :    0.026110
   9 H :    0.031911
  10 H :    0.017530
  11 H :    0.027868
  12 H :    0.019165
  13 H :    0.032779
  14 H :    0.063324
  15 H :    0.062180
  16 H :    0.073437

  Mayer bond orders larger than 0.1
B(  0-C ,  1-C ) :   1.1171 B(  0-C ,  7-H ) :   0.9606 B(  0-C ,  8-H ) :   0.9625
B(  0-C ,  9-H ) :   0.9662 B(  1-C ,  2-C ) :   1.1001 B(  1-C , 10-H ) :   0.9383
B(  1-C , 11-H ) :   0.9304 B(  2-C ,  3-N ) :   1.0131 B(  2-C , 12-H ) :   0.9365
B(  2-C , 13-H ) :   0.9201 B(  3-N ,  4-C ) :   1.1469 B(  3-N , 14-H ) :   0.9270
B(  4-C ,  5-N ) :   1.1486 B(  4-C ,  6-O ) :   2.0387 B(  5-N , 15-H ) :   0.9470
B(  5-N , 16-H ) :   0.9490

FINAL SINGLE POINT ENERGY      -342.532239824992

DIPOLE MOMENT
-------------
                                X             Y             Z
Electronic contribution:      5.42055      -4.79941      -0.52331
Nuclear contribution   :     -4.60829       5.87311       0.10430
                        -----------------------------------------
Total Dipole Moment    :      0.81226       1.07370      -0.41901
                        -----------------------------------------
Magnitude (a.u.)       :      1.41002
Magnitude (Debye)      :      3.58399

                             ****ORCA TERMINATED NORMALLY****
TOTAL RUN TIME: 0 days 0 hours 0 minutes 7 seconds 967 msec
