                         Program Version 3.0.3 - RELEASE   -
|  1> ! RI PBE def2-SVP def2-SVP/J NBO PAL2
|  2> % maxcore 2000
|  3> % output
|  4>     # printlevel mini
|  5>     print[ P_Basis ] 0
|  6>     print[ P_SCFInfo ] 1
|  7>     print[ P_SCFIterInfo ] 1
|  8>     print[ P_OrbEn ] 0
|  9>     print[ P_Cartesian ] 0
| 10> end
| 11> *xyz 0 1
| 12>  C        2.9499010000     1.2456300000     0.6715360000
| 13>  C        2.5824700000     0.0314330000    -0.1659400000
| 14>  C        3.0999360000    -1.3030910000     0.3775620000
| 15>  N        2.6361860000    -2.4641530000    -0.3695700000
| 16>  C        4.6130590000    -1.3651370000     0.4469510000
| 17>  O        5.1386200000    -1.2070970000    -0.8491280000
| 18>  C        6.5301150000    -1.3500340000    -0.8869370000
| 19>  H        2.4602400000     2.1457320000     0.2930970000
| 20>  H        4.0260380000     1.4331840000     0.6614390000
| 21>  H        2.6434480000     1.1182180000     1.7143840000
| 22>  H        2.9506300000     0.1558680000    -1.1889800000
| 23>  H        1.4910150000    -0.0434460000    -0.2345010000
| 24>  H        2.7456700000    -1.4119390000     1.4117140000
| 25>  H        3.0549990000    -2.4482250000    -1.2929010000
| 26>  H        1.6323860000    -2.4225630000    -0.4987850000
| 27>  H        4.9088370000    -2.3409650000     0.8575560000
| 28>  H        5.0051150000    -0.5825440000     1.1127150000
| 29>  H        6.8497710000    -1.2158830000    -1.9208990000
| 30>  H        6.8423050000    -2.3460450000    -0.5434320000
| 31>  H        7.0302490000    -0.5974240000    -0.2608710000
| 32> *
| 33>
| 34>                          ****END OF INPUT****
 Total Charge           Charge          ....    0
 Multiplicity           Mult            ....    1
 Number of Electrons    NEL             ....   58
 Basis Dimension        Dim             ....  163

MULLIKEN ATOMIC CHARGES
-----------------------
   0 C :   -0.027940
   1 C :   -0.012352
   2 C :   -0.027077
   3 N :   -0.176185
   4 C :    0.187103
   5 O :   -0.359938
   6 C :    0.159002
   7 H :    0.015162
   8 H :    0.029759
   9 H :    0.014073
  10 H :    0.009046
  11 H :    0.002615
  12 H :   -0.005075
  13 H :    0.087257
  14 H :    0.080246
  15 H :   -0.003030
  16 H :   -0.006003
  17 H :    0.028087
  18 H :    0.002941
  19 H :    0.002311
Sum of atomic charges:    0.0000000

LOEWDIN ATOMIC CHARGES
----------------------
   0 C :   -0.069315
   1 C :   -0.061416
   2 C :   -0.013043
   3 N :   -0.094364
   4 C :    0.061394
   5 O :   -0.149993
   6 C :    0.052541
   7 H :    0.027740
   8 H :    0.024702
   9 H :    0.023155
  10 H :    0.021959
  11 H :    0.018479
  12 H :    0.022544
  13 H :    0.046860
  14 H :    0.047314
  15 H :    0.007307
  16 H :    0.002485
  17 H :    0.021647
  18 H :    0.005306
  19 H :    0.004698

  Mayer bond orders larger than 0.1
B(  0-C ,  1-C ) :   1.1029 B(  0-C ,  7-H ) :   0.9526 B(  0-C ,  8-H ) :   0.9661
B(  0-C ,  9-H ) :   0.9623 B(  1-C ,  2-C ) :   1.0436 B(  1-C , 10-H ) :   0.9210
B(  1-C , 11-H ) :   0.9352 B(  2-C ,  3-N ) :   1.0967 B(  2-C ,  4-C ) :   1.0483
B(  2-C , 12-H ) :   0.8973 B(  3-N , 13-H ) :   0.9656 B(  3-N , 14-H ) :   0.9692
B(  4-C ,  5-O ) :   1.0046 B(  4-C , 15-H ) :   0.9189 B(  4-C , 16-H ) :   0.9236
B(  5-O ,  6-C ) :   1.0200 B(  6-C , 17-H ) :   0.9765 B(  6-C , 18-H ) :   0.9561
B(  6-C , 19-H ) :   0.9560

FINAL SINGLE POINT ENERGY      -327.642812415536

DIPOLE MOMENT
-------------
                                X             Y             Z
Electronic contribution:      0.00033      -2.96564      -1.66535
Nuclear contribution   :      0.13941       3.23583       1.66731
                        -----------------------------------------
Total Dipole Moment    :      0.13974       0.27019       0.00196
                        -----------------------------------------
Magnitude (a.u.)       :      0.30419
Magnitude (Debye)      :      0.77320

                             ****ORCA TERMINATED NORMALLY****
TOTAL RUN TIME: 0 days 0 hours 0 minutes 8 seconds 352 msec
