                         Program Version 3.0.3 - RELEASE   -
|  1> ! RI PBE def2-SVP def2-SVP/J NBO PAL2
|  2> % maxcore 2000
|  3> % output
|  4>     # printlevel mini
|  5>     print[ P_Basis ] 0
|  6>     print[ P_SCFInfo ] 1
|  7>     print[ P_SCFIterInfo ] 1
|  8>     print[ P_OrbEn ] 0
|  9>     print[ P_Cartesian ] 0
| 10> end
| 11> *xyz 0 1
| 12>  C        0.9302060000    -0.1512010000     0.1715200000
| 13>  C        2.4156590000    -0.0389090000     0.0395900000
| 14>  C        3.0635140000     0.3228090000    -1.0899460000
| 15>  N        2.5062770000     0.6418050000    -2.2782030000
| 16>  C        3.1834990000    -0.3490750000     1.2334540000
| 17>  O        4.5312420000    -0.2424680000     1.0958800000
| 18>  O        2.6967810000    -0.6822340000     2.2910560000
| 19>  H        0.4074620000     0.0939370000    -0.7551940000
| 20>  H        0.5540900000     0.5157960000     0.9511990000
| 21>  H        0.6373560000    -1.1637730000     0.4599640000
| 22>  H        4.1458250000     0.3719570000    -1.0739580000
| 23>  H        1.5128460000     0.6312930000    -2.4124180000
| 24>  H        3.0799570000     0.8973900000    -3.0572640000
| 25>  H        4.8891770000    -0.4774470000     1.9612210000
| 26> *
| 27>
| 28>                          ****END OF INPUT****
 Total Charge           Charge          ....    0
 Multiplicity           Mult            ....    1
 Number of Electrons    NEL             ....   54
 Basis Dimension        Dim             ....  133

MULLIKEN ATOMIC CHARGES
-----------------------
   0 C :    0.085167
   1 C :   -0.230415
   2 C :    0.008497
   3 N :   -0.044239
   4 C :    0.100281
   5 O :   -0.165599
   6 O :   -0.207919
   7 H :   -0.021869
   8 H :    0.038396
   9 H :    0.035259
  10 H :    0.015502
  11 H :    0.106515
  12 H :    0.123432
  13 H :    0.156992
Sum of atomic charges:   -0.0000000

LOEWDIN ATOMIC CHARGES
----------------------
   0 C :   -0.050611
   1 C :   -0.162966
   2 C :    0.028761
   3 N :    0.031810
   4 C :    0.035643
   5 O :   -0.045179
   6 O :   -0.189033
   7 H :    0.015958
   8 H :    0.039971
   9 H :    0.039393
  10 H :    0.031983
  11 H :    0.069613
  12 H :    0.076854
  13 H :    0.077805

  Mayer bond orders larger than 0.1
B(  0-C ,  1-C ) :   1.1073 B(  0-C ,  7-H ) :   0.9435 B(  0-C ,  8-H ) :   0.9428
B(  0-C ,  9-H ) :   0.9428 B(  1-C ,  2-C ) :   1.6299 B(  1-C ,  4-C ) :   1.0589
B(  2-C ,  3-N ) :   1.3081 B(  2-C , 10-H ) :   0.9278 B(  3-N , 11-H ) :   0.9547
B(  3-N , 12-H ) :   0.9541 B(  4-C ,  5-O ) :   1.2226 B(  4-C ,  6-O ) :   2.0770
B(  5-O , 13-H ) :   0.9495

FINAL SINGLE POINT ENERGY      -361.166082452722

DIPOLE MOMENT
-------------
                                X             Y             Z
Electronic contribution:      4.10778      -0.79882       3.43992
Nuclear contribution   :     -3.96429       1.29682      -5.12055
                        -----------------------------------------
Total Dipole Moment    :      0.14348       0.49801      -1.68064
                        -----------------------------------------
Magnitude (a.u.)       :      1.75873
Magnitude (Debye)      :      4.47034

                             ****ORCA TERMINATED NORMALLY****
TOTAL RUN TIME: 0 days 0 hours 0 minutes 6 seconds 384 msec
