                         Program Version 3.0.3 - RELEASE   -
|  1> ! RI PBE def2-SVP def2-SVP/J NBO PAL2
|  2> % maxcore 2000
|  3> % output
|  4>     # printlevel mini
|  5>     print[ P_Basis ] 0
|  6>     print[ P_SCFInfo ] 1
|  7>     print[ P_SCFIterInfo ] 1
|  8>     print[ P_OrbEn ] 0
|  9>     print[ P_Cartesian ] 0
| 10> end
| 11> *xyz 0 1
| 12>  C        0.9589240000     0.0701400000     0.0631540000
| 13>  C        2.4820600000     0.0663600000    -0.0165820000
| 14>  C        3.0391000000    -1.2428920000     0.5692220000
| 15>  N        2.8860320000     0.2962840000    -1.3932460000
| 16>  C        3.0907820000     1.1896960000     0.8088080000
| 17>  O        2.4765200000     1.3629020000     1.9886230000
| 18>  O        4.0553770000     1.8293460000     0.4861650000
| 19>  H        0.5687960000    -0.7223410000    -0.5805340000
| 20>  H        0.5611780000     1.0199080000    -0.2960830000
| 21>  H        0.6062590000    -0.1058070000     1.0793860000
| 22>  H        2.6456970000    -2.0854180000    -0.0059440000
| 23>  H        2.7472830000    -1.3786740000     1.6129880000
| 24>  H        4.1293910000    -1.2606320000     0.5032720000
| 25>  H        2.8146470000    -0.5605470000    -1.9270470000
| 26>  H        3.8474220000     0.6151650000    -1.4219440000
| 27>  H        2.9681330000     2.0544000000     2.4536710000
| 28> *
| 29>
| 30>                          ****END OF INPUT****
 Total Charge           Charge          ....    0
 Multiplicity           Mult            ....    1
 Number of Electrons    NEL             ....   56
 Basis Dimension        Dim             ....  143

MULLIKEN ATOMIC CHARGES
-----------------------
   0 C :    0.101206
   1 C :   -0.308801
   2 C :    0.068951
   3 N :   -0.124692
   4 C :    0.124915
   5 O :   -0.129864
   6 O :   -0.180495
   7 H :    0.007698
   8 H :    0.021689
   9 H :    0.021294
  10 H :    0.018044
  11 H :    0.019991
  12 H :    0.019958
  13 H :    0.080672
  14 H :    0.091633
  15 H :    0.167801
Sum of atomic charges:   -0.0000000

LOEWDIN ATOMIC CHARGES
----------------------
   0 C :   -0.048902
   1 C :   -0.055165
   2 C :   -0.057944
   3 N :   -0.080983
   4 C :    0.051748
   5 O :   -0.004910
   6 O :   -0.150429
   7 H :    0.025432
   8 H :    0.030007
   9 H :    0.025463
  10 H :    0.026135
  11 H :    0.027736
  12 H :    0.026359
  13 H :    0.050027
  14 H :    0.048063
  15 H :    0.087361

  Mayer bond orders larger than 0.1
B(  0-C ,  1-C ) :   1.0391 B(  0-C ,  7-H ) :   0.9523 B(  0-C ,  8-H ) :   0.9567
B(  0-C ,  9-H ) :   0.9498 B(  1-C ,  2-C ) :   1.0294 B(  1-C ,  3-N ) :   1.1086
B(  1-C ,  4-C ) :   0.8798 B(  2-C , 10-H ) :   0.9513 B(  2-C , 11-H ) :   0.9440
B(  2-C , 12-H ) :   0.9532 B(  3-N , 13-H ) :   0.9595 B(  3-N , 14-H ) :   0.9381
B(  4-C ,  5-O ) :   1.2585 B(  4-C ,  6-O ) :   2.1222 B(  5-O , 15-H ) :   0.9448

FINAL SINGLE POINT ENERGY      -362.361256068504

DIPOLE MOMENT
-------------
                                X             Y             Z
Electronic contribution:      3.27755       6.08657       2.24966
Nuclear contribution   :     -3.38919      -6.64708      -1.81623
                        -----------------------------------------
Total Dipole Moment    :     -0.11163      -0.56051       0.43343
                        -----------------------------------------
Magnitude (a.u.)       :      0.71728
Magnitude (Debye)      :      1.82319

                             ****ORCA TERMINATED NORMALLY****
TOTAL RUN TIME: 0 days 0 hours 0 minutes 7 seconds 779 msec
