                         Program Version 3.0.3 - RELEASE   -
|  1> ! RI PBE def2-SVP def2-SVP/J NBO PAL2
|  2> % maxcore 2000
|  3> % output
|  4>     # printlevel mini
|  5>     print[ P_Basis ] 0
|  6>     print[ P_SCFInfo ] 1
|  7>     print[ P_SCFIterInfo ] 1
|  8>     print[ P_OrbEn ] 0
|  9>     print[ P_Cartesian ] 0
| 10> end
| 11> *xyz 0 1
| 12>  C        1.0405850000    -0.3661820000    -1.0859670000
| 13>  C        2.5458490000    -0.2936040000    -0.8990830000
| 14>  C        3.0852460000    -1.4372060000     0.0013910000
| 15>  N        2.5260000000    -1.5569810000     1.3262730000
| 16>  C        2.9576430000     1.0137270000    -0.2836950000
| 17>  O        4.1254700000     1.4668270000    -0.7738440000
| 18>  O        2.3664380000     1.5884020000     0.5938190000
| 19>  H        0.7538150000    -1.3531450000    -1.4575150000
| 20>  H        0.6925530000     0.3792050000    -1.8034900000
| 21>  H        0.5222790000    -0.1800900000    -0.1445040000
| 22>  H        3.0550260000    -0.3836540000    -1.8626930000
| 23>  H        4.1707830000    -1.3280450000     0.0871220000
| 24>  H        2.9101690000    -2.3763450000    -0.5320550000
| 25>  H        2.6000670000    -0.6844270000     1.8361280000
| 26>  H        1.5434240000    -1.7946540000     1.2886620000
| 27>  H        4.3371610000     2.2729830000    -0.2815190000
| 28> *
| 29>
| 30>                          ****END OF INPUT****
 Total Charge           Charge          ....    0
 Multiplicity           Mult            ....    1
 Number of Electrons    NEL             ....   56
 Basis Dimension        Dim             ....  143

MULLIKEN ATOMIC CHARGES
-----------------------
   0 C :    0.025680
   1 C :   -0.108100
   2 C :    0.059114
   3 N :   -0.191897
   4 C :    0.070065
   5 O :   -0.132186
   6 O :   -0.196312
   7 H :    0.015181
   8 H :    0.027975
   9 H :    0.024279
  10 H :    0.013449
  11 H :    0.022199
  12 H :    0.020964
  13 H :    0.094045
  14 H :    0.092562
  15 H :    0.162982
Sum of atomic charges:   -0.0000000

LOEWDIN ATOMIC CHARGES
----------------------
   0 C :   -0.055489
   1 C :   -0.090147
   2 C :    0.016651
   3 N :   -0.090884
   4 C :    0.042449
   5 O :   -0.013201
   6 O :   -0.163850
   7 H :    0.026993
   8 H :    0.032134
   9 H :    0.024274
  10 H :    0.034419
  11 H :    0.023851
  12 H :    0.025586
  13 H :    0.051424
  14 H :    0.052137
  15 H :    0.083653

  Mayer bond orders larger than 0.1
B(  0-C ,  1-C ) :   1.0696 B(  0-C ,  7-H ) :   0.9603 B(  0-C ,  8-H ) :   0.9634
B(  0-C ,  9-H ) :   0.9487 B(  1-C ,  2-C ) :   0.9921 B(  1-C ,  4-C ) :   0.9383
B(  1-C , 10-H ) :   0.8847 B(  2-C ,  3-N ) :   1.1711 B(  2-C , 11-H ) :   0.9383
B(  2-C , 12-H ) :   0.9438 B(  3-N , 13-H ) :   0.9693 B(  3-N , 14-H ) :   0.9746
B(  4-C ,  5-O ) :   1.2657 B(  4-C ,  6-O ) :   2.0695 B(  5-O , 15-H ) :   0.9474

FINAL SINGLE POINT ENERGY      -362.360192294340

DIPOLE MOMENT
-------------
                                X             Y             Z
Electronic contribution:      3.32278       5.85269       1.02170
Nuclear contribution   :     -3.24186      -5.77929      -1.50143
                        -----------------------------------------
Total Dipole Moment    :      0.08092       0.07339      -0.47973
                        -----------------------------------------
Magnitude (a.u.)       :      0.49201
Magnitude (Debye)      :      1.25059

                             ****ORCA TERMINATED NORMALLY****
TOTAL RUN TIME: 0 days 0 hours 0 minutes 7 seconds 787 msec
