                         Program Version 3.0.3 - RELEASE   -
|  1> ! RI PBE def2-SVP def2-SVP/J NBO PAL2
|  2> % maxcore 2000
|  3> % output
|  4>     # printlevel mini
|  5>     print[ P_Basis ] 0
|  6>     print[ P_SCFInfo ] 1
|  7>     print[ P_SCFIterInfo ] 1
|  8>     print[ P_OrbEn ] 0
|  9>     print[ P_Cartesian ] 0
| 10> end
| 11> *xyz 0 1
| 12>  C        1.6364310000     0.0288100000     0.6370510000
| 13>  C        2.2295650000    -0.1887630000    -0.7439340000
| 14>  C        3.1886610000     0.9233240000    -1.2120190000
| 15>  N        2.6012420000     2.2364780000    -1.3514560000
| 16>  C        4.3527550000     1.0167800000    -0.2555400000
| 17>  O        5.1782420000    -0.0355530000    -0.3643170000
| 18>  O        4.5268730000     1.8986480000     0.5415750000
| 19>  H        2.4063260000     0.0287320000     1.4129600000
| 20>  H        0.9232460000    -0.7617200000     0.8787270000
| 21>  H        1.1073720000     0.9824870000     0.7002240000
| 22>  H        1.4286740000    -0.2496050000    -1.4890680000
| 23>  H        2.7592750000    -1.1449500000    -0.7837180000
| 24>  H        3.6041140000     0.6027330000    -2.1750500000
| 25>  H        2.6859590000     2.7502160000    -0.4827380000
| 26>  H        1.6243030000     2.1762950000    -1.6038750000
| 27>  H        5.8700500000     0.0844870000     0.3012770000
| 28> *
| 29>
| 30>                          ****END OF INPUT****
 Total Charge           Charge          ....    0
 Multiplicity           Mult            ....    1
 Number of Electrons    NEL             ....   56
 Basis Dimension        Dim             ....  143

MULLIKEN ATOMIC CHARGES
-----------------------
   0 C :   -0.033697
   1 C :   -0.027684
   2 C :   -0.025497
   3 N :   -0.149023
   4 C :    0.071447
   5 O :   -0.132041
   6 O :   -0.184483
   7 H :    0.035166
   8 H :    0.028541
   9 H :    0.007225
  10 H :    0.022639
  11 H :    0.017360
  12 H :    0.021910
  13 H :    0.097861
  14 H :    0.083169
  15 H :    0.167107
Sum of atomic charges:   -0.0000000

LOEWDIN ATOMIC CHARGES
----------------------
   0 C :   -0.073181
   1 C :   -0.049585
   2 C :   -0.026693
   3 N :   -0.087834
   4 C :    0.044281
   5 O :   -0.008433
   6 O :   -0.150252
   7 H :    0.028376
   8 H :    0.030871
   9 H :    0.019544
  10 H :    0.026200
  11 H :    0.027268
  12 H :    0.032114
  13 H :    0.049304
  14 H :    0.051064
  15 H :    0.086956

  Mayer bond orders larger than 0.1
B(  0-C ,  1-C ) :   1.1063 B(  0-C ,  7-H ) :   0.9606 B(  0-C ,  8-H ) :   0.9597
B(  0-C ,  9-H ) :   0.9560 B(  1-C ,  2-C ) :   1.0297 B(  1-C , 10-H ) :   0.9344
B(  1-C , 11-H ) :   0.9219 B(  2-C ,  3-N ) :   1.1568 B(  2-C ,  4-C ) :   0.9194
B(  2-C , 12-H ) :   0.8903 B(  3-N , 13-H ) :   0.9442 B(  3-N , 14-H ) :   0.9636
B(  4-C ,  5-O ) :   1.2558 B(  4-C ,  6-O ) :   2.0961 B(  5-O , 15-H ) :   0.9475

FINAL SINGLE POINT ENERGY      -362.359523708254

DIPOLE MOMENT
-------------
                                X             Y             Z
Electronic contribution:      7.45119       2.22662      -0.01769
Nuclear contribution   :     -7.70324      -2.92255       0.10103
                        -----------------------------------------
Total Dipole Moment    :     -0.25205      -0.69593       0.08333
                        -----------------------------------------
Magnitude (a.u.)       :      0.74484
Magnitude (Debye)      :      1.89324

                             ****ORCA TERMINATED NORMALLY****
TOTAL RUN TIME: 0 days 0 hours 0 minutes 7 seconds 738 msec
