                         Program Version 3.0.3 - RELEASE   -
|  1> ! RI PBE def2-SVP def2-SVP/J NBO PAL2
|  2> % maxcore 2000
|  3> % output
|  4>     # printlevel mini
|  5>     print[ P_Basis ] 0
|  6>     print[ P_SCFInfo ] 1
|  7>     print[ P_SCFIterInfo ] 1
|  8>     print[ P_OrbEn ] 0
|  9>     print[ P_Cartesian ] 0
| 10> end
| 11> *xyz 0 1
| 12>  C        1.0189010000     0.2483810000     0.1627680000
| 13>  C        2.3197210000    -0.0324030000     0.0954550000
| 14>  C        2.8912340000    -0.8825210000    -0.9208130000
| 15>  N        4.1463000000    -1.1179770000    -0.9376700000
| 16>  N        4.6221130000    -1.9149410000    -1.9050150000
| 17>  C        5.9543920000    -2.2034700000    -1.9753250000
| 18>  O        6.4329240000    -2.9135800000    -2.8222420000
| 19>  H        0.6177600000     0.8898940000     0.9369620000
| 20>  H        0.3142610000    -0.1563020000    -0.5567090000
| 21>  H        3.0190520000     0.3759070000     0.8185820000
| 22>  H        2.2164310000    -1.3141910000    -1.6697780000
| 23>  H        4.0089690000    -2.3222840000    -2.6059420000
| 24>  H        6.5197310000    -1.7103130000    -1.1677630000
| 25> *
| 26>
| 27>                          ****END OF INPUT****
 Total Charge           Charge          ....    0
 Multiplicity           Mult            ....    1
 Number of Electrons    NEL             ....   52
 Basis Dimension        Dim             ....  128

MULLIKEN ATOMIC CHARGES
-----------------------
   0 C :   -0.028900
   1 C :    0.013475
   2 C :   -0.023423
   3 N :   -0.043136
   4 N :   -0.029080
   5 C :    0.151216
   6 O :   -0.204616
   7 H :    0.038415
   8 H :    0.025678
   9 H :    0.012913
  10 H :   -0.018717
  11 H :    0.109160
  12 H :   -0.002986
Sum of atomic charges:   -0.0000000

LOEWDIN ATOMIC CHARGES
----------------------
   0 C :   -0.038399
   1 C :   -0.037472
   2 C :   -0.026109
   3 N :   -0.023553
   4 N :    0.070539
   5 C :    0.058434
   6 O :   -0.156554
   7 H :    0.031048
   8 H :    0.025349
   9 H :    0.038302
  10 H :    0.002371
  11 H :    0.062509
  12 H :   -0.006467

  Mayer bond orders larger than 0.1
B(  0-C ,  1-C ) :   1.8643 B(  0-C ,  3-N ) :   0.1096 B(  0-C ,  7-H ) :   0.9448
B(  0-C ,  8-H ) :   0.9492 B(  1-C ,  2-C ) :   1.1397 B(  1-C ,  9-H ) :   0.9610
B(  2-C ,  3-N ) :   1.7455 B(  2-C , 10-H ) :   0.9372 B(  3-N ,  4-N ) :   1.0444
B(  4-N ,  5-C ) :   1.1290 B(  4-N , 11-H ) :   0.8992 B(  5-C ,  6-O ) :   2.0730
B(  5-C , 12-H ) :   0.9266

FINAL SINGLE POINT ENERGY      -340.064285727769

DIPOLE MOMENT
-------------
                                X             Y             Z
Electronic contribution:      5.39548      -2.90816      -2.64520
Nuclear contribution   :     -6.60996       3.33366       2.93107
                        -----------------------------------------
Total Dipole Moment    :     -1.21448       0.42550       0.28587
                        -----------------------------------------
Magnitude (a.u.)       :      1.31823
Magnitude (Debye)      :      3.35068

                             ****ORCA TERMINATED NORMALLY****
TOTAL RUN TIME: 0 days 0 hours 0 minutes 5 seconds 992 msec
