                         Program Version 3.0.3 - RELEASE   -
|  1> ! RI PBE def2-SVP def2-SVP/J NBO PAL2
|  2> % maxcore 2000
|  3> % output
|  4>     # printlevel mini
|  5>     print[ P_Basis ] 0
|  6>     print[ P_SCFInfo ] 1
|  7>     print[ P_SCFIterInfo ] 1
|  8>     print[ P_OrbEn ] 0
|  9>     print[ P_Cartesian ] 0
| 10> end
| 11> *xyz 0 1
| 12>  C        1.0758190000     0.0375850000    -0.2861350000
| 13>  C        2.3762730000    -0.1055090000    -0.0745140000
| 14>  C        3.2110940000     0.8301030000     0.7160840000
| 15>  N        2.8429940000     1.8908300000     1.3078200000
| 16>  N        4.5440450000     0.4371370000     0.7740990000
| 17>  C        5.5468000000     1.1048540000     1.4326750000
| 18>  O        6.6850880000     0.7104600000     1.4441700000
| 19>  H        0.5233900000    -0.6839490000    -0.8745430000
| 20>  H        0.5101850000     0.8727560000     0.1142950000
| 21>  H        2.8870600000    -0.9641740000    -0.5028320000
| 22>  H        1.8492670000     2.0528500000     1.1811530000
| 23>  H        4.8272450000    -0.4069690000     0.3007880000
| 24>  H        5.1945390000     2.0169260000     1.9329600000
| 25> *
| 26>
| 27>                          ****END OF INPUT****
 Total Charge           Charge          ....    0
 Multiplicity           Mult            ....    1
 Number of Electrons    NEL             ....   52
 Basis Dimension        Dim             ....  128

MULLIKEN ATOMIC CHARGES
-----------------------
   0 C :   -0.018147
   1 C :    0.023828
   2 C :   -0.107749
   3 N :   -0.062564
   4 N :   -0.056090
   5 C :    0.146066
   6 O :   -0.204055
   7 H :    0.044241
   8 H :    0.029606
   9 H :   -0.006607
  10 H :    0.084007
  11 H :    0.111128
  12 H :    0.016337
Sum of atomic charges:   -0.0000000

LOEWDIN ATOMIC CHARGES
----------------------
   0 C :   -0.009335
   1 C :   -0.055263
   2 C :    0.013787
   3 N :   -0.131382
   4 N :    0.025233
   5 C :    0.084514
   6 O :   -0.152145
   7 H :    0.037660
   8 H :    0.025676
   9 H :    0.030988
  10 H :    0.050119
  11 H :    0.079356
  12 H :    0.000792

  Mayer bond orders larger than 0.1
B(  0-C ,  1-C ) :   1.9716 B(  0-C ,  7-H ) :   0.9296 B(  0-C ,  8-H ) :   0.9469
B(  1-C ,  2-C ) :   0.9847 B(  1-C ,  9-H ) :   0.9311 B(  2-C ,  3-N ) :   1.9661
B(  2-C ,  4-N ) :   1.1084 B(  3-N , 10-H ) :   0.9205 B(  4-N ,  5-C ) :   1.1171
B(  4-N , 11-H ) :   0.9055 B(  5-C ,  6-O ) :   2.0837 B(  5-C , 12-H ) :   0.9285

FINAL SINGLE POINT ENERGY      -340.088530546382

DIPOLE MOMENT
-------------
                                X             Y             Z
Electronic contribution:      5.05795       0.60264       1.56157
Nuclear contribution   :     -6.54496      -1.26283      -2.32407
                        -----------------------------------------
Total Dipole Moment    :     -1.48701      -0.66020      -0.76250
                        -----------------------------------------
Magnitude (a.u.)       :      1.79679
Magnitude (Debye)      :      4.56707

                             ****ORCA TERMINATED NORMALLY****
TOTAL RUN TIME: 0 days 0 hours 0 minutes 6 seconds 197 msec
