                         Program Version 3.0.3 - RELEASE   -
|  1> ! RI PBE def2-SVP def2-SVP/J NBO PAL2
|  2> % maxcore 2000
|  3> % output
|  4>     # printlevel mini
|  5>     print[ P_Basis ] 0
|  6>     print[ P_SCFInfo ] 1
|  7>     print[ P_SCFIterInfo ] 1
|  8>     print[ P_OrbEn ] 0
|  9>     print[ P_Cartesian ] 0
| 10> end
| 11> *xyz 0 1
| 12>  C        1.6611220000     1.6805340000     2.2154540000
| 13>  C        1.9979390000     1.2092870000     1.0226270000
| 14>  C        2.4688200000    -0.1890350000     0.7664230000
| 15>  N        3.8780370000    -0.2801810000     0.3873340000
| 16>  N        4.7384020000     0.2031520000     1.3559120000
| 17>  C        5.6042410000    -0.6313080000     1.9848780000
| 18>  O        6.3183880000    -0.3027070000     2.9004220000
| 19>  H        1.3467600000     2.7084980000     2.3554380000
| 20>  H        1.6763970000     1.0463820000     3.0968690000
| 21>  H        1.9704300000     1.8729880000     0.1589080000
| 22>  H        1.8991120000    -0.6418350000    -0.0512850000
| 23>  H        2.3212000000    -0.8088260000     1.6543450000
| 24>  H        4.0466660000     0.2037140000    -0.4873170000
| 25>  H        4.6032290000     1.1309610000     1.7421370000
| 26>  H        5.5823560000    -1.6428130000     1.5409460000
| 27> *
| 28>
| 29>                          ****END OF INPUT****
 Total Charge           Charge          ....    0
 Multiplicity           Mult            ....    1
 Number of Electrons    NEL             ....   54
 Basis Dimension        Dim             ....  138

MULLIKEN ATOMIC CHARGES
-----------------------
   0 C :   -0.026072
   1 C :   -0.142118
   2 C :    0.163315
   3 N :   -0.141239
   4 N :   -0.099298
   5 C :    0.147080
   6 O :   -0.227629
   7 H :    0.035746
   8 H :    0.034580
   9 H :    0.010927
  10 H :    0.027373
  11 H :    0.018830
  12 H :    0.112907
  13 H :    0.110707
  14 H :   -0.025108
Sum of atomic charges:   -0.0000000

LOEWDIN ATOMIC CHARGES
----------------------
   0 C :   -0.047741
   1 C :   -0.063523
   2 C :    0.003758
   3 N :   -0.022628
   4 N :    0.030748
   5 C :    0.045230
   6 O :   -0.182053
   7 H :    0.029194
   8 H :    0.027521
   9 H :    0.024561
  10 H :    0.034640
  11 H :    0.029263
  12 H :    0.054513
  13 H :    0.054572
  14 H :   -0.018052

  Mayer bond orders larger than 0.1
B(  0-C ,  1-C ) :   1.9810 B(  0-C ,  7-H ) :   0.9458 B(  0-C ,  8-H ) :   0.9518
B(  1-C ,  2-C ) :   1.0475 B(  1-C ,  9-H ) :   0.9547 B(  2-C ,  3-N ) :   1.0449
B(  2-C , 10-H ) :   0.9223 B(  2-C , 11-H ) :   0.9357 B(  3-N ,  4-N ) :   1.0014
B(  3-N , 12-H ) :   0.9425 B(  4-N ,  5-C ) :   1.1804 B(  4-N ,  6-O ) :   0.1060
B(  4-N , 13-H ) :   0.9054 B(  5-C ,  6-O ) :   2.0600 B(  5-C , 14-H ) :   0.9193

FINAL SINGLE POINT ENERGY      -341.250217740765

DIPOLE MOMENT
-------------
                                X             Y             Z
Electronic contribution:      5.65619      -1.40293       1.03673
Nuclear contribution   :     -6.92240       1.90733      -2.05388
                        -----------------------------------------
Total Dipole Moment    :     -1.26621       0.50440      -1.01715
                        -----------------------------------------
Magnitude (a.u.)       :      1.70068
Magnitude (Debye)      :      4.32277

                             ****ORCA TERMINATED NORMALLY****
TOTAL RUN TIME: 0 days 0 hours 0 minutes 6 seconds 879 msec
