                         Program Version 3.0.3 - RELEASE   -
|  1> ! RI PBE def2-SVP def2-SVP/J NBO PAL2
|  2> % maxcore 2000
|  3> % output
|  4>     # printlevel mini
|  5>     print[ P_Basis ] 0
|  6>     print[ P_SCFInfo ] 1
|  7>     print[ P_SCFIterInfo ] 1
|  8>     print[ P_OrbEn ] 0
|  9>     print[ P_Cartesian ] 0
| 10> end
| 11> *xyz 0 1
| 12>  C        0.6715820000     0.4507630000    -0.1704860000
| 13>  C        2.0824840000     0.0359360000    -0.4069230000
| 14>  C        3.1291360000     0.7507070000    -0.0115720000
| 15>  N        4.4696400000     0.4113430000    -0.2056150000
| 16>  N        4.7658340000    -0.7777490000    -0.8702340000
| 17>  C        5.4903790000     1.2006900000     0.2316550000
| 18>  O        6.6603280000     0.9383950000     0.0811860000
| 19>  H        0.1317270000    -0.2974830000     0.4188690000
| 20>  H        0.1263320000     0.5576560000    -1.1138470000
| 21>  H        0.6121900000     1.4031400000     0.3610770000
| 22>  H        2.2663280000    -0.8972850000    -0.9285350000
| 23>  H        3.0079960000     1.6927110000     0.5146980000
| 24>  H        5.3487410000    -1.3381620000    -0.2554070000
| 25>  H        5.3474500000    -0.5473210000    -1.6705150000
| 26>  H        5.1292610000     2.1112600000     0.7405380000
| 27> *
| 28>
| 29>                          ****END OF INPUT****
 Total Charge           Charge          ....    0
 Multiplicity           Mult            ....    1
 Number of Electrons    NEL             ....   54
 Basis Dimension        Dim             ....  138

MULLIKEN ATOMIC CHARGES
-----------------------
   0 C :    0.028670
   1 C :   -0.116768
   2 C :    0.089090
   3 N :   -0.179097
   4 N :   -0.033345
   5 C :    0.138087
   6 O :   -0.222837
   7 H :    0.037432
   8 H :    0.035558
   9 H :    0.015309
  10 H :    0.010365
  11 H :   -0.008683
  12 H :    0.112952
  13 H :    0.112465
  14 H :   -0.019199
Sum of atomic charges:   -0.0000000

LOEWDIN ATOMIC CHARGES
----------------------
   0 C :   -0.061851
   1 C :   -0.074033
   2 C :   -0.015169
   3 N :    0.034200
   4 N :   -0.004934
   5 C :    0.039254
   6 O :   -0.177920
   7 H :    0.036106
   8 H :    0.036034
   9 H :    0.028841
  10 H :    0.025710
  11 H :    0.023238
  12 H :    0.061089
  13 H :    0.061034
  14 H :   -0.011599

  Mayer bond orders larger than 0.1
B(  0-C ,  1-C ) :   1.0868 B(  0-C ,  7-H ) :   0.9485 B(  0-C ,  8-H ) :   0.9474
B(  0-C ,  9-H ) :   0.9595 B(  1-C ,  2-C ) :   1.8413 B(  1-C , 10-H ) :   0.9421
B(  2-C ,  3-N ) :   1.0379 B(  2-C , 11-H ) :   0.9475 B(  3-N ,  4-N ) :   1.0498
B(  3-N ,  5-C ) :   1.1354 B(  4-N , 12-H ) :   0.9643 B(  4-N , 13-H ) :   0.9642
B(  5-C ,  6-O ) :   2.0437 B(  5-C , 14-H ) :   0.9203

FINAL SINGLE POINT ENERGY      -341.267039840839

DIPOLE MOMENT
-------------
                                X             Y             Z
Electronic contribution:      8.21532       0.53461       0.26737
Nuclear contribution   :     -8.92668      -0.61918      -0.31309
                        -----------------------------------------
Total Dipole Moment    :     -0.71137      -0.08457      -0.04571
                        -----------------------------------------
Magnitude (a.u.)       :      0.71783
Magnitude (Debye)      :      1.82459

                             ****ORCA TERMINATED NORMALLY****
TOTAL RUN TIME: 0 days 0 hours 0 minutes 6 seconds 846 msec
