                         Program Version 3.0.3 - RELEASE   -
|  1> ! RI PBE def2-SVP def2-SVP/J NBO PAL2
|  2> % maxcore 2000
|  3> % output
|  4>     # printlevel mini
|  5>     print[ P_Basis ] 0
|  6>     print[ P_SCFInfo ] 1
|  7>     print[ P_SCFIterInfo ] 1
|  8>     print[ P_OrbEn ] 0
|  9>     print[ P_Cartesian ] 0
| 10> end
| 11> *xyz 0 1
| 12>  C        0.4495920000     0.1307950000     1.4895730000
| 13>  C        1.5307160000    -0.1197260000     0.4914180000
| 14>  C        2.7997420000     0.2493070000     0.6612020000
| 15>  N        1.1319380000    -0.7605740000    -0.6995670000
| 16>  N        0.1592460000    -1.7607650000    -0.6052990000
| 17>  C        1.5399740000    -0.3664830000    -1.9384950000
| 18>  O        1.1850760000    -0.9075100000    -2.9616360000
| 19>  H        0.8463560000     0.6911260000     2.3352730000
| 20>  H        0.0271530000    -0.8075020000     1.8518100000
| 21>  H       -0.3719690000     0.6935980000     1.0379200000
| 22>  H        3.0869480000     0.8286240000     1.5283230000
| 23>  H        3.5729090000    -0.0082660000    -0.0513390000
| 24>  H        0.6307400000    -2.6618250000    -0.6217830000
| 25>  H       -0.3805960000    -1.7151930000    -1.4655430000
| 26>  H        2.1908780000     0.5200930000    -1.9032570000
| 27> *
| 28>
| 29>                          ****END OF INPUT****
 Total Charge           Charge          ....    0
 Multiplicity           Mult            ....    1
 Number of Electrons    NEL             ....   54
 Basis Dimension        Dim             ....  138

MULLIKEN ATOMIC CHARGES
-----------------------
   0 C :    0.102789
   1 C :   -0.063574
   2 C :   -0.057767
   3 N :   -0.198628
   4 N :   -0.048223
   5 C :    0.150801
   6 O :   -0.232204
   7 H :    0.015905
   8 H :    0.041243
   9 H :    0.033904
  10 H :    0.016741
  11 H :    0.026537
  12 H :    0.115053
  13 H :    0.101995
  14 H :   -0.004572
Sum of atomic charges:    0.0000000

LOEWDIN ATOMIC CHARGES
----------------------
   0 C :   -0.057771
   1 C :    0.001682
   2 C :   -0.099060
   3 N :    0.028411
   4 N :   -0.014767
   5 C :    0.042758
   6 O :   -0.181540
   7 H :    0.035310
   8 H :    0.041628
   9 H :    0.040049
  10 H :    0.028562
  11 H :    0.024745
  12 H :    0.061074
  13 H :    0.054178
  14 H :   -0.005259

  Mayer bond orders larger than 0.1
B(  0-C ,  1-C ) :   1.0962 B(  0-C ,  7-H ) :   0.9409 B(  0-C ,  8-H ) :   0.9274
B(  0-C ,  9-H ) :   0.9382 B(  1-C ,  2-C ) :   1.9150 B(  1-C ,  3-N ) :   0.9913
B(  2-C , 10-H ) :   0.9258 B(  2-C , 11-H ) :   0.9362 B(  3-N ,  4-N ) :   1.0411
B(  3-N ,  5-C ) :   1.1396 B(  4-N , 12-H ) :   0.9613 B(  4-N , 13-H ) :   0.9548
B(  5-C ,  6-O ) :   2.0182 B(  5-C , 14-H ) :   0.9238

FINAL SINGLE POINT ENERGY      -341.263848202636

DIPOLE MOMENT
-------------
                                X             Y             Z
Electronic contribution:      0.21171      -1.71310      -5.73788
Nuclear contribution   :     -0.19132       1.69643       6.59048
                        -----------------------------------------
Total Dipole Moment    :      0.02039      -0.01668       0.85260
                        -----------------------------------------
Magnitude (a.u.)       :      0.85301
Magnitude (Debye)      :      2.16817

                             ****ORCA TERMINATED NORMALLY****
TOTAL RUN TIME: 0 days 0 hours 0 minutes 7 seconds 19 msec
