                         Program Version 3.0.3 - RELEASE   -
|  1> ! RI PBE def2-SVP def2-SVP/J NBO PAL2
|  2> % maxcore 2000
|  3> % output
|  4>     # printlevel mini
|  5>     print[ P_Basis ] 0
|  6>     print[ P_SCFInfo ] 1
|  7>     print[ P_SCFIterInfo ] 1
|  8>     print[ P_OrbEn ] 0
|  9>     print[ P_Cartesian ] 0
| 10> end
| 11> *xyz 0 1
| 12>  C        0.9116320000    -0.2893110000     0.0991610000
| 13>  C        2.3296310000     0.0859700000    -0.1684070000
| 14>  C        2.6249610000     1.4816570000    -0.6326300000
| 15>  N        3.2197870000    -0.8092080000     0.0144510000
| 16>  N        4.5123290000    -0.4903680000    -0.2221440000
| 17>  C        5.4885580000    -1.4214240000    -0.0372990000
| 18>  O        6.6595570000    -1.2055320000    -0.2288240000
| 19>  H        0.3017840000    -0.1598470000    -0.8009690000
| 20>  H        0.4799630000     0.3579770000     0.8696170000
| 21>  H        0.8478840000    -1.3256090000     0.4271970000
| 22>  H        1.7104880000     2.0672770000    -0.7168690000
| 23>  H        3.1114260000     1.4814550000    -1.6142710000
| 24>  H        3.2902070000     2.0022250000     0.0650300000
| 25>  H        4.7960370000     0.4298070000    -0.5378110000
| 26>  H        5.0726660000    -2.3832820000     0.3055660000
| 27> *
| 28>
| 29>                          ****END OF INPUT****
 Total Charge           Charge          ....    0
 Multiplicity           Mult            ....    1
 Number of Electrons    NEL             ....   54
 Basis Dimension        Dim             ....  138

MULLIKEN ATOMIC CHARGES
-----------------------
   0 C :    0.070251
   1 C :   -0.266528
   2 C :    0.006777
   3 N :   -0.027195
   4 N :   -0.045573
   5 C :    0.151172
   6 O :   -0.217179
   7 H :    0.037625
   8 H :    0.035907
   9 H :    0.029458
  10 H :    0.028134
  11 H :    0.053888
  12 H :    0.055200
  13 H :    0.099166
  14 H :   -0.011103
Sum of atomic charges:   -0.0000000

LOEWDIN ATOMIC CHARGES
----------------------
   0 C :   -0.062088
   1 C :   -0.043906
   2 C :   -0.085948
   3 N :   -0.044677
   4 N :    0.058800
   5 C :    0.056078
   6 O :   -0.168365
   7 H :    0.038907
   8 H :    0.038616
   9 H :    0.037988
  10 H :    0.040901
  11 H :    0.043726
  12 H :    0.043517
  13 H :    0.056873
  14 H :   -0.010422

  Mayer bond orders larger than 0.1
B(  0-C ,  1-C ) :   1.1009 B(  0-C ,  7-H ) :   0.9406 B(  0-C ,  8-H ) :   0.9404
B(  0-C ,  9-H ) :   0.9474 B(  1-C ,  2-C ) :   1.0613 B(  1-C ,  3-N ) :   1.8966
B(  2-C , 10-H ) :   0.9441 B(  2-C , 11-H ) :   0.9369 B(  2-C , 12-H ) :   0.9393
B(  3-N ,  4-N ) :   1.0117 B(  4-N ,  5-C ) :   1.1485 B(  4-N , 13-H ) :   0.8961
B(  5-C ,  6-O ) :   2.0615 B(  5-C , 14-H ) :   0.9248

FINAL SINGLE POINT ENERGY      -341.286636382073

DIPOLE MOMENT
-------------
                                X             Y             Z
Electronic contribution:      7.99466      -4.08569       0.41252
Nuclear contribution   :     -9.36787       5.05440      -0.56936
                        -----------------------------------------
Total Dipole Moment    :     -1.37321       0.96871      -0.15684
                        -----------------------------------------
Magnitude (a.u.)       :      1.68781
Magnitude (Debye)      :      4.29008

                             ****ORCA TERMINATED NORMALLY****
TOTAL RUN TIME: 0 days 0 hours 0 minutes 6 seconds 402 msec
