                         Program Version 3.0.3 - RELEASE   -
|  1> ! RI PBE def2-SVP def2-SVP/J NBO PAL2
|  2> % maxcore 2000
|  3> % output
|  4>     # printlevel mini
|  5>     print[ P_Basis ] 0
|  6>     print[ P_SCFInfo ] 1
|  7>     print[ P_SCFIterInfo ] 1
|  8>     print[ P_OrbEn ] 0
|  9>     print[ P_Cartesian ] 0
| 10> end
| 11> *xyz 0 1
| 12>  C        1.1013250000    -0.0673240000     0.4567790000
| 13>  C        2.4836380000    -0.0392350000    -0.1757660000
| 14>  C        2.8839810000    -1.4006370000    -0.7217370000
| 15>  N        2.5643910000     0.9825820000    -1.2095350000
| 16>  N        1.7207730000     0.8329760000    -2.3109590000
| 17>  C        3.4016400000     2.0415850000    -1.1533280000
| 18>  O        3.4831120000     2.8994500000    -2.0051830000
| 19>  H        1.0617530000    -0.8163940000     1.2504330000
| 20>  H        0.3498750000    -0.3237420000    -0.2928450000
| 21>  H        0.8457100000     0.9032370000     0.8874860000
| 22>  H        3.2132420000     0.2667580000     0.5816000000
| 23>  H        2.1973130000    -1.7044030000    -1.5145470000
| 24>  H        2.8472890000    -2.1530810000     0.0688370000
| 25>  H        3.8972500000    -1.3790450000    -1.1287510000
| 26>  H        2.2957440000     0.8142090000    -3.1483370000
| 27>  H        1.1532390000     1.6718910000    -2.3896550000
| 28>  H        4.0144260000     2.0429730000    -0.2331920000
| 29> *
| 30>
| 31>                          ****END OF INPUT****
 Total Charge           Charge          ....    0
 Multiplicity           Mult            ....    1
 Number of Electrons    NEL             ....   56
 Basis Dimension        Dim             ....  148

MULLIKEN ATOMIC CHARGES
-----------------------
   0 C :    0.007213
   1 C :   -0.006828
   2 C :    0.012861
   3 N :   -0.218836
   4 N :   -0.049203
   5 C :    0.134901
   6 O :   -0.238925
   7 H :    0.027548
   8 H :    0.033084
   9 H :    0.018369
  10 H :    0.011978
  11 H :    0.032939
  12 H :    0.026845
  13 H :    0.017011
  14 H :    0.107674
  15 H :    0.108804
  16 H :   -0.025436
Sum of atomic charges:   -0.0000000

LOEWDIN ATOMIC CHARGES
----------------------
   0 C :   -0.067502
   1 C :    0.012564
   2 C :   -0.067129
   3 N :    0.009402
   4 N :   -0.019166
   5 C :    0.028236
   6 O :   -0.196699
   7 H :    0.031204
   8 H :    0.029731
   9 H :    0.026701
  10 H :    0.024607
  11 H :    0.029347
  12 H :    0.031136
  13 H :    0.026635
  14 H :    0.058117
  15 H :    0.058498
  16 H :   -0.015682

  Mayer bond orders larger than 0.1
B(  0-C ,  1-C ) :   1.0875 B(  0-C ,  7-H ) :   0.9597 B(  0-C ,  8-H ) :   0.9545
B(  0-C ,  9-H ) :   0.9560 B(  1-C ,  2-C ) :   1.0865 B(  1-C ,  3-N ) :   0.9620
B(  1-C , 10-H ) :   0.9049 B(  2-C , 11-H ) :   0.9548 B(  2-C , 12-H ) :   0.9596
B(  2-C , 13-H ) :   0.9539 B(  3-N ,  4-N ) :   1.0341 B(  3-N ,  5-C ) :   1.1863
B(  4-N , 14-H ) :   0.9624 B(  4-N , 15-H ) :   0.9619 B(  5-C ,  6-O ) :   2.0284
B(  5-C , 16-H ) :   0.9177

FINAL SINGLE POINT ENERGY      -342.482110285744

DIPOLE MOMENT
-------------
                                X             Y             Z
Electronic contribution:      2.70451       6.90624      -3.73444
Nuclear contribution   :     -3.01367      -7.72615       4.20781
                        -----------------------------------------
Total Dipole Moment    :     -0.30916      -0.81991       0.47337
                        -----------------------------------------
Magnitude (a.u.)       :      0.99595
Magnitude (Debye)      :      2.53150

                             ****ORCA TERMINATED NORMALLY****
TOTAL RUN TIME: 0 days 0 hours 0 minutes 7 seconds 628 msec
