                         Program Version 3.0.3 - RELEASE   -
|  1> ! RI PBE def2-SVP def2-SVP/J NBO PAL2
|  2> % maxcore 2000
|  3> % output
|  4>     # printlevel mini
|  5>     print[ P_Basis ] 0
|  6>     print[ P_SCFInfo ] 1
|  7>     print[ P_SCFIterInfo ] 1
|  8>     print[ P_OrbEn ] 0
|  9>     print[ P_Cartesian ] 0
| 10> end
| 11> *xyz 0 1
| 12>  C        1.3478490000    -0.2499750000     0.2792570000
| 13>  C        2.8491160000    -0.1419970000     0.5204240000
| 14>  C        3.1576960000     0.6771770000     1.7588620000
| 15>  N        3.5244840000    -1.4283480000     0.6652140000
| 16>  N        3.4270060000    -2.2716430000    -0.4193550000
| 17>  C        4.4827940000    -2.5114410000    -1.2439820000
| 18>  O        5.6024700000    -2.0906540000    -1.1281880000
| 19>  H        0.9048650000     0.7389220000     0.1392960000
| 20>  H        0.8502820000    -0.7210940000     1.1333950000
| 21>  H        1.1194640000    -0.8319090000    -0.6176670000
| 22>  H        3.3139220000     0.3408490000    -0.3458600000
| 23>  H        2.7353390000     0.2052000000     2.6525200000
| 24>  H        2.7241420000     1.6757820000     1.6799410000
| 25>  H        4.2354020000     0.7704390000     1.8980150000
| 26>  H        3.2343770000    -1.9115180000     1.5071550000
| 27>  H        2.5248530000    -2.6263900000    -0.7095950000
| 28>  H        4.1687290000    -3.1799210000    -2.0721520000
| 29> *
| 30>
| 31>                          ****END OF INPUT****
 Total Charge           Charge          ....    0
 Multiplicity           Mult            ....    1
 Number of Electrons    NEL             ....   56
 Basis Dimension        Dim             ....  148

MULLIKEN ATOMIC CHARGES
-----------------------
   0 C :    0.003266
   1 C :   -0.040345
   2 C :    0.011794
   3 N :   -0.124917
   4 N :   -0.089216
   5 C :    0.130002
   6 O :   -0.202515
   7 H :    0.023982
   8 H :    0.010171
   9 H :    0.012380
  10 H :    0.023624
  11 H :    0.007419
  12 H :    0.023570
  13 H :    0.043582
  14 H :    0.105393
  15 H :    0.101353
  16 H :   -0.039541
Sum of atomic charges:    0.0000000

LOEWDIN ATOMIC CHARGES
----------------------
   0 C :   -0.079791
   1 C :   -0.006815
   2 C :   -0.061227
   3 N :   -0.023428
   4 N :    0.029765
   5 C :    0.037666
   6 O :   -0.165663
   7 H :    0.032548
   8 H :    0.021945
   9 H :    0.019009
  10 H :    0.029482
  11 H :    0.022591
  12 H :    0.031536
  13 H :    0.035699
  14 H :    0.051899
  15 H :    0.048434
  16 H :   -0.023650

  Mayer bond orders larger than 0.1
B(  0-C ,  1-C ) :   1.0680 B(  0-C ,  7-H ) :   0.9524 B(  0-C ,  8-H ) :   0.9566
B(  0-C ,  9-H ) :   0.9528 B(  1-C ,  2-C ) :   1.0983 B(  1-C ,  3-N ) :   1.0031
B(  1-C , 10-H ) :   0.9154 B(  2-C , 11-H ) :   0.9540 B(  2-C , 12-H ) :   0.9593
B(  2-C , 13-H ) :   0.9593 B(  3-N ,  4-N ) :   1.0023 B(  3-N , 14-H ) :   0.9398
B(  4-N ,  5-C ) :   1.1738 B(  4-N , 15-H ) :   0.9130 B(  5-C ,  6-O ) :   2.1064
B(  5-C , 16-H ) :   0.9101

FINAL SINGLE POINT ENERGY      -342.472587040467

DIPOLE MOMENT
-------------
                                X             Y             Z
Electronic contribution:      6.67360      -5.61338      -3.94927
Nuclear contribution   :     -8.37986       5.58313       4.32642
                        -----------------------------------------
Total Dipole Moment    :     -1.70626      -0.03025       0.37714
                        -----------------------------------------
Magnitude (a.u.)       :      1.74770
Magnitude (Debye)      :      4.44231

                             ****ORCA TERMINATED NORMALLY****
TOTAL RUN TIME: 0 days 0 hours 0 minutes 7 seconds 175 msec
