                         Program Version 3.0.3 - RELEASE   -
|  1> ! RI PBE def2-SVP def2-SVP/J NBO PAL2
|  2> % maxcore 2000
|  3> % output
|  4>     # printlevel mini
|  5>     print[ P_Basis ] 0
|  6>     print[ P_SCFInfo ] 1
|  7>     print[ P_SCFIterInfo ] 1
|  8>     print[ P_OrbEn ] 0
|  9>     print[ P_Cartesian ] 0
| 10> end
| 11> *xyz 0 1
| 12>  C        0.9055050000     0.0797160000     0.1608800000
| 13>  C        2.4126530000    -0.0030730000    -0.0213690000
| 14>  C        2.8402930000    -1.3218250000    -0.6553510000
| 15>  N        4.2903790000    -1.3991360000    -0.7467950000
| 16>  N        2.9344050000     1.1426460000    -0.7637740000
| 17>  C        2.6064570000     1.4719080000    -2.0291630000
| 18>  O        1.8450600000     0.8639330000    -2.7488350000
| 19>  H        0.5576580000    -0.7520930000     0.7778870000
| 20>  H        0.3969550000     0.0368540000    -0.8025820000
| 21>  H        0.6270530000     1.0113210000     0.6572760000
| 22>  H        2.9005190000     0.0506020000     0.9560260000
| 23>  H        2.3219360000    -1.4364140000    -1.6158250000
| 24>  H        2.4957210000    -2.1249160000     0.0026270000
| 25>  H        4.6214700000    -0.7719940000    -1.4702610000
| 26>  H        4.5746510000    -2.3302660000    -1.0229380000
| 27>  H        3.6014060000     1.7361410000    -0.3020440000
| 28>  H        3.1271990000     2.3916170000    -2.3630790000
| 29> *
| 30>
| 31>                          ****END OF INPUT****
 Total Charge           Charge          ....    0
 Multiplicity           Mult            ....    1
 Number of Electrons    NEL             ....   56
 Basis Dimension        Dim             ....  148

MULLIKEN ATOMIC CHARGES
-----------------------
   0 C :    0.032315
   1 C :   -0.032494
   2 C :    0.078670
   3 N :   -0.210108
   4 N :   -0.129151
   5 C :    0.125791
   6 O :   -0.237740
   7 H :    0.018997
   8 H :    0.046096
   9 H :    0.015533
  10 H :    0.001648
  11 H :    0.016744
  12 H :    0.006384
  13 H :    0.085348
  14 H :    0.090706
  15 H :    0.117445
  16 H :   -0.026184
Sum of atomic charges:   -0.0000000

LOEWDIN ATOMIC CHARGES
----------------------
   0 C :   -0.063866
   1 C :    0.009169
   2 C :    0.002323
   3 N :   -0.114427
   4 N :    0.009081
   5 C :    0.042981
   6 O :   -0.191724
   7 H :    0.029391
   8 H :    0.033156
   9 H :    0.026245
  10 H :    0.025411
  11 H :    0.008611
  12 H :    0.023556
  13 H :    0.047354
  14 H :    0.054440
  15 H :    0.075820
  16 H :   -0.017522

  Mayer bond orders larger than 0.1
B(  0-C ,  1-C ) :   1.0770 B(  0-C ,  7-H ) :   0.9571 B(  0-C ,  8-H ) :   0.9519
B(  0-C ,  9-H ) :   0.9545 B(  1-C ,  2-C ) :   1.0383 B(  1-C ,  4-N ) :   0.9800
B(  1-C , 10-H ) :   0.9136 B(  2-C ,  3-N ) :   1.0977 B(  2-C , 11-H ) :   0.9220
B(  2-C , 12-H ) :   0.9325 B(  3-N , 13-H ) :   0.9689 B(  3-N , 14-H ) :   0.9644
B(  4-N ,  5-C ) :   1.2337 B(  4-N ,  6-O ) :   0.1011 B(  4-N , 15-H ) :   0.9315
B(  5-C ,  6-O ) :   1.9926 B(  5-C , 16-H ) :   0.9208

FINAL SINGLE POINT ENERGY      -342.503069886421

DIPOLE MOMENT
-------------
                                X             Y             Z
Electronic contribution:      0.96834       3.12604      -3.66556
Nuclear contribution   :     -0.34638      -3.03222       4.38489
                        -----------------------------------------
Total Dipole Moment    :      0.62196       0.09382       0.71933
                        -----------------------------------------
Magnitude (a.u.)       :      0.95555
Magnitude (Debye)      :      2.42881

                             ****ORCA TERMINATED NORMALLY****
TOTAL RUN TIME: 0 days 0 hours 0 minutes 7 seconds 818 msec
