                         Program Version 3.0.3 - RELEASE   -
|  1> ! RI PBE def2-SVP def2-SVP/J NBO PAL2
|  2> % maxcore 2000
|  3> % output
|  4>     # printlevel mini
|  5>     print[ P_Basis ] 0
|  6>     print[ P_SCFInfo ] 1
|  7>     print[ P_SCFIterInfo ] 1
|  8>     print[ P_OrbEn ] 0
|  9>     print[ P_Cartesian ] 0
| 10> end
| 11> *xyz 0 1
| 12>  C        3.1603760000     1.0576720000    -1.7518380000
| 13>  C        3.5993300000     0.1399190000    -0.6153050000
| 14>  C        2.8578650000     0.4063010000     0.6465990000
| 15>  N        3.4621350000     0.7612540000     1.7042290000
| 16>  N        2.7243710000     0.9944400000     2.8092680000
| 17>  C        3.3207400000     1.3769260000     3.9717650000
| 18>  O        2.7137640000     1.5997290000     4.9892430000
| 19>  H        3.6917140000     0.8127610000    -2.6734310000
| 20>  H        3.3637750000     2.1031250000    -1.5106070000
| 21>  H        2.0897020000     0.9616650000    -1.9507930000
| 22>  H        4.6671250000     0.2499730000    -0.4156860000
| 23>  H        3.4293290000    -0.9030920000    -0.9090500000
| 24>  H        1.7647000000     0.2985960000     0.6280890000
| 25>  H        1.7137480000     0.8915570000     2.8003500000
| 26>  H        4.4149260000     1.4542730000     3.8598660000
| 27> *
| 28>
| 29>                          ****END OF INPUT****
 Total Charge           Charge          ....    0
 Multiplicity           Mult            ....    1
 Number of Electrons    NEL             ....   54
 Basis Dimension        Dim             ....  138

MULLIKEN ATOMIC CHARGES
-----------------------
   0 C :   -0.052848
   1 C :    0.036699
   2 C :   -0.090333
   3 N :   -0.034618
   4 N :   -0.037692
   5 C :    0.145385
   6 O :   -0.212033
   7 H :    0.030271
   8 H :    0.038272
   9 H :    0.027960
  10 H :    0.030983
  11 H :    0.030503
  12 H :   -0.011627
  13 H :    0.105305
  14 H :   -0.006227
Sum of atomic charges:   -0.0000000

LOEWDIN ATOMIC CHARGES
----------------------
   0 C :   -0.061776
   1 C :   -0.053153
   2 C :   -0.018626
   3 N :   -0.027630
   4 N :    0.060839
   5 C :    0.054318
   6 O :   -0.165175
   7 H :    0.031455
   8 H :    0.030129
   9 H :    0.026433
  10 H :    0.037500
  11 H :    0.037758
  12 H :   -0.003687
  13 H :    0.060219
  14 H :   -0.008606

  Mayer bond orders larger than 0.1
B(  0-C ,  1-C ) :   1.0935 B(  0-C ,  7-H ) :   0.9606 B(  0-C ,  8-H ) :   0.9698
B(  0-C ,  9-H ) :   0.9697 B(  1-C ,  2-C ) :   1.0526 B(  1-C , 10-H ) :   0.9318
B(  1-C , 11-H ) :   0.9197 B(  2-C ,  3-N ) :   1.8674 B(  2-C , 12-H ) :   0.9331
B(  3-N ,  4-N ) :   1.0240 B(  4-N ,  5-C ) :   1.1426 B(  4-N , 13-H ) :   0.9013
B(  5-C ,  6-O ) :   2.0693 B(  5-C , 14-H ) :   0.9262

FINAL SINGLE POINT ENERGY      -341.280019659577

DIPOLE MOMENT
-------------
                                X             Y             Z
Electronic contribution:     -0.56881       0.96425      11.36429
Nuclear contribution   :      0.27580      -1.37381     -12.84287
                        -----------------------------------------
Total Dipole Moment    :     -0.29301      -0.40956      -1.47858
                        -----------------------------------------
Magnitude (a.u.)       :      1.56198
Magnitude (Debye)      :      3.97024

                             ****ORCA TERMINATED NORMALLY****
TOTAL RUN TIME: 0 days 0 hours 0 minutes 6 seconds 450 msec
