                         Program Version 3.0.3 - RELEASE   -
|  1> ! RI PBE def2-SVP def2-SVP/J NBO PAL2
|  2> % maxcore 2000
|  3> % output
|  4>     # printlevel mini
|  5>     print[ P_Basis ] 0
|  6>     print[ P_SCFInfo ] 1
|  7>     print[ P_SCFIterInfo ] 1
|  8>     print[ P_OrbEn ] 0
|  9>     print[ P_Cartesian ] 0
| 10> end
| 11> *xyz 0 1
| 12>  C        2.3483540000    -0.0209140000    -1.3872050000
| 13>  C        2.6250880000     0.3229700000     0.0725260000
| 14>  C        3.2849770000    -0.7941420000     0.8342980000
| 15>  N        2.7418510000    -1.5097900000     1.7516590000
| 16>  N        4.5537070000    -1.1407930000     0.4741960000
| 17>  C        5.5645920000    -0.2134130000     0.0515660000
| 18>  O        5.1059020000    -2.1216270000     1.2889140000
| 19>  H        1.8297260000     0.8023750000    -1.8827460000
| 20>  H        1.7212910000    -0.9116180000    -1.4612380000
| 21>  H        3.2696150000    -0.2214040000    -1.9367940000
| 22>  H        1.6868650000     0.5467730000     0.5843490000
| 23>  H        3.2322400000     1.2310530000     0.1381400000
| 24>  H        1.7780420000    -1.2544700000     1.9211390000
| 25>  H        5.9801660000     0.3531780000     0.8943340000
| 26>  H        5.1488320000     0.4733300000    -0.6835090000
| 27>  H        6.3701100000    -0.7754870000    -0.4218380000
| 28>  H        4.3361310000    -2.3244100000     1.8744890000
| 29> *
| 30>
| 31>                          ****END OF INPUT****
 Total Charge           Charge          ....    0
 Multiplicity           Mult            ....    1
 Number of Electrons    NEL             ....   56
 Basis Dimension        Dim             ....  148

MULLIKEN ATOMIC CHARGES
-----------------------
   0 C :   -0.024365
   1 C :    0.023877
   2 C :   -0.065730
   3 N :   -0.195118
   4 N :   -0.116893
   5 C :    0.114075
   6 O :   -0.203028
   7 H :    0.030861
   8 H :    0.033212
   9 H :    0.032863
  10 H :    0.001303
  11 H :    0.029510
  12 H :    0.085569
  13 H :    0.023243
  14 H :    0.033452
  15 H :    0.042377
  16 H :    0.154793
Sum of atomic charges:   -0.0000000

LOEWDIN ATOMIC CHARGES
----------------------
   0 C :   -0.059513
   1 C :   -0.057044
   2 C :   -0.007598
   3 N :   -0.181897
   4 N :    0.057020
   5 C :    0.009107
   6 O :   -0.083689
   7 H :    0.029728
   8 H :    0.032852
   9 H :    0.026914
  10 H :    0.033950
  11 H :    0.033344
  12 H :    0.046958
  13 H :    0.017332
  14 H :    0.029080
  15 H :    0.033341
  16 H :    0.040116

  Mayer bond orders larger than 0.1
B(  0-C ,  1-C ) :   1.1116 B(  0-C ,  7-H ) :   0.9599 B(  0-C ,  8-H ) :   0.9613
B(  0-C ,  9-H ) :   0.9654 B(  1-C ,  2-C ) :   1.0528 B(  1-C , 10-H ) :   0.9034
B(  1-C , 11-H ) :   0.9144 B(  2-C ,  3-N ) :   1.7801 B(  2-C ,  4-N ) :   1.1590
B(  3-N ,  4-N ) :   0.1038 B(  3-N , 12-H ) :   0.9250 B(  3-N , 16-H ) :   0.1708
B(  4-N ,  5-C ) :   1.0022 B(  4-N ,  6-O ) :   0.9941 B(  5-C , 13-H ) :   0.9507
B(  5-C , 14-H ) :   0.9534 B(  5-C , 15-H ) :   0.9622 B(  6-O , 16-H ) :   0.8939

FINAL SINGLE POINT ENERGY      -342.438835139917

DIPOLE MOMENT
-------------
                                X             Y             Z
Electronic contribution:      1.82555      -4.46298       4.53185
Nuclear contribution   :     -2.22821       5.52178      -5.08842
                        -----------------------------------------
Total Dipole Moment    :     -0.40267       1.05881      -0.55657
                        -----------------------------------------
Magnitude (a.u.)       :      1.26213
Magnitude (Debye)      :      3.20808

                             ****ORCA TERMINATED NORMALLY****
TOTAL RUN TIME: 0 days 0 hours 0 minutes 7 seconds 913 msec
