                         Program Version 3.0.3 - RELEASE   -
|  1> ! RI PBE def2-SVP def2-SVP/J NBO PAL2
|  2> % maxcore 2000
|  3> % output
|  4>     # printlevel mini
|  5>     print[ P_Basis ] 0
|  6>     print[ P_SCFInfo ] 1
|  7>     print[ P_SCFIterInfo ] 1
|  8>     print[ P_OrbEn ] 0
|  9>     print[ P_Cartesian ] 0
| 10> end
| 11> *xyz 0 1
| 12>  C        2.0215460000     0.0766900000     1.5462920000
| 13>  C        2.2596600000    -0.0303840000     0.0418140000
| 14>  C        3.2749110000     0.9600690000    -0.4628590000
| 15>  N        3.0191840000     2.0481300000    -1.0640520000
| 16>  N        4.6182400000     0.6961710000    -0.2229170000
| 17>  C        5.1950000000    -0.4077920000     0.3324620000
| 18>  O        6.3847440000    -0.5348750000     0.4745080000
| 19>  H        1.2438070000    -0.6229880000     1.8571110000
| 20>  H        1.6982730000     1.0842940000     1.8143230000
| 21>  H        2.9212790000    -0.1471060000     2.1222090000
| 22>  H        1.3284470000     0.1695610000    -0.4919760000
| 23>  H        2.5541720000    -1.0496090000    -0.2243570000
| 24>  H        2.0181240000     2.1595350000    -1.1941100000
| 25>  H        5.2525850000     1.4205290000    -0.5357080000
| 26>  H        4.4742180000    -1.1811350000     0.6421810000
| 27> *
| 28>
| 29>                          ****END OF INPUT****
 Total Charge           Charge          ....    0
 Multiplicity           Mult            ....    1
 Number of Electrons    NEL             ....   54
 Basis Dimension        Dim             ....  138

MULLIKEN ATOMIC CHARGES
-----------------------
   0 C :   -0.019998
   1 C :    0.015561
   2 C :   -0.155169
   3 N :   -0.087297
   4 N :   -0.025565
   5 C :    0.114321
   6 O :   -0.200454
   7 H :    0.038396
   8 H :    0.030351
   9 H :    0.036119
  10 H :    0.011410
  11 H :    0.034118
  12 H :    0.087581
  13 H :    0.125433
  14 H :   -0.004808
Sum of atomic charges:   -0.0000000

LOEWDIN ATOMIC CHARGES
----------------------
   0 C :   -0.056570
   1 C :   -0.062335
   2 C :    0.020611
   3 N :   -0.137457
   4 N :    0.040316
   5 C :    0.057684
   6 O :   -0.156056
   7 H :    0.034311
   8 H :    0.031818
   9 H :    0.028203
  10 H :    0.036382
  11 H :    0.032832
  12 H :    0.049626
  13 H :    0.089673
  14 H :   -0.009039

  Mayer bond orders larger than 0.1
B(  0-C ,  1-C ) :   1.1068 B(  0-C ,  7-H ) :   0.9619 B(  0-C ,  8-H ) :   0.9610
B(  0-C ,  9-H ) :   0.9667 B(  1-C ,  2-C ) :   1.0197 B(  1-C , 10-H ) :   0.9077
B(  1-C , 11-H ) :   0.9087 B(  2-C ,  3-N ) :   1.9946 B(  2-C ,  4-N ) :   1.0924
B(  3-N , 12-H ) :   0.9254 B(  4-N ,  5-C ) :   1.1468 B(  4-N , 13-H ) :   0.8976
B(  5-C ,  6-O ) :   2.0861 B(  5-C , 14-H ) :   0.9133

FINAL SINGLE POINT ENERGY      -341.311954491252

DIPOLE MOMENT
-------------
                                X             Y             Z
Electronic contribution:      7.13216       0.98102      -2.77263
Nuclear contribution   :     -8.58191      -1.20060       2.90835
                        -----------------------------------------
Total Dipole Moment    :     -1.44975      -0.21958       0.13573
                        -----------------------------------------
Magnitude (a.u.)       :      1.47255
Magnitude (Debye)      :      3.74293

                             ****ORCA TERMINATED NORMALLY****
TOTAL RUN TIME: 0 days 0 hours 0 minutes 6 seconds 968 msec
