                         Program Version 3.0.3 - RELEASE   -
|  1> ! RI PBE def2-SVP def2-SVP/J NBO PAL2
|  2> % maxcore 2000
|  3> % output
|  4>     # printlevel mini
|  5>     print[ P_Basis ] 0
|  6>     print[ P_SCFInfo ] 1
|  7>     print[ P_SCFIterInfo ] 1
|  8>     print[ P_OrbEn ] 0
|  9>     print[ P_Cartesian ] 0
| 10> end
| 11> *xyz 0 1
| 12>  C        0.8752540000    -0.0258390000     0.1515130000
| 13>  C        2.3785530000    -0.2075650000     0.0357690000
| 14>  C        3.1108310000     1.1232840000    -0.0105840000
| 15>  N        4.5475590000     0.9887680000    -0.0603050000
| 16>  N        5.1650100000     0.4826020000     1.0855780000
| 17>  C        5.3018870000     1.3461570000    -1.1229640000
| 18>  O        6.5084380000     1.2488900000    -1.1713350000
| 19>  H        0.3625520000    -0.9888500000     0.1868810000
| 20>  H        0.4726650000     0.5316420000    -0.6990830000
| 21>  H        0.6119300000     0.5221830000     1.0603610000
| 22>  H        2.6232100000    -0.7798590000    -0.8654310000
| 23>  H        2.7547660000    -0.7802120000     0.8883150000
| 24>  H        2.8464370000     1.7226530000     0.8676690000
| 25>  H        2.8070490000     1.6918070000    -0.8949630000
| 26>  H        5.8806980000     1.1459990000     1.3696800000
| 27>  H        5.6672700000    -0.3627210000     0.8291640000
| 28>  H        4.6926020000     1.7463520000    -1.9538670000
| 29> *
| 30>
| 31>                          ****END OF INPUT****
 Total Charge           Charge          ....    0
 Multiplicity           Mult            ....    1
 Number of Electrons    NEL             ....   56
 Basis Dimension        Dim             ....  148

MULLIKEN ATOMIC CHARGES
-----------------------
   0 C :   -0.021207
   1 C :   -0.055509
   2 C :    0.134960
   3 N :   -0.221013
   4 N :   -0.055622
   5 C :    0.127885
   6 O :   -0.238269
   7 H :    0.026212
   8 H :    0.020215
   9 H :    0.023276
  10 H :    0.013042
  11 H :    0.026136
  12 H :    0.015351
  13 H :    0.011868
  14 H :    0.107302
  15 H :    0.109584
  16 H :   -0.024212
Sum of atomic charges:   -0.0000000

LOEWDIN ATOMIC CHARGES
----------------------
   0 C :   -0.063863
   1 C :   -0.057840
   2 C :    0.024543
   3 N :    0.007037
   4 N :   -0.021893
   5 C :    0.027614
   6 O :   -0.195599
   7 H :    0.030622
   8 H :    0.025165
   9 H :    0.026824
  10 H :    0.024222
  11 H :    0.026645
  12 H :    0.022803
  13 H :    0.023808
  14 H :    0.057424
  15 H :    0.057700
  16 H :   -0.015211

  Mayer bond orders larger than 0.1
B(  0-C ,  1-C ) :   1.1187 B(  0-C ,  7-H ) :   0.9606 B(  0-C ,  8-H ) :   0.9673
B(  0-C ,  9-H ) :   0.9658 B(  1-C ,  2-C ) :   1.0911 B(  1-C , 10-H ) :   0.9315
B(  1-C , 11-H ) :   0.9330 B(  2-C ,  3-N ) :   0.9841 B(  2-C , 12-H ) :   0.9298
B(  2-C , 13-H ) :   0.9244 B(  3-N ,  4-N ) :   1.0284 B(  3-N ,  5-C ) :   1.1864
B(  4-N , 14-H ) :   0.9630 B(  4-N , 15-H ) :   0.9636 B(  5-C ,  6-O ) :   2.0280
B(  5-C , 16-H ) :   0.9179

FINAL SINGLE POINT ENERGY      -342.479386541319

DIPOLE MOMENT
-------------
                                X             Y             Z
Electronic contribution:      9.65359       2.31184      -1.78810
Nuclear contribution   :    -10.60135      -2.42496       2.10527
                        -----------------------------------------
Total Dipole Moment    :     -0.94776      -0.11312       0.31717
                        -----------------------------------------
Magnitude (a.u.)       :      1.00580
Magnitude (Debye)      :      2.55655

                             ****ORCA TERMINATED NORMALLY****
TOTAL RUN TIME: 0 days 0 hours 0 minutes 7 seconds 645 msec
