                         Program Version 3.0.3 - RELEASE   -
|  1> ! RI PBE def2-SVP def2-SVP/J NBO PAL2
|  2> % maxcore 2000
|  3> % output
|  4>     # printlevel mini
|  5>     print[ P_Basis ] 0
|  6>     print[ P_SCFInfo ] 1
|  7>     print[ P_SCFIterInfo ] 1
|  8>     print[ P_OrbEn ] 0
|  9>     print[ P_Cartesian ] 0
| 10> end
| 11> *xyz 0 1
| 12>  C        1.3209460000     0.4080160000     0.2493180000
| 13>  C        2.8158990000     0.5574450000     0.0207530000
| 14>  C        3.1826400000     0.4555560000    -1.4550470000
| 15>  N        4.5876490000     0.6079580000    -1.7846750000
| 16>  N        5.4133140000    -0.3637190000    -1.2606730000
| 17>  C        6.0358250000    -1.2861790000    -2.0440780000
| 18>  O        5.9975580000    -1.3640420000    -3.2424040000
| 19>  H        1.0671440000     0.4852160000     1.3083750000
| 20>  H        0.9633650000    -0.5614020000    -0.1080790000
| 21>  H        0.7619730000     1.1818270000    -0.2839030000
| 22>  H        3.3453130000    -0.2154150000     0.5899230000
| 23>  H        3.1572290000     1.5241030000     0.4104500000
| 24>  H        2.6476870000     1.2268470000    -2.0190460000
| 25>  H        2.8550860000    -0.5076260000    -1.8583490000
| 26>  H        4.9410940000     1.5261300000    -1.5483490000
| 27>  H        5.4952840000    -0.4759630000    -0.2586160000
| 28>  H        6.6156030000    -1.9875320000    -1.4086990000
| 29> *
| 30>
| 31>                          ****END OF INPUT****
 Total Charge           Charge          ....    0
 Multiplicity           Mult            ....    1
 Number of Electrons    NEL             ....   56
 Basis Dimension        Dim             ....  148

MULLIKEN ATOMIC CHARGES
-----------------------
   0 C :   -0.023743
   1 C :   -0.067393
   2 C :    0.079301
   3 N :   -0.109860
   4 N :   -0.103861
   5 C :    0.127288
   6 O :   -0.199452
   7 H :    0.024886
   8 H :    0.023265
   9 H :    0.023750
  10 H :    0.009670
  11 H :    0.002704
  12 H :    0.017146
  13 H :    0.022487
  14 H :    0.107384
  15 H :    0.105673
  16 H :   -0.039246
Sum of atomic charges:    0.0000000

LOEWDIN ATOMIC CHARGES
----------------------
   0 C :   -0.062472
   1 C :   -0.071305
   2 C :    0.001145
   3 N :   -0.021131
   4 N :    0.026965
   5 C :    0.036871
   6 O :   -0.163934
   7 H :    0.029068
   8 H :    0.027528
   9 H :    0.026994
  10 H :    0.017723
  11 H :    0.018530
  12 H :    0.027236
  13 H :    0.027377
  14 H :    0.053617
  15 H :    0.049612
  16 H :   -0.023824

  Mayer bond orders larger than 0.1
B(  0-C ,  1-C ) :   1.1142 B(  0-C ,  7-H ) :   0.9608 B(  0-C ,  8-H ) :   0.9672
B(  0-C ,  9-H ) :   0.9670 B(  1-C ,  2-C ) :   1.0670 B(  1-C , 10-H ) :   0.9291
B(  1-C , 11-H ) :   0.9340 B(  2-C ,  3-N ) :   1.0710 B(  2-C , 12-H ) :   0.9379
B(  2-C , 13-H ) :   0.9412 B(  3-N ,  4-N ) :   0.9987 B(  3-N , 14-H ) :   0.9452
B(  4-N ,  5-C ) :   1.1726 B(  4-N , 15-H ) :   0.9138 B(  5-C ,  6-O ) :   2.1110
B(  5-C , 16-H ) :   0.9098

FINAL SINGLE POINT ENERGY      -342.469132361485

DIPOLE MOMENT
-------------
                                X             Y             Z
Electronic contribution:      8.94748      -2.74708      -6.20298
Nuclear contribution   :     -9.44845       3.38349       7.83893
                        -----------------------------------------
Total Dipole Moment    :     -0.50097       0.63641       1.63596
                        -----------------------------------------
Magnitude (a.u.)       :      1.82547
Magnitude (Debye)      :      4.63998

                             ****ORCA TERMINATED NORMALLY****
TOTAL RUN TIME: 0 days 0 hours 0 minutes 7 seconds 33 msec
