                         Program Version 3.0.3 - RELEASE   -
|  1> ! RI PBE def2-SVP def2-SVP/J NBO PAL2
|  2> % maxcore 2000
|  3> % output
|  4>     # printlevel mini
|  5>     print[ P_Basis ] 0
|  6>     print[ P_SCFInfo ] 1
|  7>     print[ P_SCFIterInfo ] 1
|  8>     print[ P_OrbEn ] 0
|  9>     print[ P_Cartesian ] 0
| 10> end
| 11> *xyz 0 1
| 12>  C        0.5426960000     1.5965680000     0.0132270000
| 13>  C        1.3769020000     0.4788980000    -0.6034300000
| 14>  C        2.2983910000    -0.1853680000     0.3795130000
| 15>  N        2.2007630000    -1.3645150000     0.8451190000
| 16>  N        3.3213590000     0.6006530000     0.9011950000
| 17>  O        3.9139050000     1.4669700000    -0.0235620000
| 18>  C        4.2153940000     2.6929650000     0.6053910000
| 19>  H       -0.1356310000     2.0198490000    -0.7303530000
| 20>  H        1.1737480000     2.4024260000     0.3894060000
| 21>  H       -0.0570590000     1.2242610000     0.8465500000
| 22>  H        1.9708540000     0.8763730000    -1.4302730000
| 23>  H        0.7251550000    -0.2959800000    -1.0128290000
| 24>  H        1.3565700000    -1.8145870000     0.5043050000
| 25>  H        4.0326050000     0.0126730000     1.3266820000
| 26>  H        3.3196720000     3.1538300000     1.0316700000
| 27>  H        4.6302240000     3.3335250000    -0.1737860000
| 28>  H        4.9607720000     2.5619570000     1.3978960000
| 29> *
| 30>
| 31>                          ****END OF INPUT****
 Total Charge           Charge          ....    0
 Multiplicity           Mult            ....    1
 Number of Electrons    NEL             ....   56
 Basis Dimension        Dim             ....  148

MULLIKEN ATOMIC CHARGES
-----------------------
   0 C :   -0.025995
   1 C :    0.065817
   2 C :   -0.174511
   3 N :   -0.112783
   4 N :    0.018680
   5 O :   -0.307223
   6 C :    0.149330
   7 H :    0.027589
   8 H :    0.026870
   9 H :    0.025728
  10 H :    0.032814
  11 H :   -0.002044
  12 H :    0.083689
  13 H :    0.118675
  14 H :    0.020062
  15 H :    0.037074
  16 H :    0.016228
Sum of atomic charges:    0.0000000

LOEWDIN ATOMIC CHARGES
----------------------
   0 C :   -0.056675
   1 C :   -0.061114
   2 C :   -0.007036
   3 N :   -0.158951
   4 N :    0.060596
   5 O :   -0.115052
   6 C :    0.042597
   7 H :    0.029264
   8 H :    0.026796
   9 H :    0.028474
  10 H :    0.037075
  11 H :    0.028764
  12 H :    0.045972
  13 H :    0.059543
  14 H :    0.006015
  15 H :    0.025601
  16 H :    0.008132

  Mayer bond orders larger than 0.1
B(  0-C ,  1-C ) :   1.1113 B(  0-C ,  7-H ) :   0.9610 B(  0-C ,  8-H ) :   0.9664
B(  0-C ,  9-H ) :   0.9638 B(  1-C ,  2-C ) :   1.0254 B(  1-C , 10-H ) :   0.8968
B(  1-C , 11-H ) :   0.9134 B(  2-C ,  3-N ) :   1.9741 B(  2-C ,  4-N ) :   1.1102
B(  3-N , 12-H ) :   0.9243 B(  4-N ,  5-O ) :   0.9350 B(  4-N , 13-H ) :   0.9135
B(  5-O ,  6-C ) :   0.9848 B(  6-C , 14-H ) :   0.9576 B(  6-C , 15-H ) :   0.9706
B(  6-C , 16-H ) :   0.9669

FINAL SINGLE POINT ENERGY      -342.425186100711

DIPOLE MOMENT
-------------
                                X             Y             Z
Electronic contribution:      3.44878      -4.39470       0.58512
Nuclear contribution   :     -3.55576       5.16125      -0.82883
                        -----------------------------------------
Total Dipole Moment    :     -0.10698       0.76656      -0.24371
                        -----------------------------------------
Magnitude (a.u.)       :      0.81145
Magnitude (Debye)      :      2.06254

                             ****ORCA TERMINATED NORMALLY****
TOTAL RUN TIME: 0 days 0 hours 0 minutes 7 seconds 657 msec
