                         Program Version 3.0.3 - RELEASE   -
|  1> ! RI PBE def2-SVP def2-SVP/J NBO PAL2
|  2> % maxcore 2000
|  3> % output
|  4>     # printlevel mini
|  5>     print[ P_Basis ] 0
|  6>     print[ P_SCFInfo ] 1
|  7>     print[ P_SCFIterInfo ] 1
|  8>     print[ P_OrbEn ] 0
|  9>     print[ P_Cartesian ] 0
| 10> end
| 11> *xyz 0 1
| 12>  C        0.9976190000     0.0138520000    -0.0114490000
| 13>  C        2.5225350000    -0.0359560000     0.0070190000
| 14>  C        3.1733330000     1.3162120000     0.1149220000
| 15>  N        2.4707010000     2.3652840000     0.1257040000
| 16>  O        3.2471580000     3.5049290000     0.2145490000
| 17>  C        3.0274430000    -0.9001020000     1.0717430000
| 18>  C        3.4405320000    -1.6029630000     1.9525850000
| 19>  H        0.6504130000     0.6308260000    -0.8403500000
| 20>  H        0.6170770000     0.4449260000     0.9145490000
| 21>  H        0.5960320000    -0.9940060000    -0.1203210000
| 22>  H        2.8673180000    -0.4714980000    -0.9426780000
| 23>  H        4.2612550000     1.3635140000     0.1817780000
| 24>  H        2.5958080000     4.2117370000     0.2224660000
| 25>  H        3.8038760000    -2.2278540000     2.7337820000
| 26> *
| 27>
| 28>                          ****END OF INPUT****
 Total Charge           Charge          ....    0
 Multiplicity           Mult            ....    1
 Number of Electrons    NEL             ....   52
 Basis Dimension        Dim             ....  133

MULLIKEN ATOMIC CHARGES
-----------------------
   0 C :    0.061237
   1 C :   -0.021378
   2 C :   -0.013667
   3 N :   -0.040707
   4 O :   -0.170004
   5 C :    0.373274
   6 C :   -0.501783
   7 H :    0.026175
   8 H :    0.031634
   9 H :    0.026050
  10 H :    0.045601
  11 H :    0.012809
  12 H :    0.172357
  13 H :   -0.001597
Sum of atomic charges:    0.0000000

LOEWDIN ATOMIC CHARGES
----------------------
   0 C :   -0.040712
   1 C :   -0.056751
   2 C :   -0.019455
   3 N :   -0.013139
   4 O :   -0.050067
   5 C :   -0.013500
   6 C :   -0.082262
   7 H :    0.031081
   8 H :    0.033637
   9 H :    0.030844
  10 H :    0.058992
  11 H :    0.011211
  12 H :    0.074647
  13 H :    0.035474

  Mayer bond orders larger than 0.1
B(  0-C ,  1-C ) :   1.1017 B(  0-C ,  7-H ) :   0.9477 B(  0-C ,  8-H ) :   0.9580
B(  0-C ,  9-H ) :   0.9565 B(  1-C ,  2-C ) :   0.9738 B(  1-C ,  5-C ) :   0.9788
B(  1-C , 10-H ) :   0.8652 B(  2-C ,  3-N ) :   1.9440 B(  2-C ,  4-O ) :   0.1157
B(  2-C , 11-H ) :   0.9512 B(  3-N ,  4-O ) :   0.9912 B(  4-O , 12-H ) :   0.9760
B(  5-C ,  6-C ) :   2.3491 B(  5-C , 13-H ) :  -0.1180 B(  6-C , 13-H ) :   1.1086

FINAL SINGLE POINT ENERGY      -323.945384018778

DIPOLE MOMENT
-------------
                                X             Y             Z
Electronic contribution:      3.01285       2.56619       0.87274
Nuclear contribution   :     -3.14475      -2.42853      -1.03299
                        -----------------------------------------
Total Dipole Moment    :     -0.13190       0.13767      -0.16024
                        -----------------------------------------
Magnitude (a.u.)       :      0.24905
Magnitude (Debye)      :      0.63305

                             ****ORCA TERMINATED NORMALLY****
TOTAL RUN TIME: 0 days 0 hours 0 minutes 6 seconds 699 msec
