                         Program Version 3.0.3 - RELEASE   -
|  1> ! RI PBE def2-SVP def2-SVP/J NBO PAL2
|  2> % maxcore 2000
|  3> % output
|  4>     # printlevel mini
|  5>     print[ P_Basis ] 0
|  6>     print[ P_SCFInfo ] 1
|  7>     print[ P_SCFIterInfo ] 1
|  8>     print[ P_OrbEn ] 0
|  9>     print[ P_Cartesian ] 0
| 10> end
| 11> *xyz 0 1
| 12>  C        1.0523450000     0.4906660000    -0.0842440000
| 13>  C        2.4950330000     0.1241200000     0.1906330000
| 14>  C        2.7821900000    -0.0693400000     1.6629760000
| 15>  N        4.1972260000    -0.3073330000     1.8736610000
| 16>  O        2.8290170000    -1.1090070000    -0.4495600000
| 17>  C        3.1365120000    -1.0385270000    -1.7603270000
| 18>  C        3.1949360000    -2.1042350000    -2.5475060000
| 19>  H        0.8046090000     1.4482880000     0.3795520000
| 20>  H        0.3805250000    -0.2741190000     0.3121890000
| 21>  H        0.8724450000     0.5764870000    -1.1577910000
| 22>  H        3.1700850000     0.9019140000    -0.1905700000
| 23>  H        2.1254750000    -0.8735140000     2.0322510000
| 24>  H        2.4958610000     0.8478350000     2.1861600000
| 25>  H        4.4697930000    -1.1574820000     1.3950230000
| 26>  H        4.3973500000    -0.4377900000     2.8565780000
| 27>  H        3.3673620000    -0.0394620000    -2.1288020000
| 28>  H        2.9614920000    -3.0951300000    -2.1789220000
| 29>  H        3.4952440000    -1.9887820000    -3.5790900000
| 30> *
| 31>
| 32>                          ****END OF INPUT****
 Total Charge           Charge          ....    0
 Multiplicity           Mult            ....    1
 Number of Electrons    NEL             ....   56
 Basis Dimension        Dim             ....  153

MULLIKEN ATOMIC CHARGES
-----------------------
   0 C :    0.038481
   1 C :    0.009648
   2 C :    0.112383
   3 N :   -0.211310
   4 O :   -0.272576
   5 C :    0.100356
   6 C :   -0.085942
   7 H :    0.019692
   8 H :    0.026976
   9 H :    0.025706
  10 H :    0.010041
  11 H :   -0.003801
  12 H :    0.003271
  13 H :    0.095351
  14 H :    0.088259
  15 H :   -0.002550
  16 H :    0.021665
  17 H :    0.024349
Sum of atomic charges:   -0.0000000

LOEWDIN ATOMIC CHARGES
----------------------
   0 C :   -0.069398
   1 C :    0.046889
   2 C :    0.001965
   3 N :   -0.110600
   4 O :   -0.074978
   5 C :    0.031204
   6 C :   -0.135457
   7 H :    0.032343
   8 H :    0.030913
   9 H :    0.031645
  10 H :    0.014530
  11 H :    0.004307
  12 H :    0.024998
  13 H :    0.051352
  14 H :    0.053519
  15 H :    0.010552
  16 H :    0.026097
  17 H :    0.030119

  Mayer bond orders larger than 0.1
B(  0-C ,  1-C ) :   1.0973 B(  0-C ,  7-H ) :   0.9515 B(  0-C ,  8-H ) :   0.9496
B(  0-C ,  9-H ) :   0.9484 B(  1-C ,  2-C ) :   1.0520 B(  1-C ,  4-O ) :   0.9466
B(  1-C , 10-H ) :   0.9015 B(  2-C ,  3-N ) :   1.1013 B(  2-C , 11-H ) :   0.9149
B(  2-C , 12-H ) :   0.9258 B(  3-N , 13-H ) :   0.9610 B(  3-N , 14-H ) :   0.9648
B(  4-O ,  5-C ) :   1.1090 B(  5-C ,  6-C ) :   1.9272 B(  5-C , 15-H ) :   0.9378
B(  6-C , 16-H ) :   0.9485 B(  6-C , 17-H ) :   0.9361

FINAL SINGLE POINT ENERGY      -326.432082413259

DIPOLE MOMENT
-------------
                                X             Y             Z
Electronic contribution:      2.02364      -1.75439      -0.70635
Nuclear contribution   :     -2.28314       2.00779       1.11160
                        -----------------------------------------
Total Dipole Moment    :     -0.25950       0.25340       0.40525
                        -----------------------------------------
Magnitude (a.u.)       :      0.54385
Magnitude (Debye)      :      1.38236

                             ****ORCA TERMINATED NORMALLY****
TOTAL RUN TIME: 0 days 0 hours 0 minutes 7 seconds 755 msec
