                         Program Version 3.0.3 - RELEASE   -
|  1> ! RI PBE def2-SVP def2-SVP/J NBO PAL2
|  2> % maxcore 2000
|  3> % output
|  4>     # printlevel mini
|  5>     print[ P_Basis ] 0
|  6>     print[ P_SCFInfo ] 1
|  7>     print[ P_SCFIterInfo ] 1
|  8>     print[ P_OrbEn ] 0
|  9>     print[ P_Cartesian ] 0
| 10> end
| 11> *xyz 0 1
| 12>  C        1.0161050000     0.0999200000    -0.2154760000
| 13>  C        2.5143440000    -0.1316320000    -0.0371040000
| 14>  C        2.8021740000    -1.0743920000     1.0965380000
| 15>  N        2.9270870000    -2.3453030000     0.9976240000
| 16>  O        2.7739830000    -2.7807490000    -0.2993550000
| 17>  C        2.9199610000    -0.5367480000     2.4114720000
| 18>  C        3.0032780000    -0.0069630000     3.4873280000
| 19>  H        0.8343900000     0.8041370000    -1.0298880000
| 20>  H        0.5711060000     0.5113900000     0.6930090000
| 21>  H        0.5048670000    -0.8345960000    -0.4527380000
| 22>  H        3.0150140000     0.8159970000     0.1734320000
| 23>  H        2.9418900000    -0.5451720000    -0.9515580000
| 24>  H        2.9152380000    -3.7285100000    -0.2212560000
| 25>  H        3.0817520000     0.4408010000     4.4497650000
| 26> *
| 27>
| 28>                          ****END OF INPUT****
 Total Charge           Charge          ....    0
 Multiplicity           Mult            ....    1
 Number of Electrons    NEL             ....   52
 Basis Dimension        Dim             ....  133

MULLIKEN ATOMIC CHARGES
-----------------------
   0 C :   -0.021192
   1 C :    0.078662
   2 C :   -0.204326
   3 N :   -0.030797
   4 O :   -0.160349
   5 C :    0.474520
   6 C :   -0.459022
   7 H :    0.031401
   8 H :    0.029609
   9 H :    0.029624
  10 H :    0.020958
  11 H :    0.024647
  12 H :    0.178274
  13 H :    0.007990
Sum of atomic charges:   -0.0000000

LOEWDIN ATOMIC CHARGES
----------------------
   0 C :   -0.055279
   1 C :   -0.043218
   2 C :   -0.069092
   3 N :   -0.003403
   4 O :   -0.036421
   5 C :   -0.013494
   6 C :   -0.056570
   7 H :    0.030085
   8 H :    0.029665
   9 H :    0.029714
  10 H :    0.037628
  11 H :    0.033395
  12 H :    0.079513
  13 H :    0.037476

  Mayer bond orders larger than 0.1
B(  0-C ,  1-C ) :   1.1202 B(  0-C ,  7-H ) :   0.9636 B(  0-C ,  8-H ) :   0.9666
B(  0-C ,  9-H ) :   0.9622 B(  1-C ,  2-C ) :   1.0390 B(  1-C , 10-H ) :   0.9154
B(  1-C , 11-H ) :   0.9002 B(  2-C ,  3-N ) :   1.8346 B(  2-C ,  5-C ) :   0.9985
B(  3-N ,  4-O ) :   1.0163 B(  4-O , 12-H ) :   0.9726 B(  5-C ,  6-C ) :   2.2555
B(  5-C , 13-H ) :  -0.1009 B(  6-C , 13-H ) :   1.0906

FINAL SINGLE POINT ENERGY      -323.954507920198

DIPOLE MOMENT
-------------
                                X             Y             Z
Electronic contribution:      3.57916      -4.32510       3.48441
Nuclear contribution   :     -3.66018       4.33034      -3.80101
                        -----------------------------------------
Total Dipole Moment    :     -0.08102       0.00524      -0.31660
                        -----------------------------------------
Magnitude (a.u.)       :      0.32685
Magnitude (Debye)      :      0.83078

                             ****ORCA TERMINATED NORMALLY****
TOTAL RUN TIME: 0 days 0 hours 0 minutes 6 seconds 83 msec
