                         Program Version 3.0.3 - RELEASE   -
|  1> ! RI PBE def2-SVP def2-SVP/J NBO PAL2
|  2> % maxcore 2000
|  3> % output
|  4>     # printlevel mini
|  5>     print[ P_Basis ] 0
|  6>     print[ P_SCFInfo ] 1
|  7>     print[ P_SCFIterInfo ] 1
|  8>     print[ P_OrbEn ] 0
|  9>     print[ P_Cartesian ] 0
| 10> end
| 11> *xyz 0 1
| 12>  C        0.7553650000     0.1369410000     0.0907280000
| 13>  C        2.2318070000     0.0970200000    -0.1092710000
| 14>  C        3.0782340000    -0.3734970000     0.8035830000
| 15>  N        4.4565900000    -0.4242260000     0.6903180000
| 16>  O        5.0152320000     0.0088240000    -0.4847100000
| 17>  C        5.3026690000    -1.0099900000     1.6016890000
| 18>  N        6.5565180000    -1.1554420000     1.5282190000
| 19>  H        0.2344750000    -0.4523210000    -0.6707620000
| 20>  H        0.3681300000     1.1582730000     0.0161950000
| 21>  H        0.4712510000    -0.2563440000     1.0692350000
| 22>  H        2.6245100000     0.4519110000    -1.0563840000
| 23>  H        2.7311000000    -0.7585040000     1.7571680000
| 24>  H        5.1163850000     0.9667370000    -0.3902560000
| 25>  H        4.7570510000    -1.3651260000     2.4770060000
| 26>  H        6.9095830000    -0.7942460000     0.6427230000
| 27> *
| 28>
| 29>                          ****END OF INPUT****
 Total Charge           Charge          ....    0
 Multiplicity           Mult            ....    1
 Number of Electrons    NEL             ....   54
 Basis Dimension        Dim             ....  138

MULLIKEN ATOMIC CHARGES
-----------------------
   0 C :    0.032494
   1 C :   -0.132710
   2 C :    0.087426
   3 N :   -0.056436
   4 O :   -0.166561
   5 C :   -0.000605
   6 N :   -0.122904
   7 H :    0.036697
   8 H :    0.029834
   9 H :    0.015865
  10 H :   -0.005695
  11 H :   -0.001214
  12 H :    0.189780
  13 H :    0.013661
  14 H :    0.080367
Sum of atomic charges:    0.0000000

LOEWDIN ATOMIC CHARGES
----------------------
   0 C :   -0.058813
   1 C :   -0.097895
   2 C :   -0.022163
   3 N :    0.066566
   4 O :   -0.032062
   5 C :    0.001943
   6 N :   -0.148552
   7 H :    0.035677
   8 H :    0.033116
   9 H :    0.029588
  10 H :    0.019880
  11 H :    0.030359
  12 H :    0.084337
  13 H :    0.019464
  14 H :    0.038555

  Mayer bond orders larger than 0.1
B(  0-C ,  1-C ) :   1.0866 B(  0-C ,  7-H ) :   0.9496 B(  0-C ,  8-H ) :   0.9511
B(  0-C ,  9-H ) :   0.9633 B(  1-C ,  2-C ) :   1.8029 B(  1-C , 10-H ) :   0.9449
B(  2-C ,  3-N ) :   1.0697 B(  2-C , 11-H ) :   0.9468 B(  3-N ,  4-O ) :   0.9775
B(  3-N ,  5-C ) :   1.0680 B(  4-O , 12-H ) :   0.9585 B(  5-C ,  6-N ) :   2.0167
B(  5-C , 13-H ) :   0.9343 B(  6-N , 14-H ) :   0.9300

FINAL SINGLE POINT ENERGY      -341.218000756021

DIPOLE MOMENT
-------------
                                X             Y             Z
Electronic contribution:      6.91664      -0.91799       0.28773
Nuclear contribution   :     -7.75795       1.77862      -0.58980
                        -----------------------------------------
Total Dipole Moment    :     -0.84131       0.86063      -0.30207
                        -----------------------------------------
Magnitude (a.u.)       :      1.24086
Magnitude (Debye)      :      3.15402

                             ****ORCA TERMINATED NORMALLY****
TOTAL RUN TIME: 0 days 0 hours 0 minutes 6 seconds 362 msec
