                         Program Version 3.0.3 - RELEASE   -
|  1> ! RI PBE def2-SVP def2-SVP/J NBO PAL2
|  2> % maxcore 2000
|  3> % output
|  4>     # printlevel mini
|  5>     print[ P_Basis ] 0
|  6>     print[ P_SCFInfo ] 1
|  7>     print[ P_SCFIterInfo ] 1
|  8>     print[ P_OrbEn ] 0
|  9>     print[ P_Cartesian ] 0
| 10> end
| 11> *xyz 0 1
| 12>  C        0.5159990000     1.2435030000    -0.5466100000
| 13>  C        1.5997500000     0.2460350000    -0.2945580000
| 14>  C        2.8328570000     0.3554760000    -0.7926360000
| 15>  N        1.2590030000    -0.8211050000     0.5466390000
| 16>  O       -0.0712070000    -1.1860900000     0.5814450000
| 17>  C        2.0640740000    -1.3727100000     1.5184660000
| 18>  N        1.7768810000    -2.2893610000     2.3413890000
| 19>  H        0.9104570000     2.0740690000    -1.1300550000
| 20>  H        0.1080910000     1.6225510000     0.3937840000
| 21>  H       -0.3155910000     0.7995110000    -1.0973020000
| 22>  H        3.1137370000     1.2404450000    -1.3468070000
| 23>  H        3.5858260000    -0.4079890000    -0.6473790000
| 24>  H       -0.1700410000    -1.8740550000    -0.0902800000
| 25>  H        3.0481090000    -0.9071710000     1.5294400000
| 26>  H        0.8157460000    -2.6037200000     2.2136740000
| 27> *
| 28>
| 29>                          ****END OF INPUT****
 Total Charge           Charge          ....    0
 Multiplicity           Mult            ....    1
 Number of Electrons    NEL             ....   54
 Basis Dimension        Dim             ....  138

MULLIKEN ATOMIC CHARGES
-----------------------
   0 C :    0.097276
   1 C :   -0.077808
   2 C :   -0.067054
   3 N :   -0.076737
   4 O :   -0.180207
   5 C :    0.016781
   6 N :   -0.128293
   7 H :    0.021128
   8 H :    0.040867
   9 H :    0.030650
  10 H :    0.014861
  11 H :    0.026046
  12 H :    0.190141
  13 H :    0.018727
  14 H :    0.073622
Sum of atomic charges:   -0.0000000

LOEWDIN ATOMIC CHARGES
----------------------
   0 C :   -0.058606
   1 C :   -0.010594
   2 C :   -0.111630
   3 N :    0.054510
   4 O :   -0.041187
   5 C :    0.008590
   6 N :   -0.150210
   7 H :    0.037969
   8 H :    0.042225
   9 H :    0.036725
  10 H :    0.028018
  11 H :    0.025122
  12 H :    0.082474
  13 H :    0.021472
  14 H :    0.035120

  Mayer bond orders larger than 0.1
B(  0-C ,  1-C ) :   1.0901 B(  0-C ,  7-H ) :   0.9419 B(  0-C ,  8-H ) :   0.9396
B(  0-C ,  9-H ) :   0.9319 B(  1-C ,  2-C ) :   1.8988 B(  1-C ,  3-N ) :   1.0275
B(  2-C , 10-H ) :   0.9216 B(  2-C , 11-H ) :   0.9365 B(  3-N ,  4-O ) :   0.9639
B(  3-N ,  5-C ) :   1.0671 B(  4-O , 12-H ) :   0.9632 B(  5-C ,  6-N ) :   2.0120
B(  5-C , 13-H ) :   0.9339 B(  6-N , 14-H ) :   0.9314

FINAL SINGLE POINT ENERGY      -341.213865264588

DIPOLE MOMENT
-------------
                                X             Y             Z
Electronic contribution:     -0.68919      -3.85676       2.60500
Nuclear contribution   :      0.13582       4.19468      -3.76478
                        -----------------------------------------
Total Dipole Moment    :     -0.55336       0.33792      -1.15978
                        -----------------------------------------
Magnitude (a.u.)       :      1.32872
Magnitude (Debye)      :      3.37733

                             ****ORCA TERMINATED NORMALLY****
TOTAL RUN TIME: 0 days 0 hours 0 minutes 6 seconds 756 msec
