                         Program Version 3.0.3 - RELEASE   -
|  1> ! RI PBE def2-SVP def2-SVP/J NBO PAL2
|  2> % maxcore 2000
|  3> % output
|  4>     # printlevel mini
|  5>     print[ P_Basis ] 0
|  6>     print[ P_SCFInfo ] 1
|  7>     print[ P_SCFIterInfo ] 1
|  8>     print[ P_OrbEn ] 0
|  9>     print[ P_Cartesian ] 0
| 10> end
| 11> *xyz 0 1
| 12>  C        1.0632160000     0.0532370000    -0.1152990000
| 13>  C        2.5885520000     0.0476990000    -0.0826540000
| 14>  C        3.2319940000     1.1280600000    -0.9092420000
| 15>  N        2.5106680000     1.9000310000    -1.6006460000
| 16>  O        3.2599360000     2.8077520000    -2.3122790000
| 17>  C        3.0888890000     0.1322730000     1.2905060000
| 18>  N        3.4793520000     0.1986730000     2.3696530000
| 19>  H        0.7173710000    -0.0616730000    -1.1419430000
| 20>  H        0.6732890000     0.9945340000     0.2707320000
| 21>  H        0.6736990000    -0.7658410000     0.4894490000
| 22>  H        2.9508290000    -0.9144700000    -0.4713250000
| 23>  H        4.3189080000     1.2175070000    -0.9005970000
| 24>  H        2.5967990000     3.3292190000    -2.7739530000
| 25> *
| 26>
| 27>                          ****END OF INPUT****
 Total Charge           Charge          ....    0
 Multiplicity           Mult            ....    1
 Number of Electrons    NEL             ....   52
 Basis Dimension        Dim             ....  128

MULLIKEN ATOMIC CHARGES
-----------------------
   0 C :    0.055312
   1 C :   -0.045614
   2 C :   -0.018360
   3 N :   -0.029179
   4 O :   -0.161547
   5 C :   -0.233200
   6 N :    0.051066
   7 H :    0.035592
   8 H :    0.042359
   9 H :    0.039228
  10 H :    0.062255
  11 H :    0.024604
  12 H :    0.177484
Sum of atomic charges:    0.0000000

LOEWDIN ATOMIC CHARGES
----------------------
   0 C :   -0.036266
   1 C :   -0.067740
   2 C :   -0.022843
   3 N :   -0.004937
   4 O :   -0.040108
   5 C :   -0.037343
   6 N :   -0.061208
   7 H :    0.035637
   8 H :    0.037888
   9 H :    0.035800
  10 H :    0.066517
  11 H :    0.015795
  12 H :    0.078809

  Mayer bond orders larger than 0.1
B(  0-C ,  1-C ) :   1.1128 B(  0-C ,  7-H ) :   0.9501 B(  0-C ,  8-H ) :   0.9568
B(  0-C ,  9-H ) :   0.9554 B(  1-C ,  2-C ) :   0.9880 B(  1-C ,  5-C ) :   1.0158
B(  1-C , 10-H ) :   0.8692 B(  2-C ,  3-N ) :   1.9434 B(  2-C ,  4-O ) :   0.1210
B(  2-C , 11-H ) :   0.9503 B(  3-N ,  4-O ) :   1.0039 B(  4-O , 12-H ) :   0.9736
B(  5-C ,  6-N ) :   3.0812

FINAL SINGLE POINT ENERGY      -340.023952588849

DIPOLE MOMENT
-------------
                                X             Y             Z
Electronic contribution:      3.59954       1.84869       1.22878
Nuclear contribution   :     -4.16554      -1.82946      -2.63003
                        -----------------------------------------
Total Dipole Moment    :     -0.56600       0.01923      -1.40126
                        -----------------------------------------
Magnitude (a.u.)       :      1.51137
Magnitude (Debye)      :      3.84160

                             ****ORCA TERMINATED NORMALLY****
TOTAL RUN TIME: 0 days 0 hours 0 minutes 6 seconds 111 msec
