                         Program Version 3.0.3 - RELEASE   -
|  1> ! RI PBE def2-SVP def2-SVP/J NBO PAL2
|  2> % maxcore 2000
|  3> % output
|  4>     # printlevel mini
|  5>     print[ P_Basis ] 0
|  6>     print[ P_SCFInfo ] 1
|  7>     print[ P_SCFIterInfo ] 1
|  8>     print[ P_OrbEn ] 0
|  9>     print[ P_Cartesian ] 0
| 10> end
| 11> *xyz 0 1
| 12>  C        0.9182370000     0.1335310000    -0.3561720000
| 13>  C        2.3839590000     0.1079250000     0.0362590000
| 14>  C        2.8557130000     1.4453650000     0.5893840000
| 15>  N        2.6404930000    -1.0010010000     0.9554840000
| 16>  O        2.0112480000    -0.8121890000     2.1896590000
| 17>  C        3.9406700000    -1.4625750000     1.0837800000
| 18>  N        4.5179400000    -1.9374610000     2.1020740000
| 19>  H        0.7431490000     0.8965030000    -1.1170560000
| 20>  H        0.2923360000     0.3750500000     0.5058490000
| 21>  H        0.6046450000    -0.8320870000    -0.7580500000
| 22>  H        2.9769340000    -0.1417000000    -0.8502350000
| 23>  H        2.3039410000     1.7007060000     1.4959000000
| 24>  H        2.6931020000     2.2380600000    -0.1440470000
| 25>  H        3.9200260000     1.4177260000     0.8331450000
| 26>  H        1.3209710000    -1.4830520000     2.2108910000
| 27>  H        4.4635090000    -1.4346440000     0.1254430000
| 28>  H        3.9046470000    -1.8699380000     2.9145220000
| 29> *
| 30>
| 31>                          ****END OF INPUT****
 Total Charge           Charge          ....    0
 Multiplicity           Mult            ....    1
 Number of Electrons    NEL             ....   56
 Basis Dimension        Dim             ....  148

MULLIKEN ATOMIC CHARGES
-----------------------
   0 C :    0.007919
   1 C :   -0.039772
   2 C :    0.013445
   3 N :   -0.127304
   4 O :   -0.189885
   5 C :    0.001509
   6 N :   -0.123264
   7 H :    0.028094
   8 H :    0.020304
   9 H :    0.022346
  10 H :    0.023484
  11 H :    0.033687
  12 H :    0.026484
  13 H :    0.031060
  14 H :    0.188373
  15 H :    0.008444
  16 H :    0.075077
Sum of atomic charges:   -0.0000000

LOEWDIN ATOMIC CHARGES
----------------------
   0 C :   -0.068928
   1 C :   -0.000494
   2 C :   -0.069814
   3 N :    0.014397
   4 O :   -0.056477
   5 C :   -0.008483
   6 N :   -0.149470
   7 H :    0.032809
   8 H :    0.024381
   9 H :    0.027377
  10 H :    0.031028
  11 H :    0.030713
  12 H :    0.030982
  13 H :    0.031657
  14 H :    0.080158
  15 H :    0.015021
  16 H :    0.035144

  Mayer bond orders larger than 0.1
B(  0-C ,  1-C ) :   1.0812 B(  0-C ,  7-H ) :   0.9596 B(  0-C ,  8-H ) :   0.9563
B(  0-C ,  9-H ) :   0.9564 B(  1-C ,  2-C ) :   1.0825 B(  1-C ,  3-N ) :   0.9636
B(  1-C , 10-H ) :   0.9058 B(  2-C , 11-H ) :   0.9516 B(  2-C , 12-H ) :   0.9605
B(  2-C , 13-H ) :   0.9514 B(  3-N ,  4-O ) :   0.9531 B(  3-N ,  5-C ) :   1.0753
B(  3-N ,  6-N ) :   0.1047 B(  4-O , 14-H ) :   0.9696 B(  5-C ,  6-N ) :   2.0350
B(  5-C , 15-H ) :   0.9321 B(  6-N , 16-H ) :   0.9286

FINAL SINGLE POINT ENERGY      -342.432266394523

DIPOLE MOMENT
-------------
                                X             Y             Z
Electronic contribution:      2.46245      -5.03744       3.67179
Nuclear contribution   :     -3.67080       5.44422      -4.20976
                        -----------------------------------------
Total Dipole Moment    :     -1.20835       0.40678      -0.53797
                        -----------------------------------------
Magnitude (a.u.)       :      1.38383
Magnitude (Debye)      :      3.51741

                             ****ORCA TERMINATED NORMALLY****
TOTAL RUN TIME: 0 days 0 hours 0 minutes 7 seconds 799 msec
