                         Program Version 3.0.3 - RELEASE   -
|  1> ! RI PBE def2-SVP def2-SVP/J NBO PAL2
|  2> % maxcore 2000
|  3> % output
|  4>     # printlevel mini
|  5>     print[ P_Basis ] 0
|  6>     print[ P_SCFInfo ] 1
|  7>     print[ P_SCFIterInfo ] 1
|  8>     print[ P_OrbEn ] 0
|  9>     print[ P_Cartesian ] 0
| 10> end
| 11> *xyz 0 1
| 12>  C        0.9844010000     0.3381990000     0.0211510000
| 13>  C        2.4785510000     0.0248750000    -0.0197780000
| 14>  C        2.7624800000    -1.3905640000     0.3830250000
| 15>  N        2.9252180000    -2.3985030000    -0.3867420000
| 16>  O        2.8257040000    -2.0649520000    -1.7068830000
| 17>  C        2.8336950000    -1.6923330000     1.7822040000
| 18>  N        2.8743270000    -1.8545610000     2.9212250000
| 19>  H        0.8110740000     1.3798890000    -0.2544000000
| 20>  H        0.5747190000     0.1812260000     1.0211180000
| 21>  H        0.4349650000    -0.2956220000    -0.6768280000
| 22>  H        3.0166730000     0.6879110000     0.6620650000
| 23>  H        2.8734900000     0.1817520000    -1.0239220000
| 24>  H        2.9861230000    -2.9012070000    -2.1554440000
| 25> *
| 26>
| 27>                          ****END OF INPUT****
 Total Charge           Charge          ....    0
 Multiplicity           Mult            ....    1
 Number of Electrons    NEL             ....   52
 Basis Dimension        Dim             ....  128

MULLIKEN ATOMIC CHARGES
-----------------------
   0 C :   -0.021041
   1 C :    0.085297
   2 C :   -0.276287
   3 N :   -0.007139
   4 O :   -0.144669
   5 C :   -0.067563
   6 N :    0.068581
   7 H :    0.036800
   8 H :    0.039926
   9 H :    0.033578
  10 H :    0.037346
  11 H :    0.028528
  12 H :    0.186644
Sum of atomic charges:   -0.0000000

LOEWDIN ATOMIC CHARGES
----------------------
   0 C :   -0.052207
   1 C :   -0.041758
   2 C :   -0.085488
   3 N :    0.016310
   4 O :   -0.020974
   5 C :   -0.038617
   6 N :   -0.044190
   7 H :    0.033972
   8 H :    0.032820
   9 H :    0.032107
  10 H :    0.044204
  11 H :    0.037099
  12 H :    0.086722

  Mayer bond orders larger than 0.1
B(  0-C ,  1-C ) :   1.1196 B(  0-C ,  7-H ) :   0.9623 B(  0-C ,  8-H ) :   0.9677
B(  0-C ,  9-H ) :   0.9613 B(  1-C ,  2-C ) :   1.0436 B(  1-C , 10-H ) :   0.9138
B(  1-C , 11-H ) :   0.8954 B(  2-C ,  3-N ) :   1.8791 B(  2-C ,  4-O ) :   0.1032
B(  2-C ,  5-C ) :   1.1066 B(  3-N ,  4-O ) :   1.0423 B(  4-O , 12-H ) :   0.9677
B(  5-C ,  6-N ) :   3.0001

FINAL SINGLE POINT ENERGY      -340.029844626940

DIPOLE MOMENT
-------------
                                X             Y             Z
Electronic contribution:      3.90462      -6.10005       2.52542
Nuclear contribution   :     -4.07221       6.49297      -4.11978
                        -----------------------------------------
Total Dipole Moment    :     -0.16759       0.39292      -1.59436
                        -----------------------------------------
Magnitude (a.u.)       :      1.65059
Magnitude (Debye)      :      4.19547

                             ****ORCA TERMINATED NORMALLY****
TOTAL RUN TIME: 0 days 0 hours 0 minutes 5 seconds 841 msec
