                         Program Version 3.0.3 - RELEASE   -
|  1> ! RI PBE def2-SVP def2-SVP/J NBO PAL2
|  2> % maxcore 2000
|  3> % output
|  4>     # printlevel mini
|  5>     print[ P_Basis ] 0
|  6>     print[ P_SCFInfo ] 1
|  7>     print[ P_SCFIterInfo ] 1
|  8>     print[ P_OrbEn ] 0
|  9>     print[ P_Cartesian ] 0
| 10> end
| 11> *xyz 0 1
| 12>  C        0.8383510000     0.0827630000     0.0405540000
| 13>  C        2.3392400000     0.2578580000     0.1963950000
| 14>  C        3.0458300000    -1.0681060000     0.4010660000
| 15>  N        4.4783250000    -0.9191990000     0.5749190000
| 16>  O        5.0938610000    -0.5505890000    -0.6252410000
| 17>  C        5.1726790000    -1.9148480000     1.2471680000
| 18>  N        6.3470500000    -2.3322680000     1.0466610000
| 19>  H        0.3428380000     1.0428690000    -0.1147000000
| 20>  H        0.3965270000    -0.3778120000     0.9285820000
| 21>  H        0.6002140000    -0.5543710000    -0.8155300000
| 22>  H        2.5599380000     0.9102980000     1.0474240000
| 23>  H        2.7474230000     0.7450780000    -0.6939990000
| 24>  H        2.8387650000    -1.7427100000    -0.4417920000
| 25>  H        2.6720700000    -1.5533550000     1.3074830000
| 26>  H        5.4058520000     0.3472150000    -0.4709290000
| 27>  H        4.5884150000    -2.3087520000     2.0808810000
| 28>  H        6.7425900000    -1.8817610000     0.2211780000
| 29> *
| 30>
| 31>                          ****END OF INPUT****
 Total Charge           Charge          ....    0
 Multiplicity           Mult            ....    1
 Number of Electrons    NEL             ....   56
 Basis Dimension        Dim             ....  148

MULLIKEN ATOMIC CHARGES
-----------------------
   0 C :   -0.022143
   1 C :   -0.054489
   2 C :    0.126524
   3 N :   -0.145897
   4 O :   -0.195219
   5 C :    0.006162
   6 N :   -0.127339
   7 H :    0.026034
   8 H :    0.022114
   9 H :    0.025352
  10 H :    0.017235
  11 H :    0.010058
  12 H :    0.015342
  13 H :    0.017606
  14 H :    0.189966
  15 H :    0.011233
  16 H :    0.077462
Sum of atomic charges:   -0.0000000

LOEWDIN ATOMIC CHARGES
----------------------
   0 C :   -0.063061
   1 C :   -0.058914
   2 C :    0.015722
   3 N :    0.010764
   4 O :   -0.057384
   5 C :   -0.005045
   6 N :   -0.147396
   7 H :    0.030338
   8 H :    0.025953
   9 H :    0.027310
  10 H :    0.025027
  11 H :    0.020486
  12 H :    0.016691
  13 H :    0.029239
  14 H :    0.079195
  15 H :    0.015302
  16 H :    0.035772

  Mayer bond orders larger than 0.1
B(  0-C ,  1-C ) :   1.1189 B(  0-C ,  7-H ) :   0.9611 B(  0-C ,  8-H ) :   0.9669
B(  0-C ,  9-H ) :   0.9656 B(  1-C ,  2-C ) :   1.0831 B(  1-C , 10-H ) :   0.9349
B(  1-C , 11-H ) :   0.9325 B(  2-C ,  3-N ) :   0.9785 B(  2-C , 12-H ) :   0.9280
B(  2-C , 13-H ) :   0.9256 B(  3-N ,  4-O ) :   0.9499 B(  3-N ,  5-C ) :   1.0683
B(  3-N ,  6-N ) :   0.1025 B(  4-O , 14-H ) :   0.9693 B(  5-C ,  6-N ) :   2.0436
B(  5-C , 15-H ) :   0.9345 B(  6-N , 16-H ) :   0.9292

FINAL SINGLE POINT ENERGY      -342.429577473689

DIPOLE MOMENT
-------------
                                X             Y             Z
Electronic contribution:      8.60274      -2.33670       0.40400
Nuclear contribution   :     -9.51978       3.36118      -0.67953
                        -----------------------------------------
Total Dipole Moment    :     -0.91705       1.02448      -0.27553
                        -----------------------------------------
Magnitude (a.u.)       :      1.40230
Magnitude (Debye)      :      3.56437

                             ****ORCA TERMINATED NORMALLY****
TOTAL RUN TIME: 0 days 0 hours 0 minutes 7 seconds 634 msec
