                         Program Version 3.0.3 - RELEASE   -
|  1> ! RI PBE def2-SVP def2-SVP/J NBO PAL2
|  2> % maxcore 2000
|  3> % output
|  4>     # printlevel mini
|  5>     print[ P_Basis ] 0
|  6>     print[ P_SCFInfo ] 1
|  7>     print[ P_SCFIterInfo ] 1
|  8>     print[ P_OrbEn ] 0
|  9>     print[ P_Cartesian ] 0
| 10> end
| 11> *xyz 0 1
| 12>  C        3.6747870000    -1.5747480000     2.0852740000
| 13>  C        3.2632220000    -1.1131430000     0.9064120000
| 14>  C        2.8262720000     0.2527210000     0.7219670000
| 15>  N        2.4442790000     0.6317660000    -0.4316540000
| 16>  O        2.0692530000     1.9751960000    -0.3797170000
| 17>  C        1.6460850000     2.4682700000    -1.5687920000
| 18>  O        1.5672380000     1.8940590000    -2.6029660000
| 19>  H        3.9994560000    -2.6002500000     2.2090440000
| 20>  H        3.6994150000    -0.9389660000     2.9643090000
| 21>  H        3.2382690000    -1.7481240000     0.0268730000
| 22>  H        2.8301450000     0.9367150000     1.5725900000
| 23>  H        1.3839790000     3.5226140000    -1.3916500000
| 24> *
| 25>
| 26>                          ****END OF INPUT****
 Total Charge           Charge          ....    0
 Multiplicity           Mult            ....    1
 Number of Electrons    NEL             ....   52
 Basis Dimension        Dim             ....  123

MULLIKEN ATOMIC CHARGES
-----------------------
   0 C :   -0.016849
   1 C :    0.007866
   2 C :    0.015578
   3 N :    0.017806
   4 O :   -0.197262
   5 C :    0.207404
   6 O :   -0.156726
   7 H :    0.043706
   8 H :    0.033775
   9 H :    0.025919
  10 H :    0.006628
  11 H :    0.012156
Sum of atomic charges:   -0.0000000

LOEWDIN ATOMIC CHARGES
----------------------
   0 C :   -0.019235
   1 C :   -0.034286
   2 C :   -0.006144
   3 N :    0.016803
   4 O :   -0.028852
   5 C :    0.060994
   6 O :   -0.102635
   7 H :    0.033875
   8 H :    0.028521
   9 H :    0.041528
  10 H :    0.014418
  11 H :   -0.004987

  Mayer bond orders larger than 0.1
B(  0-C ,  1-C ) :   1.8733 B(  0-C ,  3-N ) :   0.1226 B(  0-C ,  7-H ) :   0.9445
B(  0-C ,  8-H ) :   0.9522 B(  1-C ,  2-C ) :   1.1134 B(  1-C ,  9-H ) :   0.9603
B(  2-C ,  3-N ) :   1.8056 B(  2-C , 10-H ) :   0.9464 B(  3-N ,  4-O ) :   0.9105
B(  4-O ,  5-C ) :   1.0954 B(  5-C ,  6-O ) :   2.1471 B(  5-C , 11-H ) :   0.9296

FINAL SINGLE POINT ENERGY      -359.873683618347

DIPOLE MOMENT
-------------
                                X             Y             Z
Electronic contribution:     -2.29159       4.03496      -4.78433
Nuclear contribution   :      2.60915      -4.06979       6.07893
                        -----------------------------------------
Total Dipole Moment    :      0.31755      -0.03484       1.29460
                        -----------------------------------------
Magnitude (a.u.)       :      1.33344
Magnitude (Debye)      :      3.38932

                             ****ORCA TERMINATED NORMALLY****
TOTAL RUN TIME: 0 days 0 hours 0 minutes 5 seconds 491 msec
