                         Program Version 3.0.3 - RELEASE   -
|  1> ! RI PBE def2-SVP def2-SVP/J NBO PAL2
|  2> % maxcore 2000
|  3> % output
|  4>     # printlevel mini
|  5>     print[ P_Basis ] 0
|  6>     print[ P_SCFInfo ] 1
|  7>     print[ P_SCFIterInfo ] 1
|  8>     print[ P_OrbEn ] 0
|  9>     print[ P_Cartesian ] 0
| 10> end
| 11> *xyz 0 1
| 12>  C        0.5846830000     0.0281390000     0.3076260000
| 13>  C        1.9645700000     0.4785790000    -0.0267000000
| 14>  C        3.0428950000    -0.2757040000     0.1642590000
| 15>  N        4.3466790000     0.1054920000    -0.1209150000
| 16>  O        4.5676790000     1.3444730000    -0.6729310000
| 17>  C        5.4336720000    -0.7142260000    -0.0090240000
| 18>  O        5.3849370000    -1.8528020000     0.3854040000
| 19>  H       -0.0544080000     0.0230020000    -0.5810100000
| 20>  H        0.1111020000     0.6996780000     1.0308820000
| 21>  H        0.5821620000    -0.9780900000     0.7306220000
| 22>  H        2.0787260000     1.4632110000    -0.4694390000
| 23>  H        3.0070570000    -1.2768210000     0.5776800000
| 24>  H        4.5136340000     1.9718700000     0.0613010000
| 25>  H        6.3521200000    -0.1938200000    -0.3267860000
| 26> *
| 27>
| 28>                          ****END OF INPUT****
 Total Charge           Charge          ....    0
 Multiplicity           Mult            ....    1
 Number of Electrons    NEL             ....   54
 Basis Dimension        Dim             ....  133

MULLIKEN ATOMIC CHARGES
-----------------------
   0 C :    0.023188
   1 C :   -0.125364
   2 C :    0.090539
   3 N :   -0.072201
   4 O :   -0.167930
   5 C :    0.177853
   6 O :   -0.215307
   7 H :    0.041565
   8 H :    0.036947
   9 H :    0.023321
  10 H :   -0.001378
  11 H :    0.008721
  12 H :    0.189906
  13 H :   -0.009861
Sum of atomic charges:   -0.0000000

LOEWDIN ATOMIC CHARGES
----------------------
   0 C :   -0.060756
   1 C :   -0.078348
   2 C :   -0.013841
   3 N :    0.071811
   4 O :   -0.036002
   5 C :    0.045340
   6 O :   -0.163751
   7 H :    0.038322
   8 H :    0.036053
   9 H :    0.033107
  10 H :    0.019754
  11 H :    0.034567
  12 H :    0.084042
  13 H :   -0.010298

  Mayer bond orders larger than 0.1
B(  0-C ,  1-C ) :   1.0994 B(  0-C ,  7-H ) :   0.9477 B(  0-C ,  8-H ) :   0.9493
B(  0-C ,  9-H ) :   0.9612 B(  1-C ,  2-C ) :   1.8058 B(  1-C , 10-H ) :   0.9412
B(  2-C ,  3-N ) :   1.0470 B(  2-C , 11-H ) :   0.9509 B(  3-N ,  4-O ) :   0.9658
B(  3-N ,  5-C ) :   1.1014 B(  4-O , 12-H ) :   0.9620 B(  5-C ,  6-O ) :   2.0247
B(  5-C , 13-H ) :   0.9250

FINAL SINGLE POINT ENERGY      -361.083251663745

DIPOLE MOMENT
-------------
                                X             Y             Z
Electronic contribution:      7.89919      -1.08831      -0.73411
Nuclear contribution   :     -8.37809       2.29753       0.95661
                        -----------------------------------------
Total Dipole Moment    :     -0.47890       1.20923       0.22250
                        -----------------------------------------
Magnitude (a.u.)       :      1.31950
Magnitude (Debye)      :      3.35391

                             ****ORCA TERMINATED NORMALLY****
TOTAL RUN TIME: 0 days 0 hours 0 minutes 6 seconds 260 msec
