                         Program Version 3.0.3 - RELEASE   -
|  1> ! RI PBE def2-SVP def2-SVP/J NBO PAL2
|  2> % maxcore 2000
|  3> % output
|  4>     # printlevel mini
|  5>     print[ P_Basis ] 0
|  6>     print[ P_SCFInfo ] 1
|  7>     print[ P_SCFIterInfo ] 1
|  8>     print[ P_OrbEn ] 0
|  9>     print[ P_Cartesian ] 0
| 10> end
| 11> *xyz 0 1
| 12>  C        0.6040240000     0.6346860000     0.4019260000
| 13>  C        2.0061970000     0.1390280000     0.2505740000
| 14>  C        3.0509980000     0.6874620000     0.8688970000
| 15>  N        2.1696110000    -0.9570530000    -0.5922240000
| 16>  O        3.4484230000    -1.4277350000    -0.7434560000
| 17>  C        1.2428850000    -1.6396270000    -1.2954980000
| 18>  O        1.5632170000    -2.5873030000    -1.9941760000
| 19>  H        0.6053470000     1.4869750000     1.0787530000
| 20>  H       -0.0563870000    -0.1296770000     0.8206190000
| 21>  H        0.1800920000     0.9602340000    -0.5519610000
| 22>  H        2.8939280000     1.5374210000     1.5178000000
| 23>  H        4.0539340000     0.3083620000     0.7422100000
| 24>  H        3.2918580000    -2.1725080000    -1.3639650000
| 25>  H        0.2185830000    -1.2722660000    -1.1819080000
| 26> *
| 27>
| 28>                          ****END OF INPUT****
 Total Charge           Charge          ....    0
 Multiplicity           Mult            ....    1
 Number of Electrons    NEL             ....   54
 Basis Dimension        Dim             ....  133

MULLIKEN ATOMIC CHARGES
-----------------------
   0 C :    0.015284
   1 C :   -0.040303
   2 C :   -0.045957
   3 N :   -0.038237
   4 O :   -0.150130
   5 C :    0.165089
   6 O :   -0.264994
   7 H :    0.031980
   8 H :    0.054699
   9 H :    0.053148
  10 H :    0.013510
  11 H :    0.038078
  12 H :    0.161631
  13 H :    0.006201
Sum of atomic charges:    0.0000000

LOEWDIN ATOMIC CHARGES
----------------------
   0 C :   -0.060849
   1 C :   -0.010771
   2 C :   -0.096068
   3 N :    0.110797
   4 O :   -0.043153
   5 C :    0.032431
   6 O :   -0.185512
   7 H :    0.046102
   8 H :    0.040109
   9 H :    0.039769
  10 H :    0.028249
  11 H :    0.031022
  12 H :    0.061853
  13 H :    0.006022

  Mayer bond orders larger than 0.1
B(  0-C ,  1-C ) :   1.0958 B(  0-C ,  7-H ) :   0.9335 B(  0-C ,  8-H ) :   0.9382
B(  0-C ,  9-H ) :   0.9392 B(  1-C ,  2-C ) :   1.8942 B(  1-C ,  3-N ) :   1.0421
B(  2-C , 10-H ) :   0.9206 B(  2-C , 11-H ) :   0.9196 B(  3-N ,  4-O ) :   1.0198
B(  3-N ,  5-C ) :   1.1854 B(  4-O , 12-H ) :   0.9095 B(  5-C ,  6-O ) :   1.8883
B(  5-C , 13-H ) :   0.9288 B(  6-O , 12-H ) :   0.1360

FINAL SINGLE POINT ENERGY      -361.087049283396

DIPOLE MOMENT
-------------
                                X             Y             Z
Electronic contribution:      2.25940      -5.03445      -3.61883
Nuclear contribution   :     -2.79023       5.77229       4.10698
                        -----------------------------------------
Total Dipole Moment    :     -0.53083       0.73784       0.48815
                        -----------------------------------------
Magnitude (a.u.)       :      1.03174
Magnitude (Debye)      :      2.62247

                             ****ORCA TERMINATED NORMALLY****
TOTAL RUN TIME: 0 days 0 hours 0 minutes 6 seconds 463 msec
