                         Program Version 3.0.3 - RELEASE   -
|  1> ! RI PBE def2-SVP def2-SVP/J NBO PAL2
|  2> % maxcore 2000
|  3> % output
|  4>     # printlevel mini
|  5>     print[ P_Basis ] 0
|  6>     print[ P_SCFInfo ] 1
|  7>     print[ P_SCFIterInfo ] 1
|  8>     print[ P_OrbEn ] 0
|  9>     print[ P_Cartesian ] 0
| 10> end
| 11> *xyz 0 1
| 12>  C        0.5884330000    -0.4827930000    -0.3643410000
| 13>  C        1.0402410000     0.7551380000     0.3318830000
| 14>  C        0.0354730000     1.6006120000     1.0463030000
| 15>  N        2.2868630000     1.0035440000     0.2615180000
| 16>  O        2.5812280000     2.1925530000     0.9561780000
| 17>  C        3.8898360000     2.5237220000     0.9257690000
| 18>  O        4.7775910000     1.9405810000     0.3964380000
| 19>  H       -0.1589810000    -0.2353030000    -1.1242270000
| 20>  H        0.1086370000    -1.1609410000     0.3478550000
| 21>  H        1.4290950000    -0.9891990000    -0.8355960000
| 22>  H       -0.9636420000     1.1751490000     0.9600850000
| 23>  H        0.0282690000     2.6133500000     0.6371590000
| 24>  H        0.2945960000     1.6906990000     2.1035810000
| 25>  H        3.9884610000     3.4602770000     1.4974950000
| 26> *
| 27>
| 28>                          ****END OF INPUT****
 Total Charge           Charge          ....    0
 Multiplicity           Mult            ....    1
 Number of Electrons    NEL             ....   54
 Basis Dimension        Dim             ....  133

MULLIKEN ATOMIC CHARGES
-----------------------
   0 C :    0.062270
   1 C :   -0.268171
   2 C :    0.080530
   3 N :    0.029899
   4 O :   -0.211550
   5 C :    0.210750
   6 O :   -0.163944
   7 H :    0.044334
   8 H :    0.044068
   9 H :    0.042571
  10 H :    0.020122
  11 H :    0.050545
  12 H :    0.056166
  13 H :    0.002410
Sum of atomic charges:    0.0000000

LOEWDIN ATOMIC CHARGES
----------------------
   0 C :   -0.057067
   1 C :   -0.028414
   2 C :   -0.073692
   3 N :   -0.006918
   4 O :   -0.036054
   5 C :    0.056838
   6 O :   -0.109576
   7 H :    0.043363
   8 H :    0.043668
   9 H :    0.042002
  10 H :    0.033956
  11 H :    0.049806
  12 H :    0.050877
  13 H :   -0.008789

  Mayer bond orders larger than 0.1
B(  0-C ,  1-C ) :   1.0970 B(  0-C ,  7-H ) :   0.9396 B(  0-C ,  8-H ) :   0.9391
B(  0-C ,  9-H ) :   0.9467 B(  1-C ,  2-C ) :   1.0533 B(  1-C ,  3-N ) :   1.9311
B(  2-C , 10-H ) :   0.9482 B(  2-C , 11-H ) :   0.9354 B(  2-C , 12-H ) :   0.9357
B(  3-N ,  4-O ) :   0.9030 B(  4-O ,  5-C ) :   1.1104 B(  4-O ,  6-O ) :   0.1001
B(  5-C ,  6-O ) :   2.1385 B(  5-C , 13-H ) :   0.9288

FINAL SINGLE POINT ENERGY      -361.100425972533

DIPOLE MOMENT
-------------
                                X             Y             Z
Electronic contribution:      8.38190       3.03807       0.38624
Nuclear contribution   :     -9.89161      -2.90046      -0.02367
                        -----------------------------------------
Total Dipole Moment    :     -1.50971       0.13761       0.36257
                        -----------------------------------------
Magnitude (a.u.)       :      1.55873
Magnitude (Debye)      :      3.96196

                             ****ORCA TERMINATED NORMALLY****
TOTAL RUN TIME: 0 days 0 hours 0 minutes 5 seconds 850 msec
