                         Program Version 3.0.3 - RELEASE   -
|  1> ! RI PBE def2-SVP def2-SVP/J NBO PAL2
|  2> % maxcore 2000
|  3> % output
|  4>     # printlevel mini
|  5>     print[ P_Basis ] 0
|  6>     print[ P_SCFInfo ] 1
|  7>     print[ P_SCFIterInfo ] 1
|  8>     print[ P_OrbEn ] 0
|  9>     print[ P_Cartesian ] 0
| 10> end
| 11> *xyz 0 1
| 12>  C        0.8891900000     0.2545160000    -0.1055950000
| 13>  C        2.3368730000    -0.0581400000     0.2301640000
| 14>  C        2.9609170000     0.9834890000     1.1468870000
| 15>  N        2.4554010000    -1.3955080000     0.7894130000
| 16>  O        1.8390420000    -1.5982410000     2.0156900000
| 17>  C        3.5030950000    -2.2190770000     0.5234780000
| 18>  O        4.2878120000    -2.0595800000    -0.3819060000
| 19>  H        0.8230670000     1.2179050000    -0.6143920000
| 20>  H        0.2785830000     0.3201070000     0.7990180000
| 21>  H        0.4642830000    -0.5063540000    -0.7640230000
| 22>  H        2.9203430000    -0.1231740000    -0.6915560000
| 23>  H        2.4470480000     1.0093540000     2.1100720000
| 24>  H        2.8888040000     1.9745300000     0.6939840000
| 25>  H        4.0158770000     0.7638670000     1.3202690000
| 26>  H        0.9763730000    -1.9755070000     1.8087020000
| 27>  H        3.5269030000    -3.0722770000     1.2237070000
| 28> *
| 29>
| 30>                          ****END OF INPUT****
 Total Charge           Charge          ....    0
 Multiplicity           Mult            ....    1
 Number of Electrons    NEL             ....   56
 Basis Dimension        Dim             ....  143

MULLIKEN ATOMIC CHARGES
-----------------------
   0 C :   -0.012672
   1 C :   -0.006001
   2 C :    0.017876
   3 N :   -0.130961
   4 O :   -0.183441
   5 C :    0.179802
   6 O :   -0.231770
   7 H :    0.032047
   8 H :    0.017461
   9 H :    0.028839
  10 H :    0.027824
  11 H :    0.027766
  12 H :    0.025017
  13 H :    0.035723
  14 H :    0.187578
  15 H :   -0.015090
Sum of atomic charges:    0.0000000

LOEWDIN ATOMIC CHARGES
----------------------
   0 C :   -0.069096
   1 C :    0.004312
   2 C :   -0.063270
   3 N :    0.039359
   4 O :   -0.050995
   5 C :    0.037996
   6 O :   -0.178596
   7 H :    0.035575
   8 H :    0.022176
   9 H :    0.028741
  10 H :    0.035304
  11 H :    0.027353
  12 H :    0.031132
  13 H :    0.034100
  14 H :    0.079699
  15 H :   -0.013790

  Mayer bond orders larger than 0.1
B(  0-C ,  1-C ) :   1.0875 B(  0-C ,  7-H ) :   0.9612 B(  0-C ,  8-H ) :   0.9552
B(  0-C ,  9-H ) :   0.9589 B(  1-C ,  2-C ) :   1.0911 B(  1-C ,  3-N ) :   0.9260
B(  1-C , 10-H ) :   0.8916 B(  2-C , 11-H ) :   0.9533 B(  2-C , 12-H ) :   0.9634
B(  2-C , 13-H ) :   0.9571 B(  3-N ,  4-O ) :   0.9392 B(  3-N ,  5-C ) :   1.1545
B(  3-N ,  6-O ) :   0.1164 B(  4-O , 14-H ) :   0.9700 B(  5-C ,  6-O ) :   2.0061
B(  5-C , 15-H ) :   0.9216

FINAL SINGLE POINT ENERGY      -362.298484729453

DIPOLE MOMENT
-------------
                                X             Y             Z
Electronic contribution:      3.39557      -6.74085       0.16368
Nuclear contribution   :     -4.66541       7.04843       0.23172
                        -----------------------------------------
Total Dipole Moment    :     -1.26984       0.30758       0.39540
                        -----------------------------------------
Magnitude (a.u.)       :      1.36508
Magnitude (Debye)      :      3.46977

                             ****ORCA TERMINATED NORMALLY****
TOTAL RUN TIME: 0 days 0 hours 0 minutes 7 seconds 209 msec
