                         Program Version 3.0.3 - RELEASE   -
|  1> ! RI PBE def2-SVP def2-SVP/J NBO PAL2
|  2> % maxcore 2000
|  3> % output
|  4>     # printlevel mini
|  5>     print[ P_Basis ] 0
|  6>     print[ P_SCFInfo ] 1
|  7>     print[ P_SCFIterInfo ] 1
|  8>     print[ P_OrbEn ] 0
|  9>     print[ P_Cartesian ] 0
| 10> end
| 11> *xyz 0 1
| 12>  C        0.7259350000     0.2961880000    -0.2314110000
| 13>  C        2.2198900000     0.3202400000    -0.0057940000
| 14>  C        2.7523680000     1.7006670000     0.3061910000
| 15>  N        4.1967270000     1.6803090000     0.4347240000
| 16>  O        2.5576500000    -0.5004770000     1.1402080000
| 17>  C        2.6810040000    -1.8085520000     0.9359680000
| 18>  O        2.5235590000    -2.3864620000    -0.0995520000
| 19>  H        0.4692250000     0.9230390000    -1.0882770000
| 20>  H        0.1946110000     0.6751160000     0.6449220000
| 21>  H        0.3852610000    -0.7178780000    -0.4406210000
| 22>  H        2.7499510000    -0.0898150000    -0.8682210000
| 23>  H        2.2223560000     2.0845480000     1.1927410000
| 24>  H        2.4858740000     2.3496310000    -0.5331260000
| 25>  H        4.4631090000     1.1404230000     1.2487410000
| 26>  H        4.5583510000     2.6158150000     0.5649910000
| 27>  H        2.9568380000    -2.2952840000     1.8840350000
| 28> *
| 29>
| 30>                          ****END OF INPUT****
 Total Charge           Charge          ....    0
 Multiplicity           Mult            ....    1
 Number of Electrons    NEL             ....   56
 Basis Dimension        Dim             ....  143

MULLIKEN ATOMIC CHARGES
-----------------------
   0 C :    0.029993
   1 C :    0.021424
   2 C :    0.094259
   3 N :   -0.204267
   4 O :   -0.254973
   5 C :    0.214654
   6 O :   -0.207484
   7 H :    0.026461
   8 H :    0.024261
   9 H :    0.038290
  10 H :    0.024751
  11 H :   -0.005960
  12 H :    0.013164
  13 H :    0.091379
  14 H :    0.090818
  15 H :    0.003230
Sum of atomic charges:    0.0000000

LOEWDIN ATOMIC CHARGES
----------------------
   0 C :   -0.065396
   1 C :    0.054449
   2 C :    0.000828
   3 N :   -0.108072
   4 O :   -0.060911
   5 C :    0.071006
   6 O :   -0.143845
   7 H :    0.036370
   8 H :    0.028584
   9 H :    0.035116
  10 H :    0.022431
  11 H :    0.003166
  12 H :    0.028774
  13 H :    0.049567
  14 H :    0.054671
  15 H :   -0.006740

  Mayer bond orders larger than 0.1
B(  0-C ,  1-C ) :   1.1015 B(  0-C ,  7-H ) :   0.9551 B(  0-C ,  8-H ) :   0.9501
B(  0-C ,  9-H ) :   0.9506 B(  1-C ,  2-C ) :   1.0532 B(  1-C ,  4-O ) :   0.8782
B(  1-C , 10-H ) :   0.9093 B(  2-C ,  3-N ) :   1.1048 B(  2-C , 11-H ) :   0.9133
B(  2-C , 12-H ) :   0.9299 B(  3-N , 13-H ) :   0.9646 B(  3-N , 14-H ) :   0.9645
B(  4-O ,  5-C ) :   1.1997 B(  4-O ,  6-O ) :   0.1070 B(  5-C ,  6-O ) :   2.0338
B(  5-C , 15-H ) :   0.9334

FINAL SINGLE POINT ENERGY      -362.342081965896

DIPOLE MOMENT
-------------
                                X             Y             Z
Electronic contribution:      2.03585      -6.09250       1.22101
Nuclear contribution   :     -2.17265       7.04499      -0.61603
                        -----------------------------------------
Total Dipole Moment    :     -0.13680       0.95248       0.60497
                        -----------------------------------------
Magnitude (a.u.)       :      1.13663
Magnitude (Debye)      :      2.88909

                             ****ORCA TERMINATED NORMALLY****
TOTAL RUN TIME: 0 days 0 hours 0 minutes 6 seconds 823 msec
