                         Program Version 3.0.3 - RELEASE   -
|  1> ! RI PBE def2-SVP def2-SVP/J NBO PAL2
|  2> % maxcore 2000
|  3> % output
|  4>     # printlevel mini
|  5>     print[ P_Basis ] 0
|  6>     print[ P_SCFInfo ] 1
|  7>     print[ P_SCFIterInfo ] 1
|  8>     print[ P_OrbEn ] 0
|  9>     print[ P_Cartesian ] 0
| 10> end
| 11> *xyz 0 1
| 12>  C        0.9103440000     0.1475780000    -0.3211900000
| 13>  C        2.4349530000     0.1366540000    -0.2803960000
| 14>  C        2.9543830000    -0.4762710000     0.9706430000
| 15>  N        3.6927440000    -1.5018860000     0.9088120000
| 16>  O        4.0520630000    -1.9024320000     2.2083630000
| 17>  C        4.8349480000    -3.0028720000     2.2383010000
| 18>  O        5.2299560000    -3.6401060000     1.3185680000
| 19>  H        0.5557700000     0.6384900000    -1.2291010000
| 20>  H        0.4911800000     0.6845360000     0.5335650000
| 21>  H        0.5122890000    -0.8690000000    -0.3081310000
| 22>  H        2.8085450000     1.1657960000    -0.3367900000
| 23>  H        2.8466410000    -0.4078720000    -1.1322070000
| 24>  H        2.6799830000    -0.0398790000     1.9344070000
| 25>  H        5.0449110000    -3.2065260000     3.3001650000
| 26> *
| 27>
| 28>                          ****END OF INPUT****
 Total Charge           Charge          ....    0
 Multiplicity           Mult            ....    1
 Number of Electrons    NEL             ....   54
 Basis Dimension        Dim             ....  133

MULLIKEN ATOMIC CHARGES
-----------------------
   0 C :   -0.049791
   1 C :    0.038594
   2 C :   -0.047233
   3 N :    0.019035
   4 O :   -0.202851
   5 C :    0.211879
   6 O :   -0.166378
   7 H :    0.034445
   8 H :    0.029423
   9 H :    0.040027
  10 H :    0.038856
  11 H :    0.031741
  12 H :    0.016218
  13 H :    0.006037
Sum of atomic charges:    0.0000000

LOEWDIN ATOMIC CHARGES
----------------------
   0 C :   -0.057948
   1 C :   -0.048661
   2 C :    0.003993
   3 N :    0.013004
   4 O :   -0.036154
   5 C :    0.059068
   6 O :   -0.110292
   7 H :    0.033457
   8 H :    0.027433
   9 H :    0.031772
  10 H :    0.042451
  11 H :    0.039087
  12 H :    0.009984
  13 H :   -0.007195

  Mayer bond orders larger than 0.1
B(  0-C ,  1-C ) :   1.0881 B(  0-C ,  7-H ) :   0.9616 B(  0-C ,  8-H ) :   0.9710
B(  0-C ,  9-H ) :   0.9700 B(  1-C ,  2-C ) :   1.0406 B(  1-C , 10-H ) :   0.9184
B(  1-C , 11-H ) :   0.9272 B(  2-C ,  3-N ) :   1.9211 B(  2-C , 12-H ) :   0.9378
B(  3-N ,  4-O ) :   0.8909 B(  4-O ,  5-C ) :   1.1098 B(  4-O ,  6-O ) :   0.1015
B(  5-C ,  6-O ) :   2.1366 B(  5-C , 13-H ) :   0.9290

FINAL SINGLE POINT ENERGY      -361.091840989348

DIPOLE MOMENT
-------------
                                X             Y             Z
Electronic contribution:      7.80622      -6.71693       4.45393
Nuclear contribution   :     -8.61852       7.80526      -4.09460
                        -----------------------------------------
Total Dipole Moment    :     -0.81229       1.08832       0.35933
                        -----------------------------------------
Magnitude (a.u.)       :      1.40477
Magnitude (Debye)      :      3.57065

                             ****ORCA TERMINATED NORMALLY****
TOTAL RUN TIME: 0 days 0 hours 0 minutes 6 seconds 195 msec
