                         Program Version 3.0.3 - RELEASE   -
|  1> ! RI PBE def2-SVP def2-SVP/J NBO PAL2
|  2> % maxcore 2000
|  3> % output
|  4>     # printlevel mini
|  5>     print[ P_Basis ] 0
|  6>     print[ P_SCFInfo ] 1
|  7>     print[ P_SCFIterInfo ] 1
|  8>     print[ P_OrbEn ] 0
|  9>     print[ P_Cartesian ] 0
| 10> end
| 11> *xyz 0 1
| 12>  C        0.8849070000     0.0137530000    -0.2929120000
| 13>  C        2.2093850000     0.7029020000    -0.0130240000
| 14>  C        3.3385260000    -0.2980370000     0.1593850000
| 15>  N        4.6134310000     0.3220640000     0.4244760000
| 16>  O        4.7675260000     0.8466640000     1.6991410000
| 17>  C        5.7651480000    -0.0341620000    -0.2041540000
| 18>  O        5.8177160000    -0.6844040000    -1.2208300000
| 19>  H        0.0783700000     0.7397530000    -0.4105600000
| 20>  H        0.6087360000    -0.6596520000     0.5229820000
| 21>  H        0.9345760000    -0.5796390000    -1.2096610000
| 22>  H        2.1194480000     1.3113010000     0.8934390000
| 23>  H        2.4619110000     1.3838220000    -0.8320460000
| 24>  H        3.4859790000    -0.8806980000    -0.7525010000
| 25>  H        3.1098530000    -0.9949730000     0.9749400000
| 26>  H        4.5608330000     1.7848300000     1.6186410000
| 27>  H        6.6462560000     0.3750750000     0.3198840000
| 28> *
| 29>
| 30>                          ****END OF INPUT****
 Total Charge           Charge          ....    0
 Multiplicity           Mult            ....    1
 Number of Electrons    NEL             ....   56
 Basis Dimension        Dim             ....  143

MULLIKEN ATOMIC CHARGES
-----------------------
   0 C :   -0.035267
   1 C :   -0.071555
   2 C :    0.139924
   3 N :   -0.141498
   4 O :   -0.188674
   5 C :    0.178618
   6 O :   -0.227296
   7 H :    0.029848
   8 H :    0.028785
   9 H :    0.028928
  10 H :    0.009154
  11 H :    0.024934
  12 H :    0.030351
  13 H :    0.022078
  14 H :    0.188715
  15 H :   -0.017046
Sum of atomic charges:   -0.0000000

LOEWDIN ATOMIC CHARGES
----------------------
   0 C :   -0.064895
   1 C :   -0.058420
   2 C :    0.017765
   3 N :    0.036715
   4 O :   -0.052267
   5 C :    0.039758
   6 O :   -0.175809
   7 H :    0.031422
   8 H :    0.027865
   9 H :    0.029225
  10 H :    0.018326
  11 H :    0.027652
  12 H :    0.034249
  13 H :    0.023845
  14 H :    0.078543
  15 H :   -0.013973

  Mayer bond orders larger than 0.1
B(  0-C ,  1-C ) :   1.1211 B(  0-C ,  7-H ) :   0.9602 B(  0-C ,  8-H ) :   0.9666
B(  0-C ,  9-H ) :   0.9669 B(  1-C ,  2-C ) :   1.0956 B(  1-C , 10-H ) :   0.9335
B(  1-C , 11-H ) :   0.9369 B(  2-C ,  3-N ) :   0.9442 B(  2-C , 12-H ) :   0.9114
B(  2-C , 13-H ) :   0.9322 B(  3-N ,  4-O ) :   0.9369 B(  3-N ,  5-C ) :   1.1466
B(  3-N ,  6-O ) :   0.1144 B(  4-O , 14-H ) :   0.9713 B(  5-C ,  6-O ) :   2.0197
B(  5-C , 15-H ) :   0.9214

FINAL SINGLE POINT ENERGY      -362.295762202333

DIPOLE MOMENT
-------------
                                X             Y             Z
Electronic contribution:      9.72678      -0.27523       0.46425
Nuclear contribution   :    -10.56938       1.16113       0.20001
                        -----------------------------------------
Total Dipole Moment    :     -0.84260       0.88591       0.66426
                        -----------------------------------------
Magnitude (a.u.)       :      1.39142
Magnitude (Debye)      :      3.53671

                             ****ORCA TERMINATED NORMALLY****
TOTAL RUN TIME: 0 days 0 hours 0 minutes 7 seconds 3 msec
