                         Program Version 3.0.3 - RELEASE   -
|  1> ! RI PBE def2-SVP def2-SVP/J NBO PAL2
|  2> % maxcore 2000
|  3> % output
|  4>     # printlevel mini
|  5>     print[ P_Basis ] 0
|  6>     print[ P_SCFInfo ] 1
|  7>     print[ P_SCFIterInfo ] 1
|  8>     print[ P_OrbEn ] 0
|  9>     print[ P_Cartesian ] 0
| 10> end
| 11> *xyz 0 1
| 12>  C        0.8841710000     0.0033200000     0.2383580000
| 13>  C        2.3904990000     0.0310190000     0.3054900000
| 14>  C        2.9319890000    -0.3140120000     1.6857330000
| 15>  N        2.6097050000     0.7447360000     2.6298780000
| 16>  O        2.8607700000    -0.9160640000    -0.6563980000
| 17>  N        4.1757200000    -0.6836190000    -0.9562250000
| 18>  C        4.6397310000    -1.5306090000    -1.7734750000
| 19>  H        0.4802740000     0.6504380000     1.0174630000
| 20>  H        0.5170100000    -1.0124480000     0.4060640000
| 21>  H        0.5272470000     0.3440060000    -0.7348220000
| 22>  H        2.7666610000     1.0191530000     0.0130870000
| 23>  H        4.0070040000    -0.5163730000     1.5871800000
| 24>  H        2.4553650000    -1.2400210000     2.0231810000
| 25>  H        3.1974470000     1.5536040000     2.4675600000
| 26>  H        2.7829320000     0.4425320000     3.5791550000
| 27>  H        5.6732000000    -1.4016760000    -2.0708040000
| 28>  H        4.0454630000    -2.3516770000    -2.1721160000
| 29> *
| 30>
| 31>                          ****END OF INPUT****
 Total Charge           Charge          ....    0
 Multiplicity           Mult            ....    1
 Number of Electrons    NEL             ....   56
 Basis Dimension        Dim             ....  148

MULLIKEN ATOMIC CHARGES
-----------------------
   0 C :    0.037046
   1 C :    0.069219
   2 C :    0.087053
   3 N :   -0.210323
   4 O :   -0.276821
   5 N :   -0.006481
   6 C :   -0.022501
   7 H :    0.029253
   8 H :    0.014212
   9 H :    0.022275
  10 H :   -0.005110
  11 H :    0.003298
  12 H :   -0.004141
  13 H :    0.091272
  14 H :    0.092601
  15 H :    0.049977
  16 H :    0.029173
Sum of atomic charges:    0.0000000

LOEWDIN ATOMIC CHARGES
----------------------
   0 C :   -0.065120
   1 C :    0.033182
   2 C :   -0.005401
   3 N :   -0.105006
   4 O :   -0.075119
   5 N :    0.009631
   6 C :   -0.052813
   7 H :    0.034855
   8 H :    0.027262
   9 H :    0.027841
  10 H :    0.008822
  11 H :    0.003108
  12 H :    0.019655
  13 H :    0.053198
  14 H :    0.055259
  15 H :    0.025466
  16 H :    0.005179

  Mayer bond orders larger than 0.1
B(  0-C ,  1-C ) :   1.0842 B(  0-C ,  7-H ) :   0.9470 B(  0-C ,  8-H ) :   0.9519
B(  0-C ,  9-H ) :   0.9592 B(  1-C ,  2-C ) :   1.0529 B(  1-C ,  4-O ) :   0.9335
B(  1-C , 10-H ) :   0.9184 B(  2-C ,  3-N ) :   1.0938 B(  2-C , 11-H ) :   0.9246
B(  2-C , 12-H ) :   0.9184 B(  3-N , 13-H ) :   0.9691 B(  3-N , 14-H ) :   0.9636
B(  4-O ,  5-N ) :   0.9777 B(  4-O ,  6-C ) :   0.1248 B(  5-N ,  6-C ) :   1.9298
B(  6-C , 15-H ) :   0.9527 B(  6-C , 16-H ) :   0.9322

FINAL SINGLE POINT ENERGY      -342.419893790502

DIPOLE MOMENT
-------------
                                X             Y             Z
Electronic contribution:      2.86326      -1.18006      -3.18009
Nuclear contribution   :     -2.52836       1.13673       3.47295
                        -----------------------------------------
Total Dipole Moment    :      0.33489      -0.04334       0.29286
                        -----------------------------------------
Magnitude (a.u.)       :      0.44698
Magnitude (Debye)      :      1.13614

                             ****ORCA TERMINATED NORMALLY****
TOTAL RUN TIME: 0 days 0 hours 0 minutes 7 seconds 814 msec
