                         Program Version 3.0.3 - RELEASE   -
|  1> ! RI PBE def2-SVP def2-SVP/J NBO PAL2
|  2> % maxcore 2000
|  3> % output
|  4>     # printlevel mini
|  5>     print[ P_Basis ] 0
|  6>     print[ P_SCFInfo ] 1
|  7>     print[ P_SCFIterInfo ] 1
|  8>     print[ P_OrbEn ] 0
|  9>     print[ P_Cartesian ] 0
| 10> end
| 11> *xyz 0 1
| 12>  C        1.0975110000     0.4979050000    -0.2276010000
| 13>  C        2.3190310000    -0.0168740000    -0.3758460000
| 14>  C        2.6210320000    -0.6773990000    -1.6655710000
| 15>  O        3.6645030000    -1.2157850000    -1.9265950000
| 16>  C        3.4002610000    -0.0072890000     0.6298310000
| 17>  C        4.1275310000     1.2524760000     0.9225300000
| 18>  N        3.2582580000     0.6445590000     1.9200260000
| 19>  H        0.3827370000     0.4521790000    -1.0425350000
| 20>  H        0.7581510000     0.9716310000     0.6866650000
| 21>  H        1.7888770000    -0.6479620000    -2.4009930000
| 22>  H        3.9780520000    -0.9256310000     0.6542710000
| 23>  H        3.7871910000     2.1480050000     0.4124390000
| 24>  H        5.1883950000     1.2154980000     1.1430410000
| 25>  H        2.3818600000     1.1513780000     1.9788490000
| 26> *
| 27>
| 28>                          ****END OF INPUT****
 Total Charge           Charge          ....    0
 Multiplicity           Mult            ....    1
 Number of Electrons    NEL             ....   52
 Basis Dimension        Dim             ....  133

MULLIKEN ATOMIC CHARGES
-----------------------
   0 C :   -0.041711
   1 C :   -0.038291
   2 C :    0.136538
   3 O :   -0.146590
   4 C :   -0.065487
   5 C :    0.059520
   6 N :   -0.172525
   7 H :    0.038183
   8 H :    0.024788
   9 H :   -0.023047
  10 H :    0.041477
  11 H :    0.033289
  12 H :    0.052090
  13 H :    0.101766
Sum of atomic charges:    0.0000000

LOEWDIN ATOMIC CHARGES
----------------------
   0 C :   -0.019390
   1 C :   -0.077798
   2 C :    0.084666
   3 O :   -0.101381
   4 C :    0.000432
   5 C :    0.024830
   6 N :   -0.084551
   7 H :    0.031117
   8 H :    0.022338
   9 H :   -0.009419
  10 H :    0.034922
  11 H :    0.017291
  12 H :    0.026793
  13 H :    0.050151

  Mayer bond orders larger than 0.1
B(  0-C ,  1-C ) :   1.8489 B(  0-C ,  7-H ) :   0.9300 B(  0-C ,  8-H ) :   0.9353
B(  1-C ,  2-C ) :   0.9731 B(  1-C ,  4-C ) :   1.0130 B(  2-C ,  3-O ) :   2.1604
B(  2-C ,  9-H ) :   0.9281 B(  4-C ,  5-C ) :   1.0293 B(  4-C ,  6-N ) :   1.0216
B(  4-C , 10-H ) :   0.9163 B(  5-C ,  6-N ) :   0.9956 B(  5-C , 11-H ) :   0.9425
B(  5-C , 12-H ) :   0.9435 B(  6-N , 13-H ) :   0.9470

FINAL SINGLE POINT ENERGY      -324.008988824702

DIPOLE MOMENT
-------------
                                X             Y             Z
Electronic contribution:      1.31082      -2.85395      -2.05773
Nuclear contribution   :     -2.16512       3.63485       2.07784
                        -----------------------------------------
Total Dipole Moment    :     -0.85430       0.78090       0.02011
                        -----------------------------------------
Magnitude (a.u.)       :      1.15760
Magnitude (Debye)      :      2.94238

                             ****ORCA TERMINATED NORMALLY****
TOTAL RUN TIME: 0 days 0 hours 0 minutes 6 seconds 637 msec
