                         Program Version 3.0.3 - RELEASE   -
|  1> ! RI PBE def2-SVP def2-SVP/J NBO PAL2
|  2> % maxcore 2000
|  3> % output
|  4>     # printlevel mini
|  5>     print[ P_Basis ] 0
|  6>     print[ P_SCFInfo ] 1
|  7>     print[ P_SCFIterInfo ] 1
|  8>     print[ P_OrbEn ] 0
|  9>     print[ P_Cartesian ] 0
| 10> end
| 11> *xyz 0 1
| 12>  C        1.2223660000    -0.6489930000     0.9172440000
| 13>  C        1.3166790000    -0.6881470000    -0.4078710000
| 14>  C        2.5731130000    -0.6024400000    -1.1787430000
| 15>  O        2.5558400000    -0.7551790000    -2.3846860000
| 16>  C        3.8629980000    -0.3417090000    -0.4787050000
| 17>  C        4.9572940000    -1.3146420000    -0.7555430000
| 18>  N        4.9975880000     0.0152150000    -1.3148520000
| 19>  H        2.0884110000    -0.5311480000     1.5579330000
| 20>  H        0.2628330000    -0.7433050000     1.4123580000
| 21>  H        0.4345940000    -0.8198040000    -1.0270820000
| 22>  H        3.8284630000     0.1471430000     0.4870590000
| 23>  H        4.7131410000    -2.1462400000    -1.4090980000
| 24>  H        5.6795190000    -1.5209860000     0.0268360000
| 25>  H        4.6750710000    -0.0247660000    -2.2810500000
| 26> *
| 27>
| 28>                          ****END OF INPUT****
 Total Charge           Charge          ....    0
 Multiplicity           Mult            ....    1
 Number of Electrons    NEL             ....   52
 Basis Dimension        Dim             ....  133

MULLIKEN ATOMIC CHARGES
-----------------------
   0 C :    0.004628
   1 C :   -0.012391
   2 C :    0.095675
   3 O :   -0.180770
   4 C :   -0.148784
   5 C :    0.074565
   6 N :   -0.152714
   7 H :    0.042002
   8 H :    0.043273
   9 H :    0.007973
  10 H :    0.024460
  11 H :    0.045160
  12 H :    0.045418
  13 H :    0.111505
Sum of atomic charges:    0.0000000

LOEWDIN ATOMIC CHARGES
----------------------
   0 C :   -0.000095
   1 C :   -0.046770
   2 C :    0.038781
   3 O :   -0.131331
   4 C :   -0.040949
   5 C :    0.029987
   6 N :   -0.073106
   7 H :    0.029535
   8 H :    0.035018
   9 H :    0.038499
  10 H :    0.023917
  11 H :    0.020897
  12 H :    0.024634
  13 H :    0.050982

  Mayer bond orders larger than 0.1
B(  0-C ,  1-C ) :   1.9043 B(  0-C ,  7-H ) :   0.9354 B(  0-C ,  8-H ) :   0.9376
B(  1-C ,  2-C ) :   1.0418 B(  1-C ,  9-H ) :   0.9455 B(  2-C ,  3-O ) :   2.0584
B(  2-C ,  4-C ) :   0.9592 B(  4-C ,  5-C ) :   1.0077 B(  4-C ,  6-N ) :   1.0388
B(  4-C , 10-H ) :   0.9225 B(  5-C ,  6-N ) :   1.0005 B(  5-C , 11-H ) :   0.9360
B(  5-C , 12-H ) :   0.9432 B(  6-N , 13-H ) :   0.9278

FINAL SINGLE POINT ENERGY      -324.018208694400

DIPOLE MOMENT
-------------
                                X             Y             Z
Electronic contribution:     -0.45842       0.83107      -3.31845
Nuclear contribution   :      0.05151      -1.18125       4.27307
                        -----------------------------------------
Total Dipole Moment    :     -0.40692      -0.35018       0.95462
                        -----------------------------------------
Magnitude (a.u.)       :      1.09522
Magnitude (Debye)      :      2.78384

                             ****ORCA TERMINATED NORMALLY****
TOTAL RUN TIME: 0 days 0 hours 0 minutes 6 seconds 400 msec
