                         Program Version 3.0.3 - RELEASE   -
|  1> ! RI PBE def2-SVP def2-SVP/J NBO PAL2
|  2> % maxcore 2000
|  3> % output
|  4>     # printlevel mini
|  5>     print[ P_Basis ] 0
|  6>     print[ P_SCFInfo ] 1
|  7>     print[ P_SCFIterInfo ] 1
|  8>     print[ P_OrbEn ] 0
|  9>     print[ P_Cartesian ] 0
| 10> end
| 11> *xyz 0 1
| 12>  C        0.6807890000     0.2183780000    -0.2566900000
| 13>  C        2.1665440000     0.0108950000    -0.0311700000
| 14>  C        2.9921240000     1.1714330000    -0.5366590000
| 15>  O        2.5511420000     2.1299570000    -1.1072170000
| 16>  C        2.5072560000    -0.2498070000     1.4184750000
| 17>  C        2.4936770000    -1.6239530000     1.9517010000
| 18>  N        3.7555320000    -0.9044040000     1.7957480000
| 19>  H        0.4701320000     0.4256550000    -1.3062830000
| 20>  H        0.3194230000     1.0722340000     0.3200960000
| 21>  H        0.1196740000    -0.6661270000     0.0494090000
| 22>  H        2.5167770000    -0.8634520000    -0.6037730000
| 23>  H        4.0828470000     1.0861550000    -0.3367670000
| 24>  H        2.2283660000     0.5570260000     2.0929920000
| 25>  H        2.2617550000    -2.4256430000     1.2563850000
| 26>  H        2.1946770000    -1.8083280000     2.9773230000
| 27>  H        4.2464140000    -1.2362880000     0.9714200000
| 28> *
| 29>
| 30>                          ****END OF INPUT****
 Total Charge           Charge          ....    0
 Multiplicity           Mult            ....    1
 Number of Electrons    NEL             ....   54
 Basis Dimension        Dim             ....  143

MULLIKEN ATOMIC CHARGES
-----------------------
   0 C :    0.062406
   1 C :   -0.069299
   2 C :    0.115885
   3 O :   -0.146333
   4 C :   -0.111634
   5 C :    0.053733
   6 N :   -0.184430
   7 H :    0.030366
   8 H :    0.028555
   9 H :    0.016268
  10 H :    0.005747
  11 H :   -0.006867
  12 H :    0.032348
  13 H :    0.027806
  14 H :    0.038913
  15 H :    0.106536
Sum of atomic charges:   -0.0000000

LOEWDIN ATOMIC CHARGES
----------------------
   0 C :   -0.050033
   1 C :   -0.092787
   2 C :    0.095664
   3 O :   -0.099055
   4 C :   -0.000760
   5 C :    0.005939
   6 N :   -0.098818
   7 H :    0.033285
   8 H :    0.033189
   9 H :    0.028331
  10 H :    0.040135
  11 H :   -0.009665
  12 H :    0.026020
  13 H :    0.015209
  14 H :    0.023754
  15 H :    0.049591

  Mayer bond orders larger than 0.1
B(  0-C ,  1-C ) :   1.0728 B(  0-C ,  7-H ) :   0.9487 B(  0-C ,  8-H ) :   0.9602
B(  0-C ,  9-H ) :   0.9578 B(  1-C ,  2-C ) :   0.9026 B(  1-C ,  4-C ) :   1.0079
B(  1-C , 10-H ) :   0.8648 B(  2-C ,  3-O ) :   2.2109 B(  2-C , 11-H ) :   0.9338
B(  4-C ,  5-C ) :   1.0455 B(  4-C ,  6-N ) :   0.9875 B(  4-C , 12-H ) :   0.9317
B(  5-C ,  6-N ) :   1.0147 B(  5-C , 13-H ) :   0.9385 B(  5-C , 14-H ) :   0.9392
B(  6-N , 15-H ) :   0.9438

FINAL SINGLE POINT ENERGY      -325.223453441747

DIPOLE MOMENT
-------------
                                X             Y             Z
Electronic contribution:      3.10988       3.64713      -1.40157
Nuclear contribution   :     -3.32130      -4.60438       1.36701
                        -----------------------------------------
Total Dipole Moment    :     -0.21142      -0.95725      -0.03456
                        -----------------------------------------
Magnitude (a.u.)       :      0.98093
Magnitude (Debye)      :      2.49333

                             ****ORCA TERMINATED NORMALLY****
TOTAL RUN TIME: 0 days 0 hours 0 minutes 7 seconds 627 msec
