                         Program Version 3.0.3 - RELEASE   -
|  1> ! RI PBE def2-SVP def2-SVP/J NBO PAL2
|  2> % maxcore 2000
|  3> % output
|  4>     # printlevel mini
|  5>     print[ P_Basis ] 0
|  6>     print[ P_SCFInfo ] 1
|  7>     print[ P_SCFIterInfo ] 1
|  8>     print[ P_OrbEn ] 0
|  9>     print[ P_Cartesian ] 0
| 10> end
| 11> *xyz 0 1
| 12>  C        1.2001540000    -0.3151150000     0.1445060000
| 13>  C        2.6882400000    -0.0697940000    -0.0724090000
| 14>  C        2.9323700000     0.7206840000    -1.3503050000
| 15>  O        3.2277980000     0.6282560000     1.0460030000
| 16>  C        3.4176920000    -1.3973310000    -0.1409110000
| 17>  C        4.8281910000    -1.5205760000     0.2599030000
| 18>  N        3.7648010000    -2.1115160000     1.0765450000
| 19>  H        0.6597510000     0.6341420000     0.2186410000
| 20>  H        1.0375800000    -0.8815820000     1.0633940000
| 21>  H        0.7696170000    -0.8770620000    -0.6873590000
| 22>  H        2.3885960000     1.6699420000    -1.3270380000
| 23>  H        2.5932690000     0.1641140000    -2.2275140000
| 24>  H        3.9967950000     0.9324780000    -1.4630160000
| 25>  H        2.6943110000     1.4125460000     1.1955760000
| 26>  H        3.0507860000    -2.0385310000    -0.9390940000
| 27>  H        5.3180100000    -0.6298030000     0.6368950000
| 28>  H        5.4723110000    -2.2333390000    -0.2436490000
| 29>  H        3.5928380000    -1.4924240000     1.8642510000
| 30> *
| 31>
| 32>                          ****END OF INPUT****
 Total Charge           Charge          ....    0
 Multiplicity           Mult            ....    1
 Number of Electrons    NEL             ....   56
 Basis Dimension        Dim             ....  153

MULLIKEN ATOMIC CHARGES
-----------------------
   0 C :    0.071601
   1 C :   -0.105410
   2 C :    0.093211
   3 O :   -0.256267
   4 C :   -0.074520
   5 C :    0.056874
   6 N :   -0.190529
   7 H :    0.004613
   8 H :    0.023794
   9 H :    0.016010
  10 H :   -0.001769
  11 H :    0.011993
  12 H :    0.018647
  13 H :    0.155246
  14 H :    0.011852
  15 H :    0.031535
  16 H :    0.028211
  17 H :    0.104908
Sum of atomic charges:   -0.0000000

LOEWDIN ATOMIC CHARGES
----------------------
   0 C :   -0.062803
   1 C :    0.007028
   2 C :   -0.061033
   3 O :   -0.099238
   4 C :   -0.014265
   5 C :    0.000200
   6 N :   -0.100908
   7 H :    0.020169
   8 H :    0.030358
   9 H :    0.031567
  10 H :    0.020242
  11 H :    0.029669
  12 H :    0.029217
  13 H :    0.069488
  14 H :    0.020978
  15 H :    0.015948
  16 H :    0.017828
  17 H :    0.045553

  Mayer bond orders larger than 0.1
B(  0-C ,  1-C ) :   1.0654 B(  0-C ,  7-H ) :   0.9473 B(  0-C ,  8-H ) :   0.9526
B(  0-C ,  9-H ) :   0.9479 B(  1-C ,  2-C ) :   1.0580 B(  1-C ,  3-O ) :   1.0244
B(  1-C ,  4-C ) :   0.9709 B(  2-C , 10-H ) :   0.9442 B(  2-C , 11-H ) :   0.9473
B(  2-C , 12-H ) :   0.9514 B(  3-O , 13-H ) :   0.9745 B(  4-C ,  5-C ) :   1.0561
B(  4-C ,  6-N ) :   1.0147 B(  4-C , 14-H ) :   0.9336 B(  5-C ,  6-N ) :   1.0107
B(  5-C , 15-H ) :   0.9307 B(  5-C , 16-H ) :   0.9393 B(  6-N , 17-H ) :   0.9385

FINAL SINGLE POINT ENERGY      -326.430548716341

DIPOLE MOMENT
-------------
                                X             Y             Z
Electronic contribution:      2.26243      -1.45711       3.08854
Nuclear contribution   :     -2.73296       2.37517      -3.40173
                        -----------------------------------------
Total Dipole Moment    :     -0.47053       0.91806      -0.31320
                        -----------------------------------------
Magnitude (a.u.)       :      1.07812
Magnitude (Debye)      :      2.74035

                             ****ORCA TERMINATED NORMALLY****
TOTAL RUN TIME: 0 days 0 hours 0 minutes 8 seconds 100 msec
