                         Program Version 3.0.3 - RELEASE   -
|  1> ! RI PBE def2-SVP def2-SVP/J NBO PAL2
|  2> % maxcore 2000
|  3> % output
|  4>     # printlevel mini
|  5>     print[ P_Basis ] 0
|  6>     print[ P_SCFInfo ] 1
|  7>     print[ P_SCFIterInfo ] 1
|  8>     print[ P_OrbEn ] 0
|  9>     print[ P_Cartesian ] 0
| 10> end
| 11> *xyz 0 1
| 12>  C        1.2882470000    -0.2836970000    -0.6934240000
| 13>  C        2.7021960000    -0.1794350000    -0.1276950000
| 14>  C        3.3211090000     1.1780340000    -0.4430970000
| 15>  O        2.6151830000     2.2856830000     0.0908500000
| 16>  C        2.7071650000    -0.5776320000     1.3330280000
| 17>  C        3.7018700000    -0.1129600000     2.3168130000
| 18>  N        2.3153550000     0.3418690000     2.3976930000
| 19>  H        1.2660890000    -0.0474980000    -1.7614730000
| 20>  H        0.6017750000     0.3911150000    -0.1739530000
| 21>  H        0.8917240000    -1.2933770000    -0.5683110000
| 22>  H        3.3285540000    -0.9121580000    -0.6559270000
| 23>  H        3.4147050000     1.2748610000    -1.5330450000
| 24>  H        4.3297570000     1.2453470000    -0.0312910000
| 25>  H        1.7746130000     2.3604710000    -0.3679040000
| 26>  H        2.3100820000    -1.5803730000     1.4857860000
| 27>  H        4.4574720000     0.5983380000     1.9999620000
| 28>  H        4.0190690000    -0.7777410000     3.1137520000
| 29>  H        2.2562260000     1.2805520000     2.0130150000
| 30> *
| 31>
| 32>                          ****END OF INPUT****
 Total Charge           Charge          ....    0
 Multiplicity           Mult            ....    1
 Number of Electrons    NEL             ....   56
 Basis Dimension        Dim             ....  153

MULLIKEN ATOMIC CHARGES
-----------------------
   0 C :   -0.014757
   1 C :   -0.052656
   2 C :    0.152298
   3 O :   -0.277817
   4 C :   -0.070214
   5 C :    0.045818
   6 N :   -0.206682
   7 H :    0.019259
   8 H :    0.018640
   9 H :    0.027093
  10 H :    0.014272
  11 H :    0.008795
  12 H :    0.017612
  13 H :    0.159007
  14 H :    0.010889
  15 H :    0.025405
  16 H :    0.027227
  17 H :    0.095811
Sum of atomic charges:   -0.0000000

LOEWDIN ATOMIC CHARGES
----------------------
   0 C :   -0.064418
   1 C :   -0.069643
   2 C :    0.057438
   3 O :   -0.107118
   4 C :   -0.005990
   5 C :   -0.002771
   6 N :   -0.108018
   7 H :    0.024101
   8 H :    0.022757
   9 H :    0.032314
  10 H :    0.036715
  11 H :    0.011232
  12 H :    0.020793
  13 H :    0.068718
  14 H :    0.018125
  15 H :    0.012442
  16 H :    0.018597
  17 H :    0.034725

  Mayer bond orders larger than 0.1
B(  0-C ,  1-C ) :   1.0717 B(  0-C ,  7-H ) :   0.9607 B(  0-C ,  8-H ) :   0.9547
B(  0-C ,  9-H ) :   0.9587 B(  1-C ,  2-C ) :   1.0338 B(  1-C ,  4-C ) :   1.0086
B(  1-C , 10-H ) :   0.8847 B(  2-C ,  3-O ) :   1.0408 B(  2-C , 11-H ) :   0.9367
B(  2-C , 12-H ) :   0.9337 B(  3-O , 13-H ) :   0.9771 B(  4-C ,  5-C ) :   1.0647
B(  4-C ,  6-N ) :   0.9885 B(  4-C , 14-H ) :   0.9324 B(  5-C ,  6-N ) :   1.0131
B(  5-C , 15-H ) :   0.9333 B(  5-C , 16-H ) :   0.9372 B(  6-N , 17-H ) :   0.9372

FINAL SINGLE POINT ENERGY      -326.420908590631

DIPOLE MOMENT
-------------
                                X             Y             Z
Electronic contribution:      0.55209       2.00410       2.50663
Nuclear contribution   :     -0.46156      -2.10117      -3.55635
                        -----------------------------------------
Total Dipole Moment    :      0.09053      -0.09707      -1.04972
                        -----------------------------------------
Magnitude (a.u.)       :      1.05808
Magnitude (Debye)      :      2.68942

                             ****ORCA TERMINATED NORMALLY****
TOTAL RUN TIME: 0 days 0 hours 0 minutes 8 seconds 93 msec
