                         Program Version 3.0.3 - RELEASE   -
|  1> ! RI PBE def2-SVP def2-SVP/J NBO PAL2
|  2> % maxcore 2000
|  3> % output
|  4>     # printlevel mini
|  5>     print[ P_Basis ] 0
|  6>     print[ P_SCFInfo ] 1
|  7>     print[ P_SCFIterInfo ] 1
|  8>     print[ P_OrbEn ] 0
|  9>     print[ P_Cartesian ] 0
| 10> end
| 11> *xyz 0 1
| 12>  C        0.9981760000     0.2467690000    -0.0474900000
| 13>  C        2.5088260000     0.1530030000    -0.0341020000
| 14>  C        3.0347150000    -1.2557470000     0.0304680000
| 15>  O        2.3161360000    -2.2285730000    -0.0192710000
| 16>  C        4.5119340000    -1.4104580000     0.1590630000
| 17>  C        4.9785030000    -2.3260660000     1.2380570000
| 18>  N        5.0780740000    -2.7143670000    -0.1484500000
| 19>  H        0.6761150000     1.2873340000    -0.1155450000
| 20>  H        0.5714720000    -0.1868830000     0.8583250000
| 21>  H        0.5820650000    -0.3006050000    -0.8941540000
| 22>  H        2.9439780000     0.7076400000     0.8067000000
| 23>  H        2.9458200000     0.6143100000    -0.9294300000
| 24>  H        5.1235030000    -0.5533650000    -0.1036560000
| 25>  H        4.2081010000    -2.7839110000     1.8503810000
| 26>  H        5.9171710000    -2.1071440000     1.7351030000
| 27>  H        4.2968130000    -3.3291390000    -0.3733960000
| 28> *
| 29>
| 30>                          ****END OF INPUT****
 Total Charge           Charge          ....    0
 Multiplicity           Mult            ....    1
 Number of Electrons    NEL             ....   54
 Basis Dimension        Dim             ....  143

MULLIKEN ATOMIC CHARGES
-----------------------
   0 C :    0.014362
   1 C :   -0.056398
   2 C :    0.020729
   3 O :   -0.179950
   4 C :   -0.091857
   5 C :    0.067945
   6 N :   -0.156446
   7 H :    0.015689
   8 H :    0.029124
   9 H :    0.033389
  10 H :    0.041160
  11 H :    0.044222
  12 H :    0.015665
  13 H :    0.046330
  14 H :    0.045512
  15 H :    0.110526
Sum of atomic charges:   -0.0000000

LOEWDIN ATOMIC CHARGES
----------------------
   0 C :   -0.060361
   1 C :   -0.074718
   2 C :    0.048744
   3 O :   -0.134196
   4 C :   -0.042099
   5 C :    0.028772
   6 N :   -0.073810
   7 H :    0.028253
   8 H :    0.032079
   9 H :    0.033342
  10 H :    0.044562
  11 H :    0.048016
  12 H :    0.024521
  13 H :    0.020629
  14 H :    0.024595
  15 H :    0.051672

  Mayer bond orders larger than 0.1
B(  0-C ,  1-C ) :   1.1171 B(  0-C ,  7-H ) :   0.9567 B(  0-C ,  8-H ) :   0.9663
B(  0-C ,  9-H ) :   0.9636 B(  1-C ,  2-C ) :   0.9741 B(  1-C , 10-H ) :   0.9196
B(  1-C , 11-H ) :   0.9104 B(  2-C ,  3-O ) :   2.1336 B(  2-C ,  4-C ) :   0.9569
B(  4-C ,  5-C ) :   0.9998 B(  4-C ,  6-N ) :   1.0252 B(  4-C , 12-H ) :   0.9362
B(  5-C ,  6-N ) :   1.0034 B(  5-C , 13-H ) :   0.9392 B(  5-C , 14-H ) :   0.9428
B(  6-N , 15-H ) :   0.9299

FINAL SINGLE POINT ENERGY      -325.243165879183

DIPOLE MOMENT
-------------
                                X             Y             Z
Electronic contribution:      2.42599      -4.45159      -0.87570
Nuclear contribution   :     -2.38232       5.28389       1.23762
                        -----------------------------------------
Total Dipole Moment    :      0.04366       0.83230       0.36193
                        -----------------------------------------
Magnitude (a.u.)       :      0.90864
Magnitude (Debye)      :      2.30957

                             ****ORCA TERMINATED NORMALLY****
TOTAL RUN TIME: 0 days 0 hours 0 minutes 7 seconds 489 msec
