                         Program Version 3.0.3 - RELEASE   -
|  1> ! RI PBE def2-SVP def2-SVP/J NBO PAL2
|  2> % maxcore 2000
|  3> % output
|  4>     # printlevel mini
|  5>     print[ P_Basis ] 0
|  6>     print[ P_SCFInfo ] 1
|  7>     print[ P_SCFIterInfo ] 1
|  8>     print[ P_OrbEn ] 0
|  9>     print[ P_Cartesian ] 0
| 10> end
| 11> *xyz 0 1
| 12>  C        1.2485760000     0.3634470000     0.1075640000
| 13>  C        2.7600270000     0.2600370000    -0.0103590000
| 14>  C        3.2277590000    -0.3767300000    -1.3134030000
| 15>  O        2.8166480000     0.3712160000    -2.4444640000
| 16>  C        4.7317050000    -0.4843770000    -1.3608500000
| 17>  C        5.4519890000    -0.5794660000    -2.6402260000
| 18>  N        5.5316760000     0.6378960000    -1.8301950000
| 19>  H        0.9555160000     0.7568880000     1.0828120000
| 20>  H        0.7714490000    -0.6144660000    -0.0101170000
| 21>  H        0.8247380000     1.0403160000    -0.6405690000
| 22>  H        3.1517610000    -0.3408110000     0.8170850000
| 23>  H        3.2165890000     1.2514200000     0.0763460000
| 24>  H        2.8127410000    -1.3963770000    -1.3742430000
| 25>  H        1.8593170000     0.4329420000    -2.4370780000
| 26>  H        5.1494860000    -0.9924210000    -0.4949080000
| 27>  H        4.8585510000    -0.5459750000    -3.5470730000
| 28>  H        6.3707000000    -1.1530330000    -2.7002630000
| 29>  H        4.9053840000     1.3295950000    -2.2327710000
| 30> *
| 31>
| 32>                          ****END OF INPUT****
 Total Charge           Charge          ....    0
 Multiplicity           Mult            ....    1
 Number of Electrons    NEL             ....   56
 Basis Dimension        Dim             ....  153

MULLIKEN ATOMIC CHARGES
-----------------------
   0 C :   -0.020921
   1 C :   -0.020333
   2 C :    0.124988
   3 O :   -0.260247
   4 C :   -0.093399
   5 C :    0.060688
   6 N :   -0.203342
   7 H :    0.028340
   8 H :    0.019621
   9 H :    0.013176
  10 H :    0.011802
  11 H :    0.013536
  12 H :   -0.003046
  13 H :    0.154311
  14 H :    0.012786
  15 H :    0.028127
  16 H :    0.027940
  17 H :    0.105973
Sum of atomic charges:   -0.0000000

LOEWDIN ATOMIC CHARGES
----------------------
   0 C :   -0.072447
   1 C :   -0.057848
   2 C :    0.041389
   3 O :   -0.104896
   4 C :   -0.018795
   5 C :    0.000475
   6 N :   -0.103432
   7 H :    0.033531
   8 H :    0.025225
   9 H :    0.018957
  10 H :    0.029813
  11 H :    0.028820
  12 H :    0.010414
  13 H :    0.068173
  14 H :    0.021272
  15 H :    0.015611
  16 H :    0.017728
  17 H :    0.046009

  Mayer bond orders larger than 0.1
B(  0-C ,  1-C ) :   1.1078 B(  0-C ,  7-H ) :   0.9581 B(  0-C ,  8-H ) :   0.9631
B(  0-C ,  9-H ) :   0.9554 B(  1-C ,  2-C ) :   1.0543 B(  1-C , 10-H ) :   0.9227
B(  1-C , 11-H ) :   0.9256 B(  2-C ,  3-O ) :   1.0532 B(  2-C ,  4-C ) :   1.0105
B(  2-C , 12-H ) :   0.9046 B(  3-O , 13-H ) :   0.9724 B(  4-C ,  5-C ) :   1.0603
B(  4-C ,  6-N ) :   1.0086 B(  4-C , 14-H ) :   0.9283 B(  5-C ,  6-N ) :   1.0002
B(  5-C , 15-H ) :   0.9326 B(  5-C , 16-H ) :   0.9396 B(  6-N , 17-H ) :   0.9425

FINAL SINGLE POINT ENERGY      -326.425977658939

DIPOLE MOMENT
-------------
                                X             Y             Z
Electronic contribution:      3.64172       0.40708      -3.24628
Nuclear contribution   :     -4.71859      -0.70196       3.40728
                        -----------------------------------------
Total Dipole Moment    :     -1.07688      -0.29487       0.16100
                        -----------------------------------------
Magnitude (a.u.)       :      1.12807
Magnitude (Debye)      :      2.86732

                             ****ORCA TERMINATED NORMALLY****
TOTAL RUN TIME: 0 days 0 hours 0 minutes 7 seconds 899 msec
