                         Program Version 3.0.3 - RELEASE   -
|  1> ! RI PBE def2-SVP def2-SVP/J NBO PAL2
|  2> % maxcore 2000
|  3> % output
|  4>     # printlevel mini
|  5>     print[ P_Basis ] 0
|  6>     print[ P_SCFInfo ] 1
|  7>     print[ P_SCFIterInfo ] 1
|  8>     print[ P_OrbEn ] 0
|  9>     print[ P_Cartesian ] 0
| 10> end
| 11> *xyz 0 1
| 12>  C        0.9009320000    -0.7219340000    -0.6816140000
| 13>  C        2.2999890000    -0.5464890000    -0.1163550000
| 14>  C        2.7002430000     0.9078040000    -0.0277440000
| 15>  O        3.9940190000     1.0051190000     0.5092610000
| 16>  C        4.4442450000     2.3329860000     0.6257800000
| 17>  C        5.8652860000     2.3132100000     1.1287740000
| 18>  N        6.7328950000     1.6859610000     0.1471530000
| 19>  H        0.6282090000    -1.7774490000    -0.7384390000
| 20>  H        0.8234340000    -0.3062840000    -1.6901240000
| 21>  H        0.1542050000    -0.2208990000    -0.0593750000
| 22>  H        3.0296420000    -1.0728580000    -0.7393130000
| 23>  H        2.3646600000    -0.9877620000     0.8829000000
| 24>  H        1.9864780000     1.4596860000     0.6059030000
| 25>  H        2.6697730000     1.3732200000    -1.0262360000
| 26>  H        3.8026060000     2.8928680000     1.3233850000
| 27>  H        4.4061490000     2.8324940000    -0.3537010000
| 28>  H        5.8734610000     1.8228190000     2.1149050000
| 29>  H        6.1873700000     3.3486410000     1.2777630000
| 30>  H        6.4086720000     0.7418680000    -0.0249730000
| 31>  H        7.6803230000     1.6194080000     0.4957610000
| 32> *
| 33>
| 34>                          ****END OF INPUT****
 Total Charge           Charge          ....    0
 Multiplicity           Mult            ....    1
 Number of Electrons    NEL             ....   58
 Basis Dimension        Dim             ....  163

MULLIKEN ATOMIC CHARGES
-----------------------
   0 C :   -0.050720
   1 C :   -0.029110
   2 C :    0.170689
   3 O :   -0.355005
   4 C :    0.147391
   5 C :    0.084552
   6 N :   -0.225400
   7 H :    0.027184
   8 H :    0.022046
   9 H :    0.022808
  10 H :    0.020861
  11 H :    0.019351
  12 H :   -0.013947
  13 H :   -0.010997
  14 H :   -0.004960
  15 H :   -0.003963
  16 H :   -0.004770
  17 H :    0.004383
  18 H :    0.091898
  19 H :    0.087709
Sum of atomic charges:   -0.0000000

LOEWDIN ATOMIC CHARGES
----------------------
   0 C :   -0.066320
   1 C :   -0.055084
   2 C :    0.060082
   3 O :   -0.150320
   4 C :    0.054105
   5 C :   -0.004390
   6 N :   -0.113973
   7 H :    0.029572
   8 H :    0.025436
   9 H :    0.025359
  10 H :    0.026950
  11 H :    0.026700
  12 H :    0.001599
  13 H :    0.002880
  14 H :    0.004854
  15 H :    0.005896
  16 H :    0.002825
  17 H :    0.024108
  18 H :    0.048228
  19 H :    0.051491

  Mayer bond orders larger than 0.1
B(  0-C ,  1-C ) :   1.1011 B(  0-C ,  7-H ) :   0.9627 B(  0-C ,  8-H ) :   0.9677
B(  0-C ,  9-H ) :   0.9674 B(  1-C ,  2-C ) :   1.0827 B(  1-C , 10-H ) :   0.9363
B(  1-C , 11-H ) :   0.9364 B(  2-C ,  3-O ) :   1.0171 B(  2-C , 12-H ) :   0.9264
B(  2-C , 13-H ) :   0.9286 B(  3-O ,  4-C ) :   1.0036 B(  4-C ,  5-C ) :   1.0952
B(  4-C , 14-H ) :   0.9265 B(  4-C , 15-H ) :   0.9175 B(  5-C ,  6-N ) :   1.0963
B(  5-C , 16-H ) :   0.9172 B(  5-C , 17-H ) :   0.9249 B(  6-N , 18-H ) :   0.9653
B(  6-N , 19-H ) :   0.9662

FINAL SINGLE POINT ENERGY      -327.644955007543

DIPOLE MOMENT
-------------
                                X             Y             Z
Electronic contribution:      3.86689       1.10970       1.06906
Nuclear contribution   :     -4.01771      -1.17087      -0.82800
                        -----------------------------------------
Total Dipole Moment    :     -0.15082      -0.06117       0.24106
                        -----------------------------------------
Magnitude (a.u.)       :      0.29086
Magnitude (Debye)      :      0.73931

                             ****ORCA TERMINATED NORMALLY****
TOTAL RUN TIME: 0 days 0 hours 0 minutes 7 seconds 995 msec
