                         Program Version 3.0.3 - RELEASE   -
|  1> ! RI PBE def2-SVP def2-SVP/J NBO PAL2
|  2> % maxcore 2000
|  3> % output
|  4>     # printlevel mini
|  5>     print[ P_Basis ] 0
|  6>     print[ P_SCFInfo ] 1
|  7>     print[ P_SCFIterInfo ] 1
|  8>     print[ P_OrbEn ] 0
|  9>     print[ P_Cartesian ] 0
| 10> end
| 11> *xyz 0 1
| 12>  C        1.0906870000    -0.0959900000     0.4313110000
| 13>  C        2.3782920000    -0.1883340000     0.1170510000
| 14>  C        2.9423580000     0.6200950000    -0.9857840000
| 15>  O        2.2963550000     1.3901430000    -1.6493440000
| 16>  C        4.4490460000     0.5047450000    -1.2532500000
| 17>  C        5.0171920000    -0.8089020000    -1.0208760000
| 18>  N        5.4500470000    -1.8570530000    -0.8323120000
| 19>  H        0.6599750000    -0.6776240000     1.2372860000
| 20>  H        0.4405510000     0.5714580000    -0.1243450000
| 21>  H        3.0448280000    -0.8564220000     0.6517340000
| 22>  H        4.9496790000     1.2248730000    -0.5950630000
| 23>  H        4.6330000000     0.8221000000    -2.2808080000
| 24> *
| 25>
| 26>                          ****END OF INPUT****
 Total Charge           Charge          ....    0
 Multiplicity           Mult            ....    1
 Number of Electrons    NEL             ....   50
 Basis Dimension        Dim             ....  123

MULLIKEN ATOMIC CHARGES
-----------------------
   0 C :    0.036315
   1 C :   -0.053003
   2 C :   -0.018408
   3 O :   -0.140510
   4 C :    0.145433
   5 C :   -0.299952
   6 N :    0.045544
   7 H :    0.046676
   8 H :    0.053055
   9 H :    0.032141
  10 H :    0.088605
  11 H :    0.064103
Sum of atomic charges:   -0.0000000

LOEWDIN ATOMIC CHARGES
----------------------
   0 C :    0.042065
   1 C :   -0.074215
   2 C :    0.061067
   3 O :   -0.102298
   4 C :   -0.080080
   5 C :   -0.051821
   6 N :   -0.058705
   7 H :    0.036947
   8 H :    0.036707
   9 H :    0.038471
  10 H :    0.080939
  11 H :    0.070921

  Mayer bond orders larger than 0.1
B(  0-C ,  1-C ) :   1.9351 B(  0-C ,  7-H ) :   0.9403 B(  0-C ,  8-H ) :   0.9375
B(  1-C ,  2-C ) :   0.9979 B(  1-C ,  9-H ) :   0.9418 B(  2-C ,  3-O ) :   2.1670
B(  2-C ,  4-C ) :   0.9380 B(  4-C ,  5-C ) :   1.0690 B(  4-C , 10-H ) :   0.8797
B(  4-C , 11-H ) :   0.8741 B(  5-C ,  6-N ) :   3.0284

FINAL SINGLE POINT ENERGY      -322.837659422881

DIPOLE MOMENT
-------------
                                X             Y             Z
Electronic contribution:      2.38181      -0.50345      -1.97473
Nuclear contribution   :     -2.79127       1.14152       2.48216
                        -----------------------------------------
Total Dipole Moment    :     -0.40946       0.63807       0.50743
                        -----------------------------------------
Magnitude (a.u.)       :      0.91230
Magnitude (Debye)      :      2.31887

                             ****ORCA TERMINATED NORMALLY****
TOTAL RUN TIME: 0 days 0 hours 0 minutes 5 seconds 872 msec
