                         Program Version 3.0.3 - RELEASE   -
|  1> ! RI PBE def2-SVP def2-SVP/J NBO PAL2
|  2> % maxcore 2000
|  3> % output
|  4>     # printlevel mini
|  5>     print[ P_Basis ] 0
|  6>     print[ P_SCFInfo ] 1
|  7>     print[ P_SCFIterInfo ] 1
|  8>     print[ P_OrbEn ] 0
|  9>     print[ P_Cartesian ] 0
| 10> end
| 11> *xyz 0 1
| 12>  C        1.2271920000    -0.0242580000    -1.0420230000
| 13>  C        2.1984870000     0.1554320000    -0.1604260000
| 14>  C        2.9152890000    -0.9543720000     0.5218430000
| 15>  O        4.3120310000    -0.7722590000     0.3425840000
| 16>  C        5.0836060000    -1.7274760000     1.0000330000
| 17>  C        5.0068700000    -1.6254480000     2.4655800000
| 18>  N        4.9389030000    -1.5441370000     3.6099800000
| 19>  H        0.7049240000     0.8137800000    -1.4880060000
| 20>  H        0.9129830000    -1.0181200000    -1.3453590000
| 21>  H        2.5045740000     1.1582030000     0.1259870000
| 22>  H        2.6050020000    -1.9266600000     0.1143040000
| 23>  H        2.6820780000    -0.9473110000     1.5972250000
| 24>  H        6.1215780000    -1.5712140000     0.6983810000
| 25>  H        4.7995940000    -2.7518700000     0.7181160000
| 26> *
| 27>
| 28>                          ****END OF INPUT****
 Total Charge           Charge          ....    0
 Multiplicity           Mult            ....    1
 Number of Electrons    NEL             ....   52
 Basis Dimension        Dim             ....  133

MULLIKEN ATOMIC CHARGES
-----------------------
   0 C :   -0.025063
   1 C :   -0.088006
   2 C :    0.227628
   3 O :   -0.334379
   4 C :    0.296149
   5 C :   -0.314687
   6 N :    0.036809
   7 H :    0.035609
   8 H :    0.023121
   9 H :    0.021098
  10 H :   -0.008652
  11 H :    0.034456
  12 H :    0.059141
  13 H :    0.036775
Sum of atomic charges:   -0.0000000

LOEWDIN ATOMIC CHARGES
----------------------
   0 C :   -0.041527
   1 C :   -0.036584
   2 C :    0.065701
   3 O :   -0.127306
   4 C :    0.043717
   5 C :   -0.068505
   6 N :   -0.049088
   7 H :    0.029528
   8 H :    0.023993
   9 H :    0.033255
  10 H :    0.012459
  11 H :    0.023569
  12 H :    0.055147
  13 H :    0.035641

  Mayer bond orders larger than 0.1
B(  0-C ,  1-C ) :   2.0153 B(  0-C ,  7-H ) :   0.9473 B(  0-C ,  8-H ) :   0.9474
B(  1-C ,  2-C ) :   1.0533 B(  1-C ,  9-H ) :   0.9581 B(  2-C ,  3-O ) :   0.9671
B(  2-C , 10-H ) :   0.9228 B(  2-C , 11-H ) :   0.9068 B(  3-O ,  4-C ) :   1.0857
B(  4-C ,  5-C ) :   1.0294 B(  4-C , 12-H ) :   0.9023 B(  4-C , 13-H ) :   0.9140
B(  5-C ,  6-N ) :   3.0566

FINAL SINGLE POINT ENERGY      -324.008122072908

DIPOLE MOMENT
-------------
                                X             Y             Z
Electronic contribution:      4.73660      -0.59192       4.60139
Nuclear contribution   :     -4.98429       0.25726      -5.67981
                        -----------------------------------------
Total Dipole Moment    :     -0.24768      -0.33466      -1.07842
                        -----------------------------------------
Magnitude (a.u.)       :      1.15600
Magnitude (Debye)      :      2.93832

                             ****ORCA TERMINATED NORMALLY****
TOTAL RUN TIME: 0 days 0 hours 0 minutes 5 seconds 594 msec
