                         Program Version 3.0.3 - RELEASE   -
|  1> ! RI PBE def2-SVP def2-SVP/J NBO PAL2
|  2> % maxcore 2000
|  3> % output
|  4>     # printlevel mini
|  5>     print[ P_Basis ] 0
|  6>     print[ P_SCFInfo ] 1
|  7>     print[ P_SCFIterInfo ] 1
|  8>     print[ P_OrbEn ] 0
|  9>     print[ P_Cartesian ] 0
| 10> end
| 11> *xyz 0 1
| 12>  C        1.0599870000    -0.0122100000     0.0220300000
| 13>  C        2.2555840000    -0.0313790000     0.1029790000
| 14>  C        3.7029860000    -0.0768110000     0.1716600000
| 15>  O        4.1551400000     0.7353630000     1.2413150000
| 16>  C        5.5463300000     0.7950800000     1.3261460000
| 17>  C        6.1615970000    -0.4937350000     1.6755240000
| 18>  N        6.6358400000    -1.5074580000     1.9364370000
| 19>  H       -0.0024880000     0.0056620000    -0.0431010000
| 20>  H        4.1288920000     0.2803190000    -0.7777720000
| 21>  H        4.0337200000    -1.1149980000     0.3138960000
| 22>  H        5.7879150000     1.5186050000     2.1071070000
| 23>  H        6.0004870000     1.1433720000     0.3870890000
| 24> *
| 25>
| 26>                          ****END OF INPUT****
 Total Charge           Charge          ....    0
 Multiplicity           Mult            ....    1
 Number of Electrons    NEL             ....   50
 Basis Dimension        Dim             ....  123

MULLIKEN ATOMIC CHARGES
-----------------------
   0 C :   -0.424052
   1 C :    0.302024
   2 C :    0.226205
   3 O :   -0.320028
   4 C :    0.294478
   5 C :   -0.318062
   6 N :    0.041611
   7 H :    0.011255
   8 H :    0.026080
   9 H :    0.053851
  10 H :    0.065813
  11 H :    0.040824
Sum of atomic charges:   -0.0000000

LOEWDIN ATOMIC CHARGES
----------------------
   0 C :   -0.046257
   1 C :   -0.031134
   2 C :    0.059787
   3 O :   -0.118091
   4 C :    0.044507
   5 C :   -0.068324
   6 N :   -0.044934
   7 H :    0.039123
   8 H :    0.032359
   9 H :    0.038378
  10 H :    0.057922
  11 H :    0.036663

  Mayer bond orders larger than 0.1
B(  0-C ,  1-C ) :   2.4073 B(  0-C ,  7-H ) :   1.0905 B(  1-C ,  2-C ) :   1.0355
B(  2-C ,  3-O ) :   1.0130 B(  2-C ,  8-H ) :   0.9012 B(  2-C ,  9-H ) :   0.8999
B(  3-O ,  4-C ) :   1.0825 B(  4-C ,  5-C ) :   1.0280 B(  4-C , 10-H ) :   0.9002
B(  4-C , 11-H ) :   0.9169 B(  5-C ,  6-N ) :   3.0562

FINAL SINGLE POINT ENERGY      -322.760135981848

DIPOLE MOMENT
-------------
                                X             Y             Z
Electronic contribution:      0.94769      -1.12929       1.84573
Nuclear contribution   :     -1.22310       1.98620      -2.49589
                        -----------------------------------------
Total Dipole Moment    :     -0.27541       0.85691      -0.65016
                        -----------------------------------------
Magnitude (a.u.)       :      1.11034
Magnitude (Debye)      :      2.82226

                             ****ORCA TERMINATED NORMALLY****
TOTAL RUN TIME: 0 days 0 hours 0 minutes 5 seconds 553 msec
