                         Program Version 3.0.3 - RELEASE   -
|  1> ! RI PBE def2-SVP def2-SVP/J NBO PAL2
|  2> % maxcore 2000
|  3> % output
|  4>     # printlevel mini
|  5>     print[ P_Basis ] 0
|  6>     print[ P_SCFInfo ] 1
|  7>     print[ P_SCFIterInfo ] 1
|  8>     print[ P_OrbEn ] 0
|  9>     print[ P_Cartesian ] 0
| 10> end
| 11> *xyz 0 1
| 12>  C        0.6312180000    -1.8625060000    -2.1211240000
| 13>  C        2.1231320000    -1.8302740000    -2.1569470000
| 14>  C        2.8356600000    -0.9438790000    -1.4653170000
| 15>  O        4.1764890000    -0.8086870000    -1.4105420000
| 16>  C        4.9438210000    -1.7112550000    -2.1740940000
| 17>  C        6.4044220000    -1.3775800000    -1.9687430000
| 18>  N        7.2216000000    -2.3195530000    -2.7147800000
| 19>  H        0.2018170000    -1.7105880000    -3.1166670000
| 20>  H        0.2327640000    -1.0849300000    -1.4652850000
| 21>  H        0.2580490000    -2.8260960000    -1.7594200000
| 22>  H        2.6211550000    -2.5658240000    -2.7797430000
| 23>  H        2.3560710000    -0.1982590000    -0.8378520000
| 24>  H        4.6856880000    -1.6354230000    -3.2369630000
| 25>  H        4.7356820000    -2.7419530000    -1.8521600000
| 26>  H        6.6101100000    -1.3473780000    -0.8888290000
| 27>  H        6.5898910000    -0.3725730000    -2.3566800000
| 28>  H        7.2238930000    -3.2273340000    -2.2662120000
| 29>  H        8.1823470000    -2.0075990000    -2.7544540000
| 30> *
| 31>
| 32>                          ****END OF INPUT****
 Total Charge           Charge          ....    0
 Multiplicity           Mult            ....    1
 Number of Electrons    NEL             ....   56
 Basis Dimension        Dim             ....  153

MULLIKEN ATOMIC CHARGES
-----------------------
   0 C :    0.045375
   1 C :   -0.180980
   2 C :    0.120385
   3 O :   -0.263967
   4 C :    0.127593
   5 C :    0.072063
   6 N :   -0.225183
   7 H :    0.026488
   8 H :    0.015428
   9 H :    0.024997
  10 H :    0.006299
  11 H :   -0.000159
  12 H :    0.023178
  13 H :    0.005894
  14 H :    0.005375
  15 H :    0.013496
  16 H :    0.090418
  17 H :    0.093299
Sum of atomic charges:   -0.0000000

LOEWDIN ATOMIC CHARGES
----------------------
   0 C :   -0.058718
   1 C :   -0.128789
   2 C :    0.016346
   3 O :   -0.069317
   4 C :    0.060330
   5 C :   -0.001578
   6 N :   -0.108361
   7 H :    0.031026
   8 H :    0.029358
   9 H :    0.030522
  10 H :    0.022178
  11 H :    0.018409
  12 H :    0.015117
  13 H :    0.008638
  14 H :    0.003472
  15 H :    0.024742
  16 H :    0.051328
  17 H :    0.055295

  Mayer bond orders larger than 0.1
B(  0-C ,  1-C ) :   1.0824 B(  0-C ,  7-H ) :   0.9501 B(  0-C ,  8-H ) :   0.9609
B(  0-C ,  9-H ) :   0.9499 B(  1-C ,  2-C ) :   1.7866 B(  1-C , 10-H ) :   0.9548
B(  2-C ,  3-O ) :   1.1460 B(  2-C , 11-H ) :   0.9671 B(  3-O ,  4-C ) :   0.9813
B(  4-C ,  5-C ) :   1.0642 B(  4-C , 12-H ) :   0.9326 B(  4-C , 13-H ) :   0.9342
B(  5-C ,  6-N ) :   1.0779 B(  5-C , 14-H ) :   0.9316 B(  5-C , 15-H ) :   0.9310
B(  6-N , 16-H ) :   0.9696 B(  6-N , 17-H ) :   0.9668

FINAL SINGLE POINT ENERGY      -326.430529752691

DIPOLE MOMENT
-------------
                                X             Y             Z
Electronic contribution:      1.81330       2.07505       1.34077
Nuclear contribution   :     -1.37459      -2.36198      -1.17309
                        -----------------------------------------
Total Dipole Moment    :      0.43871      -0.28693       0.16769
                        -----------------------------------------
Magnitude (a.u.)       :      0.55038
Magnitude (Debye)      :      1.39895

                             ****ORCA TERMINATED NORMALLY****
TOTAL RUN TIME: 0 days 0 hours 0 minutes 7 seconds 471 msec
