                         Program Version 3.0.3 - RELEASE   -
|  1> ! RI PBE def2-SVP def2-SVP/J NBO PAL2
|  2> % maxcore 2000
|  3> % output
|  4>     # printlevel mini
|  5>     print[ P_Basis ] 0
|  6>     print[ P_SCFInfo ] 1
|  7>     print[ P_SCFIterInfo ] 1
|  8>     print[ P_OrbEn ] 0
|  9>     print[ P_Cartesian ] 0
| 10> end
| 11> *xyz 0 1
| 12>  C        0.5606310000    -0.0596610000     0.0445300000
| 13>  C        2.0462680000    -0.2013010000     0.0612370000
| 14>  C        2.8430980000     0.7105000000     0.6092720000
| 15>  O        4.1978180000     0.7006890000     0.6897000000
| 16>  C        4.8329410000    -0.4111410000     0.1215290000
| 17>  C        6.2741270000    -0.2687410000     0.2880440000
| 18>  N        7.4144290000    -0.1941120000     0.3989230000
| 19>  H        0.1728850000    -0.0521070000    -0.9785910000
| 20>  H        0.2441440000     0.8660870000     0.5291700000
| 21>  H        0.0754610000    -0.8922960000     0.5627260000
| 22>  H        2.4592480000    -1.0931660000    -0.3992520000
| 23>  H        2.4563920000     1.6099400000     1.0757120000
| 24>  H        4.6067700000    -0.4929840000    -0.9500280000
| 25>  H        4.5109980000    -1.3428060000     0.6057190000
| 26> *
| 27>
| 28>                          ****END OF INPUT****
 Total Charge           Charge          ....    0
 Multiplicity           Mult            ....    1
 Number of Electrons    NEL             ....   52
 Basis Dimension        Dim             ....  133

MULLIKEN ATOMIC CHARGES
-----------------------
   0 C :    0.050802
   1 C :   -0.167463
   2 C :    0.114818
   3 O :   -0.255289
   4 C :    0.173309
   5 C :   -0.210384
   6 N :    0.066193
   7 H :    0.032980
   8 H :    0.021236
   9 H :    0.035055
  10 H :    0.011477
  11 H :    0.015349
  12 H :    0.057702
  13 H :    0.054213
Sum of atomic charges:   -0.0000000

LOEWDIN ATOMIC CHARGES
----------------------
   0 C :   -0.055382
   1 C :   -0.118510
   2 C :    0.023087
   3 O :   -0.059345
   4 C :    0.051449
   5 C :   -0.045222
   6 N :   -0.037781
   7 H :    0.035143
   8 H :    0.032775
   9 H :    0.035693
  10 H :    0.023259
  11 H :    0.026623
  12 H :    0.044354
  13 H :    0.043856

  Mayer bond orders larger than 0.1
B(  0-C ,  1-C ) :   1.0780 B(  0-C ,  7-H ) :   0.9486 B(  0-C ,  8-H ) :   0.9601
B(  0-C ,  9-H ) :   0.9485 B(  1-C ,  2-C ) :   1.7961 B(  1-C , 10-H ) :   0.9484
B(  2-C ,  3-O ) :   1.1162 B(  2-C , 11-H ) :   0.9662 B(  3-O ,  4-C ) :   1.0478
B(  4-C ,  5-C ) :   1.0829 B(  4-C , 12-H ) :   0.9090 B(  4-C , 13-H ) :   0.9070
B(  5-C ,  6-N ) :   3.0679

FINAL SINGLE POINT ENERGY      -324.019971878157

DIPOLE MOMENT
-------------
                                X             Y             Z
Electronic contribution:     10.87569       1.18423       1.32817
Nuclear contribution   :    -12.35182      -1.59442      -1.64388
                        -----------------------------------------
Total Dipole Moment    :     -1.47613      -0.41019      -0.31571
                        -----------------------------------------
Magnitude (a.u.)       :      1.56425
Magnitude (Debye)      :      3.97601

                             ****ORCA TERMINATED NORMALLY****
TOTAL RUN TIME: 0 days 0 hours 0 minutes 6 seconds 758 msec
