                         Program Version 3.0.3 - RELEASE   -
|  1> ! RI PBE def2-SVP def2-SVP/J NBO PAL2
|  2> % maxcore 2000
|  3> % output
|  4>     # printlevel mini
|  5>     print[ P_Basis ] 0
|  6>     print[ P_SCFInfo ] 1
|  7>     print[ P_SCFIterInfo ] 1
|  8>     print[ P_OrbEn ] 0
|  9>     print[ P_Cartesian ] 0
| 10> end
| 11> *xyz 0 1
| 12>  C        1.2352890000     1.2524650000    -0.9550760000
| 13>  C        2.5504700000     0.5791150000    -1.1486790000
| 14>  C        3.0460430000     0.2230970000    -2.3349230000
| 15>  O        3.1584310000     0.3849780000     0.0437390000
| 16>  C        4.4195980000    -0.2458380000     0.0452200000
| 17>  C        4.8892450000    -0.3493520000     1.4791590000
| 18>  N        6.1747780000    -1.0257090000     1.5144100000
| 19>  H        0.7370150000     1.4139060000    -1.9095950000
| 20>  H        1.3726240000     2.2164140000    -0.4579350000
| 21>  H        0.5894080000     0.6461520000    -0.3144180000
| 22>  H        2.4719990000     0.4270600000    -3.2274790000
| 23>  H        4.0041070000    -0.2614780000    -2.4558560000
| 24>  H        5.1407190000     0.3294370000    -0.5462760000
| 25>  H        4.3368270000    -1.2448670000    -0.4053170000
| 26>  H        4.1009800000    -0.8324590000     2.0748190000
| 27>  H        5.0163640000     0.6604630000     1.8781640000
| 28>  H        6.0658090000    -2.0147210000     1.3264360000
| 29>  H        6.5978130000    -0.9440430000     2.4289080000
| 30> *
| 31>
| 32>                          ****END OF INPUT****
 Total Charge           Charge          ....    0
 Multiplicity           Mult            ....    1
 Number of Electrons    NEL             ....   56
 Basis Dimension        Dim             ....  153

MULLIKEN ATOMIC CHARGES
-----------------------
   0 C :    0.067758
   1 C :   -0.016057
   2 C :   -0.100827
   3 O :   -0.270052
   4 C :    0.134812
   5 C :    0.060895
   6 N :   -0.225323
   7 H :    0.015356
   8 H :    0.035071
   9 H :    0.036773
  10 H :    0.005044
  11 H :    0.014672
  12 H :    0.024037
  13 H :    0.010788
  14 H :    0.004765
  15 H :    0.015648
  16 H :    0.092028
  17 H :    0.094611
Sum of atomic charges:   -0.0000000

LOEWDIN ATOMIC CHARGES
----------------------
   0 C :   -0.062720
   1 C :    0.025351
   2 C :   -0.164463
   3 O :   -0.069465
   4 C :    0.061070
   5 C :   -0.002459
   6 N :   -0.108598
   7 H :    0.035472
   8 H :    0.039083
   9 H :    0.038804
  10 H :    0.025306
  11 H :    0.020488
  12 H :    0.016315
  13 H :    0.010429
  14 H :    0.002969
  15 H :    0.024918
  16 H :    0.051969
  17 H :    0.055530

  Mayer bond orders larger than 0.1
B(  0-C ,  1-C ) :   1.0959 B(  0-C ,  7-H ) :   0.9499 B(  0-C ,  8-H ) :   0.9395
B(  0-C ,  9-H ) :   0.9421 B(  1-C ,  2-C ) :   1.8441 B(  1-C ,  3-O ) :   1.1328
B(  2-C , 10-H ) :   0.9220 B(  2-C , 11-H ) :   0.9381 B(  3-O ,  4-C ) :   0.9792
B(  4-C ,  5-C ) :   1.0660 B(  4-C , 12-H ) :   0.9304 B(  4-C , 13-H ) :   0.9357
B(  5-C ,  6-N ) :   1.0826 B(  5-C , 14-H ) :   0.9307 B(  5-C , 15-H ) :   0.9315
B(  6-N , 16-H ) :   0.9716 B(  6-N , 17-H ) :   0.9656

FINAL SINGLE POINT ENERGY      -326.434969258818

DIPOLE MOMENT
-------------
                                X             Y             Z
Electronic contribution:      0.01539       0.27932       0.50826
Nuclear contribution   :      0.02226      -0.62233       0.00395
                        -----------------------------------------
Total Dipole Moment    :      0.03765      -0.34301       0.51221
                        -----------------------------------------
Magnitude (a.u.)       :      0.61760
Magnitude (Debye)      :      1.56982

                             ****ORCA TERMINATED NORMALLY****
TOTAL RUN TIME: 0 days 0 hours 0 minutes 7 seconds 355 msec
