                         Program Version 3.0.3 - RELEASE   -
|  1> ! RI PBE def2-SVP def2-SVP/J NBO PAL2
|  2> % maxcore 2000
|  3> % output
|  4>     # printlevel mini
|  5>     print[ P_Basis ] 0
|  6>     print[ P_SCFInfo ] 1
|  7>     print[ P_SCFIterInfo ] 1
|  8>     print[ P_OrbEn ] 0
|  9>     print[ P_Cartesian ] 0
| 10> end
| 11> *xyz 0 1
| 12>  C        0.8760820000    -0.1825240000     0.2018840000
| 13>  C        2.3098080000     0.0023130000    -0.1504220000
| 14>  C        2.7590830000     0.4771150000    -1.3110260000
| 15>  O        3.0955450000    -0.3871430000     0.8912300000
| 16>  C        4.4798530000    -0.2689650000     0.7070000000
| 17>  C        5.1553260000    -0.7244680000     1.9158000000
| 18>  N        5.7234860000    -1.0752220000     2.8498400000
| 19>  H        0.2333970000     0.1266830000    -0.6203580000
| 20>  H        0.6266190000     0.4030710000     1.0903010000
| 21>  H        0.6766660000    -1.2312250000     0.4363010000
| 22>  H        2.0465070000     0.7579710000    -2.0731410000
| 23>  H        3.8066440000     0.6024420000    -1.5462120000
| 24>  H        4.7672220000     0.7722630000     0.5119000000
| 25>  H        4.8213610000    -0.8776120000    -0.1402080000
| 26> *
| 27>
| 28>                          ****END OF INPUT****
 Total Charge           Charge          ....    0
 Multiplicity           Mult            ....    1
 Number of Electrons    NEL             ....   52
 Basis Dimension        Dim             ....  133

MULLIKEN ATOMIC CHARGES
-----------------------
   0 C :    0.076213
   1 C :   -0.017112
   2 C :   -0.093486
   3 O :   -0.265172
   4 C :    0.197176
   5 C :   -0.224492
   6 N :    0.062681
   7 H :    0.023194
   8 H :    0.043843
   9 H :    0.043913
  10 H :    0.018133
  11 H :    0.021711
  12 H :    0.055535
  13 H :    0.057863
Sum of atomic charges:    0.0000000

LOEWDIN ATOMIC CHARGES
----------------------
   0 C :   -0.057414
   1 C :    0.030380
   2 C :   -0.153637
   3 O :   -0.060996
   4 C :    0.053740
   5 C :   -0.046379
   6 N :   -0.038457
   7 H :    0.039361
   8 H :    0.043982
   9 H :    0.043957
  10 H :    0.033280
  11 H :    0.021779
  12 H :    0.044998
  13 H :    0.045405

  Mayer bond orders larger than 0.1
B(  0-C ,  1-C ) :   1.0955 B(  0-C ,  7-H ) :   0.9499 B(  0-C ,  8-H ) :   0.9399
B(  0-C ,  9-H ) :   0.9405 B(  1-C ,  2-C ) :   1.8484 B(  1-C ,  3-O ) :   1.1027
B(  2-C , 10-H ) :   0.9176 B(  2-C , 11-H ) :   0.9401 B(  3-O ,  4-C ) :   1.0410
B(  4-C ,  5-C ) :   1.0784 B(  4-C , 12-H ) :   0.9085 B(  4-C , 13-H ) :   0.9099
B(  5-C ,  6-N ) :   3.0674

FINAL SINGLE POINT ENERGY      -324.024740792303

DIPOLE MOMENT
-------------
                                X             Y             Z
Electronic contribution:      6.04320      -2.04103       5.64326
Nuclear contribution   :     -6.64553       2.47906      -6.79319
                        -----------------------------------------
Total Dipole Moment    :     -0.60233       0.43802      -1.14993
                        -----------------------------------------
Magnitude (a.u.)       :      1.37004
Magnitude (Debye)      :      3.48235

                             ****ORCA TERMINATED NORMALLY****
TOTAL RUN TIME: 0 days 0 hours 0 minutes 6 seconds 207 msec
