                         Program Version 3.0.3 - RELEASE   -
|  1> ! RI PBE def2-SVP def2-SVP/J NBO PAL2
|  2> % maxcore 2000
|  3> % output
|  4>     # printlevel mini
|  5>     print[ P_Basis ] 0
|  6>     print[ P_SCFInfo ] 1
|  7>     print[ P_SCFIterInfo ] 1
|  8>     print[ P_OrbEn ] 0
|  9>     print[ P_Cartesian ] 0
| 10> end
| 11> *xyz 0 1
| 12>  C        0.9673810000     0.1006550000     0.0275810000
| 13>  C        2.4517320000     0.1101590000    -0.0268840000
| 14>  C        3.0796520000     0.3403950000    -1.3507810000
| 15>  O        2.4330660000     0.5142600000    -2.3504870000
| 16>  C        3.2280000000    -0.0775100000     1.0524060000
| 17>  C        4.6492810000    -0.0739470000     1.0320980000
| 18>  N        5.8012640000    -0.0808530000     1.0719480000
| 19>  H        0.5723000000    -0.6692830000    -0.6399210000
| 20>  H        0.5722630000     1.0507150000    -0.3408200000
| 21>  H        0.6011180000    -0.0751510000     1.0385190000
| 22>  H        4.1859100000     0.3433940000    -1.3676970000
| 23>  H        2.7829230000    -0.2471940000     2.0281180000
| 24> *
| 25>
| 26>                          ****END OF INPUT****
 Total Charge           Charge          ....    0
 Multiplicity           Mult            ....    1
 Number of Electrons    NEL             ....   50
 Basis Dimension        Dim             ....  123

MULLIKEN ATOMIC CHARGES
-----------------------
   0 C :    0.067495
   1 C :   -0.150415
   2 C :    0.140326
   3 O :   -0.139085
   4 C :   -0.072180
   5 C :   -0.110101
   6 N :    0.055034
   7 H :    0.059253
   8 H :    0.057102
   9 H :    0.027468
  10 H :    0.017732
  11 H :    0.047371
Sum of atomic charges:   -0.0000000

LOEWDIN ATOMIC CHARGES
----------------------
   0 C :   -0.046204
   1 C :   -0.032550
   2 C :    0.086364
   3 O :   -0.087875
   4 C :   -0.038953
   5 C :   -0.049859
   6 N :   -0.038228
   7 H :    0.054267
   8 H :    0.053890
   9 H :    0.035535
  10 H :    0.006974
  11 H :    0.056639

  Mayer bond orders larger than 0.1
B(  0-C ,  1-C ) :   1.0899 B(  0-C ,  7-H ) :   0.9336 B(  0-C ,  8-H ) :   0.9337
B(  0-C ,  9-H ) :   0.9541 B(  1-C ,  2-C ) :   0.9926 B(  1-C ,  4-C ) :   1.7177
B(  2-C ,  3-O ) :   2.1616 B(  2-C , 10-H ) :   0.9288 B(  4-C ,  5-C ) :   1.1055
B(  4-C , 11-H ) :   0.9465 B(  5-C ,  6-N ) :   2.9225

FINAL SINGLE POINT ENERGY      -322.843387761959

DIPOLE MOMENT
-------------
                                X             Y             Z
Electronic contribution:      5.46311       0.10678      -0.63686
Nuclear contribution   :     -6.69916      -0.22468       1.29120
                        -----------------------------------------
Total Dipole Moment    :     -1.23605      -0.11790       0.65434
                        -----------------------------------------
Magnitude (a.u.)       :      1.40353
Magnitude (Debye)      :      3.56748

                             ****ORCA TERMINATED NORMALLY****
TOTAL RUN TIME: 0 days 0 hours 0 minutes 5 seconds 866 msec
