                         Program Version 3.0.3 - RELEASE   -
|  1> ! RI PBE def2-SVP def2-SVP/J NBO PAL2
|  2> % maxcore 2000
|  3> % output
|  4>     # printlevel mini
|  5>     print[ P_Basis ] 0
|  6>     print[ P_SCFInfo ] 1
|  7>     print[ P_SCFIterInfo ] 1
|  8>     print[ P_OrbEn ] 0
|  9>     print[ P_Cartesian ] 0
| 10> end
| 11> *xyz 0 1
| 12>  C        0.5500550000    -0.1031100000     0.7761870000
| 13>  C        1.8442360000    -0.8610060000     0.5786340000
| 14>  C        2.4221000000    -1.3488780000     1.8967150000
| 15>  O        1.5579610000    -1.9306520000    -0.3039790000
| 16>  C        2.6850620000    -2.5717950000    -0.8520680000
| 17>  C        2.2199500000    -3.4496970000    -1.9872260000
| 18>  N        1.6536900000    -2.6352660000    -3.0481250000
| 19>  H        0.7057580000     0.7630160000     1.4226580000
| 20>  H       -0.1988290000    -0.7498320000     1.2402170000
| 21>  H        0.1585040000     0.2441540000    -0.1814820000
| 22>  H        2.5785630000    -0.1986560000     0.0921920000
| 23>  H        1.7194070000    -2.0272520000     2.3877180000
| 24>  H        2.6095120000    -0.5043020000     2.5639470000
| 25>  H        3.3685170000    -1.8746470000     1.7564500000
| 26>  H        3.1993620000    -3.1847580000    -0.0990740000
| 27>  H        3.3947890000    -1.8229650000    -1.2338010000
| 28>  H        1.5258050000    -4.2005680000    -1.5781080000
| 29>  H        3.0888640000    -3.9892340000    -2.3771500000
| 30>  H        0.8766960000    -2.1040100000    -2.6736750000
| 31>  H        1.2897010000    -3.2165500000    -3.7919190000
| 32> *
| 33>
| 34>                          ****END OF INPUT****
 Total Charge           Charge          ....    0
 Multiplicity           Mult            ....    1
 Number of Electrons    NEL             ....   58
 Basis Dimension        Dim             ....  163

MULLIKEN ATOMIC CHARGES
-----------------------
   0 C :    0.020677
   1 C :    0.039426
   2 C :   -0.010912
   3 O :   -0.351144
   4 C :    0.139786
   5 C :    0.092616
   6 N :   -0.225991
   7 H :    0.017500
   8 H :    0.021783
   9 H :    0.020638
  10 H :   -0.002525
  11 H :    0.024664
  12 H :    0.018757
  13 H :    0.022461
  14 H :    0.002309
  15 H :   -0.003743
  16 H :   -0.003317
  17 H :    0.000763
  18 H :    0.090713
  19 H :    0.085539
Sum of atomic charges:    0.0000000

LOEWDIN ATOMIC CHARGES
----------------------
   0 C :   -0.066897
   1 C :    0.044959
   2 C :   -0.077971
   3 O :   -0.147324
   4 C :    0.052712
   5 C :   -0.003463
   6 N :   -0.114172
   7 H :    0.029764
   8 H :    0.028202
   9 H :    0.027773
  10 H :    0.006975
  11 H :    0.028532
  12 H :    0.030949
  13 H :    0.025080
  14 H :    0.004285
  15 H :    0.006410
  16 H :    0.002957
  17 H :    0.023271
  18 H :    0.046989
  19 H :    0.050970

  Mayer bond orders larger than 0.1
B(  0-C ,  1-C ) :   1.0901 B(  0-C ,  7-H ) :   0.9550 B(  0-C ,  8-H ) :   0.9581
B(  0-C ,  9-H ) :   0.9552 B(  1-C ,  2-C ) :   1.0865 B(  1-C ,  3-O ) :   0.9980
B(  1-C , 10-H ) :   0.9171 B(  2-C , 11-H ) :   0.9530 B(  2-C , 12-H ) :   0.9507
B(  2-C , 13-H ) :   0.9528 B(  3-O ,  4-C ) :   1.0060 B(  4-C ,  5-C ) :   1.0950
B(  4-C , 14-H ) :   0.9270 B(  4-C , 15-H ) :   0.9156 B(  5-C ,  6-N ) :   1.0874
B(  5-C , 16-H ) :   0.9188 B(  5-C , 17-H ) :   0.9240 B(  6-N , 18-H ) :   0.9638
B(  6-N , 19-H ) :   0.9675

FINAL SINGLE POINT ENERGY      -327.648291805071

DIPOLE MOMENT
-------------
                                X             Y             Z
Electronic contribution:     -0.44724      -1.23022      -2.77858
Nuclear contribution   :      0.42135       1.11743       3.00003
                        -----------------------------------------
Total Dipole Moment    :     -0.02588      -0.11279       0.22145
                        -----------------------------------------
Magnitude (a.u.)       :      0.24986
Magnitude (Debye)      :      0.63510

                             ****ORCA TERMINATED NORMALLY****
TOTAL RUN TIME: 0 days 0 hours 0 minutes 8 seconds 262 msec
