                         Program Version 3.0.3 - RELEASE   -
|  1> ! RI PBE def2-SVP def2-SVP/J NBO PAL2
|  2> % maxcore 2000
|  3> % output
|  4>     # printlevel mini
|  5>     print[ P_Basis ] 0
|  6>     print[ P_SCFInfo ] 1
|  7>     print[ P_SCFIterInfo ] 1
|  8>     print[ P_OrbEn ] 0
|  9>     print[ P_Cartesian ] 0
| 10> end
| 11> *xyz 0 1
| 12>  C        0.8981080000     0.2389110000     0.0263610000
| 13>  C        2.4162950000     0.3378640000    -0.0541720000
| 14>  C        2.8268430000     1.7061670000    -0.5850050000
| 15>  O        2.9733860000     0.1380810000     1.2458190000
| 16>  C        2.9566490000    -0.8002870000    -0.9151130000
| 17>  C        4.4631350000    -0.8295800000    -1.0999630000
| 18>  N        4.8393650000    -2.0254570000    -1.8451430000
| 19>  H        0.4961780000     1.0150840000     0.6854220000
| 20>  H        0.6030820000    -0.7342190000     0.4242280000
| 21>  H        0.4389290000     0.3669060000    -0.9568870000
| 22>  H        2.3824200000     2.4996260000     0.0242250000
| 23>  H        2.4883840000     1.8491430000    -1.6142240000
| 24>  H        3.9105770000     1.8261050000    -0.5550540000
| 25>  H        2.6401870000     0.8315560000     1.8220750000
| 26>  H        2.4778200000    -0.7678910000    -1.8982650000
| 27>  H        2.6429290000    -1.7389110000    -0.4428680000
| 28>  H        4.9456130000    -0.7463770000    -0.1166960000
| 29>  H        4.7823870000     0.0354590000    -1.6890660000
| 30>  H        4.6191770000    -2.8530940000    -1.3030040000
| 31>  H        5.8390470000    -2.0424960000    -2.0043900000
| 32> *
| 33>
| 34>                          ****END OF INPUT****
 Total Charge           Charge          ....    0
 Multiplicity           Mult            ....    1
 Number of Electrons    NEL             ....   58
 Basis Dimension        Dim             ....  163

MULLIKEN ATOMIC CHARGES
-----------------------
   0 C :    0.078799
   1 C :   -0.153046
   2 C :    0.049999
   3 O :   -0.259638
   4 C :    0.036978
   5 C :    0.085687
   6 N :   -0.216631
   7 H :   -0.001915
   8 H :    0.016633
   9 H :    0.008907
  10 H :   -0.002382
  11 H :    0.012685
  12 H :    0.027220
  13 H :    0.146544
  14 H :    0.003541
  15 H :   -0.003313
  16 H :    0.000535
  17 H :   -0.000470
  18 H :    0.084533
  19 H :    0.085333
Sum of atomic charges:   -0.0000000

LOEWDIN ATOMIC CHARGES
----------------------
   0 C :   -0.063243
   1 C :    0.015823
   2 C :   -0.068112
   3 O :   -0.109802
   4 C :   -0.043029
   5 C :    0.005775
   6 N :   -0.115192
   7 H :    0.018446
   8 H :    0.026710
   9 H :    0.027309
  10 H :    0.020326
  11 H :    0.029432
  12 H :    0.026655
  13 H :    0.062676
  14 H :    0.026758
  15 H :    0.022771
  16 H :    0.001433
  17 H :    0.016185
  18 H :    0.048126
  19 H :    0.050952

  Mayer bond orders larger than 0.1
B(  0-C ,  1-C ) :   1.0653 B(  0-C ,  7-H ) :   0.9489 B(  0-C ,  8-H ) :   0.9523
B(  0-C ,  9-H ) :   0.9474 B(  1-C ,  2-C ) :   1.0568 B(  1-C ,  3-O ) :   1.0184
B(  1-C ,  4-C ) :   1.0076 B(  2-C , 10-H ) :   0.9455 B(  2-C , 11-H ) :   0.9475
B(  2-C , 12-H ) :   0.9513 B(  3-O , 13-H ) :   0.9809 B(  4-C ,  5-C ) :   1.0952
B(  4-C , 14-H ) :   0.9233 B(  4-C , 15-H ) :   0.9252 B(  5-C ,  6-N ) :   1.0859
B(  5-C , 16-H ) :   0.9273 B(  5-C , 17-H ) :   0.9229 B(  6-N , 18-H ) :   0.9698
B(  6-N , 19-H ) :   0.9647

FINAL SINGLE POINT ENERGY      -327.655961289304

DIPOLE MOMENT
-------------
                                X             Y             Z
Electronic contribution:      1.49163      -1.43745       2.09135
Nuclear contribution   :     -1.54450       1.78407      -1.79685
                        -----------------------------------------
Total Dipole Moment    :     -0.05286       0.34661       0.29450
                        -----------------------------------------
Magnitude (a.u.)       :      0.45789
Magnitude (Debye)      :      1.16387

                             ****ORCA TERMINATED NORMALLY****
TOTAL RUN TIME: 0 days 0 hours 0 minutes 8 seconds 479 msec
