                         Program Version 3.0.3 - RELEASE   -
|  1> ! RI PBE def2-SVP def2-SVP/J NBO PAL2
|  2> % maxcore 2000
|  3> % output
|  4>     # printlevel mini
|  5>     print[ P_Basis ] 0
|  6>     print[ P_SCFInfo ] 1
|  7>     print[ P_SCFIterInfo ] 1
|  8>     print[ P_OrbEn ] 0
|  9>     print[ P_Cartesian ] 0
| 10> end
| 11> *xyz 0 1
| 12>  C        0.8624230000     0.0950950000    -0.1232680000
| 13>  C        2.3825700000     0.1234830000    -0.0294860000
| 14>  C        2.9029810000     1.5521230000    -0.0140200000
| 15>  O        2.8126320000    -0.5780230000     1.1265180000
| 16>  C        2.9653350000    -0.6744750000    -1.2045850000
| 17>  C        4.4178440000    -0.6504770000    -1.2612420000
| 18>  N        5.5649390000    -0.6163270000    -1.3249860000
| 19>  H        0.4264810000     0.6129910000     0.7347530000
| 20>  H        0.4993460000    -0.9345400000    -0.1185170000
| 21>  H        0.5057030000     0.5908990000    -1.0293650000
| 22>  H        2.4752900000     2.0965340000     0.8330650000
| 23>  H        2.6227880000     2.0871320000    -0.9243970000
| 24>  H        3.9903200000     1.5649910000     0.0775830000
| 25>  H        2.6303220000    -0.0360120000     1.8989560000
| 26>  H        2.5773880000    -0.2827870000    -2.1484520000
| 27>  H        2.6385560000    -1.7140860000    -1.1162360000
| 28> *
| 29>
| 30>                          ****END OF INPUT****
 Total Charge           Charge          ....    0
 Multiplicity           Mult            ....    1
 Number of Electrons    NEL             ....   54
 Basis Dimension        Dim             ....  143

MULLIKEN ATOMIC CHARGES
-----------------------
   0 C :    0.105148
   1 C :   -0.201877
   2 C :    0.040242
   3 O :   -0.246460
   4 C :    0.129592
   5 C :   -0.270309
   6 N :    0.059729
   7 H :    0.012520
   8 H :    0.021545
   9 H :    0.010831
  10 H :    0.012941
  11 H :    0.021295
  12 H :    0.053906
  13 H :    0.155577
  14 H :    0.046289
  15 H :    0.049030
Sum of atomic charges:   -0.0000000

LOEWDIN ATOMIC CHARGES
----------------------
   0 C :   -0.062624
   1 C :    0.021389
   2 C :   -0.066976
   3 O :   -0.098774
   4 C :   -0.054592
   5 C :   -0.039782
   6 N :   -0.069016
   7 H :    0.027028
   8 H :    0.029652
   9 H :    0.028723
  10 H :    0.026158
  11 H :    0.033079
  12 H :    0.037508
  13 H :    0.070587
  14 H :    0.057402
  15 H :    0.060239

  Mayer bond orders larger than 0.1
B(  0-C ,  1-C ) :   1.0671 B(  0-C ,  7-H ) :   0.9506 B(  0-C ,  8-H ) :   0.9480
B(  0-C ,  9-H ) :   0.9438 B(  1-C ,  2-C ) :   1.0548 B(  1-C ,  3-O ) :   1.0449
B(  1-C ,  4-C ) :   1.0030 B(  2-C , 10-H ) :   0.9476 B(  2-C , 11-H ) :   0.9493
B(  2-C , 12-H ) :   0.9471 B(  3-O , 13-H ) :   0.9784 B(  4-C ,  5-C ) :   1.1311
B(  4-C , 14-H ) :   0.8990 B(  4-C , 15-H ) :   0.8710 B(  5-C ,  6-N ) :   3.0402

FINAL SINGLE POINT ENERGY      -325.256576945583

DIPOLE MOMENT
-------------
                                X             Y             Z
Electronic contribution:      6.94485      -3.86715      -0.97053
Nuclear contribution   :     -8.65083       4.45336       1.22731
                        -----------------------------------------
Total Dipole Moment    :     -1.70599       0.58621       0.25678
                        -----------------------------------------
Magnitude (a.u.)       :      1.82208
Magnitude (Debye)      :      4.63136

                             ****ORCA TERMINATED NORMALLY****
TOTAL RUN TIME: 0 days 0 hours 0 minutes 7 seconds 437 msec
