                         Program Version 3.0.3 - RELEASE   -
|  1> ! RI PBE def2-SVP def2-SVP/J NBO PAL2
|  2> % maxcore 2000
|  3> % output
|  4>     # printlevel mini
|  5>     print[ P_Basis ] 0
|  6>     print[ P_SCFInfo ] 1
|  7>     print[ P_SCFIterInfo ] 1
|  8>     print[ P_OrbEn ] 0
|  9>     print[ P_Cartesian ] 0
| 10> end
| 11> *xyz 0 1
| 12>  C        0.7707020000    -0.4049470000     0.6303760000
| 13>  C        2.1186720000    -0.6836670000     0.0077930000
| 14>  C        2.4495360000    -2.1639980000    -0.0135650000
| 15>  O        2.0607040000    -0.1411020000    -1.3148500000
| 16>  C        3.2892750000     0.0344150000    -1.9447360000
| 17>  C        4.1372660000     1.0423190000    -1.2885150000
| 18>  N        4.8004610000     1.8249720000    -0.7701510000
| 19>  H        0.7442610000    -0.7692600000     1.6591470000
| 20>  H       -0.0187000000    -0.9070240000     0.0657120000
| 21>  H        0.5646020000     0.6661230000     0.6345430000
| 22>  H        2.8930740000    -0.1421460000     0.5696900000
| 23>  H        1.6919360000    -2.7132850000    -0.5776960000
| 24>  H        2.4729920000    -2.5559690000     1.0054740000
| 25>  H        3.4267950000    -2.3651850000    -0.4579390000
| 26>  H        3.0832450000     0.3735530000    -2.9626000000
| 27>  H        3.8701790000    -0.8945000000    -2.0185730000
| 28> *
| 29>
| 30>                          ****END OF INPUT****
 Total Charge           Charge          ....    0
 Multiplicity           Mult            ....    1
 Number of Electrons    NEL             ....   54
 Basis Dimension        Dim             ....  143

MULLIKEN ATOMIC CHARGES
-----------------------
   0 C :    0.016850
   1 C :    0.017461
   2 C :    0.001595
   3 O :   -0.326509
   4 C :    0.303518
   5 C :   -0.317191
   6 N :    0.034444
   7 H :    0.022593
   8 H :    0.024370
   9 H :    0.035440
  10 H :    0.023267
  11 H :    0.028469
  12 H :    0.025525
  13 H :    0.020712
  14 H :    0.055081
  15 H :    0.034376
Sum of atomic charges:   -0.0000000

LOEWDIN ATOMIC CHARGES
----------------------
   0 C :   -0.063352
   1 C :    0.047974
   2 C :   -0.072394
   3 O :   -0.125909
   4 C :    0.042479
   5 C :   -0.067019
   6 N :   -0.053240
   7 H :    0.033223
   8 H :    0.030268
   9 H :    0.033616
  10 H :    0.015955
  11 H :    0.030657
  12 H :    0.035613
  13 H :    0.025139
  14 H :    0.054893
  15 H :    0.032096

  Mayer bond orders larger than 0.1
B(  0-C ,  1-C ) :   1.0933 B(  0-C ,  7-H ) :   0.9555 B(  0-C ,  8-H ) :   0.9560
B(  0-C ,  9-H ) :   0.9559 B(  1-C ,  2-C ) :   1.0868 B(  1-C ,  3-O ) :   0.9653
B(  1-C , 10-H ) :   0.9108 B(  2-C , 11-H ) :   0.9535 B(  2-C , 12-H ) :   0.9514
B(  2-C , 13-H ) :   0.9506 B(  3-O ,  4-C ) :   1.0915 B(  4-C ,  5-C ) :   1.0283
B(  4-C , 14-H ) :   0.8959 B(  4-C , 15-H ) :   0.9116 B(  5-C ,  6-N ) :   3.0555

FINAL SINGLE POINT ENERGY      -325.239294610430

DIPOLE MOMENT
-------------
                                X             Y             Z
Electronic contribution:      5.13556       6.58686      -3.80019
Nuclear contribution   :     -5.63096      -7.68167       3.59423
                        -----------------------------------------
Total Dipole Moment    :     -0.49540      -1.09481      -0.20596
                        -----------------------------------------
Magnitude (a.u.)       :      1.21920
Magnitude (Debye)      :      3.09896

                             ****ORCA TERMINATED NORMALLY****
TOTAL RUN TIME: 0 days 0 hours 0 minutes 7 seconds 509 msec
