                         Program Version 3.0.3 - RELEASE   -
|  1> ! RI PBE def2-SVP def2-SVP/J NBO PAL2
|  2> % maxcore 2000
|  3> % output
|  4>     # printlevel mini
|  5>     print[ P_Basis ] 0
|  6>     print[ P_SCFInfo ] 1
|  7>     print[ P_SCFIterInfo ] 1
|  8>     print[ P_OrbEn ] 0
|  9>     print[ P_Cartesian ] 0
| 10> end
| 11> *xyz 0 1
| 12>  C        1.5695390000     1.0554700000    -0.2940310000
| 13>  C        2.5506140000     0.1215490000     0.4015890000
| 14>  C        2.6407480000     0.4222360000     1.8864570000
| 15>  O        1.4047040000     0.1052120000     2.5054770000
| 16>  C        2.1896250000    -1.3384150000     0.1259990000
| 17>  C        3.1113220000    -2.3702050000     0.7533500000
| 18>  N        4.4958180000    -2.1657000000     0.3467730000
| 19>  H        1.8595030000     2.1017710000    -0.1643950000
| 20>  H        0.5626920000     0.9338280000     0.1121580000
| 21>  H        1.5278890000     0.8508740000    -1.3671190000
| 22>  H        3.5559170000     0.3012450000     0.0050130000
| 23>  H        2.8790430000     1.4870010000     2.0200190000
| 24>  H        3.4591940000    -0.1588530000     2.3304280000
| 25>  H        1.4608530000     0.3358370000     3.4345440000
| 26>  H        2.1744880000    -1.4882900000    -0.9614870000
| 27>  H        1.1702910000    -1.5284530000     0.4753890000
| 28>  H        2.7257870000    -3.3718160000     0.5069570000
| 29>  H        3.0643520000    -2.2845280000     1.8432120000
| 30>  H        4.5891120000    -2.2979360000    -0.6538870000
| 31>  H        5.1025200000    -2.8448960000     0.7882640000
| 32> *
| 33>
| 34>                          ****END OF INPUT****
 Total Charge           Charge          ....    0
 Multiplicity           Mult            ....    1
 Number of Electrons    NEL             ....   58
 Basis Dimension        Dim             ....  163

MULLIKEN ATOMIC CHARGES
-----------------------
   0 C :    0.032625
   1 C :   -0.125455
   2 C :    0.161581
   3 O :   -0.281981
   4 C :   -0.006940
   5 C :    0.066943
   6 N :   -0.215816
   7 H :    0.005676
   8 H :    0.020254
   9 H :    0.010745
  10 H :    0.001807
  11 H :   -0.012515
  12 H :    0.000502
  13 H :    0.154692
  14 H :   -0.003587
  15 H :    0.014504
  16 H :   -0.013977
  17 H :    0.016631
  18 H :    0.086594
  19 H :    0.087717
Sum of atomic charges:    0.0000000

LOEWDIN ATOMIC CHARGES
----------------------
   0 C :   -0.059233
   1 C :   -0.055596
   2 C :    0.061932
   3 O :   -0.130500
   4 C :   -0.043716
   5 C :    0.002913
   6 N :   -0.113113
   7 H :    0.021773
   8 H :    0.024922
   9 H :    0.022268
  10 H :    0.025998
  11 H :    0.002498
  12 H :    0.002438
  13 H :    0.070447
  14 H :    0.018505
  15 H :    0.028570
  16 H :   -0.000769
  17 H :    0.018740
  18 H :    0.049638
  19 H :    0.052283

  Mayer bond orders larger than 0.1
B(  0-C ,  1-C ) :   1.0822 B(  0-C ,  7-H ) :   0.9586 B(  0-C ,  8-H ) :   0.9583
B(  0-C ,  9-H ) :   0.9602 B(  1-C ,  2-C ) :   1.0683 B(  1-C ,  4-C ) :   1.0492
B(  1-C , 10-H ) :   0.8945 B(  2-C ,  3-O ) :   1.0748 B(  2-C , 11-H ) :   0.9298
B(  2-C , 12-H ) :   0.9276 B(  3-O , 13-H ) :   0.9816 B(  4-C ,  5-C ) :   1.1024
B(  4-C , 14-H ) :   0.9322 B(  4-C , 15-H ) :   0.9223 B(  5-C ,  6-N ) :   1.0750
B(  5-C , 16-H ) :   0.9267 B(  5-C , 17-H ) :   0.9273 B(  6-N , 18-H ) :   0.9674
B(  6-N , 19-H ) :   0.9666

FINAL SINGLE POINT ENERGY      -327.648970122382

DIPOLE MOMENT
-------------
                                X             Y             Z
Electronic contribution:     -0.32443      -0.14948       2.74972
Nuclear contribution   :      0.71868      -0.13850      -2.51715
                        -----------------------------------------
Total Dipole Moment    :      0.39425      -0.28798       0.23257
                        -----------------------------------------
Magnitude (a.u.)       :      0.54079
Magnitude (Debye)      :      1.37458

                             ****ORCA TERMINATED NORMALLY****
TOTAL RUN TIME: 0 days 0 hours 0 minutes 8 seconds 438 msec
