                         Program Version 3.0.3 - RELEASE   -
|  1> ! RI PBE def2-SVP def2-SVP/J NBO PAL2
|  2> % maxcore 2000
|  3> % output
|  4>     # printlevel mini
|  5>     print[ P_Basis ] 0
|  6>     print[ P_SCFInfo ] 1
|  7>     print[ P_SCFIterInfo ] 1
|  8>     print[ P_OrbEn ] 0
|  9>     print[ P_Cartesian ] 0
| 10> end
| 11> *xyz 0 1
| 12>  C        0.9875430000     0.0498690000    -0.1104240000
| 13>  C        2.4723920000     0.0691390000     0.0416440000
| 14>  C        3.0044580000     0.1063730000     1.4570200000
| 15>  O        3.4409680000     1.3889720000     1.8403900000
| 16>  C        3.2942590000     0.1075220000    -1.0090850000
| 17>  C        4.7885890000     0.1979460000    -0.9130760000
| 18>  N        5.2069610000     1.5123610000    -0.4011610000
| 19>  H        0.5600220000    -0.8423690000     0.3595470000
| 20>  H        0.6802240000     0.0685840000    -1.1574500000
| 21>  H        0.5457540000     0.9128760000     0.3987550000
| 22>  H        3.8108060000    -0.6357190000     1.5672100000
| 23>  H        2.2135150000    -0.1791070000     2.1553070000
| 24>  H        4.1327460000     1.6371260000     1.1952000000
| 25>  H        2.8652680000     0.1198980000    -2.0085010000
| 26>  H        5.2292620000    -0.0314530000    -1.8913890000
| 27>  H        5.1696600000    -0.5517210000    -0.2115750000
| 28>  H        4.8929780000     2.2446920000    -1.0279520000
| 29>  H        6.2177660000     1.5712200000    -0.3522610000
| 30> *
| 31>
| 32>                          ****END OF INPUT****
 Total Charge           Charge          ....    0
 Multiplicity           Mult            ....    1
 Number of Electrons    NEL             ....   56
 Basis Dimension        Dim             ....  153

MULLIKEN ATOMIC CHARGES
-----------------------
   0 C :    0.058931
   1 C :   -0.214367
   2 C :    0.295850
   3 O :   -0.307911
   4 C :   -0.136275
   5 C :    0.154260
   6 N :   -0.224595
   7 H :    0.029356
   8 H :    0.009884
   9 H :    0.040038
  10 H :   -0.020181
  11 H :   -0.017984
  12 H :    0.128161
  13 H :   -0.022936
  14 H :   -0.000517
  15 H :    0.019103
  16 H :    0.105742
  17 H :    0.103440
Sum of atomic charges:   -0.0000000

LOEWDIN ATOMIC CHARGES
----------------------
   0 C :   -0.054650
   1 C :   -0.038925
   2 C :    0.060328
   3 O :   -0.139023
   4 C :   -0.079309
   5 C :    0.004850
   6 N :   -0.066376
   7 H :    0.035958
   8 H :    0.026534
   9 H :    0.040811
  10 H :    0.003454
  11 H :    0.015680
  12 H :    0.017785
  13 H :    0.017647
  14 H :    0.010641
  15 H :    0.028013
  16 H :    0.058563
  17 H :    0.058018

  Mayer bond orders larger than 0.1
B(  0-C ,  1-C ) :   1.1089 B(  0-C ,  7-H ) :   0.9388 B(  0-C ,  8-H ) :   0.9566
B(  0-C ,  9-H ) :   0.9392 B(  1-C ,  2-C ) :   1.0366 B(  1-C ,  4-C ) :   1.8815
B(  2-C ,  3-O ) :   1.0864 B(  2-C , 10-H ) :   0.8997 B(  2-C , 11-H ) :   0.9205
B(  3-O , 12-H ) :   0.9268 B(  4-C ,  5-C ) :   1.0714 B(  4-C , 13-H ) :   0.9521
B(  5-C ,  6-N ) :   1.0505 B(  5-C , 14-H ) :   0.9212 B(  5-C , 15-H ) :   0.9165
B(  6-N , 12-H ) :   0.1720 B(  6-N , 16-H ) :   0.9595 B(  6-N , 17-H ) :   0.9600

FINAL SINGLE POINT ENERGY      -326.439628247035

DIPOLE MOMENT
-------------
                                X             Y             Z
Electronic contribution:      1.08417       1.28444       1.54419
Nuclear contribution   :     -0.53582      -1.45744      -2.56770
                        -----------------------------------------
Total Dipole Moment    :      0.54836      -0.17300      -1.02350
                        -----------------------------------------
Magnitude (a.u.)       :      1.17396
Magnitude (Debye)      :      2.98398

                             ****ORCA TERMINATED NORMALLY****
TOTAL RUN TIME: 0 days 0 hours 0 minutes 7 seconds 798 msec
