                         Program Version 3.0.3 - RELEASE   -
|  1> ! RI PBE def2-SVP def2-SVP/J NBO PAL2
|  2> % maxcore 2000
|  3> % output
|  4>     # printlevel mini
|  5>     print[ P_Basis ] 0
|  6>     print[ P_SCFInfo ] 1
|  7>     print[ P_SCFIterInfo ] 1
|  8>     print[ P_OrbEn ] 0
|  9>     print[ P_Cartesian ] 0
| 10> end
| 11> *xyz 0 1
| 12>  C        0.8942890000     0.0963990000     0.1043130000
| 13>  C        2.3811280000     0.0295180000     0.0711780000
| 14>  C        3.0081030000    -0.5401300000    -1.1721250000
| 15>  O        2.4018170000    -0.0812910000    -2.3600390000
| 16>  C        3.1190850000     0.4309570000     1.1139190000
| 17>  C        4.5390310000     0.3974180000     1.1294300000
| 18>  N        5.6914160000     0.3769000000     1.1668740000
| 19>  H        0.5306200000     0.7553290000    -0.6887470000
| 20>  H        0.5253900000     0.4652260000     1.0610170000
| 21>  H        0.4578120000    -0.8926270000    -0.0763230000
| 22>  H        2.9688010000    -1.6374310000    -1.1059510000
| 23>  H        4.0622080000    -0.2623250000    -1.2226150000
| 24>  H        1.6366070000    -0.6252940000    -2.5570170000
| 25>  H        2.6469340000     0.7990990000     2.0187550000
| 26> *
| 27>
| 28>                          ****END OF INPUT****
 Total Charge           Charge          ....    0
 Multiplicity           Mult            ....    1
 Number of Electrons    NEL             ....   52
 Basis Dimension        Dim             ....  133

MULLIKEN ATOMIC CHARGES
-----------------------
   0 C :    0.039738
   1 C :   -0.185263
   2 C :    0.230316
   3 O :   -0.276020
   4 C :   -0.093616
   5 C :   -0.127394
   6 N :    0.035334
   7 H :    0.052455
   8 H :    0.029810
   9 H :    0.033563
  10 H :    0.035696
  11 H :    0.036078
  12 H :    0.159216
  13 H :    0.030086
Sum of atomic charges:   -0.0000000

LOEWDIN ATOMIC CHARGES
----------------------
   0 C :   -0.055566
   1 C :   -0.002915
   2 C :    0.062571
   3 O :   -0.107183
   4 C :   -0.091199
   5 C :   -0.047866
   6 N :   -0.063031
   7 H :    0.044830
   8 H :    0.037150
   9 H :    0.039945
  10 H :    0.027541
  11 H :    0.036731
  12 H :    0.070382
  13 H :    0.048611

  Mayer bond orders larger than 0.1
B(  0-C ,  1-C ) :   1.0798 B(  0-C ,  7-H ) :   0.9329 B(  0-C ,  8-H ) :   0.9519
B(  0-C ,  9-H ) :   0.9408 B(  1-C ,  2-C ) :   1.0162 B(  1-C ,  4-C ) :   1.7977
B(  1-C ,  6-N ) :   0.1024 B(  2-C ,  3-O ) :   1.0778 B(  2-C , 10-H ) :   0.9228
B(  2-C , 11-H ) :   0.9099 B(  3-O , 12-H ) :   0.9810 B(  4-C ,  5-C ) :   1.1137
B(  4-C , 13-H ) :   0.9403 B(  5-C ,  6-N ) :   2.9311

FINAL SINGLE POINT ENERGY      -324.035004323771

DIPOLE MOMENT
-------------
                                X             Y             Z
Electronic contribution:      6.22096       1.24342       1.65279
Nuclear contribution   :     -8.14743      -1.82243      -1.82784
                        -----------------------------------------
Total Dipole Moment    :     -1.92648      -0.57902      -0.17505
                        -----------------------------------------
Magnitude (a.u.)       :      2.01921
Magnitude (Debye)      :      5.13243

                             ****ORCA TERMINATED NORMALLY****
TOTAL RUN TIME: 0 days 0 hours 0 minutes 6 seconds 327 msec
