                         Program Version 3.0.3 - RELEASE   -
|  1> ! RI PBE def2-SVP def2-SVP/J NBO PAL2
|  2> % maxcore 2000
|  3> % output
|  4>     # printlevel mini
|  5>     print[ P_Basis ] 0
|  6>     print[ P_SCFInfo ] 1
|  7>     print[ P_SCFIterInfo ] 1
|  8>     print[ P_OrbEn ] 0
|  9>     print[ P_Cartesian ] 0
| 10> end
| 11> *xyz 0 1
| 12>  C        1.0789790000     0.2663060000    -0.2268280000
| 13>  C        2.4698290000    -0.2383320000     0.1260890000
| 14>  C        2.6080740000    -0.5388090000     1.6154540000
| 15>  O        1.7320730000    -1.5545290000     2.0587900000
| 16>  C        2.8068440000    -1.4793220000    -0.7125870000
| 17>  C        4.2024360000    -1.8704260000    -0.6017510000
| 18>  N        5.3124220000    -2.1546480000    -0.5046610000
| 19>  H        0.8157950000     1.1395850000     0.3757610000
| 20>  H        0.3219570000    -0.5054190000    -0.0591340000
| 21>  H        1.0164720000     0.5583860000    -1.2773700000
| 22>  H        3.2003370000     0.5440220000    -0.1094160000
| 23>  H        2.4613200000     0.3867950000     2.1868490000
| 24>  H        3.6182480000    -0.8973440000     1.8279850000
| 25>  H        0.8487530000    -1.1879590000     2.1396950000
| 26>  H        2.5870910000    -1.2987880000    -1.7686890000
| 27>  H        2.1842700000    -2.3174290000    -0.3847970000
| 28> *
| 29>
| 30>                          ****END OF INPUT****
 Total Charge           Charge          ....    0
 Multiplicity           Mult            ....    1
 Number of Electrons    NEL             ....   54
 Basis Dimension        Dim             ....  143

MULLIKEN ATOMIC CHARGES
-----------------------
   0 C :    0.028971
   1 C :   -0.210001
   2 C :    0.198945
   3 O :   -0.284458
   4 C :    0.106379
   5 C :   -0.283116
   6 N :    0.059552
   7 H :    0.024471
   8 H :    0.012670
   9 H :    0.027257
  10 H :    0.028299
  11 H :    0.008335
  12 H :    0.030248
  13 H :    0.156945
  14 H :    0.045892
  15 H :    0.049611
Sum of atomic charges:   -0.0000000

LOEWDIN ATOMIC CHARGES
----------------------
   0 C :   -0.062810
   1 C :   -0.055832
   2 C :    0.063666
   3 O :   -0.113518
   4 C :   -0.054058
   5 C :   -0.043600
   6 N :   -0.070938
   7 H :    0.029844
   8 H :    0.022811
   9 H :    0.032017
  10 H :    0.035332
  11 H :    0.010150
  12 H :    0.027546
  13 H :    0.068553
  14 H :    0.055294
  15 H :    0.055542

  Mayer bond orders larger than 0.1
B(  0-C ,  1-C ) :   1.0837 B(  0-C ,  7-H ) :   0.9598 B(  0-C ,  8-H ) :   0.9486
B(  0-C ,  9-H ) :   0.9549 B(  1-C ,  2-C ) :   1.0216 B(  1-C ,  4-C ) :   1.0473
B(  1-C , 10-H ) :   0.9032 B(  2-C ,  3-O ) :   1.0551 B(  2-C , 11-H ) :   0.9399
B(  2-C , 12-H ) :   0.9372 B(  3-O , 13-H ) :   0.9826 B(  4-C ,  5-C ) :   1.1405
B(  4-C , 14-H ) :   0.8924 B(  4-C , 15-H ) :   0.8694 B(  5-C ,  6-N ) :   3.0439

FINAL SINGLE POINT ENERGY      -325.250362713759

DIPOLE MOMENT
-------------
                                X             Y             Z
Electronic contribution:      5.97508      -4.56848      -0.19452
Nuclear contribution   :     -7.63383       5.57534       0.11089
                        -----------------------------------------
Total Dipole Moment    :     -1.65876       1.00686      -0.08363
                        -----------------------------------------
Magnitude (a.u.)       :      1.94222
Magnitude (Debye)      :      4.93674

                             ****ORCA TERMINATED NORMALLY****
TOTAL RUN TIME: 0 days 0 hours 0 minutes 7 seconds 446 msec
