                         Program Version 3.0.3 - RELEASE   -
|  1> ! RI PBE def2-SVP def2-SVP/J NBO PAL2
|  2> % maxcore 2000
|  3> % output
|  4>     # printlevel mini
|  5>     print[ P_Basis ] 0
|  6>     print[ P_SCFInfo ] 1
|  7>     print[ P_SCFIterInfo ] 1
|  8>     print[ P_OrbEn ] 0
|  9>     print[ P_Cartesian ] 0
| 10> end
| 11> *xyz 0 1
| 12>  C        1.2565550000     0.2457100000    -0.0084140000
| 13>  C        2.7416940000     0.0394770000     0.1967910000
| 14>  C        3.2986220000    -1.1677070000    -0.5325080000
| 15>  O        2.5789240000    -1.8795050000    -1.2112810000
| 16>  C        4.7277550000    -1.4046660000    -0.3624220000
| 17>  C        5.3032540000    -2.4574940000    -0.9771690000
| 18>  N        6.5984360000    -2.8215670000    -0.9295680000
| 19>  H        0.9071270000     1.1254080000     0.5363930000
| 20>  H        0.6914680000    -0.6217370000     0.3359020000
| 21>  H        1.0241000000     0.3786410000    -1.0660680000
| 22>  H        2.9827910000    -0.0765300000     1.2608460000
| 23>  H        3.3130720000     0.9168230000    -0.1312230000
| 24>  H        5.3055060000    -0.7268650000     0.2584040000
| 25>  H        4.6610590000    -3.0920070000    -1.5823940000
| 26>  H        7.2678170000    -2.2972000000    -0.3965380000
| 27>  H        6.9249310000    -3.6268800000    -1.4268410000
| 28> *
| 29>
| 30>                          ****END OF INPUT****
 Total Charge           Charge          ....    0
 Multiplicity           Mult            ....    1
 Number of Electrons    NEL             ....   54
 Basis Dimension        Dim             ....  143

MULLIKEN ATOMIC CHARGES
-----------------------
   0 C :    0.021156
   1 C :   -0.050854
   2 C :   -0.001847
   3 O :   -0.213520
   4 C :   -0.087547
   5 C :    0.048664
   6 N :   -0.041706
   7 H :    0.005042
   8 H :    0.025415
   9 H :    0.023565
  10 H :    0.027884
  11 H :    0.021346
  12 H :   -0.034941
  13 H :    0.015730
  14 H :    0.115998
  15 H :    0.125614
Sum of atomic charges:   -0.0000000

LOEWDIN ATOMIC CHARGES
----------------------
   0 C :   -0.063771
   1 C :   -0.077878
   2 C :    0.037962
   3 O :   -0.175227
   4 C :   -0.173567
   5 C :    0.053876
   6 N :    0.041223
   7 H :    0.022605
   8 H :    0.029876
   9 H :    0.029335
  10 H :    0.036966
  11 H :    0.036039
  12 H :    0.015656
  13 H :    0.032324
  14 H :    0.076546
  15 H :    0.078034

  Mayer bond orders larger than 0.1
B(  0-C ,  1-C ) :   1.1263 B(  0-C ,  7-H ) :   0.9554 B(  0-C ,  8-H ) :   0.9622
B(  0-C ,  9-H ) :   0.9630 B(  1-C ,  2-C ) :   0.9709 B(  1-C , 10-H ) :   0.9208
B(  1-C , 11-H ) :   0.9174 B(  2-C ,  3-O ) :   2.0885 B(  2-C ,  4-C ) :   1.0812
B(  4-C ,  5-C ) :   1.6191 B(  4-C , 12-H ) :   0.9558 B(  5-C ,  6-N ) :   1.3230
B(  5-C , 13-H ) :   0.9279 B(  6-N , 14-H ) :   0.9542 B(  6-N , 15-H ) :   0.9545

FINAL SINGLE POINT ENERGY      -325.274743643145

DIPOLE MOMENT
-------------
                                X             Y             Z
Electronic contribution:      2.77586      -4.14434      -2.29591
Nuclear contribution   :     -0.92279       3.92972       2.58540
                        -----------------------------------------
Total Dipole Moment    :      1.85307      -0.21463       0.28949
                        -----------------------------------------
Magnitude (a.u.)       :      1.88778
Magnitude (Debye)      :      4.79836

                             ****ORCA TERMINATED NORMALLY****
TOTAL RUN TIME: 0 days 0 hours 0 minutes 7 seconds 365 msec
