                         Program Version 3.0.3 - RELEASE   -
|  1> ! RI PBE def2-SVP def2-SVP/J NBO PAL2
|  2> % maxcore 2000
|  3> % output
|  4>     # printlevel mini
|  5>     print[ P_Basis ] 0
|  6>     print[ P_SCFInfo ] 1
|  7>     print[ P_SCFIterInfo ] 1
|  8>     print[ P_OrbEn ] 0
|  9>     print[ P_Cartesian ] 0
| 10> end
| 11> *xyz 0 1
| 12>  C        1.5480190000    -1.1067490000    -0.5743940000
| 13>  C        2.4702150000     0.0314850000    -0.1957820000
| 14>  C        1.7575880000     1.2105810000     0.3963610000
| 15>  O        0.5654400000     1.2807120000     0.5220720000
| 16>  C        2.6060790000     2.3888750000     0.9047460000
| 17>  C        3.9803340000     2.4329220000     0.4449150000
| 18>  N        5.0665110000     2.4573230000     0.0691590000
| 19>  H        2.1172600000    -1.9318790000    -1.0049360000
| 20>  H        0.8058080000    -0.7816440000    -1.3045720000
| 21>  H        1.0057600000    -1.4788040000     0.2961310000
| 22>  H        3.0418930000     0.3975860000    -1.0581500000
| 23>  H        3.2406460000    -0.2839490000     0.5197300000
| 24>  H        2.5971500000     2.3347970000     1.9986940000
| 25>  H        2.0897090000     3.3120330000     0.6329370000
| 26> *
| 27>
| 28>                          ****END OF INPUT****
 Total Charge           Charge          ....    0
 Multiplicity           Mult            ....    1
 Number of Electrons    NEL             ....   52
 Basis Dimension        Dim             ....  133

MULLIKEN ATOMIC CHARGES
-----------------------
   0 C :    0.008716
   1 C :   -0.017561
   2 C :   -0.102040
   3 O :   -0.145074
   4 C :    0.143300
   5 C :   -0.308980
   6 N :    0.048151
   7 H :    0.024186
   8 H :    0.038685
   9 H :    0.033551
  10 H :    0.059680
  11 H :    0.052104
  12 H :    0.090527
  13 H :    0.074755
Sum of atomic charges:   -0.0000000

LOEWDIN ATOMIC CHARGES
----------------------
   0 C :   -0.059737
   1 C :   -0.076334
   2 C :    0.070630
   3 O :   -0.100998
   4 C :   -0.086162
   5 C :   -0.054450
   6 N :   -0.059677
   7 H :    0.032471
   8 H :    0.034897
   9 H :    0.033751
  10 H :    0.057011
  11 H :    0.051912
  12 H :    0.081846
  13 H :    0.074842

  Mayer bond orders larger than 0.1
B(  0-C ,  1-C ) :   1.1203 B(  0-C ,  7-H ) :   0.9543 B(  0-C ,  8-H ) :   0.9645
B(  0-C ,  9-H ) :   0.9640 B(  1-C ,  2-C ) :   1.0231 B(  1-C , 10-H ) :   0.8816
B(  1-C , 11-H ) :   0.9075 B(  2-C ,  3-O ) :   2.1868 B(  2-C ,  4-C ) :   0.9059
B(  4-C ,  5-C ) :   1.0725 B(  4-C , 12-H ) :   0.8732 B(  4-C , 13-H ) :   0.8800
B(  5-C ,  6-N ) :   3.0259

FINAL SINGLE POINT ENERGY      -324.062296349164

DIPOLE MOMENT
-------------
                                X             Y             Z
Electronic contribution:      2.07873       6.05813       1.62823
Nuclear contribution   :     -2.50429      -6.36678      -1.34977
                        -----------------------------------------
Total Dipole Moment    :     -0.42557      -0.30865       0.27846
                        -----------------------------------------
Magnitude (a.u.)       :      0.59491
Magnitude (Debye)      :      1.51214

                             ****ORCA TERMINATED NORMALLY****
TOTAL RUN TIME: 0 days 0 hours 0 minutes 6 seconds 926 msec
