                         Program Version 3.0.3 - RELEASE   -
|  1> ! RI PBE def2-SVP def2-SVP/J NBO PAL2
|  2> % maxcore 2000
|  3> % output
|  4>     # printlevel mini
|  5>     print[ P_Basis ] 0
|  6>     print[ P_SCFInfo ] 1
|  7>     print[ P_SCFIterInfo ] 1
|  8>     print[ P_OrbEn ] 0
|  9>     print[ P_Cartesian ] 0
| 10> end
| 11> *xyz 0 1
| 12>  C        0.9815200000    -0.0542180000    -0.1140740000
| 13>  C        2.4792140000    -0.2128700000     0.0802080000
| 14>  C        3.0669870000     0.8776500000     0.9721520000
| 15>  O        2.4965290000     0.8490800000     2.2647930000
| 16>  C        4.5951930000     0.8470350000     1.0346540000
| 17>  C        5.1972020000    -0.4286200000     1.6048020000
| 18>  N        4.7570880000    -0.6469580000     2.9843430000
| 19>  H        0.5660230000    -0.8699650000    -0.7102110000
| 20>  H        0.7492330000     0.8843910000    -0.6257730000
| 21>  H        0.4735150000    -0.0399240000     0.8516970000
| 22>  H        2.9894050000    -0.1952750000    -0.8906120000
| 23>  H        2.6866380000    -1.1913980000     0.5277060000
| 24>  H        2.7779790000     1.8458700000     0.5426720000
| 25>  H        2.9949750000     0.1739190000     2.7578910000
| 26>  H        4.9261550000     1.7006710000     1.6379630000
| 27>  H        4.9985770000     1.0015070000     0.0283550000
| 28>  H        6.2914890000    -0.3845990000     1.5089320000
| 29>  H        4.8695440000    -1.2886750000     1.0147360000
| 30>  H        5.1806650000     0.0357670000     3.6023550000
| 31>  H        5.0347690000    -1.5618880000     3.3154110000
| 32> *
| 33>
| 34>                          ****END OF INPUT****
 Total Charge           Charge          ....    0
 Multiplicity           Mult            ....    1
 Number of Electrons    NEL             ....   58
 Basis Dimension        Dim             ....  163

MULLIKEN ATOMIC CHARGES
-----------------------
   0 C :    0.001893
   1 C :   -0.024456
   2 C :    0.101282
   3 O :   -0.296037
   4 C :   -0.001030
   5 C :    0.043226
   6 N :   -0.219293
   7 H :    0.012235
   8 H :    0.008640
   9 H :    0.023970
  10 H :   -0.007859
  11 H :    0.002964
  12 H :   -0.016984
  13 H :    0.128256
  14 H :    0.007042
  15 H :    0.003620
  16 H :    0.010617
  17 H :    0.016884
  18 H :    0.105215
  19 H :    0.099813
Sum of atomic charges:    0.0000000

LOEWDIN ATOMIC CHARGES
----------------------
   0 C :   -0.067058
   1 C :   -0.061848
   2 C :    0.046788
   3 O :   -0.130565
   4 C :   -0.062143
   5 C :    0.004181
   6 N :   -0.074468
   7 H :    0.022580
   8 H :    0.022473
   9 H :    0.026647
  10 H :    0.019192
  11 H :    0.018646
  12 H :    0.014416
  13 H :    0.023226
  14 H :    0.023298
  15 H :    0.029374
  16 H :    0.007608
  17 H :    0.021159
  18 H :    0.058250
  19 H :    0.058246

  Mayer bond orders larger than 0.1
B(  0-C ,  1-C ) :   1.1211 B(  0-C ,  7-H ) :   0.9627 B(  0-C ,  8-H ) :   0.9641
B(  0-C ,  9-H ) :   0.9555 B(  1-C ,  2-C ) :   1.0330 B(  1-C , 10-H ) :   0.9228
B(  1-C , 11-H ) :   0.9209 B(  2-C ,  3-O ) :   1.0559 B(  2-C ,  4-C ) :   1.0631
B(  2-C , 12-H ) :   0.9094 B(  3-O , 13-H ) :   0.9364 B(  4-C ,  5-C ) :   1.0925
B(  4-C , 14-H ) :   0.9258 B(  4-C , 15-H ) :   0.9133 B(  5-C ,  6-N ) :   1.0543
B(  5-C , 16-H ) :   0.9364 B(  5-C , 17-H ) :   0.9358 B(  6-N , 13-H ) :   0.1579
B(  6-N , 18-H ) :   0.9611 B(  6-N , 19-H ) :   0.9633

FINAL SINGLE POINT ENERGY      -327.662821016089

DIPOLE MOMENT
-------------
                                X             Y             Z
Electronic contribution:      0.49093       1.34496       3.26206
Nuclear contribution   :      0.69939      -1.89968      -3.17564
                        -----------------------------------------
Total Dipole Moment    :      1.19032      -0.55473       0.08642
                        -----------------------------------------
Magnitude (a.u.)       :      1.31607
Magnitude (Debye)      :      3.34519

                             ****ORCA TERMINATED NORMALLY****
TOTAL RUN TIME: 0 days 0 hours 0 minutes 7 seconds 869 msec
