                         Program Version 3.0.3 - RELEASE   -
|  1> ! RI PBE def2-SVP def2-SVP/J NBO PAL2
|  2> % maxcore 2000
|  3> % output
|  4>     # printlevel mini
|  5>     print[ P_Basis ] 0
|  6>     print[ P_SCFInfo ] 1
|  7>     print[ P_SCFIterInfo ] 1
|  8>     print[ P_OrbEn ] 0
|  9>     print[ P_Cartesian ] 0
| 10> end
| 11> *xyz 0 1
| 12>  C        0.7708190000     0.5306180000     0.6151730000
| 13>  C        2.1462530000     0.9346940000     0.1135970000
| 14>  C        3.0097580000    -0.2477430000    -0.2934350000
| 15>  O        2.4300210000    -0.9624310000    -1.3724490000
| 16>  C        4.4570150000     0.1553790000    -0.6048100000
| 17>  C        5.2588310000    -1.0116650000    -1.1643520000
| 18>  N        5.0452160000     0.7494740000     0.5914920000
| 19>  H        0.1613390000     1.4070720000     0.8464960000
| 20>  H        0.8489530000    -0.0675450000     1.5274280000
| 21>  H        0.2365810000    -0.0682380000    -0.1253310000
| 22>  H        2.6851590000     1.5068810000     0.8714690000
| 23>  H        2.0494810000     1.5987310000    -0.7577280000
| 24>  H        3.0367560000    -0.9722250000     0.5327450000
| 25>  H        2.2206100000    -0.3285290000    -2.0652770000
| 26>  H        4.4158520000     0.9505960000    -1.3628680000
| 27>  H        5.3171940000    -1.8196470000    -0.4274280000
| 28>  H        6.2788430000    -0.6952090000    -1.3982800000
| 29>  H        4.8049200000    -1.4206070000    -2.0677500000
| 30>  H        5.9544230000     1.1400600000     0.3764560000
| 31>  H        5.2033660000     0.0275330000     1.2874510000
| 32> *
| 33>
| 34>                          ****END OF INPUT****
 Total Charge           Charge          ....    0
 Multiplicity           Mult            ....    1
 Number of Electrons    NEL             ....   58
 Basis Dimension        Dim             ....  163

MULLIKEN ATOMIC CHARGES
-----------------------
   0 C :    0.011606
   1 C :   -0.016330
   2 C :    0.091400
   3 O :   -0.270171
   4 C :   -0.079020
   5 C :    0.075297
   6 N :   -0.170959
   7 H :    0.017454
   8 H :    0.014904
   9 H :    0.014207
  10 H :    0.012836
  11 H :   -0.013051
  12 H :   -0.012187
  13 H :    0.150695
  14 H :   -0.010540
  15 H :    0.005365
  16 H :    0.000858
  17 H :    0.006217
  18 H :    0.087095
  19 H :    0.084323
Sum of atomic charges:   -0.0000000

LOEWDIN ATOMIC CHARGES
----------------------
   0 C :   -0.069262
   1 C :   -0.060946
   2 C :    0.041403
   3 O :   -0.104660
   4 C :   -0.023547
   5 C :   -0.076642
   6 N :   -0.087322
   7 H :    0.025754
   8 H :    0.025598
   9 H :    0.021009
  10 H :    0.027214
  11 H :    0.017023
  12 H :    0.016976
  13 H :    0.065215
  14 H :    0.016918
  15 H :    0.022488
  16 H :    0.018651
  17 H :    0.023327
  18 H :    0.051879
  19 H :    0.048923

  Mayer bond orders larger than 0.1
B(  0-C ,  1-C ) :   1.1189 B(  0-C ,  7-H ) :   0.9588 B(  0-C ,  8-H ) :   0.9615
B(  0-C ,  9-H ) :   0.9561 B(  1-C ,  2-C ) :   1.0725 B(  1-C , 10-H ) :   0.9118
B(  1-C , 11-H ) :   0.9172 B(  2-C ,  3-O ) :   1.0349 B(  2-C ,  4-C ) :   0.9982
B(  2-C , 12-H ) :   0.8967 B(  3-O , 13-H ) :   0.9818 B(  4-C ,  5-C ) :   1.0786
B(  4-C ,  6-N ) :   1.0708 B(  4-C , 14-H ) :   0.8943 B(  5-C , 15-H ) :   0.9506
B(  5-C , 16-H ) :   0.9536 B(  5-C , 17-H ) :   0.9354 B(  6-N , 18-H ) :   0.9637
B(  6-N , 19-H ) :   0.9687

FINAL SINGLE POINT ENERGY      -327.658638321621

DIPOLE MOMENT
-------------
                                X             Y             Z
Electronic contribution:      0.24632      -0.80543      -1.35553
Nuclear contribution   :      0.22629       1.08707       1.23713
                        -----------------------------------------
Total Dipole Moment    :      0.47261       0.28164      -0.11840
                        -----------------------------------------
Magnitude (a.u.)       :      0.56276
Magnitude (Debye)      :      1.43042

                             ****ORCA TERMINATED NORMALLY****
TOTAL RUN TIME: 0 days 0 hours 0 minutes 8 seconds 747 msec
