                         Program Version 3.0.3 - RELEASE   -
|  1> ! RI PBE def2-SVP def2-SVP/J NBO PAL2
|  2> % maxcore 2000
|  3> % output
|  4>     # printlevel mini
|  5>     print[ P_Basis ] 0
|  6>     print[ P_SCFInfo ] 1
|  7>     print[ P_SCFIterInfo ] 1
|  8>     print[ P_OrbEn ] 0
|  9>     print[ P_Cartesian ] 0
| 10> end
| 11> *xyz 0 1
| 12>  C        1.6706960000     0.8024980000     0.3499450000
| 13>  C        3.0852000000     0.4018540000    -0.0297300000
| 14>  C        3.1737260000    -1.0203110000    -0.5616220000
| 15>  O        2.3796390000    -1.2229030000    -1.7061480000
| 16>  C        4.6241830000    -1.4598000000    -0.8263220000
| 17>  C        5.2379060000    -0.6641980000    -1.8770080000
| 18>  N        5.6712730000    -0.0172300000    -2.7234640000
| 19>  H        1.6360820000     1.8388820000     0.6909840000
| 20>  H        1.2857990000     0.1726780000     1.1566010000
| 21>  H        0.9941290000     0.7008150000    -0.4999430000
| 22>  H        3.7476580000     0.4921730000     0.8381970000
| 23>  H        3.4831550000     1.0858500000    -0.7895680000
| 24>  H        2.7700150000    -1.7091030000     0.1877150000
| 25>  H        2.6647530000    -0.6062440000    -2.3899550000
| 26>  H        4.6313340000    -2.5069510000    -1.1389240000
| 27>  H        5.2251620000    -1.3744090000     0.0833410000
| 28> *
| 29>
| 30>                          ****END OF INPUT****
 Total Charge           Charge          ....    0
 Multiplicity           Mult            ....    1
 Number of Electrons    NEL             ....   54
 Basis Dimension        Dim             ....  143

MULLIKEN ATOMIC CHARGES
-----------------------
   0 C :    0.008946
   1 C :   -0.043370
   2 C :    0.038092
   3 O :   -0.263132
   4 C :    0.133582
   5 C :   -0.317374
   6 N :    0.049037
   7 H :    0.025081
   8 H :    0.018043
   9 H :    0.024499
  10 H :    0.010838
  11 H :    0.025932
  12 H :    0.015963
  13 H :    0.164029
  14 H :    0.059595
  15 H :    0.050239
Sum of atomic charges:    0.0000000

LOEWDIN ATOMIC CHARGES
----------------------
   0 C :   -0.064810
   1 C :   -0.062404
   2 C :    0.052932
   3 O :   -0.097794
   4 C :   -0.069865
   5 C :   -0.051632
   6 N :   -0.068626
   7 H :    0.030107
   8 H :    0.026886
   9 H :    0.026953
  10 H :    0.029686
  11 H :    0.029116
  12 H :    0.027751
  13 H :    0.071933
  14 H :    0.061551
  15 H :    0.058218

  Mayer bond orders larger than 0.1
B(  0-C ,  1-C ) :   1.1207 B(  0-C ,  7-H ) :   0.9596 B(  0-C ,  8-H ) :   0.9633
B(  0-C ,  9-H ) :   0.9573 B(  1-C ,  2-C ) :   1.0444 B(  1-C , 10-H ) :   0.9237
B(  1-C , 11-H ) :   0.9200 B(  2-C ,  3-O ) :   1.0535 B(  2-C ,  4-C ) :   1.0253
B(  2-C , 12-H ) :   0.9081 B(  3-O , 13-H ) :   0.9747 B(  4-C ,  5-C ) :   1.1009
B(  4-C , 14-H ) :   0.8818 B(  4-C , 15-H ) :   0.8881 B(  5-C ,  6-N ) :   3.0273

FINAL SINGLE POINT ENERGY      -325.255411922507

DIPOLE MOMENT
-------------
                                X             Y             Z
Electronic contribution:      5.37849      -2.32823      -5.93698
Nuclear contribution   :     -5.68333       2.03790       6.98087
                        -----------------------------------------
Total Dipole Moment    :     -0.30484      -0.29034       1.04389
                        -----------------------------------------
Magnitude (a.u.)       :      1.12558
Magnitude (Debye)      :      2.86100

                             ****ORCA TERMINATED NORMALLY****
TOTAL RUN TIME: 0 days 0 hours 0 minutes 6 seconds 930 msec
