                         Program Version 3.0.3 - RELEASE   -
|  1> ! RI PBE def2-SVP def2-SVP/J NBO PAL2
|  2> % maxcore 2000
|  3> % output
|  4>     # printlevel mini
|  5>     print[ P_Basis ] 0
|  6>     print[ P_SCFInfo ] 1
|  7>     print[ P_SCFIterInfo ] 1
|  8>     print[ P_OrbEn ] 0
|  9>     print[ P_Cartesian ] 0
| 10> end
| 11> *xyz 0 1
| 12>  C        2.9397510000     2.1194650000     0.6218280000
| 13>  C        2.4763600000     0.7119510000     0.2938810000
| 14>  C        2.8834090000    -0.3167600000     1.3393590000
| 15>  O        2.3455670000    -1.5561300000     0.9782980000
| 16>  C        2.5105740000    -2.5587970000     1.9549930000
| 17>  C        4.3536650000    -0.3908330000     1.4657280000
| 18>  N        5.4975160000    -0.4557860000     1.5615240000
| 19>  H        2.6070590000     2.8181570000    -0.1473930000
| 20>  H        4.0289480000     2.1809050000     0.6780840000
| 21>  H        2.5337250000     2.4618220000     1.5775490000
| 22>  H        2.8702030000     0.3864810000    -0.6723100000
| 23>  H        1.3863200000     0.6667420000     0.2278610000
| 24>  H        2.5013370000    -0.0058270000     2.3259140000
| 25>  H        2.0232820000    -3.4545960000     1.5726900000
| 26>  H        2.0390130000    -2.2695360000     2.9032000000
| 27>  H        3.5698000000    -2.7755860000     2.1355250000
| 28> *
| 29>
| 30>                          ****END OF INPUT****
 Total Charge           Charge          ....    0
 Multiplicity           Mult            ....    1
 Number of Electrons    NEL             ....   54
 Basis Dimension        Dim             ....  143

MULLIKEN ATOMIC CHARGES
-----------------------
   0 C :   -0.048266
   1 C :   -0.008009
   2 C :    0.146671
   3 O :   -0.320473
   4 C :    0.143583
   5 C :   -0.247231
   6 N :    0.039030
   7 H :    0.036507
   8 H :    0.051149
   9 H :    0.023887
  10 H :    0.034497
  11 H :    0.037494
  12 H :    0.028731
  13 H :    0.042035
  14 H :    0.008054
  15 H :    0.032341
Sum of atomic charges:   -0.0000000

LOEWDIN ATOMIC CHARGES
----------------------
   0 C :   -0.066126
   1 C :   -0.034958
   2 C :    0.027755
   3 O :   -0.124009
   4 C :    0.056086
   5 C :   -0.055943
   6 N :   -0.056660
   7 H :    0.035699
   8 H :    0.034642
   9 H :    0.028173
  10 H :    0.035675
  11 H :    0.035825
  12 H :    0.030034
  13 H :    0.028988
  14 H :    0.009665
  15 H :    0.015154

  Mayer bond orders larger than 0.1
B(  0-C ,  1-C ) :   1.1011 B(  0-C ,  7-H ) :   0.9577 B(  0-C ,  8-H ) :   0.9627
B(  0-C ,  9-H ) :   0.9632 B(  1-C ,  2-C ) :   1.0535 B(  1-C , 10-H ) :   0.9279
B(  1-C , 11-H ) :   0.9308 B(  2-C ,  3-O ) :   1.0875 B(  2-C ,  5-C ) :   0.9693
B(  2-C , 12-H ) :   0.9078 B(  3-O ,  4-C ) :   0.9956 B(  4-C , 13-H ) :   0.9767
B(  4-C , 14-H ) :   0.9522 B(  4-C , 15-H ) :   0.9552 B(  5-C ,  6-N ) :   3.0642

FINAL SINGLE POINT ENERGY      -325.236223538559

DIPOLE MOMENT
-------------
                                X             Y             Z
Electronic contribution:      4.03072      -2.97028       0.17856
Nuclear contribution   :     -5.18825       3.09855       0.03221
                        -----------------------------------------
Total Dipole Moment    :     -1.15753       0.12827       0.21077
                        -----------------------------------------
Magnitude (a.u.)       :      1.18354
Magnitude (Debye)      :      3.00831

                             ****ORCA TERMINATED NORMALLY****
TOTAL RUN TIME: 0 days 0 hours 0 minutes 7 seconds 14 msec
