                         Program Version 3.0.3 - RELEASE   -
|  1> ! RI PBE def2-SVP def2-SVP/J NBO PAL2
|  2> % maxcore 2000
|  3> % output
|  4>     # printlevel mini
|  5>     print[ P_Basis ] 0
|  6>     print[ P_SCFInfo ] 1
|  7>     print[ P_SCFIterInfo ] 1
|  8>     print[ P_OrbEn ] 0
|  9>     print[ P_Cartesian ] 0
| 10> end
| 11> *xyz 0 1
| 12>  C        2.4500980000     1.5708620000    -1.9803300000
| 13>  C        3.1359570000     1.1181470000    -0.7023870000
| 14>  C        4.0681000000    -0.0435620000    -0.9454710000
| 15>  O        4.6650060000    -0.4139360000     0.2850370000
| 16>  C        5.5268240000    -1.5014730000     0.1828960000
| 17>  C        6.7418290000    -1.2080940000    -0.5938550000
| 18>  N        7.6864930000    -0.9752450000    -1.2055720000
| 19>  H        1.7829220000     2.4128160000    -1.7880960000
| 20>  H        1.8509040000     0.7680660000    -2.4185870000
| 21>  H        3.1772510000     1.8901640000    -2.7316050000
| 22>  H        2.3935670000     0.8228650000     0.0450350000
| 23>  H        3.7111350000     1.9406320000    -0.2674430000
| 24>  H        4.8459310000     0.2330080000    -1.6711510000
| 25>  H        3.5169880000    -0.9021530000    -1.3594530000
| 26>  H        5.0369770000    -2.3727580000    -0.2763650000
| 27>  H        5.8270380000    -1.7790480000     1.1958460000
| 28> *
| 29>
| 30>                          ****END OF INPUT****
 Total Charge           Charge          ....    0
 Multiplicity           Mult            ....    1
 Number of Electrons    NEL             ....   54
 Basis Dimension        Dim             ....  143

MULLIKEN ATOMIC CHARGES
-----------------------
   0 C :   -0.049446
   1 C :   -0.042913
   2 C :    0.155905
   3 O :   -0.326176
   4 C :    0.294812
   5 C :   -0.314278
   6 N :    0.036712
   7 H :    0.033328
   8 H :    0.024079
   9 H :    0.029717
  10 H :    0.025385
  11 H :    0.029074
  12 H :    0.020544
  13 H :   -0.008050
  14 H :    0.035398
  15 H :    0.055907
Sum of atomic charges:   -0.0000000

LOEWDIN ATOMIC CHARGES
----------------------
   0 C :   -0.064942
   1 C :   -0.052705
   2 C :    0.063734
   3 O :   -0.125759
   4 C :    0.043600
   5 C :   -0.067725
   6 N :   -0.050735
   7 H :    0.032278
   8 H :    0.025875
   9 H :    0.028306
  10 H :    0.028962
  11 H :    0.031238
  12 H :    0.012742
  13 H :    0.006655
  14 H :    0.034547
  15 H :    0.053927

  Mayer bond orders larger than 0.1
B(  0-C ,  1-C ) :   1.1018 B(  0-C ,  7-H ) :   0.9619 B(  0-C ,  8-H ) :   0.9673
B(  0-C ,  9-H ) :   0.9667 B(  1-C ,  2-C ) :   1.0916 B(  1-C , 10-H ) :   0.9371
B(  1-C , 11-H ) :   0.9371 B(  2-C ,  3-O ) :   0.9926 B(  2-C , 12-H ) :   0.9278
B(  2-C , 13-H ) :   0.9242 B(  3-O ,  4-C ) :   1.0917 B(  4-C ,  5-C ) :   1.0295
B(  4-C , 14-H ) :   0.9151 B(  4-C , 15-H ) :   0.9006 B(  5-C ,  6-N ) :   3.0596

FINAL SINGLE POINT ENERGY      -325.235791984603

DIPOLE MOMENT
-------------
                                X             Y             Z
Electronic contribution:      9.39657      -4.64282       2.95333
Nuclear contribution   :    -10.54561       4.35392      -2.70858
                        -----------------------------------------
Total Dipole Moment    :     -1.14904      -0.28890       0.24475
                        -----------------------------------------
Magnitude (a.u.)       :      1.20982
Magnitude (Debye)      :      3.07512

                             ****ORCA TERMINATED NORMALLY****
TOTAL RUN TIME: 0 days 0 hours 0 minutes 6 seconds 189 msec
