                         Program Version 3.0.3 - RELEASE   -
|  1> ! RI PBE def2-SVP def2-SVP/J NBO PAL2
|  2> % maxcore 2000
|  3> % output
|  4>     # printlevel mini
|  5>     print[ P_Basis ] 0
|  6>     print[ P_SCFInfo ] 1
|  7>     print[ P_SCFIterInfo ] 1
|  8>     print[ P_OrbEn ] 0
|  9>     print[ P_Cartesian ] 0
| 10> end
| 11> *xyz 0 1
| 12>  C        0.8162970000     0.2667870000     0.1374890000
| 13>  C        2.3207310000     0.1107510000     0.2141180000
| 14>  C        2.9790170000    -0.1300950000    -1.1202760000
| 15>  O        2.3542160000    -0.4122990000    -2.1133860000
| 16>  C        4.4824550000     0.0230590000    -1.1645480000
| 17>  N        5.0468420000    -0.6184250000    -2.3125710000
| 18>  C        6.3379370000    -0.1089730000    -2.7032800000
| 19>  H        0.3887050000     0.3907320000     1.1339810000
| 20>  H        0.3603170000    -0.6064320000    -0.3299420000
| 21>  H        0.5422680000     1.1361030000    -0.4631180000
| 22>  H        2.5941380000    -0.7421790000     0.8493340000
| 23>  H        2.7984510000     0.9785900000     0.6835440000
| 24>  H        4.9177240000    -0.3642630000    -0.2340770000
| 25>  H        4.6604730000     1.1193680000    -1.1386550000
| 26>  H        4.3732850000    -0.5787900000    -3.0679010000
| 27>  H        7.0786930000    -0.3305500000    -1.9289620000
| 28>  H        6.3555820000     0.9813380000    -2.8743800000
| 29>  H        6.6661470000    -0.6039310000    -3.6189790000
| 30> *
| 31>
| 32>                          ****END OF INPUT****
 Total Charge           Charge          ....    0
 Multiplicity           Mult            ....    1
 Number of Electrons    NEL             ....   56
 Basis Dimension        Dim             ....  153

MULLIKEN ATOMIC CHARGES
-----------------------
   0 C :    0.009226
   1 C :   -0.043145
   2 C :   -0.070186
   3 O :   -0.170596
   4 C :    0.150870
   5 N :   -0.260792
   6 C :    0.066307
   7 H :    0.016494
   8 H :    0.036045
   9 H :    0.027956
  10 H :    0.049455
  11 H :    0.029520
  12 H :    0.013413
  13 H :    0.005548
  14 H :    0.104756
  15 H :    0.017494
  16 H :   -0.003578
  17 H :    0.021214
Sum of atomic charges:    0.0000000

LOEWDIN ATOMIC CHARGES
----------------------
   0 C :   -0.060433
   1 C :   -0.076610
   2 C :    0.059340
   3 O :   -0.118727
   4 C :   -0.017995
   5 N :   -0.099376
   6 C :   -0.006040
   7 H :    0.027991
   8 H :    0.033237
   9 H :    0.031196
  10 H :    0.050435
  11 H :    0.038901
  12 H :    0.027109
  13 H :    0.020272
  14 H :    0.049073
  15 H :    0.019088
  16 H :   -0.002123
  17 H :    0.024662

  Mayer bond orders larger than 0.1
B(  0-C ,  1-C ) :   1.1197 B(  0-C ,  7-H ) :   0.9571 B(  0-C ,  8-H ) :   0.9607
B(  0-C ,  9-H ) :   0.9702 B(  1-C ,  2-C ) :   0.9798 B(  1-C , 10-H ) :   0.9038
B(  1-C , 11-H ) :   0.9225 B(  2-C ,  3-O ) :   2.1581 B(  2-C ,  4-C ) :   0.9638
B(  4-C ,  5-N ) :   1.0827 B(  4-C , 12-H ) :   0.9162 B(  4-C , 13-H ) :   0.8681
B(  5-N ,  6-C ) :   1.0708 B(  5-N , 14-H ) :   0.9229 B(  6-C , 15-H ) :   0.9679
B(  6-C , 16-H ) :   0.9453 B(  6-C , 17-H ) :   0.9713

FINAL SINGLE POINT ENERGY      -326.460396933741

DIPOLE MOMENT
-------------
                                X             Y             Z
Electronic contribution:     -1.90198      -2.02753      -2.58475
Nuclear contribution   :      2.20977       2.50449       3.23950
                        -----------------------------------------
Total Dipole Moment    :      0.30779       0.47696       0.65475
                        -----------------------------------------
Magnitude (a.u.)       :      0.86656
Magnitude (Debye)      :      2.20262

                             ****ORCA TERMINATED NORMALLY****
TOTAL RUN TIME: 0 days 0 hours 0 minutes 6 seconds 836 msec
