                         Program Version 3.0.3 - RELEASE   -
|  1> ! RI PBE def2-SVP def2-SVP/J NBO PAL2
|  2> % maxcore 2000
|  3> % output
|  4>     # printlevel mini
|  5>     print[ P_Basis ] 0
|  6>     print[ P_SCFInfo ] 1
|  7>     print[ P_SCFIterInfo ] 1
|  8>     print[ P_OrbEn ] 0
|  9>     print[ P_Cartesian ] 0
| 10> end
| 11> *xyz 0 1
| 12>  C        0.8701710000    -0.0195740000    -0.6283700000
| 13>  C        2.3282540000    -0.3641790000    -0.3817130000
| 14>  C        3.0948130000     0.7785760000     0.2767310000
| 15>  O        2.5447850000     1.1137410000     1.5328450000
| 16>  C        4.5808200000     0.4826730000     0.4465540000
| 17>  N        4.7752500000    -0.5150450000     1.4833350000
| 18>  C        6.1414150000    -0.6135330000     1.9531050000
| 19>  H        0.3266010000    -0.8638380000    -1.0582710000
| 20>  H        0.7790000000     0.8227440000    -1.3202310000
| 21>  H        0.3823600000     0.2633380000     0.3059230000
| 22>  H        2.8206050000    -0.6217770000    -1.3271610000
| 23>  H        2.3871430000    -1.2513840000     0.2606650000
| 24>  H        2.9953110000     1.6679100000    -0.3579760000
| 25>  H        3.0149890000     0.5466860000     2.1622690000
| 26>  H        5.0752710000     1.3997730000     0.7815170000
| 27>  H        5.0309240000     0.2041070000    -0.5202320000
| 28>  H        4.4636180000    -1.4193690000     1.1525940000
| 29>  H        6.4306600000     0.3268970000     2.4288620000
| 30>  H        6.8719490000    -0.8233350000     1.1561510000
| 31>  H        6.2178630000    -1.4025100000     2.7038100000
| 32> *
| 33>
| 34>                          ****END OF INPUT****
 Total Charge           Charge          ....    0
 Multiplicity           Mult            ....    1
 Number of Electrons    NEL             ....   58
 Basis Dimension        Dim             ....  163

MULLIKEN ATOMIC CHARGES
-----------------------
   0 C :   -0.002556
   1 C :   -0.014443
   2 C :    0.059217
   3 O :   -0.274969
   4 C :    0.119935
   5 N :   -0.298995
   6 C :    0.073911
   7 H :    0.016582
   8 H :    0.014309
   9 H :    0.027305
  10 H :   -0.004996
  11 H :   -0.006357
  12 H :   -0.004034
  13 H :    0.136303
  14 H :    0.008664
  15 H :   -0.010133
  16 H :    0.106575
  17 H :    0.025363
  18 H :    0.000551
  19 H :    0.027768
Sum of atomic charges:   -0.0000000

LOEWDIN ATOMIC CHARGES
----------------------
   0 C :   -0.067398
   1 C :   -0.063290
   2 C :    0.035327
   3 O :   -0.117467
   4 C :    0.000976
   5 N :   -0.094558
   6 C :   -0.003566
   7 H :    0.024408
   8 H :    0.024360
   9 H :    0.027929
  10 H :    0.020766
  11 H :    0.017302
  12 H :    0.018254
  13 H :    0.043645
  14 H :    0.022976
  15 H :    0.003831
  16 H :    0.055070
  17 H :    0.023942
  18 H :    0.003016
  19 H :    0.024477

  Mayer bond orders larger than 0.1
B(  0-C ,  1-C ) :   1.1248 B(  0-C ,  7-H ) :   0.9611 B(  0-C ,  8-H ) :   0.9643
B(  0-C ,  9-H ) :   0.9559 B(  1-C ,  2-C ) :   1.0357 B(  1-C , 10-H ) :   0.9225
B(  1-C , 11-H ) :   0.9173 B(  2-C ,  3-O ) :   1.0640 B(  2-C ,  4-C ) :   1.0533
B(  2-C , 12-H ) :   0.9093 B(  3-O , 13-H ) :   0.9529 B(  4-C ,  5-N ) :   1.0204
B(  4-C , 14-H ) :   0.9259 B(  4-C , 15-H ) :   0.9152 B(  5-N ,  6-C ) :   1.0571
B(  5-N , 13-H ) :   0.1024 B(  5-N , 16-H ) :   0.9388 B(  6-C , 17-H ) :   0.9697
B(  6-C , 18-H ) :   0.9480 B(  6-C , 19-H ) :   0.9726

FINAL SINGLE POINT ENERGY      -327.652684601925

DIPOLE MOMENT
-------------
                                X             Y             Z
Electronic contribution:     -0.67291       1.92522       2.24159
Nuclear contribution   :      1.43796      -2.55982      -2.48952
                        -----------------------------------------
Total Dipole Moment    :      0.76505      -0.63460      -0.24793
                        -----------------------------------------
Magnitude (a.u.)       :      1.02444
Magnitude (Debye)      :      2.60393

                             ****ORCA TERMINATED NORMALLY****
TOTAL RUN TIME: 0 days 0 hours 0 minutes 8 seconds 716 msec
