                         Program Version 3.0.3 - RELEASE   -
|  1> ! RI PBE def2-SVP def2-SVP/J NBO PAL2
|  2> % maxcore 2000
|  3> % output
|  4>     # printlevel mini
|  5>     print[ P_Basis ] 0
|  6>     print[ P_SCFInfo ] 1
|  7>     print[ P_SCFIterInfo ] 1
|  8>     print[ P_OrbEn ] 0
|  9>     print[ P_Cartesian ] 0
| 10> end
| 11> *xyz 0 1
| 12>  C        0.0341860000    -0.0493440000     0.5877010000
| 13>  C        1.4360790000    -0.0261190000     0.0856880000
| 14>  C        2.4589910000     0.4078870000     0.8057270000
| 15>  O        3.7332160000     0.3534770000     0.3028850000
| 16>  C        4.7038810000     1.0511270000     0.9281040000
| 17>  N        4.4899420000     1.8539260000     1.8729430000
| 18>  N        5.5794110000     2.4353650000     2.4879070000
| 19>  H       -0.6260660000     0.5465480000    -0.0502440000
| 20>  H       -0.0325410000     0.3455440000     1.6034630000
| 21>  H       -0.3686180000    -1.0672030000     0.5952000000
| 22>  H        1.6288780000    -0.3887680000    -0.9204060000
| 23>  H        2.3773980000     0.8058710000     1.8102030000
| 24>  H        5.6811930000     0.8178010000     0.5016260000
| 25>  H        5.2952810000     3.3308170000     2.8569220000
| 26>  H        6.3743800000     2.5615610000     1.8661830000
| 27> *
| 28>
| 29>                          ****END OF INPUT****
 Total Charge           Charge          ....    0
 Multiplicity           Mult            ....    1
 Number of Electrons    NEL             ....   54
 Basis Dimension        Dim             ....  138

MULLIKEN ATOMIC CHARGES
-----------------------
   0 C :    0.024194
   1 C :   -0.106182
   2 C :    0.113981
   3 O :   -0.212625
   4 C :    0.139019
   5 N :   -0.180733
   6 N :   -0.063386
   7 H :    0.035883
   8 H :    0.017530
   9 H :    0.033351
  10 H :    0.004089
  11 H :    0.008200
  12 H :   -0.009871
  13 H :    0.114274
  14 H :    0.082275
Sum of atomic charges:    0.0000000

LOEWDIN ATOMIC CHARGES
----------------------
   0 C :   -0.060489
   1 C :   -0.077173
   2 C :    0.031079
   3 O :   -0.025782
   4 C :    0.006115
   5 N :   -0.097358
   6 N :   -0.013869
   7 H :    0.035229
   8 H :    0.031102
   9 H :    0.034691
  10 H :    0.027625
  11 H :    0.014418
  12 H :   -0.005861
  13 H :    0.058655
  14 H :    0.041618

  Mayer bond orders larger than 0.1
B(  0-C ,  1-C ) :   1.0971 B(  0-C ,  7-H ) :   0.9494 B(  0-C ,  8-H ) :   0.9600
B(  0-C ,  9-H ) :   0.9484 B(  1-C ,  2-C ) :   1.8499 B(  1-C , 10-H ) :   0.9526
B(  2-C ,  3-O ) :   1.0406 B(  2-C , 11-H ) :   0.9519 B(  3-O ,  4-C ) :   1.1107
B(  4-C ,  5-N ) :   1.7834 B(  4-C ,  6-N ) :   0.1118 B(  4-C , 12-H ) :   0.9494
B(  5-N ,  6-N ) :   1.0666 B(  6-N , 13-H ) :   0.9655 B(  6-N , 14-H ) :   0.9491

FINAL SINGLE POINT ENERGY      -341.231981298546

DIPOLE MOMENT
-------------
                                X             Y             Z
Electronic contribution:      5.59124       0.66012      -0.16549
Nuclear contribution   :     -5.25973      -0.17062       0.02000
                        -----------------------------------------
Total Dipole Moment    :      0.33151       0.48949      -0.14549
                        -----------------------------------------
Magnitude (a.u.)       :      0.60883
Magnitude (Debye)      :      1.54752

                             ****ORCA TERMINATED NORMALLY****
TOTAL RUN TIME: 0 days 0 hours 0 minutes 6 seconds 599 msec
