                         Program Version 3.0.3 - RELEASE   -
|  1> ! RI PBE def2-SVP def2-SVP/J NBO PAL2
|  2> % maxcore 2000
|  3> % output
|  4>     # printlevel mini
|  5>     print[ P_Basis ] 0
|  6>     print[ P_SCFInfo ] 1
|  7>     print[ P_SCFIterInfo ] 1
|  8>     print[ P_OrbEn ] 0
|  9>     print[ P_Cartesian ] 0
| 10> end
| 11> *xyz 0 1
| 12>  C        0.6248790000    -0.1077870000     1.5460920000
| 13>  C        1.9115620000     0.2777950000     0.9005810000
| 14>  C        2.8095390000     1.0995410000     1.4342140000
| 15>  O        1.9938280000    -0.3595140000    -0.3140190000
| 16>  C        2.9986170000    -0.2632710000    -1.2040070000
| 17>  N        4.0370500000     0.4395300000    -1.0862550000
| 18>  N        4.9811690000     0.3360990000    -2.0853680000
| 19>  H        0.5235660000     0.3780850000     2.5151210000
| 20>  H        0.5751130000    -1.1910310000     1.6861290000
| 21>  H       -0.2218780000     0.1782460000     0.9161870000
| 22>  H        2.5909550000     1.5174460000     2.4082740000
| 23>  H        3.7321600000     1.3562590000     0.9430130000
| 24>  H        2.7834570000    -0.9029720000    -2.0637870000
| 25>  H        5.4926240000     1.2044880000    -2.1348620000
| 26>  H        4.5875780000     0.1169640000    -2.9972240000
| 27> *
| 28>
| 29>                          ****END OF INPUT****
 Total Charge           Charge          ....    0
 Multiplicity           Mult            ....    1
 Number of Electrons    NEL             ....   54
 Basis Dimension        Dim             ....  138

MULLIKEN ATOMIC CHARGES
-----------------------
   0 C :    0.066800
   1 C :   -0.034426
   2 C :   -0.042650
   3 O :   -0.213616
   4 C :    0.132809
   5 N :   -0.157352
   6 N :   -0.063380
   7 H :    0.014818
   8 H :    0.037677
   9 H :    0.033539
  10 H :    0.004006
  11 H :    0.033566
  12 H :   -0.009544
  13 H :    0.115865
  14 H :    0.081887
Sum of atomic charges:   -0.0000000

LOEWDIN ATOMIC CHARGES
----------------------
   0 C :   -0.061078
   1 C :    0.028765
   2 C :   -0.120338
   3 O :   -0.020698
   4 C :    0.009091
   5 N :   -0.078676
   6 N :   -0.010796
   7 H :    0.035522
   8 H :    0.038661
   9 H :    0.037461
  10 H :    0.025612
  11 H :    0.022398
  12 H :   -0.005988
  13 H :    0.059365
  14 H :    0.040699

  Mayer bond orders larger than 0.1
B(  0-C ,  1-C ) :   1.0891 B(  0-C ,  7-H ) :   0.9508 B(  0-C ,  8-H ) :   0.9442
B(  0-C ,  9-H ) :   0.9443 B(  1-C ,  2-C ) :   1.9210 B(  1-C ,  3-O ) :   1.0322
B(  2-C , 10-H ) :   0.9126 B(  2-C , 11-H ) :   0.9173 B(  3-O ,  4-C ) :   1.1263
B(  4-C ,  5-N ) :   1.7802 B(  4-C ,  6-N ) :   0.1118 B(  4-C , 12-H ) :   0.9457
B(  5-N ,  6-N ) :   1.0724 B(  6-N , 13-H ) :   0.9653 B(  6-N , 14-H ) :   0.9472

FINAL SINGLE POINT ENERGY      -341.232110945334

DIPOLE MOMENT
-------------
                                X             Y             Z
Electronic contribution:      1.91803      -0.85377      -3.04791
Nuclear contribution   :     -2.05944       0.99693       2.37663
                        -----------------------------------------
Total Dipole Moment    :     -0.14140       0.14316      -0.67128
                        -----------------------------------------
Magnitude (a.u.)       :      0.70079
Magnitude (Debye)      :      1.78126

                             ****ORCA TERMINATED NORMALLY****
TOTAL RUN TIME: 0 days 0 hours 0 minutes 6 seconds 635 msec
