                         Program Version 3.0.3 - RELEASE   -
|  1> ! RI PBE def2-SVP def2-SVP/J NBO PAL2
|  2> % maxcore 2000
|  3> % output
|  4>     # printlevel mini
|  5>     print[ P_Basis ] 0
|  6>     print[ P_SCFInfo ] 1
|  7>     print[ P_SCFIterInfo ] 1
|  8>     print[ P_OrbEn ] 0
|  9>     print[ P_Cartesian ] 0
| 10> end
| 11> *xyz 0 1
| 12>  C        1.0371560000     0.0441410000     0.0594150000
| 13>  C        2.5357630000     0.0534850000     0.0432650000
| 14>  C        3.2116590000    -1.1447260000    -0.3663750000
| 15>  O        2.6747070000    -2.2016700000    -0.6421330000
| 16>  C        3.2391190000     1.1841330000     0.3726020000
| 17>  N        2.6209910000     2.3922720000     0.5373500000
| 18>  N        4.5943820000     1.2503790000     0.5979190000
| 19>  H        0.6980730000    -0.9855100000    -0.0579800000
| 20>  H        0.5977560000     0.6228380000    -0.7617030000
| 21>  H        0.6277410000     0.4277290000     1.0005320000
| 22>  H        4.3200900000    -1.0778480000    -0.4548920000
| 23>  H        1.6163640000     2.3865280000     0.5031470000
| 24>  H        3.0153870000     3.0091340000     1.2290060000
| 25>  H        5.1056360000     0.3984900000     0.4422660000
| 26>  H        5.0503770000     2.0640150000     0.2132910000
| 27> *
| 28>
| 29>                          ****END OF INPUT****
 Total Charge           Charge          ....    0
 Multiplicity           Mult            ....    1
 Number of Electrons    NEL             ....   54
 Basis Dimension        Dim             ....  138

MULLIKEN ATOMIC CHARGES
-----------------------
   0 C :    0.035118
   1 C :   -0.125548
   2 C :    0.058340
   3 O :   -0.213566
   4 C :   -0.092239
   5 N :   -0.051028
   6 N :   -0.053963
   7 H :    0.025574
   8 H :    0.027507
   9 H :    0.012917
  10 H :   -0.067873
  11 H :    0.108803
  12 H :    0.113835
  13 H :    0.105424
  14 H :    0.116700
Sum of atomic charges:   -0.0000000

LOEWDIN ATOMIC CHARGES
----------------------
   0 C :   -0.062845
   1 C :   -0.190293
   2 C :    0.033615
   3 O :   -0.170743
   4 C :    0.050938
   5 N :    0.007046
   6 N :   -0.006747
   7 H :    0.038233
   8 H :    0.026675
   9 H :    0.021809
  10 H :   -0.029188
  11 H :    0.075136
  12 H :    0.070337
  13 H :    0.064886
  14 H :    0.071141

  Mayer bond orders larger than 0.1
B(  0-C ,  1-C ) :   1.0946 B(  0-C ,  7-H ) :   0.9173 B(  0-C ,  8-H ) :   0.9508
B(  0-C ,  9-H ) :   0.9499 B(  1-C ,  2-C ) :   1.1194 B(  1-C ,  4-C ) :   1.4090
B(  2-C ,  3-O ) :   2.0381 B(  2-C , 10-H ) :   0.9253 B(  4-C ,  5-N ) :   1.2991
B(  4-C ,  6-N ) :   1.2805 B(  5-N , 11-H ) :   0.9356 B(  5-N , 12-H ) :   0.9398
B(  6-N , 13-H ) :   0.9371 B(  6-N , 14-H ) :   0.9400

FINAL SINGLE POINT ENERGY      -341.302369251578

DIPOLE MOMENT
-------------
                                X             Y             Z
Electronic contribution:      2.23388      -2.39397      -0.70833
Nuclear contribution   :     -1.66159       4.57847       1.29773
                        -----------------------------------------
Total Dipole Moment    :      0.57229       2.18450       0.58939
                        -----------------------------------------
Magnitude (a.u.)       :      2.33387
Magnitude (Debye)      :      5.93222

                             ****ORCA TERMINATED NORMALLY****
TOTAL RUN TIME: 0 days 0 hours 0 minutes 6 seconds 856 msec
