                         Program Version 3.0.3 - RELEASE   -
|  1> ! RI PBE def2-SVP def2-SVP/J NBO PAL2
|  2> % maxcore 2000
|  3> % output
|  4>     # printlevel mini
|  5>     print[ P_Basis ] 0
|  6>     print[ P_SCFInfo ] 1
|  7>     print[ P_SCFIterInfo ] 1
|  8>     print[ P_OrbEn ] 0
|  9>     print[ P_Cartesian ] 0
| 10> end
| 11> *xyz 0 1
| 12>  C        1.0154570000    -0.0121960000     0.0734030000
| 13>  C        2.5324810000    -0.0991300000     0.1200480000
| 14>  C        3.1859910000     1.2636370000     0.2232810000
| 15>  O        2.5850100000     2.2972510000     0.3156870000
| 16>  C        3.0644740000    -0.9724670000     1.2484980000
| 17>  N        2.8001600000    -0.4820390000     2.4955350000
| 18>  N        3.7466710000    -2.0377910000     1.1140000000
| 19>  H        0.6968970000     0.5518410000    -0.8041730000
| 20>  H        0.6124900000     0.5097880000     0.9428740000
| 21>  H        0.5751410000    -1.0093750000     0.0294590000
| 22>  H        2.9096400000    -0.5449530000    -0.8077940000
| 23>  H        4.2958800000     1.2447990000     0.2119940000
| 24>  H        2.0516500000     0.1749390000     2.6219420000
| 25>  H        3.0031000000    -1.0947380000     3.2675820000
| 26>  H        3.9072680000    -2.2450640000     0.1343530000
| 27> *
| 28>
| 29>                          ****END OF INPUT****
 Total Charge           Charge          ....    0
 Multiplicity           Mult            ....    1
 Number of Electrons    NEL             ....   54
 Basis Dimension        Dim             ....  138

MULLIKEN ATOMIC CHARGES
-----------------------
   0 C :    0.041283
   1 C :   -0.059413
   2 C :    0.113558
   3 O :   -0.149272
   4 C :   -0.218346
   5 N :   -0.034223
   6 N :   -0.092758
   7 H :    0.034999
   8 H :    0.025753
   9 H :    0.028813
  10 H :    0.008693
  11 H :   -0.002919
  12 H :    0.107207
  13 H :    0.117733
  14 H :    0.078892
Sum of atomic charges:   -0.0000000

LOEWDIN ATOMIC CHARGES
----------------------
   0 C :   -0.050162
   1 C :   -0.101908
   2 C :    0.092241
   3 O :   -0.103501
   4 C :    0.001979
   5 N :    0.010992
   6 N :   -0.170816
   7 H :    0.036406
   8 H :    0.026042
   9 H :    0.032942
  10 H :    0.045295
  11 H :   -0.005056
  12 H :    0.067917
  13 H :    0.074993
  14 H :    0.042637

  Mayer bond orders larger than 0.1
B(  0-C ,  1-C ) :   1.0683 B(  0-C ,  7-H ) :   0.9538 B(  0-C ,  8-H ) :   0.9560
B(  0-C ,  9-H ) :   0.9595 B(  1-C ,  2-C ) :   0.9083 B(  1-C ,  4-C ) :   0.9420
B(  1-C , 10-H ) :   0.8644 B(  2-C ,  3-O ) :   2.1912 B(  2-C , 11-H ) :   0.9346
B(  4-C ,  5-N ) :   1.2438 B(  4-C ,  6-N ) :   1.9602 B(  5-N , 12-H ) :   0.9400
B(  5-N , 13-H ) :   0.9420 B(  6-N , 14-H ) :   0.9216

FINAL SINGLE POINT ENERGY      -341.290771851516

DIPOLE MOMENT
-------------
                                X             Y             Z
Electronic contribution:      2.75821       2.13412       0.77416
Nuclear contribution   :     -3.21998      -2.33275      -0.83703
                        -----------------------------------------
Total Dipole Moment    :     -0.46177      -0.19863      -0.06286
                        -----------------------------------------
Magnitude (a.u.)       :      0.50659
Magnitude (Debye)      :      1.28766

                             ****ORCA TERMINATED NORMALLY****
TOTAL RUN TIME: 0 days 0 hours 0 minutes 7 seconds 76 msec
