                         Program Version 3.0.3 - RELEASE   -
|  1> ! RI PBE def2-SVP def2-SVP/J NBO PAL2
|  2> % maxcore 2000
|  3> % output
|  4>     # printlevel mini
|  5>     print[ P_Basis ] 0
|  6>     print[ P_SCFInfo ] 1
|  7>     print[ P_SCFIterInfo ] 1
|  8>     print[ P_OrbEn ] 0
|  9>     print[ P_Cartesian ] 0
| 10> end
| 11> *xyz 0 1
| 12>  C        1.0220690000    -0.1224190000     0.0333850000
| 13>  C        2.5437220000    -0.0108470000     0.1125910000
| 14>  C        2.9702170000     0.8054770000     1.3194640000
| 15>  O        3.1143310000    -1.3194140000     0.1649150000
| 16>  C        3.0629090000     0.5627550000    -1.1762630000
| 17>  N        3.4654830000     1.7576370000    -1.2682180000
| 18>  N        3.8172450000     2.2352250000    -2.4915910000
| 19>  H        0.6307760000    -0.6126480000     0.9310920000
| 20>  H        0.7270530000    -0.7139720000    -0.8358870000
| 21>  H        0.5625690000     0.8650370000    -0.0421780000
| 22>  H        2.5702050000     0.3535600000     2.2321560000
| 23>  H        2.6042790000     1.8301020000     1.2501220000
| 24>  H        4.0579720000     0.8340070000     1.3877120000
| 25>  H        2.7469590000    -1.7689490000     0.9312160000
| 26>  H        3.0417240000    -0.1187440000    -2.0367580000
| 27>  H        4.4871560000     2.9821230000    -2.3986500000
| 28>  H        4.1207300000     1.5291810000    -3.1568980000
| 29> *
| 30>
| 31>                          ****END OF INPUT****
 Total Charge           Charge          ....    0
 Multiplicity           Mult            ....    1
 Number of Electrons    NEL             ....   56
 Basis Dimension        Dim             ....  148

MULLIKEN ATOMIC CHARGES
-----------------------
   0 C :    0.061267
   1 C :   -0.108805
   2 C :    0.090673
   3 O :   -0.266285
   4 C :   -0.014653
   5 N :   -0.107533
   6 N :   -0.048903
   7 H :    0.002452
   8 H :    0.016854
   9 H :    0.021874
  10 H :   -0.007790
  11 H :    0.019208
  12 H :    0.018426
  13 H :    0.147678
  14 H :   -0.024753
  15 H :    0.114749
  16 H :    0.085541
Sum of atomic charges:   -0.0000000

LOEWDIN ATOMIC CHARGES
----------------------
   0 C :   -0.062258
   1 C :    0.003517
   2 C :   -0.062399
   3 O :   -0.110904
   4 C :   -0.042461
   5 N :   -0.040681
   6 N :    0.002546
   7 H :    0.019886
   8 H :    0.026180
   9 H :    0.031591
  10 H :    0.017985
  11 H :    0.031126
  12 H :    0.028935
  13 H :    0.063000
  14 H :   -0.005899
  15 H :    0.059001
  16 H :    0.040837

  Mayer bond orders larger than 0.1
B(  0-C ,  1-C ) :   1.0506 B(  0-C ,  7-H ) :   0.9469 B(  0-C ,  8-H ) :   0.9530
B(  0-C ,  9-H ) :   0.9498 B(  1-C ,  2-C ) :   1.0939 B(  1-C ,  3-O ) :   1.0127
B(  1-C ,  4-C ) :   0.9589 B(  2-C , 10-H ) :   0.9452 B(  2-C , 11-H ) :   0.9344
B(  2-C , 12-H ) :   0.9494 B(  3-O , 13-H ) :   0.9807 B(  4-C ,  5-N ) :   1.9172
B(  4-C ,  6-N ) :   0.1293 B(  4-C , 14-H ) :   0.9324 B(  5-N ,  6-N ) :   1.1054
B(  6-N , 15-H ) :   0.9637 B(  6-N , 16-H ) :   0.9426

FINAL SINGLE POINT ENERGY      -342.451036629998

DIPOLE MOMENT
-------------
                                X             Y             Z
Electronic contribution:      2.99765       0.14156      -2.90708
Nuclear contribution   :     -2.92053      -0.19226       2.80025
                        -----------------------------------------
Total Dipole Moment    :      0.07712      -0.05070      -0.10682
                        -----------------------------------------
Magnitude (a.u.)       :      0.14117
Magnitude (Debye)      :      0.35883

                             ****ORCA TERMINATED NORMALLY****
TOTAL RUN TIME: 0 days 0 hours 0 minutes 7 seconds 936 msec
