                         Program Version 3.0.3 - RELEASE   -
|  1> ! RI PBE def2-SVP def2-SVP/J NBO PAL2
|  2> % maxcore 2000
|  3> % output
|  4>     # printlevel mini
|  5>     print[ P_Basis ] 0
|  6>     print[ P_SCFInfo ] 1
|  7>     print[ P_SCFIterInfo ] 1
|  8>     print[ P_OrbEn ] 0
|  9>     print[ P_Cartesian ] 0
| 10> end
| 11> *xyz 0 1
| 12>  C        0.8264260000     0.1488840000     0.0864440000
| 13>  C        2.3486880000     0.1329670000     0.0736400000
| 14>  C        2.9236780000     0.7955930000     1.3212300000
| 15>  O        2.7063550000    -1.2368280000     0.0594170000
| 16>  C        2.8642900000     0.8109720000    -1.2068370000
| 17>  N        2.7871410000     2.1809500000    -1.2216500000
| 18>  N        3.3668140000     0.1939270000    -2.1962560000
| 19>  H        0.4644480000    -0.3538420000     0.9851740000
| 20>  H        0.4416120000    -0.3786480000    -0.7875390000
| 21>  H        0.4339330000     1.1673140000     0.0783030000
| 22>  H        2.5887130000     0.2465140000     2.2035760000
| 23>  H        2.6091820000     1.8350030000     1.4234350000
| 24>  H        4.0169850000     0.7876850000     1.2943940000
| 25>  H        3.6563150000    -1.3009230000     0.1995260000
| 26>  H        2.0956570000     2.6300910000    -0.6486050000
| 27>  H        2.9291770000     2.5949100000    -2.1290700000
| 28>  H        3.3644760000    -0.8044600000    -2.0045730000
| 29> *
| 30>
| 31>                          ****END OF INPUT****
 Total Charge           Charge          ....    0
 Multiplicity           Mult            ....    1
 Number of Electrons    NEL             ....   56
 Basis Dimension        Dim             ....  148

MULLIKEN ATOMIC CHARGES
-----------------------
   0 C :    0.087131
   1 C :   -0.097914
   2 C :    0.061952
   3 O :   -0.248241
   4 C :   -0.213489
   5 N :   -0.044196
   6 N :   -0.078156
   7 H :    0.026369
   8 H :    0.028803
   9 H :    0.000759
  10 H :    0.024114
  11 H :    0.005922
  12 H :    0.021574
  13 H :    0.149264
  14 H :    0.100178
  15 H :    0.111327
  16 H :    0.064604
Sum of atomic charges:   -0.0000000

LOEWDIN ATOMIC CHARGES
----------------------
   0 C :   -0.050063
   1 C :   -0.007213
   2 C :   -0.064074
   3 O :   -0.086660
   4 C :   -0.015324
   5 N :   -0.005333
   6 N :   -0.171656
   7 H :    0.030957
   8 H :    0.035021
   9 H :    0.021764
  10 H :    0.028764
  11 H :    0.025523
  12 H :    0.029220
  13 H :    0.065469
  14 H :    0.060244
  15 H :    0.070811
  16 H :    0.032549

  Mayer bond orders larger than 0.1
B(  0-C ,  1-C ) :   1.0421 B(  0-C ,  7-H ) :   0.9549 B(  0-C ,  8-H ) :   0.9500
B(  0-C ,  9-H ) :   0.9523 B(  1-C ,  2-C ) :   1.0699 B(  1-C ,  3-O ) :   1.0376
B(  1-C ,  4-C ) :   0.8650 B(  2-C , 10-H ) :   0.9522 B(  2-C , 11-H ) :   0.9389
B(  2-C , 12-H ) :   0.9510 B(  3-O , 13-H ) :   0.9737 B(  4-C ,  5-N ) :   1.2309
B(  4-C ,  6-N ) :   2.0344 B(  5-N , 14-H ) :   0.9474 B(  5-N , 15-H ) :   0.9345
B(  6-N , 16-H ) :   0.8991

FINAL SINGLE POINT ENERGY      -342.494793591339

DIPOLE MOMENT
-------------
                                X             Y             Z
Electronic contribution:      2.35319      -1.48178      -3.68253
Nuclear contribution   :     -2.66469       2.09442       4.52001
                        -----------------------------------------
Total Dipole Moment    :     -0.31149       0.61264       0.83748
                        -----------------------------------------
Magnitude (a.u.)       :      1.08339
Magnitude (Debye)      :      2.75375

                             ****ORCA TERMINATED NORMALLY****
TOTAL RUN TIME: 0 days 0 hours 0 minutes 7 seconds 953 msec
