                         Program Version 3.0.3 - RELEASE   -
|  1> ! RI PBE def2-SVP def2-SVP/J NBO PAL2
|  2> % maxcore 2000
|  3> % output
|  4>     # printlevel mini
|  5>     print[ P_Basis ] 0
|  6>     print[ P_SCFInfo ] 1
|  7>     print[ P_SCFIterInfo ] 1
|  8>     print[ P_OrbEn ] 0
|  9>     print[ P_Cartesian ] 0
| 10> end
| 11> *xyz 0 1
| 12>  C        0.8814390000    -0.4541670000    -0.1407730000
| 13>  C        2.3565400000    -0.4339500000    -0.4834270000
| 14>  C        2.6735010000    -1.1706610000    -1.7637860000
| 15>  O        2.8028700000     0.9179160000    -0.6831070000
| 16>  C        3.0699500000     1.6524590000     0.4027880000
| 17>  N        2.9711370000     1.2313980000     1.5874030000
| 18>  N        3.2292190000     2.1332050000     2.6084760000
| 19>  H        0.5463460000    -1.4838480000     0.0049790000
| 20>  H        0.2967210000    -0.0144530000    -0.9527970000
| 21>  H        0.6899570000     0.1009490000     0.7774000000
| 22>  H        2.9296530000    -0.8526380000     0.3495980000
| 23>  H        2.1366260000    -0.7260920000    -2.6053390000
| 24>  H        2.3721470000    -2.2167360000    -1.6785050000
| 25>  H        3.7427160000    -1.1351300000    -1.9794080000
| 26>  H        3.3846810000     2.6625660000     0.1263240000
| 27>  H        3.5411710000     1.6104290000     3.4138240000
| 28>  H        3.9426350000     2.8156630000     2.3633500000
| 29> *
| 30>
| 31>                          ****END OF INPUT****
 Total Charge           Charge          ....    0
 Multiplicity           Mult            ....    1
 Number of Electrons    NEL             ....   56
 Basis Dimension        Dim             ....  148

MULLIKEN ATOMIC CHARGES
-----------------------
   0 C :    0.013189
   1 C :    0.032189
   2 C :    0.018059
   3 O :   -0.262211
   4 C :    0.132011
   5 N :   -0.193640
   6 N :   -0.067408
   7 H :    0.017379
   8 H :    0.017195
   9 H :    0.034304
  10 H :    0.014345
  11 H :    0.020733
  12 H :    0.021259
  13 H :    0.027587
  14 H :   -0.011348
  15 H :    0.108448
  16 H :    0.077909
Sum of atomic charges:   -0.0000000

LOEWDIN ATOMIC CHARGES
----------------------
   0 C :   -0.069138
   1 C :    0.056957
   2 C :   -0.066760
   3 O :   -0.068698
   4 C :    0.003701
   5 N :   -0.112886
   6 N :   -0.023185
   7 H :    0.030945
   8 H :    0.026212
   9 H :    0.031526
  10 H :    0.014813
  11 H :    0.028568
  12 H :    0.032030
  13 H :    0.029508
  14 H :   -0.007914
  15 H :    0.055473
  16 H :    0.038847

  Mayer bond orders larger than 0.1
B(  0-C ,  1-C ) :   1.1062 B(  0-C ,  7-H ) :   0.9565 B(  0-C ,  8-H ) :   0.9530
B(  0-C ,  9-H ) :   0.9483 B(  1-C ,  2-C ) :   1.0871 B(  1-C ,  3-O ) :   0.9157
B(  1-C , 10-H ) :   0.9121 B(  2-C , 11-H ) :   0.9535 B(  2-C , 12-H ) :   0.9574
B(  2-C , 13-H ) :   0.9586 B(  3-O ,  4-C ) :   1.1670 B(  4-C ,  5-N ) :   1.7547
B(  4-C ,  6-N ) :   0.1035 B(  4-C , 14-H ) :   0.9436 B(  5-N ,  6-N ) :   1.0511
B(  6-N , 15-H ) :   0.9674 B(  6-N , 16-H ) :   0.9506

FINAL SINGLE POINT ENERGY      -342.453461311356

DIPOLE MOMENT
-------------
                                X             Y             Z
Electronic contribution:      2.55070       4.53055       2.48414
Nuclear contribution   :     -2.05515      -4.56883      -2.35007
                        -----------------------------------------
Total Dipole Moment    :      0.49555      -0.03828       0.13406
                        -----------------------------------------
Magnitude (a.u.)       :      0.51479
Magnitude (Debye)      :      1.30849

                             ****ORCA TERMINATED NORMALLY****
TOTAL RUN TIME: 0 days 0 hours 0 minutes 7 seconds 780 msec
