                         Program Version 3.0.3 - RELEASE   -
|  1> ! RI PBE def2-SVP def2-SVP/J NBO PAL2
|  2> % maxcore 2000
|  3> % output
|  4>     # printlevel mini
|  5>     print[ P_Basis ] 0
|  6>     print[ P_SCFInfo ] 1
|  7>     print[ P_SCFIterInfo ] 1
|  8>     print[ P_OrbEn ] 0
|  9>     print[ P_Cartesian ] 0
| 10> end
| 11> *xyz 0 1
| 12>  C        0.9403070000     0.5223110000    -0.5001650000
| 13>  C        2.3196460000     0.3809470000     0.1129080000
| 14>  C        2.9206260000     1.7116450000     0.5051780000
| 15>  O        2.2575240000    -0.3971800000     1.3083220000
| 16>  C        2.1959530000    -1.7471380000     1.2125950000
| 17>  N        2.0213940000    -2.2724120000     2.4643460000
| 18>  N        2.2535580000    -2.4900960000     0.1855870000
| 19>  H        0.9958550000     1.0973390000    -1.4272990000
| 20>  H        0.2755330000     1.0458510000     0.1908760000
| 21>  H        0.5027050000    -0.4513910000    -0.7259050000
| 22>  H        2.9959370000    -0.1181040000    -0.5921920000
| 23>  H        2.2850290000     2.2152820000     1.2370520000
| 24>  H        3.0126020000     2.3553560000    -0.3717790000
| 25>  H        3.9113470000     1.5761570000     0.9416970000
| 26>  H        2.3385050000    -1.7070510000     3.2324610000
| 27>  H        2.2099030000    -3.2576510000     2.5272450000
| 28>  H        2.3193950000    -1.9661620000    -0.6770480000
| 29> *
| 30>
| 31>                          ****END OF INPUT****
 Total Charge           Charge          ....    0
 Multiplicity           Mult            ....    1
 Number of Electrons    NEL             ....   56
 Basis Dimension        Dim             ....  148

MULLIKEN ATOMIC CHARGES
-----------------------
   0 C :    0.014577
   1 C :    0.004764
   2 C :    0.014747
   3 O :   -0.260558
   4 C :   -0.048849
   5 N :   -0.074787
   6 N :   -0.130073
   7 H :    0.025328
   8 H :    0.028161
   9 H :    0.026835
  10 H :    0.010379
  11 H :    0.030263
  12 H :    0.025328
  13 H :    0.028585
  14 H :    0.112701
  15 H :    0.119248
  16 H :    0.073353
Sum of atomic charges:    0.0000000

LOEWDIN ATOMIC CHARGES
----------------------
   0 C :   -0.072582
   1 C :    0.049787
   2 C :   -0.064915
   3 O :   -0.089944
   4 C :    0.023935
   5 N :   -0.012805
   6 N :   -0.212590
   7 H :    0.033243
   8 H :    0.031780
   9 H :    0.029463
  10 H :    0.009361
  11 H :    0.030986
  12 H :    0.033431
  13 H :    0.031286
  14 H :    0.068094
  15 H :    0.075340
  16 H :    0.036127

  Mayer bond orders larger than 0.1
B(  0-C ,  1-C ) :   1.1008 B(  0-C ,  7-H ) :   0.9545 B(  0-C ,  8-H ) :   0.9504
B(  0-C ,  9-H ) :   0.9481 B(  1-C ,  2-C ) :   1.0961 B(  1-C ,  3-O ) :   0.9331
B(  1-C , 10-H ) :   0.9092 B(  2-C , 11-H ) :   0.9557 B(  2-C , 12-H ) :   0.9550
B(  2-C , 13-H ) :   0.9546 B(  3-O ,  4-C ) :   1.1546 B(  4-C ,  5-N ) :   1.2004
B(  4-C ,  6-N ) :   1.9123 B(  5-N , 14-H ) :   0.9449 B(  5-N , 15-H ) :   0.9502
B(  6-N , 16-H ) :   0.9368

FINAL SINGLE POINT ENERGY      -342.500735756231

DIPOLE MOMENT
-------------
                                X             Y             Z
Electronic contribution:      0.69949      -5.61565       3.34873
Nuclear contribution   :     -0.42962       6.40502      -3.12018
                        -----------------------------------------
Total Dipole Moment    :      0.26987       0.78937       0.22854
                        -----------------------------------------
Magnitude (a.u.)       :      0.86497
Magnitude (Debye)      :      2.19858

                             ****ORCA TERMINATED NORMALLY****
TOTAL RUN TIME: 0 days 0 hours 0 minutes 7 seconds 686 msec
