                         Program Version 3.0.3 - RELEASE   -
|  1> ! RI PBE def2-SVP def2-SVP/J NBO PAL2
|  2> % maxcore 2000
|  3> % output
|  4>     # printlevel mini
|  5>     print[ P_Basis ] 0
|  6>     print[ P_SCFInfo ] 1
|  7>     print[ P_SCFIterInfo ] 1
|  8>     print[ P_OrbEn ] 0
|  9>     print[ P_Cartesian ] 0
| 10> end
| 11> *xyz 0 1
| 12>  C        1.4473550000     0.4210440000    -0.2307870000
| 13>  C        2.6967960000    -0.3894150000     0.1116030000
| 14>  C        3.0382000000    -0.3033090000     1.5907460000
| 15>  O        1.9146360000    -0.6716430000     2.3704280000
| 16>  C        2.5661980000    -1.8198810000    -0.3874640000
| 17>  N        3.0465650000    -2.0067460000    -1.6628330000
| 18>  N        2.0897380000    -2.8089230000     0.2534720000
| 19>  H        1.5747610000     1.4668020000     0.0603600000
| 20>  H        0.5789980000     0.0244580000     0.2952270000
| 21>  H        1.2401200000     0.3913980000    -1.3027550000
| 22>  H        3.5540330000     0.0564970000    -0.4079850000
| 23>  H        3.3350620000     0.7302620000     1.8172580000
| 24>  H        3.8924600000    -0.9581440000     1.8036060000
| 25>  H        2.1725640000    -0.6797670000     3.2945690000
| 26>  H        3.1011280000    -1.2107280000    -2.2734410000
| 27>  H        2.7652170000    -2.8708460000    -2.0977700000
| 28>  H        1.8083870000    -2.5182480000     1.1847860000
| 29> *
| 30>
| 31>                          ****END OF INPUT****
 Total Charge           Charge          ....    0
 Multiplicity           Mult            ....    1
 Number of Electrons    NEL             ....   56
 Basis Dimension        Dim             ....  148

MULLIKEN ATOMIC CHARGES
-----------------------
   0 C :    0.046234
   1 C :   -0.104083
   2 C :    0.174538
   3 O :   -0.271425
   4 C :   -0.192063
   5 N :   -0.050035
   6 N :   -0.109174
   7 H :    0.018126
   8 H :    0.036485
   9 H :    0.009975
  10 H :   -0.002296
  11 H :   -0.006240
  12 H :    0.011952
  13 H :    0.161744
  14 H :    0.097461
  15 H :    0.105625
  16 H :    0.073175
Sum of atomic charges:   -0.0000000

LOEWDIN ATOMIC CHARGES
----------------------
   0 C :   -0.050239
   1 C :   -0.076175
   2 C :    0.065181
   3 O :   -0.114324
   4 C :    0.003807
   5 N :   -0.009297
   6 N :   -0.179727
   7 H :    0.026301
   8 H :    0.032400
   9 H :    0.021903
  10 H :    0.029234
  11 H :    0.006241
  12 H :    0.010465
  13 H :    0.075692
  14 H :    0.061939
  15 H :    0.066461
  16 H :    0.030138

  Mayer bond orders larger than 0.1
B(  0-C ,  1-C ) :   1.0685 B(  0-C ,  7-H ) :   0.9597 B(  0-C ,  8-H ) :   0.9562
B(  0-C ,  9-H ) :   0.9569 B(  1-C ,  2-C ) :   1.0724 B(  1-C ,  4-C ) :   0.9391
B(  1-C , 10-H ) :   0.8881 B(  2-C ,  3-O ) :   1.0599 B(  2-C , 11-H ) :   0.9233
B(  2-C , 12-H ) :   0.9387 B(  3-O , 13-H ) :   0.9759 B(  4-C ,  5-N ) :   1.2312
B(  4-C ,  6-N ) :   2.0072 B(  5-N , 14-H ) :   0.9442 B(  5-N , 15-H ) :   0.9423
B(  6-N , 16-H ) :   0.9159

FINAL SINGLE POINT ENERGY      -342.485763020903

DIPOLE MOMENT
-------------
                                X             Y             Z
Electronic contribution:      0.34543      -3.68793       0.85106
Nuclear contribution   :      0.13091       4.77304      -0.84019
                        -----------------------------------------
Total Dipole Moment    :      0.47634       1.08511       0.01088
                        -----------------------------------------
Magnitude (a.u.)       :      1.18511
Magnitude (Debye)      :      3.01230

                             ****ORCA TERMINATED NORMALLY****
TOTAL RUN TIME: 0 days 0 hours 0 minutes 8 seconds 102 msec
