                         Program Version 3.0.3 - RELEASE   -
|  1> ! RI PBE def2-SVP def2-SVP/J NBO PAL2
|  2> % maxcore 2000
|  3> % output
|  4>     # printlevel mini
|  5>     print[ P_Basis ] 0
|  6>     print[ P_SCFInfo ] 1
|  7>     print[ P_SCFIterInfo ] 1
|  8>     print[ P_OrbEn ] 0
|  9>     print[ P_Cartesian ] 0
| 10> end
| 11> *xyz 0 1
| 12>  C        1.3519720000    -0.1817910000    -0.1296510000
| 13>  C        2.8484080000    -0.2593380000     0.0903250000
| 14>  C        3.4448650000     1.0421900000     0.5523270000
| 15>  O        2.7809820000     2.0356330000     0.7240490000
| 16>  C        4.9483340000     1.0943660000     0.8097150000
| 17>  N        5.3504930000     2.3142530000     1.2172370000
| 18>  N        5.7564370000     0.1166990000     0.6656070000
| 19>  H        0.9644330000    -1.1457810000    -0.4630730000
| 20>  H        1.1052960000     0.5683520000    -0.8822170000
| 21>  H        0.8352740000     0.0988190000     0.7891520000
| 22>  H        3.3677950000    -0.5607420000    -0.8272280000
| 23>  H        3.0997180000    -1.0268880000     0.8320930000
| 24>  H        4.6661560000     3.0425930000     1.3113560000
| 25>  H        6.3191960000     2.4762420000     1.4191760000
| 26>  H        5.2700410000    -0.7158960000     0.3532330000
| 27> *
| 28>
| 29>                          ****END OF INPUT****
 Total Charge           Charge          ....    0
 Multiplicity           Mult            ....    1
 Number of Electrons    NEL             ....   54
 Basis Dimension        Dim             ....  138

MULLIKEN ATOMIC CHARGES
-----------------------
   0 C :    0.024117
   1 C :   -0.102586
   2 C :    0.028181
   3 O :   -0.154821
   4 C :   -0.214947
   5 N :   -0.001228
   6 N :   -0.062193
   7 H :    0.017623
   8 H :    0.032114
   9 H :    0.032317
  10 H :    0.052885
  11 H :    0.054106
  12 H :    0.108671
  13 H :    0.111915
  14 H :    0.073847
Sum of atomic charges:    0.0000000

LOEWDIN ATOMIC CHARGES
----------------------
   0 C :   -0.057909
   1 C :   -0.082664
   2 C :    0.048558
   3 O :   -0.109625
   4 C :   -0.041651
   5 N :    0.030124
   6 N :   -0.158500
   7 H :    0.029315
   8 H :    0.032803
   9 H :    0.033136
  10 H :    0.048231
  11 H :    0.047897
  12 H :    0.067606
  13 H :    0.073745
  14 H :    0.038935

  Mayer bond orders larger than 0.1
B(  0-C ,  1-C ) :   1.1283 B(  0-C ,  7-H ) :   0.9549 B(  0-C ,  8-H ) :   0.9623
B(  0-C ,  9-H ) :   0.9615 B(  1-C ,  2-C ) :   0.9955 B(  1-C , 10-H ) :   0.9048
B(  1-C , 11-H ) :   0.9078 B(  2-C ,  3-O ) :   2.1766 B(  2-C ,  4-C ) :   0.8400
B(  4-C ,  5-N ) :   1.3534 B(  4-C ,  6-N ) :   1.9373 B(  5-N ,  6-N ) :   0.1315
B(  5-N , 12-H ) :   0.9116 B(  5-N , 13-H ) :   0.9360 B(  6-N , 14-H ) :   0.9197

FINAL SINGLE POINT ENERGY      -341.303878648926

DIPOLE MOMENT
-------------
                                X             Y             Z
Electronic contribution:      3.94394       4.05438       1.77879
Nuclear contribution   :     -4.22477      -4.13941      -1.84524
                        -----------------------------------------
Total Dipole Moment    :     -0.28082      -0.08502      -0.06645
                        -----------------------------------------
Magnitude (a.u.)       :      0.30084
Magnitude (Debye)      :      0.76468

                             ****ORCA TERMINATED NORMALLY****
TOTAL RUN TIME: 0 days 0 hours 0 minutes 6 seconds 893 msec
