                         Program Version 3.0.3 - RELEASE   -
|  1> ! RI PBE def2-SVP def2-SVP/J NBO PAL2
|  2> % maxcore 2000
|  3> % output
|  4>     # printlevel mini
|  5>     print[ P_Basis ] 0
|  6>     print[ P_SCFInfo ] 1
|  7>     print[ P_SCFIterInfo ] 1
|  8>     print[ P_OrbEn ] 0
|  9>     print[ P_Cartesian ] 0
| 10> end
| 11> *xyz 0 1
| 12>  C        3.1193730000     1.5833530000     0.5375460000
| 13>  C        2.9054610000     0.1926540000    -0.0353780000
| 14>  C        3.2660060000    -0.9447070000     0.9204210000
| 15>  O        2.8183590000    -2.1640300000     0.3953720000
| 16>  C        4.7345690000    -0.9977560000     1.2211820000
| 17>  N        5.3707570000    -2.0647690000     0.9805050000
| 18>  N        6.7150640000    -2.1169000000     1.1738640000
| 19>  H        2.7618010000     2.3476730000    -0.1553520000
| 20>  H        4.1739530000     1.7943610000     0.7323150000
| 21>  H        2.5753000000     1.7134250000     1.4778530000
| 22>  H        3.4744880000     0.0589970000    -0.9607970000
| 23>  H        1.8519140000     0.0540860000    -0.2938020000
| 24>  H        2.7442710000    -0.7511030000     1.8745350000
| 25>  H        3.5938880000    -2.7432960000     0.3642010000
| 26>  H        5.2175450000    -0.1094930000     1.6410560000
| 27>  H        7.0101000000    -3.0645070000     1.3487040000
| 28>  H        7.0706820000    -1.4730770000     1.8740840000
| 29> *
| 30>
| 31>                          ****END OF INPUT****
 Total Charge           Charge          ....    0
 Multiplicity           Mult            ....    1
 Number of Electrons    NEL             ....   56
 Basis Dimension        Dim             ....  148

MULLIKEN ATOMIC CHARGES
-----------------------
   0 C :   -0.042349
   1 C :   -0.003983
   2 C :    0.127934
   3 O :   -0.250245
   4 C :   -0.055685
   5 N :   -0.157183
   6 N :   -0.044767
   7 H :    0.026692
   8 H :    0.019225
   9 H :    0.018099
  10 H :    0.008293
  11 H :    0.022619
  12 H :   -0.003551
  13 H :    0.139992
  14 H :   -0.013088
  15 H :    0.118164
  16 H :    0.089831
Sum of atomic charges:   -0.0000000

LOEWDIN ATOMIC CHARGES
----------------------
   0 C :   -0.070932
   1 C :   -0.051806
   2 C :    0.034518
   3 O :   -0.112264
   4 C :   -0.051287
   5 N :   -0.048046
   6 N :    0.004624
   7 H :    0.031281
   8 H :    0.020437
   9 H :    0.024506
  10 H :    0.023853
  11 H :    0.030205
  12 H :    0.015221
  13 H :    0.045709
  14 H :   -0.002156
  15 H :    0.061340
  16 H :    0.044797

  Mayer bond orders larger than 0.1
B(  0-C ,  1-C ) :   1.0921 B(  0-C ,  7-H ) :   0.9567 B(  0-C ,  8-H ) :   0.9635
B(  0-C ,  9-H ) :   0.9635 B(  1-C ,  2-C ) :   1.0190 B(  1-C , 10-H ) :   0.9274
B(  1-C , 11-H ) :   0.9317 B(  2-C ,  3-O ) :   1.1730 B(  2-C ,  4-C ) :   0.9922
B(  2-C , 12-H ) :   0.8904 B(  3-O , 13-H ) :   0.9438 B(  4-C ,  5-N ) :   1.8577
B(  4-C ,  6-N ) :   0.1246 B(  4-C , 14-H ) :   0.9334 B(  5-N ,  6-N ) :   1.1191
B(  5-N , 13-H ) :   0.1093 B(  6-N , 15-H ) :   0.9631 B(  6-N , 16-H ) :   0.9463

FINAL SINGLE POINT ENERGY      -342.452154382320

DIPOLE MOMENT
-------------
                                X             Y             Z
Electronic contribution:      1.96474      -6.59948       0.31687
Nuclear contribution   :     -0.93986       6.87621       0.41131
                        -----------------------------------------
Total Dipole Moment    :      1.02488       0.27673       0.72817
                        -----------------------------------------
Magnitude (a.u.)       :      1.28732
Magnitude (Debye)      :      3.27211

                             ****ORCA TERMINATED NORMALLY****
TOTAL RUN TIME: 0 days 0 hours 0 minutes 7 seconds 585 msec
