                         Program Version 3.0.3 - RELEASE   -
|  1> ! RI PBE def2-SVP def2-SVP/J NBO PAL2
|  2> % maxcore 2000
|  3> % output
|  4>     # printlevel mini
|  5>     print[ P_Basis ] 0
|  6>     print[ P_SCFInfo ] 1
|  7>     print[ P_SCFIterInfo ] 1
|  8>     print[ P_OrbEn ] 0
|  9>     print[ P_Cartesian ] 0
| 10> end
| 11> *xyz 0 1
| 12>  C        1.1467860000    -0.2274610000     0.2237400000
| 13>  C        2.6622140000    -0.2424420000     0.3226680000
| 14>  C        3.2902100000     1.1303080000     0.0975890000
| 15>  O        2.8485780000     2.0655430000     1.0515240000
| 16>  C        4.8149230000     1.0669900000     0.0493460000
| 17>  N        5.3221160000     0.2114130000    -0.8984200000
| 18>  N        5.5951300000     1.6999910000     0.8241080000
| 19>  H        0.7320760000    -1.2166400000     0.4284030000
| 20>  H        0.8227620000     0.0694380000    -0.7775690000
| 21>  H        0.7071060000     0.4768430000     0.9320490000
| 22>  H        3.0822410000    -0.9540020000    -0.3923380000
| 23>  H        2.9797380000    -0.5995560000     1.3113340000
| 24>  H        2.9457490000     1.5248070000    -0.8677880000
| 25>  H        2.9015110000     1.6544140000     1.9202050000
| 26>  H        4.7720160000     0.0462220000    -1.7240430000
| 27>  H        6.3102910000     0.3199280000    -1.0639290000
| 28>  H        5.0468550000     2.2737240000     1.4596210000
| 29> *
| 30>
| 31>                          ****END OF INPUT****
 Total Charge           Charge          ....    0
 Multiplicity           Mult            ....    1
 Number of Electrons    NEL             ....   56
 Basis Dimension        Dim             ....  148

MULLIKEN ATOMIC CHARGES
-----------------------
   0 C :    0.032308
   1 C :   -0.052604
   2 C :    0.133965
   3 O :   -0.261119
   4 C :   -0.207057
   5 N :   -0.060792
   6 N :   -0.085012
   7 H :    0.021708
   8 H :    0.011999
   9 H :    0.016458
  10 H :    0.010814
  11 H :    0.004383
  12 H :    0.005926
  13 H :    0.154277
  14 H :    0.102611
  15 H :    0.110178
  16 H :    0.061958
Sum of atomic charges:   -0.0000000

LOEWDIN ATOMIC CHARGES
----------------------
   0 C :   -0.064365
   1 C :   -0.057913
   2 C :    0.022024
   3 O :   -0.088172
   4 C :   -0.022181
   5 N :   -0.009217
   6 N :   -0.168223
   7 H :    0.028058
   8 H :    0.025951
   9 H :    0.023656
  10 H :    0.026779
  11 H :    0.025751
  12 H :    0.025474
  13 H :    0.066542
  14 H :    0.063464
  15 H :    0.070244
  16 H :    0.032129

  Mayer bond orders larger than 0.1
B(  0-C ,  1-C ) :   1.1107 B(  0-C ,  7-H ) :   0.9613 B(  0-C ,  8-H ) :   0.9620
B(  0-C ,  9-H ) :   0.9587 B(  1-C ,  2-C ) :   1.0633 B(  1-C , 10-H ) :   0.9169
B(  1-C , 11-H ) :   0.9232 B(  2-C ,  3-O ) :   1.0398 B(  2-C ,  4-C ) :   0.8965
B(  2-C , 12-H ) :   0.8874 B(  3-O , 13-H ) :   0.9735 B(  4-C ,  5-N ) :   1.2030
B(  4-C ,  6-N ) :   2.0189 B(  5-N , 14-H ) :   0.9438 B(  5-N , 15-H ) :   0.9380
B(  6-N , 16-H ) :   0.9039

FINAL SINGLE POINT ENERGY      -342.491262454915

DIPOLE MOMENT
-------------
                                X             Y             Z
Electronic contribution:      5.12124       3.63740       0.67585
Nuclear contribution   :     -5.74711      -4.34066      -1.16925
                        -----------------------------------------
Total Dipole Moment    :     -0.62587      -0.70326      -0.49341
                        -----------------------------------------
Magnitude (a.u.)       :      1.06289
Magnitude (Debye)      :      2.70165

                             ****ORCA TERMINATED NORMALLY****
TOTAL RUN TIME: 0 days 0 hours 0 minutes 7 seconds 662 msec
