                         Program Version 3.0.3 - RELEASE   -
|  1> ! RI PBE def2-SVP def2-SVP/J NBO PAL2
|  2> % maxcore 2000
|  3> % output
|  4>     # printlevel mini
|  5>     print[ P_Basis ] 0
|  6>     print[ P_SCFInfo ] 1
|  7>     print[ P_SCFIterInfo ] 1
|  8>     print[ P_OrbEn ] 0
|  9>     print[ P_Cartesian ] 0
| 10> end
| 11> *xyz 0 1
| 12>  C        0.9265650000     1.1672900000    -0.9115810000
| 13>  C        1.5301560000     0.9485140000     0.4731540000
| 14>  C        2.7757380000     1.7403300000     0.7002870000
| 15>  O        2.7115510000     3.1050840000     0.7565660000
| 16>  C        1.5832820000     3.6995020000     1.3613000000
| 17>  N        3.9051040000     1.1657320000     0.7390090000
| 18>  N        5.0120960000     1.9395000000     0.9763660000
| 19>  H        0.0120540000     0.5823370000    -1.0316930000
| 20>  H        1.6313210000     0.8607450000    -1.6872070000
| 21>  H        0.6783580000     2.2164920000    -1.0874180000
| 22>  H        1.8053430000    -0.0982660000     0.6038580000
| 23>  H        0.7860020000     1.1786170000     1.2439090000
| 24>  H        1.7611280000     4.7742740000     1.3518430000
| 25>  H        1.4672140000     3.3682720000     2.3979620000
| 26>  H        0.6613180000     3.4905380000     0.8107610000
| 27>  H        5.8222600000     1.4872220000     0.5835380000
| 28>  H        4.9226900000     2.8991080000     0.6622280000
| 29> *
| 30>
| 31>                          ****END OF INPUT****
 Total Charge           Charge          ....    0
 Multiplicity           Mult            ....    1
 Number of Electrons    NEL             ....   56
 Basis Dimension        Dim             ....  148

MULLIKEN ATOMIC CHARGES
-----------------------
   0 C :   -0.018497
   1 C :    0.017891
   2 C :   -0.032807
   3 O :   -0.305371
   4 C :    0.134842
   5 N :   -0.131053
   6 N :   -0.072564
   7 H :    0.023764
   8 H :    0.029140
   9 H :    0.018519
  10 H :    0.025103
  11 H :    0.013303
  12 H :    0.042133
  13 H :    0.032293
  14 H :    0.023591
  15 H :    0.106054
  16 H :    0.093661
Sum of atomic charges:   -0.0000000

LOEWDIN ATOMIC CHARGES
----------------------
   0 C :   -0.061884
   1 C :   -0.059671
   2 C :   -0.029184
   3 O :   -0.106113
   4 C :    0.061703
   5 N :   -0.087566
   6 N :   -0.013430
   7 H :    0.027593
   8 H :    0.030149
   9 H :    0.022026
  10 H :    0.042282
  11 H :    0.027075
  12 H :    0.027624
  13 H :    0.016759
  14 H :    0.010761
  15 H :    0.054616
  16 H :    0.037261

  Mayer bond orders larger than 0.1
B(  0-C ,  1-C ) :   1.1031 B(  0-C ,  7-H ) :   0.9601 B(  0-C ,  8-H ) :   0.9628
B(  0-C ,  9-H ) :   0.9628 B(  1-C ,  2-C ) :   1.0507 B(  1-C , 10-H ) :   0.9141
B(  1-C , 11-H ) :   0.9103 B(  2-C ,  3-O ) :   1.0796 B(  2-C ,  5-N ) :   1.8983
B(  3-O ,  4-C ) :   0.9815 B(  4-C , 12-H ) :   0.9750 B(  4-C , 13-H ) :   0.9629
B(  4-C , 14-H ) :   0.9534 B(  5-N ,  6-N ) :   1.0906 B(  6-N , 15-H ) :   0.9668
B(  6-N , 16-H ) :   0.9423

FINAL SINGLE POINT ENERGY      -342.449489826075

DIPOLE MOMENT
-------------
                                X             Y             Z
Electronic contribution:      5.95658      -0.06437       1.65441
Nuclear contribution   :     -6.42708       0.67081      -1.85040
                        -----------------------------------------
Total Dipole Moment    :     -0.47050       0.60644      -0.19599
                        -----------------------------------------
Magnitude (a.u.)       :      0.79218
Magnitude (Debye)      :      2.01356

                             ****ORCA TERMINATED NORMALLY****
TOTAL RUN TIME: 0 days 0 hours 0 minutes 7 seconds 662 msec
