                         Program Version 3.0.3 - RELEASE   -
|  1> ! RI PBE def2-SVP def2-SVP/J NBO PAL2
|  2> % maxcore 2000
|  3> % output
|  4>     # printlevel mini
|  5>     print[ P_Basis ] 0
|  6>     print[ P_SCFInfo ] 1
|  7>     print[ P_SCFIterInfo ] 1
|  8>     print[ P_OrbEn ] 0
|  9>     print[ P_Cartesian ] 0
| 10> end
| 11> *xyz 0 1
| 12>  C        0.3814170000     0.1464320000     0.6415710000
| 13>  C        1.7542860000     0.1501320000    -0.0092920000
| 14>  C        2.8566650000     0.2559760000     1.0156730000
| 15>  O        4.1028910000     0.2544400000     0.3284450000
| 16>  C        5.2000700000     0.3278540000     1.0914570000
| 17>  N        5.1693660000     0.4053830000     2.3496860000
| 18>  N        6.3803740000     0.3959370000     3.0216180000
| 19>  H       -0.4082710000     0.0691820000    -0.1080600000
| 20>  H        0.2079210000     1.0632790000     1.2116110000
| 21>  H        0.2686590000    -0.6962380000     1.3291120000
| 22>  H        1.8390200000     0.9864210000    -0.7099340000
| 23>  H        1.8990870000    -0.7640400000    -0.5929410000
| 24>  H        2.8337370000    -0.5809580000     1.7222060000
| 25>  H        2.7710970000     1.1753680000     1.6059000000
| 26>  H        6.1089550000     0.3043130000     0.4848010000
| 27>  H        6.2578730000     0.8893130000     3.8937530000
| 28>  H        7.1315530000     0.8351160000     2.4949950000
| 29> *
| 30>
| 31>                          ****END OF INPUT****
 Total Charge           Charge          ....    0
 Multiplicity           Mult            ....    1
 Number of Electrons    NEL             ....   56
 Basis Dimension        Dim             ....  148

MULLIKEN ATOMIC CHARGES
-----------------------
   0 C :   -0.043299
   1 C :   -0.039533
   2 C :    0.164746
   3 O :   -0.266893
   4 C :    0.130798
   5 N :   -0.199497
   6 N :   -0.065736
   7 H :    0.028220
   8 H :    0.022739
   9 H :    0.024877
  10 H :    0.023770
  11 H :    0.021778
  12 H :    0.015047
  13 H :    0.005067
  14 H :   -0.011830
  15 H :    0.110001
  16 H :    0.079746
Sum of atomic charges:   -0.0000000

LOEWDIN ATOMIC CHARGES
----------------------
   0 C :   -0.065318
   1 C :   -0.056417
   2 C :    0.072029
   3 O :   -0.070738
   4 C :    0.000475
   5 N :   -0.111056
   6 N :   -0.022059
   7 H :    0.030454
   8 H :    0.025711
   9 H :    0.026406
  10 H :    0.027522
  11 H :    0.027652
  12 H :    0.015707
  13 H :    0.012594
  14 H :   -0.008470
  15 H :    0.056185
  16 H :    0.039322

  Mayer bond orders larger than 0.1
B(  0-C ,  1-C ) :   1.1022 B(  0-C ,  7-H ) :   0.9616 B(  0-C ,  8-H ) :   0.9673
B(  0-C ,  9-H ) :   0.9677 B(  1-C ,  2-C ) :   1.0715 B(  1-C , 10-H ) :   0.9373
B(  1-C , 11-H ) :   0.9360 B(  2-C ,  3-O ) :   0.9549 B(  2-C , 12-H ) :   0.9428
B(  2-C , 13-H ) :   0.9410 B(  3-O ,  4-C ) :   1.1590 B(  4-C ,  5-N ) :   1.7644
B(  4-C ,  6-N ) :   0.1055 B(  4-C , 14-H ) :   0.9481 B(  5-N ,  6-N ) :   1.0530
B(  6-N , 15-H ) :   0.9669 B(  6-N , 16-H ) :   0.9503

FINAL SINGLE POINT ENERGY      -342.449407805225

DIPOLE MOMENT
-------------
                                X             Y             Z
Electronic contribution:      7.81034       0.08524       0.85581
Nuclear contribution   :     -7.66038       0.39960      -0.83112
                        -----------------------------------------
Total Dipole Moment    :      0.14996       0.48484       0.02469
                        -----------------------------------------
Magnitude (a.u.)       :      0.50811
Magnitude (Debye)      :      1.29150

                             ****ORCA TERMINATED NORMALLY****
TOTAL RUN TIME: 0 days 0 hours 0 minutes 6 seconds 871 msec
