                         Program Version 3.0.3 - RELEASE   -
|  1> ! RI PBE def2-SVP def2-SVP/J NBO PAL2
|  2> % maxcore 2000
|  3> % output
|  4>     # printlevel mini
|  5>     print[ P_Basis ] 0
|  6>     print[ P_SCFInfo ] 1
|  7>     print[ P_SCFIterInfo ] 1
|  8>     print[ P_OrbEn ] 0
|  9>     print[ P_Cartesian ] 0
| 10> end
| 11> *xyz 0 1
| 12>  C        0.4922870000    -0.2597400000    -0.4205400000
| 13>  C        1.7058770000     0.3869710000     0.2249770000
| 14>  C        2.8364320000    -0.5987390000     0.4026630000
| 15>  O        3.9243960000     0.0751740000     1.0064040000
| 16>  C        5.0464920000    -0.6475720000     1.2513630000
| 17>  N        5.9749610000     0.1560020000     1.8280250000
| 18>  N        5.2729370000    -1.8738420000     1.0129410000
| 19>  H       -0.3169590000     0.4621100000    -0.5434180000
| 20>  H        0.1096480000    -1.0848460000     0.1863340000
| 21>  H        0.7317770000    -0.6590960000    -1.4098180000
| 22>  H        1.4416390000     0.7998720000     1.2030040000
| 23>  H        2.0604030000     1.2233850000    -0.3845890000
| 24>  H        3.1447280000    -1.0074930000    -0.5680390000
| 25>  H        2.5190150000    -1.4357500000     1.0375180000
| 26>  H        5.7726780000     1.1192110000     2.0066060000
| 27>  H        6.8621870000    -0.2388880000     2.0693300000
| 28>  H        4.4857020000    -2.3397510000     0.5815390000
| 29> *
| 30>
| 31>                          ****END OF INPUT****
 Total Charge           Charge          ....    0
 Multiplicity           Mult            ....    1
 Number of Electrons    NEL             ....   56
 Basis Dimension        Dim             ....  148

MULLIKEN ATOMIC CHARGES
-----------------------
   0 C :   -0.053520
   1 C :   -0.031917
   2 C :    0.141006
   3 O :   -0.269791
   4 C :   -0.057555
   5 N :   -0.069266
   6 N :   -0.131772
   7 H :    0.033196
   8 H :    0.027782
   9 H :    0.024852
  10 H :    0.020899
  11 H :    0.027159
  12 H :    0.013876
  13 H :    0.016539
  14 H :    0.115971
  15 H :    0.121876
  16 H :    0.070665
Sum of atomic charges:   -0.0000000

LOEWDIN ATOMIC CHARGES
----------------------
   0 C :   -0.066663
   1 C :   -0.052248
   2 C :    0.063605
   3 O :   -0.096996
   4 C :    0.023138
   5 N :   -0.002873
   6 N :   -0.219979
   7 H :    0.032382
   8 H :    0.027029
   9 H :    0.026924
  10 H :    0.028576
  11 H :    0.029319
  12 H :    0.011220
  13 H :    0.011361
  14 H :    0.070036
  15 H :    0.077013
  16 H :    0.038157

  Mayer bond orders larger than 0.1
B(  0-C ,  1-C ) :   1.1054 B(  0-C ,  7-H ) :   0.9612 B(  0-C ,  8-H ) :   0.9673
B(  0-C ,  9-H ) :   0.9659 B(  1-C ,  2-C ) :   1.0883 B(  1-C , 10-H ) :   0.9330
B(  1-C , 11-H ) :   0.9375 B(  2-C ,  3-O ) :   0.9648 B(  2-C , 12-H ) :   0.9317
B(  2-C , 13-H ) :   0.9345 B(  3-O ,  4-C ) :   1.1468 B(  4-C ,  5-N ) :   1.2226
B(  4-C ,  6-N ) :   1.9248 B(  5-N , 14-H ) :   0.9429 B(  5-N , 15-H ) :   0.9480
B(  6-N , 16-H ) :   0.9375

FINAL SINGLE POINT ENERGY      -342.495744387835

DIPOLE MOMENT
-------------
                                X             Y             Z
Electronic contribution:      8.11205       0.04185       3.17354
Nuclear contribution   :     -8.66323       0.66288      -3.19911
                        -----------------------------------------
Total Dipole Moment    :     -0.55118       0.70473      -0.02557
                        -----------------------------------------
Magnitude (a.u.)       :      0.89504
Magnitude (Debye)      :      2.27501

                             ****ORCA TERMINATED NORMALLY****
TOTAL RUN TIME: 0 days 0 hours 0 minutes 7 seconds 712 msec
