                         Program Version 3.0.3 - RELEASE   -
|  1> ! RI PBE def2-SVP def2-SVP/J NBO PAL2
|  2> % maxcore 2000
|  3> % output
|  4>     # printlevel mini
|  5>     print[ P_Basis ] 0
|  6>     print[ P_SCFInfo ] 1
|  7>     print[ P_SCFIterInfo ] 1
|  8>     print[ P_OrbEn ] 0
|  9>     print[ P_Cartesian ] 0
| 10> end
| 11> *xyz 0 1
| 12>  C        0.1385360000    -0.3848450000     0.0888100000
| 13>  C        1.6098000000    -0.2667030000    -0.1048490000
| 14>  C        2.3666440000     0.5851390000     0.5681620000
| 15>  O        3.7203290000     0.6315060000     0.3318690000
| 16>  C        4.4728530000     1.5052850000     1.0135270000
| 17>  N        4.0055210000     2.3062110000     1.8722010000
| 18>  O        5.0224190000     3.0880900000     2.4132140000
| 19>  H       -0.4005240000    -0.1827450000    -0.8420080000
| 20>  H       -0.2231900000     0.3132480000     0.8462180000
| 21>  H       -0.1393930000    -1.3962790000     0.4012400000
| 22>  H        2.0866630000    -0.9135280000    -0.8364510000
| 23>  H        2.0010780000     1.2752260000     1.3179340000
| 24>  H        5.5241900000     1.4465340000     0.7443190000
| 25>  H        4.5501640000     3.6441600000     3.0375330000
| 26> *
| 27>
| 28>                          ****END OF INPUT****
 Total Charge           Charge          ....    0
 Multiplicity           Mult            ....    1
 Number of Electrons    NEL             ....   54
 Basis Dimension        Dim             ....  133

MULLIKEN ATOMIC CHARGES
-----------------------
   0 C :    0.027127
   1 C :   -0.103483
   2 C :    0.098535
   3 O :   -0.203303
   4 C :    0.165505
   5 N :   -0.110028
   6 O :   -0.187137
   7 H :    0.036405
   8 H :    0.023070
   9 H :    0.034887
  10 H :    0.009719
  11 H :    0.018960
  12 H :    0.015749
  13 H :    0.173994
Sum of atomic charges:    0.0000000

LOEWDIN ATOMIC CHARGES
----------------------
   0 C :   -0.058895
   1 C :   -0.068014
   2 C :    0.028985
   3 O :   -0.014845
   4 C :    0.016196
   5 N :   -0.075051
   6 O :   -0.059532
   7 H :    0.036889
   8 H :    0.032170
   9 H :    0.036474
  10 H :    0.029572
  11 H :    0.015678
  12 H :    0.006389
  13 H :    0.073983

  Mayer bond orders larger than 0.1
B(  0-C ,  1-C ) :   1.0945 B(  0-C ,  7-H ) :   0.9482 B(  0-C ,  8-H ) :   0.9632
B(  0-C ,  9-H ) :   0.9479 B(  1-C ,  2-C ) :   1.8428 B(  1-C , 10-H ) :   0.9554
B(  2-C ,  3-O ) :   1.0300 B(  2-C , 11-H ) :   0.9572 B(  3-O ,  4-C ) :   1.1330
B(  4-C ,  5-N ) :   1.7738 B(  4-C ,  6-O ) :   0.1047 B(  4-C , 12-H ) :   0.9503
B(  5-N ,  6-O ) :   0.9724 B(  6-O , 13-H ) :   0.9779

FINAL SINGLE POINT ENERGY      -361.055064312396

DIPOLE MOMENT
-------------
                                X             Y             Z
Electronic contribution:      7.35854       3.49118       1.83374
Nuclear contribution   :     -7.69361      -3.40418      -1.68468
                        -----------------------------------------
Total Dipole Moment    :     -0.33508       0.08700       0.14905
                        -----------------------------------------
Magnitude (a.u.)       :      0.37691
Magnitude (Debye)      :      0.95803

                             ****ORCA TERMINATED NORMALLY****
TOTAL RUN TIME: 0 days 0 hours 0 minutes 5 seconds 936 msec
