                         Program Version 3.0.3 - RELEASE   -
|  1> ! RI PBE def2-SVP def2-SVP/J NBO PAL2
|  2> % maxcore 2000
|  3> % output
|  4>     # printlevel mini
|  5>     print[ P_Basis ] 0
|  6>     print[ P_SCFInfo ] 1
|  7>     print[ P_SCFIterInfo ] 1
|  8>     print[ P_OrbEn ] 0
|  9>     print[ P_Cartesian ] 0
| 10> end
| 11> *xyz 0 1
| 12>  C        0.7529280000     0.7717190000     0.6868200000
| 13>  C        2.1877030000     0.7609740000     0.2876450000
| 14>  C        3.0796680000     1.6863070000     0.6217270000
| 15>  O        2.4159730000    -0.3621290000    -0.4766050000
| 16>  C        3.5766680000    -0.7341010000    -1.0255490000
| 17>  N        4.6737930000    -0.1103230000    -0.9361420000
| 18>  O        5.6613480000    -0.8000140000    -1.6363310000
| 19>  H        0.5333130000     1.6478390000     1.2944750000
| 20>  H        0.5065800000    -0.1269390000     1.2586830000
| 21>  H        0.1087510000     0.7826960000    -0.1965000000
| 22>  H        2.7417110000     2.5137700000     1.2316590000
| 23>  H        4.1104500000     1.6448450000     0.3137350000
| 24>  H        3.4731430000    -1.6654740000    -1.5782390000
| 25>  H        6.4365700000    -0.2493590000    -1.5021780000
| 26> *
| 27>
| 28>                          ****END OF INPUT****
 Total Charge           Charge          ....    0
 Multiplicity           Mult            ....    1
 Number of Electrons    NEL             ....   54
 Basis Dimension        Dim             ....  133

MULLIKEN ATOMIC CHARGES
-----------------------
   0 C :    0.056551
   1 C :   -0.035179
   2 C :   -0.048825
   3 O :   -0.207560
   4 C :    0.167787
   5 N :   -0.091084
   6 O :   -0.185652
   7 H :    0.022992
   8 H :    0.040401
   9 H :    0.041723
  10 H :    0.010817
  11 H :    0.038568
  12 H :    0.014139
  13 H :    0.175321
Sum of atomic charges:   -0.0000000

LOEWDIN ATOMIC CHARGES
----------------------
   0 C :   -0.061865
   1 C :    0.031112
   2 C :   -0.117926
   3 O :   -0.011240
   4 C :    0.021272
   5 N :   -0.054964
   6 O :   -0.057542
   7 H :    0.037852
   8 H :    0.040055
   9 H :    0.040611
  10 H :    0.028560
  11 H :    0.022935
  12 H :    0.006188
  13 H :    0.074951

  Mayer bond orders larger than 0.1
B(  0-C ,  1-C ) :   1.0878 B(  0-C ,  7-H ) :   0.9521 B(  0-C ,  8-H ) :   0.9449
B(  0-C ,  9-H ) :   0.9428 B(  1-C ,  2-C ) :   1.9292 B(  1-C ,  3-O ) :   1.0239
B(  2-C , 10-H ) :   0.9127 B(  2-C , 11-H ) :   0.9134 B(  3-O ,  4-C ) :   1.1442
B(  4-C ,  5-N ) :   1.7764 B(  4-C ,  6-O ) :   0.1042 B(  4-C , 12-H ) :   0.9448
B(  5-N ,  6-O ) :   0.9739 B(  6-O , 13-H ) :   0.9765

FINAL SINGLE POINT ENERGY      -361.055630780118

DIPOLE MOMENT
-------------
                                X             Y             Z
Electronic contribution:      4.46266      -3.22130      -3.23787
Nuclear contribution   :     -4.47168       3.31519       3.29656
                        -----------------------------------------
Total Dipole Moment    :     -0.00902       0.09389       0.05869
                        -----------------------------------------
Magnitude (a.u.)       :      0.11109
Magnitude (Debye)      :      0.28238

                             ****ORCA TERMINATED NORMALLY****
TOTAL RUN TIME: 0 days 0 hours 0 minutes 6 seconds 255 msec
