                         Program Version 3.0.3 - RELEASE   -
|  1> ! RI PBE def2-SVP def2-SVP/J NBO PAL2
|  2> % maxcore 2000
|  3> % output
|  4>     # printlevel mini
|  5>     print[ P_Basis ] 0
|  6>     print[ P_SCFInfo ] 1
|  7>     print[ P_SCFIterInfo ] 1
|  8>     print[ P_OrbEn ] 0
|  9>     print[ P_Cartesian ] 0
| 10> end
| 11> *xyz 0 1
| 12>  C        1.0251090000     0.1296020000     0.0023580000
| 13>  C        2.5291010000    -0.0420710000     0.2492910000
| 14>  C        2.8680310000     0.5328290000     1.6040330000
| 15>  O        3.3664510000    -0.0720900000     2.5105880000
| 16>  C        2.9645290000    -1.4606930000     0.1169170000
| 17>  N        3.6922270000    -1.7908230000    -0.8632770000
| 18>  O        3.9831880000    -3.1404440000    -0.8613680000
| 19>  H        0.7195290000     1.1673760000     0.1578720000
| 20>  H        0.4434540000    -0.5000790000     0.6797380000
| 21>  H        0.7779540000    -0.1495030000    -1.0222140000
| 22>  H        3.0724510000     0.5573580000    -0.4917400000
| 23>  H        2.5930300000     1.6053530000     1.7188560000
| 24>  H        2.6421200000    -2.1942580000     0.8567800000
| 25>  H        4.5471370000    -3.2434660000    -1.6329340000
| 26> *
| 27>
| 28>                          ****END OF INPUT****
 Total Charge           Charge          ....    0
 Multiplicity           Mult            ....    1
 Number of Electrons    NEL             ....   54
 Basis Dimension        Dim             ....  133

MULLIKEN ATOMIC CHARGES
-----------------------
   0 C :    0.002428
   1 C :   -0.072236
   2 C :    0.104637
   3 O :   -0.143565
   4 C :    0.004391
   5 N :   -0.046678
   6 O :   -0.172504
   7 H :    0.029562
   8 H :    0.035450
   9 H :    0.041253
  10 H :    0.039895
  11 H :   -0.005432
  12 H :    0.010922
  13 H :    0.171879
Sum of atomic charges:   -0.0000000

LOEWDIN ATOMIC CHARGES
----------------------
   0 C :   -0.043046
   1 C :   -0.094734
   2 C :    0.097820
   3 O :   -0.097846
   4 C :   -0.020531
   5 N :   -0.012579
   6 O :   -0.050510
   7 H :    0.029403
   8 H :    0.031684
   9 H :    0.035875
  10 H :    0.050617
  11 H :   -0.010822
  12 H :    0.010172
  13 H :    0.074497

  Mayer bond orders larger than 0.1
B(  0-C ,  1-C ) :   1.0454 B(  0-C ,  7-H ) :   0.9592 B(  0-C ,  8-H ) :   0.9651
B(  0-C ,  9-H ) :   0.9591 B(  1-C ,  2-C ) :   0.9108 B(  1-C ,  4-C ) :   0.9883
B(  1-C , 10-H ) :   0.8792 B(  2-C ,  3-O ) :   2.2174 B(  2-C , 11-H ) :   0.9269
B(  4-C ,  5-N ) :   1.9103 B(  4-C ,  6-O ) :   0.1173 B(  4-C , 12-H ) :   0.9424
B(  5-N ,  6-O ) :   0.9993 B(  6-O , 13-H ) :   0.9756

FINAL SINGLE POINT ENERGY      -361.072099955334

DIPOLE MOMENT
-------------
                                X             Y             Z
Electronic contribution:      4.95708      -2.89354       1.42142
Nuclear contribution   :     -5.38215       3.19082      -2.22861
                        -----------------------------------------
Total Dipole Moment    :     -0.42506       0.29729      -0.80718
                        -----------------------------------------
Magnitude (a.u.)       :      0.95948
Magnitude (Debye)      :      2.43881

                             ****ORCA TERMINATED NORMALLY****
TOTAL RUN TIME: 0 days 0 hours 0 minutes 6 seconds 546 msec
