                         Program Version 3.0.3 - RELEASE   -
|  1> ! RI PBE def2-SVP def2-SVP/J NBO PAL2
|  2> % maxcore 2000
|  3> % output
|  4>     # printlevel mini
|  5>     print[ P_Basis ] 0
|  6>     print[ P_SCFInfo ] 1
|  7>     print[ P_SCFIterInfo ] 1
|  8>     print[ P_OrbEn ] 0
|  9>     print[ P_Cartesian ] 0
| 10> end
| 11> *xyz 0 1
| 12>  C        1.2096240000     0.1575670000    -0.1613900000
| 13>  C        2.6557190000     0.1411750000     0.2894590000
| 14>  C        3.0580080000     1.4345060000     0.9599070000
| 15>  O        4.1532530000     1.6699890000     1.3989980000
| 16>  C        2.9680270000    -1.0934890000     1.1554670000
| 17>  N        4.2295290000    -1.1450900000     1.6326990000
| 18>  O        2.1401930000    -1.9587130000     1.3321580000
| 19>  H        1.0207700000     1.0127490000    -0.8146820000
| 20>  H        0.5353490000     0.2170790000     0.6949140000
| 21>  H        0.9650450000    -0.7552700000    -0.7015280000
| 22>  H        3.3246190000     0.0565960000    -0.5783560000
| 23>  H        2.2560680000     2.1996680000     1.0202590000
| 24>  H        4.7912350000    -0.3068060000     1.6311990000
| 25>  H        4.4488640000    -1.8869810000     2.2757860000
| 26> *
| 27>
| 28>                          ****END OF INPUT****
 Total Charge           Charge          ....    0
 Multiplicity           Mult            ....    1
 Number of Electrons    NEL             ....   54
 Basis Dimension        Dim             ....  133

MULLIKEN ATOMIC CHARGES
-----------------------
   0 C :    0.025260
   1 C :   -0.165837
   2 C :    0.111536
   3 O :   -0.174441
   4 C :    0.003865
   5 N :   -0.035445
   6 O :   -0.183112
   7 H :    0.020553
   8 H :    0.038629
   9 H :    0.040654
  10 H :    0.073431
  11 H :    0.012999
  12 H :    0.112774
  13 H :    0.119134
Sum of atomic charges:   -0.0000000

LOEWDIN ATOMIC CHARGES
----------------------
   0 C :   -0.055170
   1 C :   -0.115945
   2 C :    0.101427
   3 O :   -0.109016
   4 C :    0.031747
   5 N :    0.018052
   6 O :   -0.173718
   7 H :    0.027611
   8 H :    0.035723
   9 H :    0.039160
  10 H :    0.065026
  11 H :   -0.001313
  12 H :    0.060153
  13 H :    0.076262

  Mayer bond orders larger than 0.1
B(  0-C ,  1-C ) :   1.0839 B(  0-C ,  7-H ) :   0.9525 B(  0-C ,  8-H ) :   0.9624
B(  0-C ,  9-H ) :   0.9497 B(  1-C ,  2-C ) :   0.9257 B(  1-C ,  4-C ) :   0.8684
B(  1-C , 10-H ) :   0.8772 B(  2-C ,  3-O ) :   2.0979 B(  2-C , 11-H ) :   0.9403
B(  4-C ,  5-N ) :   1.3023 B(  4-C ,  6-O ) :   2.1231 B(  5-N , 12-H ) :   0.9079
B(  5-N , 13-H ) :   0.9365

FINAL SINGLE POINT ENERGY      -361.163473886502

DIPOLE MOMENT
-------------
                                X             Y             Z
Electronic contribution:      3.27772      -0.90107       2.74057
Nuclear contribution   :     -2.95733       1.30516      -2.97973
                        -----------------------------------------
Total Dipole Moment    :      0.32039       0.40409      -0.23917
                        -----------------------------------------
Magnitude (a.u.)       :      0.56846
Magnitude (Debye)      :      1.44490

                             ****ORCA TERMINATED NORMALLY****
TOTAL RUN TIME: 0 days 0 hours 0 minutes 7 seconds 253 msec
