                         Program Version 3.0.3 - RELEASE   -
|  1> ! RI PBE def2-SVP def2-SVP/J NBO PAL2
|  2> % maxcore 2000
|  3> % output
|  4>     # printlevel mini
|  5>     print[ P_Basis ] 0
|  6>     print[ P_SCFInfo ] 1
|  7>     print[ P_SCFIterInfo ] 1
|  8>     print[ P_OrbEn ] 0
|  9>     print[ P_Cartesian ] 0
| 10> end
| 11> *xyz 0 1
| 12>  C        0.9738000000     0.0925690000     0.0320570000
| 13>  C        2.5002910000     0.1199150000    -0.0288680000
| 14>  C        2.9872610000     0.8575740000    -1.2638630000
| 15>  O        3.0167170000     0.7256860000     1.1544530000
| 16>  C        3.0099070000    -1.2922990000     0.0395690000
| 17>  N        3.4514330000    -1.8792840000    -0.9868460000
| 18>  O        3.8217350000    -3.1840910000    -0.7172290000
| 19>  H        0.5830360000     1.1145260000     0.0669430000
| 20>  H        0.6356930000    -0.4345300000     0.9263940000
| 21>  H        0.5560460000    -0.4018330000    -0.8470330000
| 22>  H        2.5893940000     1.8767200000    -1.2640930000
| 23>  H        2.6596770000     0.3593880000    -2.1767190000
| 24>  H        4.0764000000     0.9041960000    -1.2695010000
| 25>  H        2.6738770000     1.6227990000     1.1992620000
| 26>  H        2.9587920000    -1.7928290000     1.0082480000
| 27>  H        4.1516320000    -3.4956860000    -1.5644750000
| 28> *
| 29>
| 30>                          ****END OF INPUT****
 Total Charge           Charge          ....    0
 Multiplicity           Mult            ....    1
 Number of Electrons    NEL             ....   56
 Basis Dimension        Dim             ....  143

MULLIKEN ATOMIC CHARGES
-----------------------
   0 C :    0.062973
   1 C :   -0.117002
   2 C :    0.087041
   3 O :   -0.262021
   4 C :    0.023182
   5 N :   -0.040316
   6 O :   -0.171272
   7 H :    0.006855
   8 H :    0.020604
   9 H :    0.023848
  10 H :   -0.005871
  11 H :    0.020370
  12 H :    0.024745
  13 H :    0.150224
  14 H :    0.006431
  15 H :    0.170208
Sum of atomic charges:   -0.0000000

LOEWDIN ATOMIC CHARGES
----------------------
   0 C :   -0.060262
   1 C :    0.005046
   2 C :   -0.062827
   3 O :   -0.106188
   4 C :   -0.024010
   5 N :   -0.012649
   6 O :   -0.051915
   7 H :    0.022164
   8 H :    0.028346
   9 H :    0.032194
  10 H :    0.019384
  11 H :    0.031131
  12 H :    0.031066
  13 H :    0.065107
  14 H :    0.010347
  15 H :    0.073066

  Mayer bond orders larger than 0.1
B(  0-C ,  1-C ) :   1.0463 B(  0-C ,  7-H ) :   0.9469 B(  0-C ,  8-H ) :   0.9518
B(  0-C ,  9-H ) :   0.9506 B(  1-C ,  2-C ) :   1.0917 B(  1-C ,  3-O ) :   1.0153
B(  1-C ,  4-C ) :   0.9548 B(  2-C , 10-H ) :   0.9456 B(  2-C , 11-H ) :   0.9341
B(  2-C , 12-H ) :   0.9503 B(  3-O , 13-H ) :   0.9791 B(  4-C ,  5-N ) :   1.9315
B(  4-C ,  6-O ) :   0.1160 B(  4-C , 14-H ) :   0.9440 B(  5-N ,  6-O ) :   0.9912
B(  6-O , 15-H ) :   0.9756

FINAL SINGLE POINT ENERGY      -362.274168867784

DIPOLE MOMENT
-------------
                                X             Y             Z
Electronic contribution:      3.97141      -5.07638       1.20333
Nuclear contribution   :     -4.34122       5.35950      -1.58529
                        -----------------------------------------
Total Dipole Moment    :     -0.36982       0.28313      -0.38197
                        -----------------------------------------
Magnitude (a.u.)       :      0.60235
Magnitude (Debye)      :      1.53105

                             ****ORCA TERMINATED NORMALLY****
TOTAL RUN TIME: 0 days 0 hours 0 minutes 7 seconds 338 msec
