                         Program Version 3.0.3 - RELEASE   -
|  1> ! RI PBE def2-SVP def2-SVP/J NBO PAL2
|  2> % maxcore 2000
|  3> % output
|  4>     # printlevel mini
|  5>     print[ P_Basis ] 0
|  6>     print[ P_SCFInfo ] 1
|  7>     print[ P_SCFIterInfo ] 1
|  8>     print[ P_OrbEn ] 0
|  9>     print[ P_Cartesian ] 0
| 10> end
| 11> *xyz 0 1
| 12>  C        0.9101910000    -0.0929820000    -0.2723630000
| 13>  C        2.4299080000     0.0510170000    -0.2464340000
| 14>  C        3.0651380000    -0.5280510000    -1.5082140000
| 15>  O        2.7544770000     1.4127430000    -0.1598520000
| 16>  C        3.0113760000    -0.6259950000     1.0058410000
| 17>  N        2.8214370000    -1.9521240000     1.1416650000
| 18>  O        3.6171200000     0.0365080000     1.8287330000
| 19>  H        0.5198590000     0.4876510000    -1.1102020000
| 20>  H        0.4755710000     0.3014590000     0.6477550000
| 21>  H        0.5891720000    -1.1300520000    -0.3969660000
| 22>  H        2.7141830000     0.0444540000    -2.3687580000
| 23>  H        2.8030200000    -1.5770400000    -1.6663780000
| 24>  H        4.1519640000    -0.4405710000    -1.4607100000
| 25>  H        3.2499230000     1.5014570000     0.6726680000
| 26>  H        2.3219970000    -2.4929960000     0.4614910000
| 27>  H        3.1948750000    -2.4107890000     1.9544350000
| 28> *
| 29>
| 30>                          ****END OF INPUT****
 Total Charge           Charge          ....    0
 Multiplicity           Mult            ....    1
 Number of Electrons    NEL             ....   56
 Basis Dimension        Dim             ....  143

MULLIKEN ATOMIC CHARGES
-----------------------
   0 C :    0.085884
   1 C :   -0.195213
   2 C :    0.080835
   3 O :   -0.233709
   4 C :    0.031643
   5 N :   -0.026148
   6 O :   -0.218107
   7 H :    0.031365
   8 H :    0.019805
   9 H :   -0.009635
  10 H :    0.028698
  11 H :   -0.007386
  12 H :    0.023395
  13 H :    0.147424
  14 H :    0.116375
  15 H :    0.124773
Sum of atomic charges:   -0.0000000

LOEWDIN ATOMIC CHARGES
----------------------
   0 C :   -0.057964
   1 C :   -0.019116
   2 C :   -0.060230
   3 O :   -0.105513
   4 C :    0.029978
   5 N :    0.030966
   6 O :   -0.181907
   7 H :    0.034124
   8 H :    0.030501
   9 H :    0.015496
  10 H :    0.033863
  11 H :    0.016081
  12 H :    0.031192
  13 H :    0.050701
  14 H :    0.072974
  15 H :    0.078851

  Mayer bond orders larger than 0.1
B(  0-C ,  1-C ) :   1.0228 B(  0-C ,  7-H ) :   0.9553 B(  0-C ,  8-H ) :   0.9515
B(  0-C ,  9-H ) :   0.9450 B(  1-C ,  2-C ) :   1.0297 B(  1-C ,  3-O ) :   1.1854
B(  1-C ,  4-C ) :   0.8874 B(  2-C , 10-H ) :   0.9524 B(  2-C , 11-H ) :   0.9428
B(  2-C , 12-H ) :   0.9502 B(  3-O , 13-H ) :   0.9288 B(  4-C ,  5-N ) :   1.2913
B(  4-C ,  6-O ) :   2.0542 B(  5-N , 14-H ) :   0.9411 B(  5-N , 15-H ) :   0.9314
B(  6-O , 13-H ) :   0.1201

FINAL SINGLE POINT ENERGY      -362.366854784299

DIPOLE MOMENT
-------------
                                X             Y             Z
Electronic contribution:      3.27257       1.82636       5.07557
Nuclear contribution   :     -3.69693      -3.35566      -5.26469
                        -----------------------------------------
Total Dipole Moment    :     -0.42436      -1.52931      -0.18912
                        -----------------------------------------
Magnitude (a.u.)       :      1.59832
Magnitude (Debye)      :      4.06261

                             ****ORCA TERMINATED NORMALLY****
TOTAL RUN TIME: 0 days 0 hours 0 minutes 7 seconds 520 msec
