                         Program Version 3.0.3 - RELEASE   -
|  1> ! RI PBE def2-SVP def2-SVP/J NBO PAL2
|  2> % maxcore 2000
|  3> % output
|  4>     # printlevel mini
|  5>     print[ P_Basis ] 0
|  6>     print[ P_SCFInfo ] 1
|  7>     print[ P_SCFIterInfo ] 1
|  8>     print[ P_OrbEn ] 0
|  9>     print[ P_Cartesian ] 0
| 10> end
| 11> *xyz 0 1
| 12>  C        0.9571930000    -0.0828300000     0.2421590000
| 13>  C        2.4552240000    -0.2967570000     0.1952650000
| 14>  C        2.8495540000    -1.7453890000     0.3588410000
| 15>  O        2.9756360000     0.1121040000    -1.0851880000
| 16>  C        3.1936740000     1.4078020000    -1.2876930000
| 17>  N        2.9641020000     2.3028540000    -0.4210010000
| 18>  O        3.3210320000     3.5592040000    -0.9177280000
| 19>  H        0.5674700000    -0.3965580000     1.2133030000
| 20>  H        0.4642640000    -0.6746750000    -0.5330940000
| 21>  H        0.7093720000     0.9688290000     0.0988080000
| 22>  H        2.9391640000     0.3194580000     0.9591460000
| 23>  H        2.4057700000    -2.3552620000    -0.4317130000
| 24>  H        2.4977510000    -2.1217390000     1.3215170000
| 25>  H        3.9337640000    -1.8612530000     0.3174410000
| 26>  H        3.5980090000     1.6228600000    -2.2752000000
| 27>  H        3.0888220000     4.1430630000    -0.1920620000
| 28> *
| 29>
| 30>                          ****END OF INPUT****
 Total Charge           Charge          ....    0
 Multiplicity           Mult            ....    1
 Number of Electrons    NEL             ....   56
 Basis Dimension        Dim             ....  143

MULLIKEN ATOMIC CHARGES
-----------------------
   0 C :    0.020120
   1 C :    0.018496
   2 C :    0.021241
   3 O :   -0.257942
   4 C :    0.162797
   5 N :   -0.120475
   6 O :   -0.195428
   7 H :    0.018937
   8 H :    0.021203
   9 H :    0.029370
  10 H :    0.020228
  11 H :    0.025885
  12 H :    0.018874
  13 H :    0.031404
  14 H :    0.013851
  15 H :    0.171440
Sum of atomic charges:   -0.0000000

LOEWDIN ATOMIC CHARGES
----------------------
   0 C :   -0.067986
   1 C :    0.057392
   2 C :   -0.065277
   3 O :   -0.058231
   4 C :    0.013368
   5 N :   -0.086930
   6 O :   -0.068686
   7 H :    0.032439
   8 H :    0.028007
   9 H :    0.029720
  10 H :    0.016775
  11 H :    0.030129
  12 H :    0.032585
  13 H :    0.031309
  14 H :    0.004125
  15 H :    0.071261

  Mayer bond orders larger than 0.1
B(  0-C ,  1-C ) :   1.1050 B(  0-C ,  7-H ) :   0.9568 B(  0-C ,  8-H ) :   0.9535
B(  0-C ,  9-H ) :   0.9484 B(  1-C ,  2-C ) :   1.0866 B(  1-C ,  3-O ) :   0.9064
B(  1-C , 10-H ) :   0.9134 B(  2-C , 11-H ) :   0.9551 B(  2-C , 12-H ) :   0.9564
B(  2-C , 13-H ) :   0.9589 B(  3-O ,  4-C ) :   1.1842 B(  4-C ,  5-N ) :   1.7422
B(  4-C , 14-H ) :   0.9455 B(  5-N ,  6-O ) :   0.9624 B(  6-O , 15-H ) :   0.9792

FINAL SINGLE POINT ENERGY      -362.277663749574

DIPOLE MOMENT
-------------
                                X             Y             Z
Electronic contribution:      3.45128       6.90801      -3.56499
Nuclear contribution   :     -3.64431      -7.01017       3.98191
                        -----------------------------------------
Total Dipole Moment    :     -0.19303      -0.10217       0.41692
                        -----------------------------------------
Magnitude (a.u.)       :      0.47066
Magnitude (Debye)      :      1.19632

                             ****ORCA TERMINATED NORMALLY****
TOTAL RUN TIME: 0 days 0 hours 0 minutes 6 seconds 765 msec
