                         Program Version 3.0.3 - RELEASE   -
|  1> ! RI PBE def2-SVP def2-SVP/J NBO PAL2
|  2> % maxcore 2000
|  3> % output
|  4>     # printlevel mini
|  5>     print[ P_Basis ] 0
|  6>     print[ P_SCFInfo ] 1
|  7>     print[ P_SCFIterInfo ] 1
|  8>     print[ P_OrbEn ] 0
|  9>     print[ P_Cartesian ] 0
| 10> end
| 11> *xyz 0 1
| 12>  C        0.8868140000     0.0229740000     0.3915780000
| 13>  C        2.3922810000    -0.0141780000     0.2430890000
| 14>  C        3.0911260000    -0.6422380000     1.4258200000
| 15>  O        2.7485630000    -0.8085990000    -0.9046650000
| 16>  C        2.7233090000    -0.1835650000    -2.0955180000
| 17>  N        3.0021150000    -1.0640690000    -3.0904350000
| 18>  O        2.4722710000     0.9849170000    -2.2627440000
| 19>  H        0.6114200000     0.6201870000     1.2639410000
| 20>  H        0.4898340000    -0.9863740000     0.5265930000
| 21>  H        0.4254920000     0.4730720000    -0.4881510000
| 22>  H        2.7664520000     0.9974830000     0.0691220000
| 23>  H        2.7468390000    -1.6679540000     1.5791680000
| 24>  H        2.8774170000    -0.0706610000     2.3312310000
| 25>  H        4.1720550000    -0.6586640000     1.2762910000
| 26>  H        3.3648070000    -1.9714320000    -2.8629640000
| 27>  H        3.1750820000    -0.6814000000    -4.0010670000
| 28> *
| 29>
| 30>                          ****END OF INPUT****
 Total Charge           Charge          ....    0
 Multiplicity           Mult            ....    1
 Number of Electrons    NEL             ....   56
 Basis Dimension        Dim             ....  143

MULLIKEN ATOMIC CHARGES
-----------------------
   0 C :    0.013478
   1 C :    0.039103
   2 C :    0.011465
   3 O :   -0.281951
   4 C :    0.110193
   5 N :   -0.083264
   6 O :   -0.231175
   7 H :    0.021035
   8 H :    0.017532
   9 H :    0.036788
  10 H :    0.022329
  11 H :    0.019511
  12 H :    0.023337
  13 H :    0.030985
  14 H :    0.122758
  15 H :    0.127876
Sum of atomic charges:   -0.0000000

LOEWDIN ATOMIC CHARGES
----------------------
   0 C :   -0.068954
   1 C :    0.058949
   2 C :   -0.067750
   3 O :   -0.090757
   4 C :    0.020579
   5 N :   -0.003208
   6 O :   -0.204323
   7 H :    0.032536
   8 H :    0.025994
   9 H :    0.033592
  10 H :    0.019132
  11 H :    0.027789
  12 H :    0.033106
  13 H :    0.030444
  14 H :    0.074148
  15 H :    0.078724

  Mayer bond orders larger than 0.1
B(  0-C ,  1-C ) :   1.1076 B(  0-C ,  7-H ) :   0.9575 B(  0-C ,  8-H ) :   0.9528
B(  0-C ,  9-H ) :   0.9522 B(  1-C ,  2-C ) :   1.0932 B(  1-C ,  3-O ) :   0.9036
B(  1-C , 10-H ) :   0.9121 B(  2-C , 11-H ) :   0.9521 B(  2-C , 12-H ) :   0.9573
B(  2-C , 13-H ) :   0.9594 B(  3-O ,  4-C ) :   1.1530 B(  4-C ,  5-N ) :   1.2171
B(  4-C ,  6-O ) :   2.0191 B(  5-N , 14-H ) :   0.9425 B(  5-N , 15-H ) :   0.9500

FINAL SINGLE POINT ENERGY      -362.378536002006

DIPOLE MOMENT
-------------
                                X             Y             Z
Electronic contribution:      1.91510       0.73934      -7.38623
Nuclear contribution   :     -1.56747      -1.57769       7.43486
                        -----------------------------------------
Total Dipole Moment    :      0.34764      -0.83835       0.04863
                        -----------------------------------------
Magnitude (a.u.)       :      0.90887
Magnitude (Debye)      :      2.31016

                             ****ORCA TERMINATED NORMALLY****
TOTAL RUN TIME: 0 days 0 hours 0 minutes 6 seconds 328 msec
