                         Program Version 3.0.3 - RELEASE   -
|  1> ! RI PBE def2-SVP def2-SVP/J NBO PAL2
|  2> % maxcore 2000
|  3> % output
|  4>     # printlevel mini
|  5>     print[ P_Basis ] 0
|  6>     print[ P_SCFInfo ] 1
|  7>     print[ P_SCFIterInfo ] 1
|  8>     print[ P_OrbEn ] 0
|  9>     print[ P_Cartesian ] 0
| 10> end
| 11> *xyz 0 1
| 12>  C        0.9232140000    -0.0267000000    -0.1270540000
| 13>  C        2.3659880000    -0.0624180000     0.3710010000
| 14>  C        2.7073750000     1.2085790000     1.1397560000
| 15>  O        4.0557180000     1.2937400000     1.5215010000
| 16>  C        2.6036190000    -1.3091180000     1.1622820000
| 17>  N        3.1032730000    -1.2689380000     2.3242990000
| 18>  O        3.2305300000    -2.5268230000     2.8850890000
| 19>  H        0.7649240000     0.8353040000    -0.7788650000
| 20>  H        0.2229660000     0.0468920000     0.7092380000
| 21>  H        0.6729640000    -0.9257630000    -0.6946300000
| 22>  H        3.0308530000    -0.1123730000    -0.5030020000
| 23>  H        2.0393170000     1.2883250000     2.0099560000
| 24>  H        2.5089320000     2.0701530000     0.4965450000
| 25>  H        4.2019050000     0.5638630000     2.1354930000
| 26>  H        2.3348760000    -2.2718240000     0.7194410000
| 27>  H        3.6072560000    -2.3474900000     3.7510500000
| 28> *
| 29>
| 30>                          ****END OF INPUT****
 Total Charge           Charge          ....    0
 Multiplicity           Mult            ....    1
 Number of Electrons    NEL             ....   56
 Basis Dimension        Dim             ....  143

MULLIKEN ATOMIC CHARGES
-----------------------
   0 C :   -0.020087
   1 C :   -0.101203
   2 C :    0.212528
   3 O :   -0.283945
   4 C :   -0.002044
   5 N :   -0.072695
   6 O :   -0.168389
   7 H :    0.030442
   8 H :    0.030635
   9 H :    0.027026
  10 H :    0.032607
  11 H :   -0.009237
  12 H :    0.001980
  13 H :    0.142453
  14 H :    0.005992
  15 H :    0.173937
Sum of atomic charges:   -0.0000000

LOEWDIN ATOMIC CHARGES
----------------------
   0 C :   -0.053331
   1 C :   -0.075096
   2 C :    0.057549
   3 O :   -0.124068
   4 C :   -0.013248
   5 N :   -0.021564
   6 O :   -0.051034
   7 H :    0.030751
   8 H :    0.029033
   9 H :    0.028120
  10 H :    0.041652
  11 H :    0.003921
  12 H :    0.019633
  13 H :    0.042778
  14 H :    0.009400
  15 H :    0.075503

  Mayer bond orders larger than 0.1
B(  0-C ,  1-C ) :   1.0497 B(  0-C ,  7-H ) :   0.9604 B(  0-C ,  8-H ) :   0.9620
B(  0-C ,  9-H ) :   0.9606 B(  1-C ,  2-C ) :   1.0437 B(  1-C ,  4-C ) :   0.9973
B(  1-C , 10-H ) :   0.8745 B(  2-C ,  3-O ) :   1.0994 B(  2-C , 11-H ) :   0.9275
B(  2-C , 12-H ) :   0.9352 B(  3-O , 13-H ) :   0.9664 B(  4-C ,  5-N ) :   1.8891
B(  4-C ,  6-O ) :   0.1114 B(  4-C , 14-H ) :   0.9463 B(  5-N ,  6-O ) :   0.9917
B(  6-O , 15-H ) :   0.9742

FINAL SINGLE POINT ENERGY      -362.274408406257

DIPOLE MOMENT
-------------
                                X             Y             Z
Electronic contribution:      4.52845      -3.03985       4.32807
Nuclear contribution   :     -4.94781       2.51602      -4.19977
                        -----------------------------------------
Total Dipole Moment    :     -0.41935      -0.52382       0.12830
                        -----------------------------------------
Magnitude (a.u.)       :      0.68316
Magnitude (Debye)      :      1.73646

                             ****ORCA TERMINATED NORMALLY****
TOTAL RUN TIME: 0 days 0 hours 0 minutes 7 seconds 292 msec
