                         Program Version 3.0.3 - RELEASE   -
|  1> ! RI PBE def2-SVP def2-SVP/J NBO PAL2
|  2> % maxcore 2000
|  3> % output
|  4>     # printlevel mini
|  5>     print[ P_Basis ] 0
|  6>     print[ P_SCFInfo ] 1
|  7>     print[ P_SCFIterInfo ] 1
|  8>     print[ P_OrbEn ] 0
|  9>     print[ P_Cartesian ] 0
| 10> end
| 11> *xyz 0 1
| 12>  C        1.0176230000     0.2426480000     0.0724410000
| 13>  C        2.3674600000    -0.4540040000     0.2253080000
| 14>  C        2.8031290000    -0.4727970000     1.6860480000
| 15>  O        4.0466250000    -1.0896230000     1.8830510000
| 16>  C        2.3281070000    -1.8746590000    -0.3194930000
| 17>  N        2.1122700000    -1.9901700000    -1.6490020000
| 18>  O        2.4775780000    -2.8554590000     0.3891660000
| 19>  H        1.0615360000     1.2467640000     0.5006180000
| 20>  H        0.2337520000    -0.3114640000     0.5947350000
| 21>  H        0.7140730000     0.3428110000    -0.9713330000
| 22>  H        3.1263230000     0.0931670000    -0.3479600000
| 23>  H        2.0185710000    -0.9565870000     2.2842980000
| 24>  H        2.8974630000     0.5581610000     2.0379570000
| 25>  H        3.9084350000    -2.0179260000     1.6547520000
| 26>  H        2.0260450000    -1.1897530000    -2.2469950000
| 27>  H        2.1008000000    -2.9096190000    -2.0554920000
| 28> *
| 29>
| 30>                          ****END OF INPUT****
 Total Charge           Charge          ....    0
 Multiplicity           Mult            ....    1
 Number of Electrons    NEL             ....   56
 Basis Dimension        Dim             ....  143

MULLIKEN ATOMIC CHARGES
-----------------------
   0 C :    0.021187
   1 C :   -0.175536
   2 C :    0.211746
   3 O :   -0.286803
   4 C :    0.009008
   5 N :   -0.029816
   6 O :   -0.226659
   7 H :    0.030537
   8 H :    0.028810
   9 H :    0.008454
  10 H :    0.025381
  11 H :   -0.002856
  12 H :   -0.000667
  13 H :    0.156649
  14 H :    0.111867
  15 H :    0.118698
Sum of atomic charges:   -0.0000000

LOEWDIN ATOMIC CHARGES
----------------------
   0 C :   -0.050851
   1 C :   -0.098192
   2 C :    0.058893
   3 O :   -0.123080
   4 C :    0.040293
   5 N :    0.025105
   6 O :   -0.196564
   7 H :    0.031983
   8 H :    0.032051
   9 H :    0.020137
  10 H :    0.033214
  11 H :    0.006548
  12 H :    0.018463
  13 H :    0.054232
  14 H :    0.072402
  15 H :    0.075367

  Mayer bond orders larger than 0.1
B(  0-C ,  1-C ) :   1.0612 B(  0-C ,  7-H ) :   0.9600 B(  0-C ,  8-H ) :   0.9571
B(  0-C ,  9-H ) :   0.9555 B(  1-C ,  2-C ) :   1.0254 B(  1-C ,  4-C ) :   0.9086
B(  1-C , 10-H ) :   0.8841 B(  2-C ,  3-O ) :   1.1044 B(  2-C , 11-H ) :   0.9316
B(  2-C , 12-H ) :   0.9353 B(  3-O , 13-H ) :   0.9650 B(  4-C ,  5-N ) :   1.2987
B(  4-C ,  6-O ) :   2.0339 B(  5-N , 14-H ) :   0.9393 B(  5-N , 15-H ) :   0.9359

FINAL SINGLE POINT ENERGY      -362.359814890277

DIPOLE MOMENT
-------------
                                X             Y             Z
Electronic contribution:      3.11747      -5.03470       0.01578
Nuclear contribution   :     -3.84729       5.53918      -1.46827
                        -----------------------------------------
Total Dipole Moment    :     -0.72981       0.50448      -1.45249
                        -----------------------------------------
Magnitude (a.u.)       :      1.70201
Magnitude (Debye)      :      4.32618

                             ****ORCA TERMINATED NORMALLY****
TOTAL RUN TIME: 0 days 0 hours 0 minutes 7 seconds 657 msec
