                         Program Version 3.0.3 - RELEASE   -
|  1> ! RI PBE def2-SVP def2-SVP/J NBO PAL2
|  2> % maxcore 2000
|  3> % output
|  4>     # printlevel mini
|  5>     print[ P_Basis ] 0
|  6>     print[ P_SCFInfo ] 1
|  7>     print[ P_SCFIterInfo ] 1
|  8>     print[ P_OrbEn ] 0
|  9>     print[ P_Cartesian ] 0
| 10> end
| 11> *xyz 0 1
| 12>  C        0.9972390000    -0.3629270000     0.3689210000
| 13>  C        2.3599250000     0.1530310000    -0.0426830000
| 14>  C        2.2881880000     1.3171820000    -0.9948820000
| 15>  O        1.2441690000     1.7864340000    -1.3868060000
| 16>  C        3.5551360000     1.9208590000    -1.4784050000
| 17>  N        4.6673210000     1.4515330000    -1.0857380000
| 18>  O        5.7320560000     2.1162130000    -1.6206630000
| 19>  H        1.0990220000    -1.2039990000     1.0571380000
| 20>  H        0.4238740000    -0.6949990000    -0.4978860000
| 21>  H        0.4137800000     0.4162570000     0.8616940000
| 22>  H        2.9628260000    -0.6280370000    -0.5186040000
| 23>  H        2.9528900000     0.4683940000     0.8227510000
| 24>  H        3.4812590000     2.7623250000    -2.1670360000
| 25>  H        6.4952050000     1.6650430000    -1.2456010000
| 26> *
| 27>
| 28>                          ****END OF INPUT****
 Total Charge           Charge          ....    0
 Multiplicity           Mult            ....    1
 Number of Electrons    NEL             ....   54
 Basis Dimension        Dim             ....  133

MULLIKEN ATOMIC CHARGES
-----------------------
   0 C :   -0.001851
   1 C :   -0.021903
   2 C :   -0.005508
   3 O :   -0.166328
   4 C :    0.010024
   5 N :   -0.013927
   6 O :   -0.140161
   7 H :    0.019812
   8 H :    0.030633
   9 H :    0.032212
  10 H :    0.035500
  11 H :    0.035129
  12 H :    0.005053
  13 H :    0.181316
Sum of atomic charges:   -0.0000000

LOEWDIN ATOMIC CHARGES
----------------------
   0 C :   -0.064947
   1 C :   -0.076495
   2 C :    0.037963
   3 O :   -0.115559
   4 C :   -0.057478
   5 N :    0.012470
   6 O :   -0.018073
   7 H :    0.028208
   8 H :    0.031894
   9 H :    0.032022
  10 H :    0.045442
  11 H :    0.045271
  12 H :    0.016953
  13 H :    0.082328

  Mayer bond orders larger than 0.1
B(  0-C ,  1-C ) :   1.1251 B(  0-C ,  7-H ) :   0.9573 B(  0-C ,  8-H ) :   0.9613
B(  0-C ,  9-H ) :   0.9619 B(  1-C ,  2-C ) :   0.9986 B(  1-C , 10-H ) :   0.9028
B(  1-C , 11-H ) :   0.9026 B(  2-C ,  3-O ) :   2.1090 B(  2-C ,  4-C ) :   0.9993
B(  4-C ,  5-N ) :   1.8401 B(  4-C ,  6-O ) :   0.1204 B(  4-C , 12-H ) :   0.9490
B(  5-N ,  6-O ) :   1.0288 B(  6-O , 13-H ) :   0.9702

FINAL SINGLE POINT ENERGY      -361.087714725037

DIPOLE MOMENT
-------------
                                X             Y             Z
Electronic contribution:      4.25888       4.90240      -3.97275
Nuclear contribution   :     -3.09196      -5.28491       4.29661
                        -----------------------------------------
Total Dipole Moment    :      1.16692      -0.38251       0.32386
                        -----------------------------------------
Magnitude (a.u.)       :      1.27000
Magnitude (Debye)      :      3.22809

                             ****ORCA TERMINATED NORMALLY****
TOTAL RUN TIME: 0 days 0 hours 0 minutes 6 seconds 834 msec
