                         Program Version 3.0.3 - RELEASE   -
|  1> ! RI PBE def2-SVP def2-SVP/J NBO PAL2
|  2> % maxcore 2000
|  3> % output
|  4>     # printlevel mini
|  5>     print[ P_Basis ] 0
|  6>     print[ P_SCFInfo ] 1
|  7>     print[ P_SCFIterInfo ] 1
|  8>     print[ P_OrbEn ] 0
|  9>     print[ P_Cartesian ] 0
| 10> end
| 11> *xyz 0 1
| 12>  C        1.0303770000    -0.5900140000     0.3673750000
| 13>  C        2.3289940000     0.0217290000    -0.1106410000
| 14>  C        2.1546740000     1.0036860000    -1.2230430000
| 15>  O        1.0939820000     1.3016670000    -1.7145250000
| 16>  C        3.4509230000     1.6582400000    -1.7486530000
| 17>  N        3.2173200000     2.5267750000    -2.7442070000
| 18>  O        4.5355040000     1.3850300000    -1.2804350000
| 19>  H        1.2153770000    -1.2971040000     1.1774760000
| 20>  H        0.5236320000    -1.1196770000    -0.4411010000
| 21>  H        0.3444970000     0.1767990000     0.7314260000
| 22>  H        3.0446430000    -0.7327440000    -0.4579360000
| 23>  H        2.8690250000     0.5382840000     0.6915670000
| 24>  H        2.2689130000     2.6707620000    -3.0482860000
| 25>  H        3.9817180000     3.0188680000    -3.1710070000
| 26> *
| 27>
| 28>                          ****END OF INPUT****
 Total Charge           Charge          ....    0
 Multiplicity           Mult            ....    1
 Number of Electrons    NEL             ....   54
 Basis Dimension        Dim             ....  133

MULLIKEN ATOMIC CHARGES
-----------------------
   0 C :    0.007211
   1 C :   -0.043052
   2 C :   -0.036278
   3 O :   -0.159948
   4 C :   -0.009626
   5 N :   -0.012066
   6 O :   -0.180208
   7 H :    0.024944
   8 H :    0.030708
   9 H :    0.030682
  10 H :    0.053131
  11 H :    0.052433
  12 H :    0.121844
  13 H :    0.120225
Sum of atomic charges:   -0.0000000

LOEWDIN ATOMIC CHARGES
----------------------
   0 C :   -0.063943
   1 C :   -0.072609
   2 C :    0.039532
   3 O :   -0.110599
   4 C :   -0.016594
   5 N :    0.041483
   6 O :   -0.176644
   7 H :    0.030668
   8 H :    0.032081
   9 H :    0.032278
  10 H :    0.056647
  11 H :    0.056348
  12 H :    0.073848
  13 H :    0.077505

  Mayer bond orders larger than 0.1
B(  0-C ,  1-C ) :   1.1232 B(  0-C ,  7-H ) :   0.9585 B(  0-C ,  8-H ) :   0.9603
B(  0-C ,  9-H ) :   0.9599 B(  1-C ,  2-C ) :   1.0057 B(  1-C , 10-H ) :   0.8997
B(  1-C , 11-H ) :   0.9003 B(  2-C ,  3-O ) :   2.1543 B(  2-C ,  4-C ) :   0.8058
B(  4-C ,  5-N ) :   1.3363 B(  4-C ,  6-O ) :   2.1203 B(  5-N ,  6-O ) :   0.1249
B(  5-N , 12-H ) :   0.9143 B(  5-N , 13-H ) :   0.9324

FINAL SINGLE POINT ENERGY      -361.171255711411

DIPOLE MOMENT
-------------
                                X             Y             Z
Electronic contribution:      3.10724       4.15412      -4.11977
Nuclear contribution   :     -3.32577      -3.86695       3.76796
                        -----------------------------------------
Total Dipole Moment    :     -0.21853       0.28718      -0.35181
                        -----------------------------------------
Magnitude (a.u.)       :      0.50398
Magnitude (Debye)      :      1.28101

                             ****ORCA TERMINATED NORMALLY****
TOTAL RUN TIME: 0 days 0 hours 0 minutes 7 seconds 82 msec
