                         Program Version 3.0.3 - RELEASE   -
|  1> ! RI PBE def2-SVP def2-SVP/J NBO PAL2
|  2> % maxcore 2000
|  3> % output
|  4>     # printlevel mini
|  5>     print[ P_Basis ] 0
|  6>     print[ P_SCFInfo ] 1
|  7>     print[ P_SCFIterInfo ] 1
|  8>     print[ P_OrbEn ] 0
|  9>     print[ P_Cartesian ] 0
| 10> end
| 11> *xyz 0 1
| 12>  C        2.9505920000    -1.5567840000     0.1023000000
| 13>  C        2.6780190000    -0.0630310000     0.0645250000
| 14>  C        3.1252290000     0.6270590000    -1.2231940000
| 15>  O        2.6171530000     1.9335410000    -1.2522970000
| 16>  C        4.6119830000     0.6058860000    -1.3919610000
| 17>  N        5.2160490000     1.7022380000    -1.5609460000
| 18>  O        6.5785840000     1.5535630000    -1.7103290000
| 19>  H        2.5270320000    -2.0034950000     1.0038540000
| 20>  H        4.0193800000    -1.7845830000     0.1024460000
| 21>  H        2.5022910000    -2.0646810000    -0.7566070000
| 22>  H        3.1523430000     0.4438730000     0.9105500000
| 23>  H        1.6041900000     0.1237290000     0.1516410000
| 24>  H        2.7047960000     0.0543410000    -2.0689970000
| 25>  H        3.3558710000     2.5199870000    -1.4618280000
| 26>  H        5.1484230000    -0.3425970000    -1.3808290000
| 27>  H        6.8897660000     2.4556540000    -1.8274300000
| 28> *
| 29>
| 30>                          ****END OF INPUT****
 Total Charge           Charge          ....    0
 Multiplicity           Mult            ....    1
 Number of Electrons    NEL             ....   56
 Basis Dimension        Dim             ....  143

MULLIKEN ATOMIC CHARGES
-----------------------
   0 C :   -0.036997
   1 C :   -0.017572
   2 C :    0.121738
   3 O :   -0.247510
   4 C :   -0.019137
   5 N :   -0.082937
   6 O :   -0.166791
   7 H :    0.025350
   8 H :    0.025237
   9 H :    0.023208
  10 H :    0.009601
  11 H :    0.029171
  12 H :    0.009906
  13 H :    0.142437
  14 H :    0.009876
  15 H :    0.174419
Sum of atomic charges:    0.0000000

LOEWDIN ATOMIC CHARGES
----------------------
   0 C :   -0.069377
   1 C :   -0.050447
   2 C :    0.037303
   3 O :   -0.108467
   4 C :   -0.034267
   5 N :   -0.023207
   6 O :   -0.046373
   7 H :    0.032140
   8 H :    0.022791
   9 H :    0.026137
  10 H :    0.024720
  11 H :    0.032806
  12 H :    0.020560
  13 H :    0.047750
  14 H :    0.011671
  15 H :    0.076260

  Mayer bond orders larger than 0.1
B(  0-C ,  1-C ) :   1.0908 B(  0-C ,  7-H ) :   0.9565 B(  0-C ,  8-H ) :   0.9646
B(  0-C ,  9-H ) :   0.9653 B(  1-C ,  2-C ) :   1.0163 B(  1-C , 10-H ) :   0.9285
B(  1-C , 11-H ) :   0.9317 B(  2-C ,  3-O ) :   1.1643 B(  2-C ,  4-C ) :   0.9885
B(  2-C , 12-H ) :   0.8922 B(  3-O , 13-H ) :   0.9488 B(  4-C ,  5-N ) :   1.8799
B(  4-C ,  6-O ) :   0.1057 B(  4-C , 14-H ) :   0.9422 B(  5-N ,  6-O ) :   1.0066
B(  6-O , 15-H ) :   0.9746

FINAL SINGLE POINT ENERGY      -362.274639328736

DIPOLE MOMENT
-------------
                                X             Y             Z
Electronic contribution:      4.44722       6.48914      -3.54812
Nuclear contribution   :     -3.85086      -6.61578       3.50396
                        -----------------------------------------
Total Dipole Moment    :      0.59635      -0.12665      -0.04415
                        -----------------------------------------
Magnitude (a.u.)       :      0.61125
Magnitude (Debye)      :      1.55367

                             ****ORCA TERMINATED NORMALLY****
TOTAL RUN TIME: 0 days 0 hours 0 minutes 6 seconds 753 msec
