                         Program Version 3.0.3 - RELEASE   -
|  1> ! RI PBE def2-SVP def2-SVP/J NBO PAL2
|  2> % maxcore 2000
|  3> % output
|  4>     # printlevel mini
|  5>     print[ P_Basis ] 0
|  6>     print[ P_SCFInfo ] 1
|  7>     print[ P_SCFIterInfo ] 1
|  8>     print[ P_OrbEn ] 0
|  9>     print[ P_Cartesian ] 0
| 10> end
| 11> *xyz 0 1
| 12>  C        1.1894510000     0.2542970000     0.1802610000
| 13>  C        2.6947880000     0.2090870000    -0.0127600000
| 14>  C        3.1255150000    -0.7019110000    -1.1485520000
| 15>  O        2.6718160000    -0.2560010000    -2.4158700000
| 16>  C        4.6377020000    -0.9403140000    -1.1142620000
| 17>  N        5.2549760000    -0.8080660000    -2.3064640000
| 18>  O        5.2061800000    -1.2376150000    -0.0836950000
| 19>  H        0.9188700000     0.9480240000     0.9787470000
| 20>  H        0.8030000000    -0.7318940000     0.4506940000
| 21>  H        0.6733400000     0.5713450000    -0.7288440000
| 22>  H        3.1961320000    -0.1374240000     0.8929660000
| 23>  H        3.0872430000     1.2164180000    -0.2104880000
| 24>  H        2.6729110000    -1.6902700000    -1.0039190000
| 25>  H        2.7011240000     0.7055140000    -2.4192380000
| 26>  H        4.7002180000    -0.6761350000    -3.1340340000
| 27>  H        6.2284330000    -1.0480560000    -2.3738410000
| 28> *
| 29>
| 30>                          ****END OF INPUT****
 Total Charge           Charge          ....    0
 Multiplicity           Mult            ....    1
 Number of Electrons    NEL             ....   56
 Basis Dimension        Dim             ....  143

MULLIKEN ATOMIC CHARGES
-----------------------
   0 C :    0.020792
   1 C :   -0.073945
   2 C :    0.095692
   3 O :   -0.274418
   4 C :   -0.022337
   5 N :   -0.040176
   6 O :   -0.211610
   7 H :    0.025306
   8 H :    0.020274
   9 H :    0.009249
  10 H :    0.039413
  11 H :    0.001845
  12 H :    0.027951
  13 H :    0.158563
  14 H :    0.106600
  15 H :    0.116803
Sum of atomic charges:    0.0000000

LOEWDIN ATOMIC CHARGES
----------------------
   0 C :   -0.065542
   1 C :   -0.054450
   2 C :    0.018677
   3 O :   -0.105668
   4 C :    0.005766
   5 N :    0.018875
   6 O :   -0.197540
   7 H :    0.029213
   8 H :    0.028618
   9 H :    0.020264
  10 H :    0.038784
  11 H :    0.021711
  12 H :    0.037514
  13 H :    0.068781
  14 H :    0.062394
  15 H :    0.072602

  Mayer bond orders larger than 0.1
B(  0-C ,  1-C ) :   1.1135 B(  0-C ,  7-H ) :   0.9619 B(  0-C ,  8-H ) :   0.9634
B(  0-C ,  9-H ) :   0.9572 B(  1-C ,  2-C ) :   1.0791 B(  1-C , 10-H ) :   0.9132
B(  1-C , 11-H ) :   0.9321 B(  2-C ,  3-O ) :   1.0348 B(  2-C ,  4-C ) :   0.8717
B(  2-C , 12-H ) :   0.8842 B(  3-O , 13-H ) :   0.9769 B(  4-C ,  5-N ) :   1.3021
B(  4-C ,  6-O ) :   2.0884 B(  5-N ,  6-O ) :   0.1013 B(  5-N , 14-H ) :   0.9167
B(  5-N , 15-H ) :   0.9375

FINAL SINGLE POINT ENERGY      -362.361550538519

DIPOLE MOMENT
-------------
                                X             Y             Z
Electronic contribution:      6.17126      -2.70208      -2.41183
Nuclear contribution   :     -6.40565       3.31245       1.50813
                        -----------------------------------------
Total Dipole Moment    :     -0.23439       0.61037      -0.90370
                        -----------------------------------------
Magnitude (a.u.)       :      1.11542
Magnitude (Debye)      :      2.83518

                             ****ORCA TERMINATED NORMALLY****
TOTAL RUN TIME: 0 days 0 hours 0 minutes 7 seconds 115 msec
