                         Program Version 3.0.3 - RELEASE   -
|  1> ! RI PBE def2-SVP def2-SVP/J NBO PAL2
|  2> % maxcore 2000
|  3> % output
|  4>     # printlevel mini
|  5>     print[ P_Basis ] 0
|  6>     print[ P_SCFInfo ] 1
|  7>     print[ P_SCFIterInfo ] 1
|  8>     print[ P_OrbEn ] 0
|  9>     print[ P_Cartesian ] 0
| 10> end
| 11> *xyz 0 1
| 12>  C        1.8057000000    -0.1572720000     1.3079270000
| 13>  C        2.5111810000    -0.2629250000    -0.0376660000
| 14>  C        3.4347670000     0.8818470000    -0.3052960000
| 15>  O        2.7845060000     2.0522980000    -0.4147210000
| 16>  C        3.3986000000     3.2824220000    -0.0447430000
| 17>  N        4.6746590000     0.6237130000    -0.4348210000
| 18>  O        5.4583940000     1.7270770000    -0.7766760000
| 19>  H        1.1196900000    -0.9951650000     1.4478900000
| 20>  H        1.2280740000     0.7661730000     1.3764010000
| 21>  H        2.5263190000    -0.1718180000     2.1289550000
| 22>  H        1.7679550000    -0.2829160000    -0.8425330000
| 23>  H        3.0936480000    -1.1818930000    -0.1053980000
| 24>  H        2.5743540000     3.9706240000     0.1424600000
| 25>  H        4.0349550000     3.6668260000    -0.8398450000
| 26>  H        3.9904900000     3.1646790000     0.8640120000
| 27>  H        6.3356980000     1.3400420000    -0.8227450000
| 28> *
| 29>
| 30>                          ****END OF INPUT****
 Total Charge           Charge          ....    0
 Multiplicity           Mult            ....    1
 Number of Electrons    NEL             ....   56
 Basis Dimension        Dim             ....  143

MULLIKEN ATOMIC CHARGES
-----------------------
   0 C :   -0.046526
   1 C :    0.058512
   2 C :   -0.039735
   3 O :   -0.283754
   4 C :    0.162977
   5 N :   -0.050942
   6 O :   -0.198918
   7 H :    0.025912
   8 H :    0.030685
   9 H :    0.024769
  10 H :    0.030427
  11 H :    0.016462
  12 H :    0.032113
  13 H :    0.041872
  14 H :    0.025822
  15 H :    0.170325
Sum of atomic charges:   -0.0000000

LOEWDIN ATOMIC CHARGES
----------------------
   0 C :   -0.064709
   1 C :   -0.045715
   2 C :   -0.019628
   3 O :   -0.079650
   4 C :    0.066498
   5 N :   -0.075461
   6 O :   -0.067811
   7 H :    0.028511
   8 H :    0.025921
   9 H :    0.027168
  10 H :    0.038629
  11 H :    0.035308
  12 H :    0.022009
  13 H :    0.017803
  14 H :    0.018321
  15 H :    0.072804

  Mayer bond orders larger than 0.1
B(  0-C ,  1-C ) :   1.1007 B(  0-C ,  7-H ) :   0.9631 B(  0-C ,  8-H ) :   0.9673
B(  0-C ,  9-H ) :   0.9679 B(  1-C ,  2-C ) :   1.0477 B(  1-C , 10-H ) :   0.9126
B(  1-C , 11-H ) :   0.9253 B(  2-C ,  3-O ) :   1.1943 B(  2-C ,  5-N ) :   1.8711
B(  3-O ,  4-C ) :   0.9405 B(  4-C , 12-H ) :   0.9708 B(  4-C , 13-H ) :   0.9690
B(  4-C , 14-H ) :   0.9687 B(  5-N ,  6-O ) :   0.9697 B(  6-O , 15-H ) :   0.9759

FINAL SINGLE POINT ENERGY      -362.271470002167

DIPOLE MOMENT
-------------
                                X             Y             Z
Electronic contribution:      4.44700       0.84842      -3.79551
Nuclear contribution   :     -4.27873      -0.53850       4.00377
                        -----------------------------------------
Total Dipole Moment    :      0.16827       0.30992       0.20826
                        -----------------------------------------
Magnitude (a.u.)       :      0.40956
Magnitude (Debye)      :      1.04101

                             ****ORCA TERMINATED NORMALLY****
TOTAL RUN TIME: 0 days 0 hours 0 minutes 7 seconds 189 msec
