                         Program Version 3.0.3 - RELEASE   -
|  1> ! RI PBE def2-SVP def2-SVP/J NBO PAL2
|  2> % maxcore 2000
|  3> % output
|  4>     # printlevel mini
|  5>     print[ P_Basis ] 0
|  6>     print[ P_SCFInfo ] 1
|  7>     print[ P_SCFIterInfo ] 1
|  8>     print[ P_OrbEn ] 0
|  9>     print[ P_Cartesian ] 0
| 10> end
| 11> *xyz 0 1
| 12>  C        0.4047110000     1.4249670000     0.1399520000
| 13>  C        1.4151540000     0.2986260000     0.0040880000
| 14>  C        2.7391080000     0.7989570000    -0.5175470000
| 15>  O        3.6267310000    -0.3136450000    -0.6153100000
| 16>  C        4.8534780000    -0.0591290000    -1.0627820000
| 17>  N        5.2373870000     1.1021430000    -1.3913020000
| 18>  O        6.5645740000     1.0715610000    -1.8224990000
| 19>  H       -0.5489870000     1.0522600000     0.5178570000
| 20>  H        0.2132280000     1.9075020000    -0.8223480000
| 21>  H        0.7563010000     2.1951490000     0.8318560000
| 22>  H        1.0352050000    -0.4718580000    -0.6735610000
| 23>  H        1.5754450000    -0.1857030000     0.9720490000
| 24>  H        3.1791710000     1.5497490000     0.1478320000
| 25>  H        2.6366790000     1.2621940000    -1.5049610000
| 26>  H        5.4846590000    -0.9437200000    -1.1163360000
| 27>  H        6.7340580000     1.9914390000    -2.0384770000
| 28> *
| 29>
| 30>                          ****END OF INPUT****
 Total Charge           Charge          ....    0
 Multiplicity           Mult            ....    1
 Number of Electrons    NEL             ....   56
 Basis Dimension        Dim             ....  143

MULLIKEN ATOMIC CHARGES
-----------------------
   0 C :   -0.040601
   1 C :   -0.037814
   2 C :    0.149115
   3 O :   -0.256592
   4 C :    0.158359
   5 N :   -0.124918
   6 O :   -0.194641
   7 H :    0.026918
   8 H :    0.023910
   9 H :    0.026797
  10 H :    0.027073
  11 H :    0.023153
  12 H :    0.019253
  13 H :    0.012970
  14 H :    0.015385
  15 H :    0.171633
Sum of atomic charges:    0.0000000

LOEWDIN ATOMIC CHARGES
----------------------
   0 C :   -0.063989
   1 C :   -0.056478
   2 C :    0.071437
   3 O :   -0.058220
   4 C :    0.009361
   5 N :   -0.084023
   6 O :   -0.067555
   7 H :    0.030774
   8 H :    0.026549
   9 H :    0.026960
  10 H :    0.029150
  11 H :    0.028663
  12 H :    0.016503
  13 H :    0.015540
  14 H :    0.003683
  15 H :    0.071645

  Mayer bond orders larger than 0.1
B(  0-C ,  1-C ) :   1.1058 B(  0-C ,  7-H ) :   0.9615 B(  0-C ,  8-H ) :   0.9666
B(  0-C ,  9-H ) :   0.9682 B(  1-C ,  2-C ) :   1.0735 B(  1-C , 10-H ) :   0.9363
B(  1-C , 11-H ) :   0.9338 B(  2-C ,  3-O ) :   0.9477 B(  2-C , 12-H ) :   0.9434
B(  2-C , 13-H ) :   0.9401 B(  3-O ,  4-C ) :   1.1766 B(  4-C ,  5-N ) :   1.7502
B(  4-C , 14-H ) :   0.9495 B(  5-N ,  6-O ) :   0.9670 B(  6-O , 15-H ) :   0.9787

FINAL SINGLE POINT ENERGY      -362.273603889728

DIPOLE MOMENT
-------------
                                X             Y             Z
Electronic contribution:     10.23197      -2.11869      -2.99173
Nuclear contribution   :    -10.53606       2.46596       3.03111
                        -----------------------------------------
Total Dipole Moment    :     -0.30409       0.34727       0.03938
                        -----------------------------------------
Magnitude (a.u.)       :      0.46327
Magnitude (Debye)      :      1.17754

                             ****ORCA TERMINATED NORMALLY****
TOTAL RUN TIME: 0 days 0 hours 0 minutes 6 seconds 442 msec
