                         Program Version 3.0.3 - RELEASE   -
|  1> ! RI PBE def2-SVP def2-SVP/J NBO PAL2
|  2> % maxcore 2000
|  3> % output
|  4>     # printlevel mini
|  5>     print[ P_Basis ] 0
|  6>     print[ P_SCFInfo ] 1
|  7>     print[ P_SCFIterInfo ] 1
|  8>     print[ P_OrbEn ] 0
|  9>     print[ P_Cartesian ] 0
| 10> end
| 11> *xyz 0 1
| 12>  C        0.7020130000    -0.0879820000    -0.2248380000
| 13>  C        2.0212080000    -0.2204370000    -0.2632760000
| 14>  C        2.7860170000    -0.5949520000     0.9519510000
| 15>  O        2.2921700000    -0.7285090000     2.0476920000
| 16>  N        4.1520200000    -0.7123180000     0.7306240000
| 17>  C        4.9487730000    -1.6901280000     1.4064610000
| 18>  C        4.7477810000    -1.7556100000    -0.0701030000
| 19>  H        0.1311500000     0.1839430000    -1.1044980000
| 20>  H        0.1686720000    -0.2485950000     0.7059380000
| 21>  H        2.5837270000    -0.0613620000    -1.1773350000
| 22>  H        4.4186720000    -2.4054750000     2.0270560000
| 23>  H        5.8966900000    -1.3399010000     1.7999240000
| 24>  H        4.0933000000    -2.5353270000    -0.4485090000
| 25>  H        5.5432060000    -1.4482490000    -0.7407950000
| 26> *
| 27>
| 28>                          ****END OF INPUT****
 Total Charge           Charge          ....    0
 Multiplicity           Mult            ....    1
 Number of Electrons    NEL             ....   52
 Basis Dimension        Dim             ....  133

MULLIKEN ATOMIC CHARGES
-----------------------
   0 C :    0.024818
   1 C :   -0.069426
   2 C :    0.084001
   3 O :   -0.171564
   4 N :   -0.221291
   5 C :    0.048535
   6 C :    0.030349
   7 H :    0.032814
   8 H :    0.046335
   9 H :    0.000483
  10 H :    0.050840
  11 H :    0.046929
  12 H :    0.050822
  13 H :    0.046354
Sum of atomic charges:    0.0000000

LOEWDIN ATOMIC CHARGES
----------------------
   0 C :    0.007403
   1 C :   -0.069515
   2 C :    0.023410
   3 O :   -0.152987
   4 N :   -0.059803
   5 C :    0.028908
   6 C :    0.026383
   7 H :    0.030650
   8 H :    0.034550
   9 H :    0.027976
  10 H :    0.025526
  11 H :    0.028252
  12 H :    0.024046
  13 H :    0.025202

  Mayer bond orders larger than 0.1
B(  0-C ,  1-C ) :   1.9578 B(  0-C ,  7-H ) :   0.9368 B(  0-C ,  8-H ) :   0.9337
B(  1-C ,  2-C ) :   0.9804 B(  1-C ,  9-H ) :   0.9449 B(  2-C ,  3-O ) :   2.1245
B(  2-C ,  4-N ) :   1.0727 B(  4-N ,  5-C ) :   0.9565 B(  4-N ,  6-C ) :   0.9395
B(  5-C ,  6-C ) :   1.0716 B(  5-C , 10-H ) :   0.9397 B(  5-C , 11-H ) :   0.9479
B(  6-C , 12-H ) :   0.9438 B(  6-C , 13-H ) :   0.9473

FINAL SINGLE POINT ENERGY      -324.026578029958

DIPOLE MOMENT
-------------
                                X             Y             Z
Electronic contribution:     -0.63068       1.42518       2.48529
Nuclear contribution   :      1.09828      -1.83630      -3.42518
                        -----------------------------------------
Total Dipole Moment    :      0.46760      -0.41112      -0.93989
                        -----------------------------------------
Magnitude (a.u.)       :      1.12742
Magnitude (Debye)      :      2.86566

                             ****ORCA TERMINATED NORMALLY****
TOTAL RUN TIME: 0 days 0 hours 0 minutes 6 seconds 408 msec
