                         Program Version 3.0.3 - RELEASE   -
|  1> ! RI PBE def2-SVP def2-SVP/J NBO PAL2
|  2> % maxcore 2000
|  3> % output
|  4>     # printlevel mini
|  5>     print[ P_Basis ] 0
|  6>     print[ P_SCFInfo ] 1
|  7>     print[ P_SCFIterInfo ] 1
|  8>     print[ P_OrbEn ] 0
|  9>     print[ P_Cartesian ] 0
| 10> end
| 11> *xyz 0 1
| 12>  C        0.8414920000     0.0406020000    -0.3000500000
| 13>  C        2.3223190000    -0.0900340000     0.0317750000
| 14>  C        3.1068340000     0.7531500000    -0.9480250000
| 15>  O        3.5869890000     0.3354470000    -1.9642910000
| 16>  N        2.5784290000     0.4004030000     1.3711120000
| 17>  C        2.3598210000    -0.5462690000     2.4441750000
| 18>  C        3.7320360000    -0.1603710000     2.0489540000
| 19>  H        0.6391860000    -0.3325890000    -1.3050640000
| 20>  H        0.5254770000     1.0843680000    -0.2372820000
| 21>  H        0.2476970000    -0.5354720000     0.4127710000
| 22>  H        2.6408100000    -1.1364710000    -0.1024460000
| 23>  H        3.1858060000     1.8248100000    -0.6625790000
| 24>  H        2.0321260000    -1.5480040000     2.1761560000
| 25>  H        1.9150590000    -0.1439980000     3.3475200000
| 26>  H        4.3210660000    -0.9023300000     1.5155410000
| 27>  H        4.3035610000     0.5317680000     2.6567120000
| 28> *
| 29>
| 30>                          ****END OF INPUT****
 Total Charge           Charge          ....    0
 Multiplicity           Mult            ....    1
 Number of Electrons    NEL             ....   54
 Basis Dimension        Dim             ....  143

MULLIKEN ATOMIC CHARGES
-----------------------
   0 C :    0.044507
   1 C :   -0.023598
   2 C :    0.121620
   3 O :   -0.152152
   4 N :   -0.288129
   5 C :    0.038914
   6 C :    0.029805
   7 H :    0.034273
   8 H :    0.028615
   9 H :    0.029837
  10 H :   -0.002552
  11 H :   -0.005768
  12 H :    0.028125
  13 H :    0.040147
  14 H :    0.033006
  15 H :    0.043351
Sum of atomic charges:   -0.0000000

LOEWDIN ATOMIC CHARGES
----------------------
   0 C :   -0.048588
   1 C :   -0.036782
   2 C :    0.096531
   3 O :   -0.101621
   4 N :   -0.106227
   5 C :    0.008263
   6 C :    0.006120
   7 H :    0.035214
   8 H :    0.032403
   9 H :    0.032223
  10 H :    0.012134
  11 H :   -0.009482
  12 H :    0.015302
  13 H :    0.023276
  14 H :    0.017021
  15 H :    0.024214

  Mayer bond orders larger than 0.1
B(  0-C ,  1-C ) :   1.0659 B(  0-C ,  7-H ) :   0.9551 B(  0-C ,  8-H ) :   0.9517
B(  0-C ,  9-H ) :   0.9545 B(  1-C ,  2-C ) :   0.9140 B(  1-C ,  4-N ) :   0.9584
B(  1-C , 10-H ) :   0.8867 B(  2-C ,  3-O ) :   2.2024 B(  2-C , 11-H ) :   0.9209
B(  4-N ,  5-C ) :   0.9616 B(  4-N ,  6-C ) :   0.9566 B(  5-C ,  6-C ) :   1.0991
B(  5-C , 12-H ) :   0.9278 B(  5-C , 13-H ) :   0.9501 B(  6-C , 14-H ) :   0.9302
B(  6-C , 15-H ) :   0.9500

FINAL SINGLE POINT ENERGY      -325.216491834256

DIPOLE MOMENT
-------------
                                X             Y             Z
Electronic contribution:      3.32306       1.60563      -3.48939
Nuclear contribution   :     -3.71260      -1.91357       4.30924
                        -----------------------------------------
Total Dipole Moment    :     -0.38955      -0.30795       0.81985
                        -----------------------------------------
Magnitude (a.u.)       :      0.95851
Magnitude (Debye)      :      2.43633

                             ****ORCA TERMINATED NORMALLY****
TOTAL RUN TIME: 0 days 0 hours 0 minutes 7 seconds 631 msec
