                         Program Version 3.0.3 - RELEASE   -
|  1> ! RI PBE def2-SVP def2-SVP/J NBO PAL2
|  2> % maxcore 2000
|  3> % output
|  4>     # printlevel mini
|  5>     print[ P_Basis ] 0
|  6>     print[ P_SCFInfo ] 1
|  7>     print[ P_SCFIterInfo ] 1
|  8>     print[ P_OrbEn ] 0
|  9>     print[ P_Cartesian ] 0
| 10> end
| 11> *xyz 0 1
| 12>  C        0.4522200000     0.5005640000     0.5164160000
| 13>  C        1.7768200000    -0.0760550000     0.0546570000
| 14>  C        2.9139230000     0.8653820000     0.4204150000
| 15>  O        4.1853990000     0.3943210000     0.0386890000
| 16>  N        2.0032530000    -1.3651360000     0.6934410000
| 17>  C        1.2623890000    -2.4815840000     0.1440270000
| 18>  C        2.7154700000    -2.3622930000    -0.0883920000
| 19>  H        0.2775050000     1.4804730000     0.0662960000
| 20>  H        0.4438570000     0.6112360000     1.6034140000
| 21>  H       -0.3786320000    -0.1506110000     0.2379220000
| 22>  H        1.7635700000    -0.1911290000    -1.0441130000
| 23>  H        2.8733150000     1.0586160000     1.5015500000
| 24>  H        2.7713480000     1.8185090000    -0.0950850000
| 25>  H        4.3715530000    -0.3877680000     0.5647360000
| 26>  H        0.6120030000    -2.2841610000    -0.7051730000
| 27>  H        0.8750000000    -3.1955050000     0.8623730000
| 28>  H        3.0396340000    -2.0816260000    -1.0866050000
| 29>  H        3.4082830000    -2.9903340000     0.4623230000
| 30> *
| 31>
| 32>                          ****END OF INPUT****
 Total Charge           Charge          ....    0
 Multiplicity           Mult            ....    1
 Number of Electrons    NEL             ....   56
 Basis Dimension        Dim             ....  153

MULLIKEN ATOMIC CHARGES
-----------------------
   0 C :    0.032259
   1 C :   -0.058075
   2 C :    0.227013
   3 O :   -0.286261
   4 N :   -0.307138
   5 C :    0.036902
   6 C :    0.014999
   7 H :    0.018611
   8 H :    0.024704
   9 H :    0.015752
  10 H :   -0.010973
  11 H :   -0.007226
  12 H :    0.001129
  13 H :    0.159795
  14 H :    0.029656
  15 H :    0.037527
  16 H :    0.032999
  17 H :    0.038327
Sum of atomic charges:   -0.0000000

LOEWDIN ATOMIC CHARGES
----------------------
   0 C :   -0.059209
   1 C :   -0.018828
   2 C :    0.054582
   3 O :   -0.116672
   4 N :   -0.115658
   5 C :    0.004030
   6 C :   -0.003688
   7 H :    0.029719
   8 H :    0.029540
   9 H :    0.026286
  10 H :    0.004507
  11 H :    0.006603
  12 H :    0.020326
  13 H :    0.067353
  14 H :    0.015271
  15 H :    0.021719
  16 H :    0.014997
  17 H :    0.019122

  Mayer bond orders larger than 0.1
B(  0-C ,  1-C ) :   1.0727 B(  0-C ,  7-H ) :   0.9567 B(  0-C ,  8-H ) :   0.9507
B(  0-C ,  9-H ) :   0.9520 B(  1-C ,  2-C ) :   1.0239 B(  1-C ,  4-N ) :   0.9593
B(  1-C , 10-H ) :   0.8843 B(  2-C ,  3-O ) :   1.0899 B(  2-C , 11-H ) :   0.9264
B(  2-C , 12-H ) :   0.9325 B(  3-O , 13-H ) :   0.9794 B(  4-N ,  5-C ) :   0.9601
B(  4-N ,  6-C ) :   0.9552 B(  5-C ,  6-C ) :   1.0958 B(  5-C , 14-H ) :   0.9254
B(  5-C , 15-H ) :   0.9513 B(  6-C , 16-H ) :   0.9269 B(  6-C , 17-H ) :   0.9480

FINAL SINGLE POINT ENERGY      -326.416694712658

DIPOLE MOMENT
-------------
                                X             Y             Z
Electronic contribution:      3.67588      -0.74866       0.33043
Nuclear contribution   :     -4.08942       0.40032      -0.36026
                        -----------------------------------------
Total Dipole Moment    :     -0.41355      -0.34833      -0.02983
                        -----------------------------------------
Magnitude (a.u.)       :      0.54152
Magnitude (Debye)      :      1.37644

                             ****ORCA TERMINATED NORMALLY****
TOTAL RUN TIME: 0 days 0 hours 0 minutes 8 seconds 24 msec
