                         Program Version 3.0.3 - RELEASE   -
|  1> ! RI PBE def2-SVP def2-SVP/J NBO PAL2
|  2> % maxcore 2000
|  3> % output
|  4>     # printlevel mini
|  5>     print[ P_Basis ] 0
|  6>     print[ P_SCFInfo ] 1
|  7>     print[ P_SCFIterInfo ] 1
|  8>     print[ P_OrbEn ] 0
|  9>     print[ P_Cartesian ] 0
| 10> end
| 11> *xyz 0 1
| 12>  C        1.1339640000     0.8797030000     0.0917320000
| 13>  C        2.5608160000     0.3744210000     0.0465220000
| 14>  C        2.7653930000    -0.7363590000    -0.9561540000
| 15>  O        1.8956270000    -1.1546200000    -1.6809030000
| 16>  N        4.0331990000    -1.3053080000    -0.9229550000
| 17>  C        4.6961210000    -1.7674040000    -2.1058350000
| 18>  C        5.2430480000    -0.6269890000    -1.3174580000
| 19>  H        1.0338260000     1.6824380000     0.8248060000
| 20>  H        0.4452580000     0.0779270000     0.3614040000
| 21>  H        0.8214120000     1.2594000000    -0.8818910000
| 22>  H        2.8877490000     0.0022760000     1.0227440000
| 23>  H        3.2569190000     1.1842210000    -0.2017530000
| 24>  H        4.2156230000    -1.5465630000    -3.0535450000
| 25>  H        5.1660610000    -2.7421300000    -2.0357010000
| 26>  H        5.1488390000     0.3644870000    -1.7515590000
| 27>  H        6.1046550000    -0.7693110000    -0.6736540000
| 28> *
| 29>
| 30>                          ****END OF INPUT****
 Total Charge           Charge          ....    0
 Multiplicity           Mult            ....    1
 Number of Electrons    NEL             ....   54
 Basis Dimension        Dim             ....  143

MULLIKEN ATOMIC CHARGES
-----------------------
   0 C :   -0.004585
   1 C :   -0.040603
   2 C :    0.026186
   3 O :   -0.174311
   4 N :   -0.218760
   5 C :    0.051280
   6 C :    0.034320
   7 H :    0.017268
   8 H :    0.033836
   9 H :    0.030102
  10 H :    0.037122
  11 H :    0.029739
  12 H :    0.045159
  13 H :    0.044698
  14 H :    0.045610
  15 H :    0.042940
Sum of atomic charges:   -0.0000000

LOEWDIN ATOMIC CHARGES
----------------------
   0 C :   -0.062666
   1 C :   -0.075322
   2 C :    0.033457
   3 O :   -0.148461
   4 N :   -0.068659
   5 C :    0.028298
   6 C :    0.025392
   7 H :    0.027427
   8 H :    0.033193
   9 H :    0.031071
  10 H :    0.042917
  11 H :    0.038545
  12 H :    0.023486
  13 H :    0.026606
  14 H :    0.020579
  15 H :    0.024138

  Mayer bond orders larger than 0.1
B(  0-C ,  1-C ) :   1.1305 B(  0-C ,  7-H ) :   0.9558 B(  0-C ,  8-H ) :   0.9649
B(  0-C ,  9-H ) :   0.9647 B(  1-C ,  2-C ) :   0.9729 B(  1-C , 10-H ) :   0.9153
B(  1-C , 11-H ) :   0.9148 B(  2-C ,  3-O ) :   2.1359 B(  2-C ,  4-N ) :   1.0908
B(  4-N ,  5-C ) :   0.9583 B(  4-N ,  6-C ) :   0.9445 B(  5-C ,  6-C ) :   1.0769
B(  5-C , 12-H ) :   0.9399 B(  5-C , 13-H ) :   0.9484 B(  6-C , 14-H ) :   0.9404
B(  6-C , 15-H ) :   0.9471

FINAL SINGLE POINT ENERGY      -325.249337219400

DIPOLE MOMENT
-------------
                                X             Y             Z
Electronic contribution:      0.39627      -4.10017      -2.07599
Nuclear contribution   :      0.59998       4.62321       2.27491
                        -----------------------------------------
Total Dipole Moment    :      0.99625       0.52304       0.19892
                        -----------------------------------------
Magnitude (a.u.)       :      1.14265
Magnitude (Debye)      :      2.90438

                             ****ORCA TERMINATED NORMALLY****
TOTAL RUN TIME: 0 days 0 hours 0 minutes 7 seconds 551 msec
