                         Program Version 3.0.3 - RELEASE   -
|  1> ! RI PBE def2-SVP def2-SVP/J NBO PAL2
|  2> % maxcore 2000
|  3> % output
|  4>     # printlevel mini
|  5>     print[ P_Basis ] 0
|  6>     print[ P_SCFInfo ] 1
|  7>     print[ P_SCFIterInfo ] 1
|  8>     print[ P_OrbEn ] 0
|  9>     print[ P_Cartesian ] 0
| 10> end
| 11> *xyz 0 1
| 12>  C        1.0792090000     0.0896130000    -0.2909190000
| 13>  C        2.5771560000     0.1355450000    -0.0040020000
| 14>  C        2.8932620000     1.5749410000     0.3481680000
| 15>  O        3.2545620000     2.4053860000    -0.4371760000
| 16>  N        2.9748750000    -0.7134300000     1.1028580000
| 17>  C        2.5177440000    -2.0807320000     0.9957350000
| 18>  C        4.4103370000    -0.6720130000     1.2880500000
| 19>  H        0.8292660000     0.8341400000    -1.0484370000
| 20>  H        0.5044400000     0.3021190000     0.6143280000
| 21>  H        0.7773960000    -0.8865090000    -0.6717980000
| 22>  H        3.1251520000    -0.1045010000    -0.9331710000
| 23>  H        2.7130990000     1.8222070000     1.4183690000
| 24>  H        1.4292810000    -2.1322100000     1.0063970000
| 25>  H        2.8816290000    -2.6434390000     1.8578070000
| 26>  H        2.8825360000    -2.5881870000     0.0845720000
| 27>  H        4.7511850000     0.3579330000     1.4212270000
| 28>  H        4.9627020000    -1.0998060000     0.4326880000
| 29>  H        4.6831590000    -1.2310490000     2.1852050000
| 30> *
| 31>
| 32>                          ****END OF INPUT****
 Total Charge           Charge          ....    0
 Multiplicity           Mult            ....    1
 Number of Electrons    NEL             ....   56
 Basis Dimension        Dim             ....  153

MULLIKEN ATOMIC CHARGES
-----------------------
   0 C :    0.004092
   1 C :    0.015942
   2 C :    0.086336
   3 O :   -0.152762
   4 N :   -0.335039
   5 C :    0.084066
   6 C :    0.092428
   7 H :    0.039884
   8 H :    0.032208
   9 H :    0.039073
  10 H :   -0.007097
  11 H :   -0.007241
  12 H :    0.034785
  13 H :    0.022950
  14 H :   -0.004026
  15 H :    0.033318
  16 H :   -0.004438
  17 H :    0.025522
Sum of atomic charges:    0.0000000

LOEWDIN ATOMIC CHARGES
----------------------
   0 C :   -0.054145
   1 C :   -0.028868
   2 C :    0.087482
   3 O :   -0.102786
   4 N :   -0.111423
   5 C :    0.002157
   6 C :    0.005806
   7 H :    0.038862
   8 H :    0.032080
   9 H :    0.031888
  10 H :    0.009178
  11 H :   -0.011504
  12 H :    0.023328
  13 H :    0.025484
  14 H :    0.001147
  15 H :    0.024891
  16 H :    0.002062
  17 H :    0.024359

  Mayer bond orders larger than 0.1
B(  0-C ,  1-C ) :   1.0659 B(  0-C ,  7-H ) :   0.9507 B(  0-C ,  8-H ) :   0.9507
B(  0-C ,  9-H ) :   0.9515 B(  1-C ,  2-C ) :   0.9138 B(  1-C ,  4-N ) :   0.9969
B(  1-C , 10-H ) :   0.8853 B(  2-C ,  3-O ) :   2.1862 B(  2-C , 11-H ) :   0.9133
B(  4-N ,  5-C ) :   1.0343 B(  4-N ,  6-C ) :   1.0303 B(  5-C , 12-H ) :   0.9635
B(  5-C , 13-H ) :   0.9640 B(  5-C , 14-H ) :   0.9398 B(  6-C , 15-H ) :   0.9580
B(  6-C , 16-H ) :   0.9363 B(  6-C , 17-H ) :   0.9668

FINAL SINGLE POINT ENERGY      -326.438293729755

DIPOLE MOMENT
-------------
                                X             Y             Z
Electronic contribution:      1.15067       6.94011      -1.27250
Nuclear contribution   :     -1.39727      -7.86552       1.58333
                        -----------------------------------------
Total Dipole Moment    :     -0.24660      -0.92541       0.31083
                        -----------------------------------------
Magnitude (a.u.)       :      1.00688
Magnitude (Debye)      :      2.55930

                             ****ORCA TERMINATED NORMALLY****
TOTAL RUN TIME: 0 days 0 hours 0 minutes 8 seconds 17 msec
