                         Program Version 3.0.3 - RELEASE   -
|  1> ! RI PBE def2-SVP def2-SVP/J NBO PAL2
|  2> % maxcore 2000
|  3> % output
|  4>     # printlevel mini
|  5>     print[ P_Basis ] 0
|  6>     print[ P_SCFInfo ] 1
|  7>     print[ P_SCFIterInfo ] 1
|  8>     print[ P_OrbEn ] 0
|  9>     print[ P_Cartesian ] 0
| 10> end
| 11> *xyz 0 1
| 12>  C        1.5044050000     1.0178460000     0.4119630000
| 13>  C        2.1831730000    -0.3370890000     0.2634860000
| 14>  C        2.5125070000    -0.9530130000     1.6196210000
| 15>  O        3.0804980000    -2.2255790000     1.4671640000
| 16>  N        1.4623520000    -1.3302210000    -0.5369060000
| 17>  C        0.0771060000    -1.5238230000    -0.1652180000
| 18>  C        1.6040610000    -1.1370630000    -1.9611810000
| 19>  H        2.1694290000     1.7165670000     0.9252320000
| 20>  H        0.5849340000     0.9471850000     0.9982520000
| 21>  H        1.2553870000     1.4540100000    -0.5581720000
| 22>  H        3.1390700000    -0.1946180000    -0.2530770000
| 23>  H        1.6060530000    -0.9960980000     2.2449050000
| 24>  H        3.2300500000    -0.3140760000     2.1427970000
| 25>  H        2.6560630000    -2.5766880000     0.6683520000
| 26>  H       -0.0123150000    -1.6832260000     0.9106400000
| 27>  H       -0.3081260000    -2.4154910000    -0.6656490000
| 28>  H       -0.5722110000    -0.6780060000    -0.4429560000
| 29>  H        2.6616290000    -1.0739300000    -2.2255440000
| 30>  H        1.1003850000    -0.2292360000    -2.3346430000
| 31>  H        1.1739480000    -1.9914610000    -2.4899760000
| 32> *
| 33>
| 34>                          ****END OF INPUT****
 Total Charge           Charge          ....    0
 Multiplicity           Mult            ....    1
 Number of Electrons    NEL             ....   58
 Basis Dimension        Dim             ....  163

MULLIKEN ATOMIC CHARGES
-----------------------
   0 C :    0.017544
   1 C :   -0.094846
   2 C :    0.221228
   3 O :   -0.280609
   4 N :   -0.362167
   5 C :    0.093517
   6 C :    0.108390
   7 H :    0.026050
   8 H :    0.022376
   9 H :    0.017565
  10 H :    0.008417
  11 H :   -0.014315
  12 H :    0.003531
  13 H :    0.137848
  14 H :    0.028540
  15 H :    0.022030
  16 H :    0.004571
  17 H :    0.023995
  18 H :   -0.005051
  19 H :    0.021386
Sum of atomic charges:   -0.0000000

LOEWDIN ATOMIC CHARGES
----------------------
   0 C :   -0.072275
   1 C :   -0.015773
   2 C :    0.048396
   3 O :   -0.129210
   4 N :   -0.104218
   5 C :    0.002170
   6 C :    0.005392
   7 H :    0.033292
   8 H :    0.025843
   9 H :    0.026684
  10 H :    0.024142
  11 H :   -0.003767
  12 H :    0.017863
  13 H :    0.042011
  14 H :    0.024584
  15 H :    0.024099
  16 H :    0.003877
  17 H :    0.023794
  18 H :    0.000016
  19 H :    0.023081

  Mayer bond orders larger than 0.1
B(  0-C ,  1-C ) :   1.0754 B(  0-C ,  7-H ) :   0.9538 B(  0-C ,  8-H ) :   0.9474
B(  0-C ,  9-H ) :   0.9487 B(  1-C ,  2-C ) :   1.0360 B(  1-C ,  4-N ) :   1.0053
B(  1-C , 10-H ) :   0.9084 B(  2-C ,  3-O ) :   1.1104 B(  2-C , 11-H ) :   0.9077
B(  2-C , 12-H ) :   0.9325 B(  3-O , 13-H ) :   0.9496 B(  4-N ,  5-C ) :   1.0179
B(  4-N ,  6-C ) :   1.0304 B(  4-N , 13-H ) :   0.1049 B(  5-C , 14-H ) :   0.9652
B(  5-C , 15-H ) :   0.9646 B(  5-C , 16-H ) :   0.9415 B(  6-C , 17-H ) :   0.9657
B(  6-C , 18-H ) :   0.9419 B(  6-C , 19-H ) :   0.9658

FINAL SINGLE POINT ENERGY      -327.642127309502

DIPOLE MOMENT
-------------
                                X             Y             Z
Electronic contribution:      3.52268      -3.46386       2.37196
Nuclear contribution   :     -4.11892       3.97534      -2.99443
                        -----------------------------------------
Total Dipole Moment    :     -0.59624       0.51148      -0.62248
                        -----------------------------------------
Magnitude (a.u.)       :      1.00229
Magnitude (Debye)      :      2.54762

                             ****ORCA TERMINATED NORMALLY****
TOTAL RUN TIME: 0 days 0 hours 0 minutes 9 seconds 70 msec
