                         Program Version 3.0.3 - RELEASE   -
|  1> ! RI PBE def2-SVP def2-SVP/J NBO PAL2
|  2> % maxcore 2000
|  3> % output
|  4>     # printlevel mini
|  5>     print[ P_Basis ] 0
|  6>     print[ P_SCFInfo ] 1
|  7>     print[ P_SCFIterInfo ] 1
|  8>     print[ P_OrbEn ] 0
|  9>     print[ P_Cartesian ] 0
| 10> end
| 11> *xyz 0 1
| 12>  C        1.1092620000    -0.1324810000     0.1355990000
| 13>  C        2.6057940000    -0.2253910000    -0.0842050000
| 14>  C        3.3670160000     0.7930840000     0.7483810000
| 15>  O        2.7776100000     1.5626140000     1.4857640000
| 16>  N        4.7268940000     0.8063290000     0.6368940000
| 17>  C        5.5018340000    -0.0647210000    -0.2056980000
| 18>  C        5.4887730000     1.7557390000     1.4097200000
| 19>  H        0.5891350000    -0.8744190000    -0.4741190000
| 20>  H        0.7367570000     0.8579310000    -0.1272930000
| 21>  H        0.8570670000    -0.3028500000     1.1825750000
| 22>  H        2.8443860000    -0.0727610000    -1.1424550000
| 23>  H        2.9643560000    -1.2304110000     0.1638040000
| 24>  H        4.8684630000    -0.7525940000    -0.7578000000
| 25>  H        6.2063220000    -0.6546710000     0.3924510000
| 26>  H        6.0861380000     0.5165020000    -0.9288170000
| 27>  H        4.8009800000     2.3536190000     2.0022870000
| 28>  H        6.0675770000     2.4125040000     0.7510690000
| 29>  H        6.1877350000     1.2378880000     2.0756440000
| 30> *
| 31>
| 32>                          ****END OF INPUT****
 Total Charge           Charge          ....    0
 Multiplicity           Mult            ....    1
 Number of Electrons    NEL             ....   56
 Basis Dimension        Dim             ....  153

MULLIKEN ATOMIC CHARGES
-----------------------
   0 C :    0.027358
   1 C :   -0.101196
   2 C :    0.064204
   3 O :   -0.225244
   4 N :   -0.280447
   5 C :    0.097392
   6 C :    0.088440
   7 H :    0.007136
   8 H :    0.027582
   9 H :    0.027796
  10 H :    0.040220
  11 H :    0.036724
  12 H :    0.036824
  13 H :    0.025775
  14 H :    0.026297
  15 H :    0.054026
  16 H :    0.023463
  17 H :    0.023650
Sum of atomic charges:   -0.0000000

LOEWDIN ATOMIC CHARGES
----------------------
   0 C :   -0.057370
   1 C :   -0.080149
   2 C :    0.031472
   3 O :   -0.193773
   4 N :   -0.039057
   5 C :    0.017125
   6 C :    0.015378
   7 H :    0.023935
   8 H :    0.031052
   9 H :    0.031114
  10 H :    0.035483
  11 H :    0.034923
  12 H :    0.030153
  13 H :    0.022550
  14 H :    0.022673
  15 H :    0.033575
  16 H :    0.020570
  17 H :    0.020347

  Mayer bond orders larger than 0.1
B(  0-C ,  1-C ) :   1.1316 B(  0-C ,  7-H ) :   0.9531 B(  0-C ,  8-H ) :   0.9633
B(  0-C ,  9-H ) :   0.9635 B(  1-C ,  2-C ) :   0.9753 B(  1-C , 10-H ) :   0.9170
B(  1-C , 11-H ) :   0.9166 B(  2-C ,  3-O ) :   2.0423 B(  2-C ,  4-N ) :   1.1779
B(  4-N ,  5-C ) :   1.0114 B(  4-N ,  6-C ) :   0.9914 B(  5-C , 12-H ) :   0.9554
B(  5-C , 13-H ) :   0.9588 B(  5-C , 14-H ) :   0.9591 B(  6-C , 15-H ) :   0.9478
B(  6-C , 16-H ) :   0.9656 B(  6-C , 17-H ) :   0.9662

FINAL SINGLE POINT ENERGY      -326.485718304171

DIPOLE MOMENT
-------------
                                X             Y             Z
Electronic contribution:     -0.86651       2.70884       2.47705
Nuclear contribution   :      1.81504      -3.37824      -3.15680
                        -----------------------------------------
Total Dipole Moment    :      0.94853      -0.66941      -0.67976
                        -----------------------------------------
Magnitude (a.u.)       :      1.34532
Magnitude (Debye)      :      3.41952

                             ****ORCA TERMINATED NORMALLY****
TOTAL RUN TIME: 0 days 0 hours 0 minutes 8 seconds 396 msec
