                         Program Version 3.0.3 - RELEASE   -
|  1> ! RI PBE def2-SVP def2-SVP/J NBO PAL2
|  2> % maxcore 2000
|  3> % output
|  4>     # printlevel mini
|  5>     print[ P_Basis ] 0
|  6>     print[ P_SCFInfo ] 1
|  7>     print[ P_SCFIterInfo ] 1
|  8>     print[ P_OrbEn ] 0
|  9>     print[ P_Cartesian ] 0
| 10> end
| 11> *xyz 0 1
| 12>  C        0.9288620000    -0.1448310000     0.3058350000
| 13>  C        2.3285140000    -0.3046040000    -0.2492120000
| 14>  C        3.3904650000     0.2699070000     0.6653640000
| 15>  O        3.1457820000     0.7995480000     1.7256410000
| 16>  N        4.6708150000     0.1391790000     0.1872890000
| 17>  C        5.7877220000     0.5954610000     0.8651910000
| 18>  C        7.0379560000     0.4834850000     0.4284700000
| 19>  H        0.1938990000    -0.5700250000    -0.3800800000
| 20>  H        0.6897250000     0.9076290000     0.4618250000
| 21>  H        0.8331620000    -0.6445900000     1.2703410000
| 22>  H        2.4185940000     0.1846680000    -1.2262150000
| 23>  H        2.5615280000    -1.3621460000    -0.4205200000
| 24>  H        4.8030560000    -0.3123420000    -0.7030150000
| 25>  H        5.5375020000     1.0640860000     1.8092640000
| 26>  H        7.2834190000     0.0132810000    -0.5177920000
| 27>  H        7.8544870000     0.8682830000     1.0224050000
| 28> *
| 29>
| 30>                          ****END OF INPUT****
 Total Charge           Charge          ....    0
 Multiplicity           Mult            ....    1
 Number of Electrons    NEL             ....   54
 Basis Dimension        Dim             ....  143

MULLIKEN ATOMIC CHARGES
-----------------------
   0 C :    0.007074
   1 C :   -0.071550
   2 C :    0.022420
   3 O :   -0.199121
   4 N :   -0.061746
   5 C :    0.039345
   6 C :   -0.070468
   7 H :    0.016944
   8 H :    0.033991
   9 H :    0.032381
  10 H :    0.033150
  11 H :    0.038949
  12 H :    0.108504
  13 H :    0.027603
  14 H :    0.009416
  15 H :    0.033108
Sum of atomic charges:   -0.0000000

LOEWDIN ATOMIC CHARGES
----------------------
   0 C :   -0.058174
   1 C :   -0.080693
   2 C :    0.036998
   3 O :   -0.168233
   4 N :    0.032251
   5 C :    0.019752
   6 C :   -0.116662
   7 H :    0.027750
   8 H :    0.033110
   9 H :    0.033323
  10 H :    0.037803
  11 H :    0.038440
  12 H :    0.079772
  13 H :    0.033958
  14 H :    0.018660
  15 H :    0.031944

  Mayer bond orders larger than 0.1
B(  0-C ,  1-C ) :   1.1369 B(  0-C ,  7-H ) :   0.9543 B(  0-C ,  8-H ) :   0.9655
B(  0-C ,  9-H ) :   0.9638 B(  1-C ,  2-C ) :   0.9622 B(  1-C , 10-H ) :   0.9174
B(  1-C , 11-H ) :   0.9206 B(  2-C ,  3-O ) :   2.0826 B(  2-C ,  4-N ) :   1.1572
B(  4-N ,  5-C ) :   1.1196 B(  4-N , 12-H ) :   0.9199 B(  5-C ,  6-C ) :   1.8952
B(  5-C , 13-H ) :   0.9523 B(  6-C , 14-H ) :   0.9497 B(  6-C , 15-H ) :   0.9449

FINAL SINGLE POINT ENERGY      -325.282441835074

DIPOLE MOMENT
-------------
                                X             Y             Z
Electronic contribution:      2.50569       1.49045       2.42059
Nuclear contribution   :     -2.36345      -2.04153      -3.50008
                        -----------------------------------------
Total Dipole Moment    :      0.14225      -0.55108      -1.07949
                        -----------------------------------------
Magnitude (a.u.)       :      1.22033
Magnitude (Debye)      :      3.10184

                             ****ORCA TERMINATED NORMALLY****
TOTAL RUN TIME: 0 days 0 hours 0 minutes 7 seconds 153 msec
