                         Program Version 3.0.3 - RELEASE   -
|  1> ! RI PBE def2-SVP def2-SVP/J NBO PAL2
|  2> % maxcore 2000
|  3> % output
|  4>     # printlevel mini
|  5>     print[ P_Basis ] 0
|  6>     print[ P_SCFInfo ] 1
|  7>     print[ P_SCFIterInfo ] 1
|  8>     print[ P_OrbEn ] 0
|  9>     print[ P_Cartesian ] 0
| 10> end
| 11> *xyz 0 1
| 12>  C        0.8279340000    -0.1545710000    -0.0984480000
| 13>  C        2.3298090000    -0.0275180000     0.0941930000
| 14>  C        3.0072900000     0.5213720000    -1.1383570000
| 15>  O        4.3971590000     0.6059790000    -0.8713100000
| 16>  N        5.0525700000     1.1037710000    -1.9759080000
| 17>  C        6.3013310000     1.1978060000    -1.7840690000
| 18>  C        7.1839280000     1.7148070000    -2.8595960000
| 19>  H        0.3488150000    -0.5521040000     0.7982560000
| 20>  H        0.5882350000    -0.8263300000    -0.9272390000
| 21>  H        0.3709780000     0.8147400000    -0.3157900000
| 22>  H        2.7647830000    -1.0028430000     0.3333600000
| 23>  H        2.5486730000     0.6295740000     0.9415370000
| 24>  H        2.6211500000     1.5167950000    -1.3887660000
| 25>  H        2.8395530000    -0.1320120000    -2.0030050000
| 26>  H        6.7321400000     0.8984050000    -0.8258930000
| 27>  H        6.5984780000     1.9661690000    -3.7437260000
| 28>  H        7.9387990000     0.9708320000    -3.1319310000
| 29>  H        7.7221740000     2.6063400000    -2.5235070000
| 30> *
| 31>
| 32>                          ****END OF INPUT****
 Total Charge           Charge          ....    0
 Multiplicity           Mult            ....    1
 Number of Electrons    NEL             ....   56
 Basis Dimension        Dim             ....  153

MULLIKEN ATOMIC CHARGES
-----------------------
   0 C :   -0.040162
   1 C :   -0.058595
   2 C :    0.202360
   3 O :   -0.290434
   4 N :    0.006904
   5 C :   -0.093996
   6 C :    0.033428
   7 H :    0.026572
   8 H :    0.024805
   9 H :    0.024041
  10 H :    0.021348
  11 H :    0.024105
  12 H :    0.000598
  13 H :    0.003082
  14 H :    0.003236
  15 H :    0.033208
  16 H :    0.041144
  17 H :    0.038356
Sum of atomic charges:   -0.0000000

LOEWDIN ATOMIC CHARGES
----------------------
   0 C :   -0.063723
   1 C :   -0.057684
   2 C :    0.053603
   3 O :   -0.092365
   4 N :   -0.006740
   5 C :   -0.035582
   6 C :   -0.071452
   7 H :    0.029831
   8 H :    0.026025
   9 H :    0.025971
  10 H :    0.027426
  11 H :    0.027739
  12 H :    0.007801
  13 H :    0.008105
  14 H :    0.003313
  15 H :    0.037415
  16 H :    0.040294
  17 H :    0.040023

  Mayer bond orders larger than 0.1
B(  0-C ,  1-C ) :   1.1052 B(  0-C ,  7-H ) :   0.9627 B(  0-C ,  8-H ) :   0.9686
B(  0-C ,  9-H ) :   0.9673 B(  1-C ,  2-C ) :   1.0830 B(  1-C , 10-H ) :   0.9343
B(  1-C , 11-H ) :   0.9367 B(  2-C ,  3-O ) :   0.9581 B(  2-C , 12-H ) :   0.9396
B(  2-C , 13-H ) :   0.9418 B(  3-O ,  4-N ) :   0.9507 B(  3-O ,  5-C ) :   0.1096
B(  4-N ,  5-C ) :   1.9047 B(  5-C ,  6-C ) :   1.0768 B(  5-C , 14-H ) :   0.9386
B(  6-C , 15-H ) :   0.9539 B(  6-C , 16-H ) :   0.9463 B(  6-C , 17-H ) :   0.9459

FINAL SINGLE POINT ENERGY      -326.410163335977

DIPOLE MOMENT
-------------
                                X             Y             Z
Electronic contribution:      4.26552       0.78620      -0.59188
Nuclear contribution   :     -4.15947      -0.79574       0.65676
                        -----------------------------------------
Total Dipole Moment    :      0.10605      -0.00954       0.06488
                        -----------------------------------------
Magnitude (a.u.)       :      0.12469
Magnitude (Debye)      :      0.31694

                             ****ORCA TERMINATED NORMALLY****
TOTAL RUN TIME: 0 days 0 hours 0 minutes 7 seconds 529 msec
