                         Program Version 3.0.3 - RELEASE   -
|  1> ! RI PBE def2-SVP def2-SVP/J NBO PAL2
|  2> % maxcore 2000
|  3> % output
|  4>     # printlevel mini
|  5>     print[ P_Basis ] 0
|  6>     print[ P_SCFInfo ] 1
|  7>     print[ P_SCFIterInfo ] 1
|  8>     print[ P_OrbEn ] 0
|  9>     print[ P_Cartesian ] 0
| 10> end
| 11> *xyz 0 1
| 12>  C        0.8660110000     1.6207110000     1.3122480000
| 13>  C        1.4836300000     0.8266730000     0.4489420000
| 14>  C        2.8664880000     0.3575320000     0.7165690000
| 15>  O        3.5001490000     0.6570500000     1.7018060000
| 16>  N        3.3781470000    -0.4622390000    -0.2722080000
| 17>  C        4.6488610000    -1.0116870000    -0.2274030000
| 18>  N        5.1822170000    -1.7664020000    -1.0898340000
| 19>  H       -0.1423510000     1.9758660000     1.1393610000
| 20>  H        1.3751630000     1.9287280000     2.2190060000
| 21>  H        0.9941910000     0.5047860000    -0.4660620000
| 22>  H        2.7975670000    -0.6727050000    -1.0688810000
| 23>  H        5.1920560000    -0.7246750000     0.6697900000
| 24>  H        4.5618500000    -1.9542270000    -1.8788340000
| 25> *
| 26>
| 27>                          ****END OF INPUT****
 Total Charge           Charge          ....    0
 Multiplicity           Mult            ....    1
 Number of Electrons    NEL             ....   52
 Basis Dimension        Dim             ....  128

MULLIKEN ATOMIC CHARGES
-----------------------
   0 C :    0.034328
   1 C :   -0.087290
   2 C :    0.104959
   3 O :   -0.185004
   4 N :   -0.077041
   5 C :   -0.003228
   6 N :   -0.103361
   7 H :    0.037451
   8 H :    0.051406
   9 H :   -0.003943
  10 H :    0.108515
  11 H :    0.046614
  12 H :    0.076593
Sum of atomic charges:   -0.0000000

LOEWDIN ATOMIC CHARGES
----------------------
   0 C :    0.020450
   1 C :   -0.079097
   2 C :    0.040119
   3 O :   -0.159352
   4 N :    0.015145
   5 C :    0.043793
   6 N :   -0.122737
   7 H :    0.033509
   8 H :    0.038440
   9 H :    0.024643
  10 H :    0.074862
  11 H :    0.027276
  12 H :    0.042948

  Mayer bond orders larger than 0.1
B(  0-C ,  1-C ) :   1.9791 B(  0-C ,  7-H ) :   0.9377 B(  0-C ,  8-H ) :   0.9324
B(  1-C ,  2-C ) :   0.9629 B(  1-C ,  9-H ) :   0.9403 B(  2-C ,  3-O ) :   2.0892
B(  2-C ,  4-N ) :   1.1063 B(  4-N ,  5-C ) :   1.0837 B(  4-N , 10-H ) :   0.9109
B(  5-C ,  6-N ) :   2.0125 B(  5-C , 11-H ) :   0.9374 B(  6-N , 12-H ) :   0.9403

FINAL SINGLE POINT ENERGY      -340.091035199795

DIPOLE MOMENT
-------------
                                X             Y             Z
Electronic contribution:      2.34525      -0.68585       0.63817
Nuclear contribution   :     -3.86398       0.88029      -1.46933
                        -----------------------------------------
Total Dipole Moment    :     -1.51873       0.19444      -0.83116
                        -----------------------------------------
Magnitude (a.u.)       :      1.74218
Magnitude (Debye)      :      4.42826

                             ****ORCA TERMINATED NORMALLY****
TOTAL RUN TIME: 0 days 0 hours 0 minutes 5 seconds 959 msec
