                         Program Version 3.0.3 - RELEASE   -
|  1> ! RI PBE def2-SVP def2-SVP/J NBO PAL2
|  2> % maxcore 2000
|  3> % output
|  4>     # printlevel mini
|  5>     print[ P_Basis ] 0
|  6>     print[ P_SCFInfo ] 1
|  7>     print[ P_SCFIterInfo ] 1
|  8>     print[ P_OrbEn ] 0
|  9>     print[ P_Cartesian ] 0
| 10> end
| 11> *xyz 0 1
| 12>  C       -1.2049420000     1.5221670000     0.6495900000
| 13>  C       -0.3648110000     2.3956850000     0.1157760000
| 14>  C        1.0718520000     2.1546440000    -0.1831390000
| 15>  O        1.4277060000     0.8339390000     0.1891020000
| 16>  N        2.7517150000     0.5919330000    -0.1440540000
| 17>  C        2.9334850000    -0.4199040000    -1.0761360000
| 18>  N        2.0878970000    -0.9359090000    -1.8563220000
| 19>  H       -2.2394500000     1.7873260000     0.8310180000
| 20>  H       -0.8891650000     0.5219910000     0.9197390000
| 21>  H       -0.7091140000     3.3934090000    -0.1455880000
| 22>  H        1.6967950000     2.8758410000     0.3618210000
| 23>  H        1.2687620000     2.3043830000    -1.2528460000
| 24>  H        3.2988070000     0.4852630000     0.7022710000
| 25>  H        3.9839920000    -0.7181010000    -1.1233560000
| 26>  H        1.1569590000    -0.5632560000    -1.6672660000
| 27> *
| 28>
| 29>                          ****END OF INPUT****
 Total Charge           Charge          ....    0
 Multiplicity           Mult            ....    1
 Number of Electrons    NEL             ....   54
 Basis Dimension        Dim             ....  138

MULLIKEN ATOMIC CHARGES
-----------------------
   0 C :   -0.013570
   1 C :   -0.151075
   2 C :    0.266955
   3 O :   -0.310588
   4 N :    0.005670
   5 C :   -0.019584
   6 N :   -0.134372
   7 H :    0.030124
   8 H :    0.033142
   9 H :    0.016328
  10 H :    0.015636
  11 H :    0.028644
  12 H :    0.130364
  13 H :    0.013180
  14 H :    0.089145
Sum of atomic charges:   -0.0000000

LOEWDIN ATOMIC CHARGES
----------------------
   0 C :   -0.055884
   1 C :   -0.053095
   2 C :    0.056647
   3 O :   -0.103962
   4 N :    0.050622
   5 C :   -0.007071
   6 N :   -0.144068
   7 H :    0.028187
   8 H :    0.026031
   9 H :    0.033076
  10 H :    0.019697
  11 H :    0.023681
  12 H :    0.066498
  13 H :    0.017070
  14 H :    0.042571

  Mayer bond orders larger than 0.1
B(  0-C ,  1-C ) :   2.0301 B(  0-C ,  7-H ) :   0.9424 B(  0-C ,  8-H ) :   0.9408
B(  1-C ,  2-C ) :   1.0516 B(  1-C ,  9-H ) :   0.9455 B(  2-C ,  3-O ) :   0.9546
B(  2-C , 10-H ) :   0.9197 B(  2-C , 11-H ) :   0.9265 B(  3-O ,  4-N ) :   0.9494
B(  4-N ,  5-C ) :   1.1017 B(  4-N ,  6-N ) :   0.1042 B(  4-N , 12-H ) :   0.9243
B(  5-C ,  6-N ) :   2.0362 B(  5-C , 13-H ) :   0.9339 B(  6-N , 14-H ) :   0.9327

FINAL SINGLE POINT ENERGY      -341.196730138456

DIPOLE MOMENT
-------------
                                X             Y             Z
Electronic contribution:      2.67864      -2.02967      -0.31336
Nuclear contribution   :     -2.44412       2.96067       1.13303
                        -----------------------------------------
Total Dipole Moment    :      0.23452       0.93100       0.81967
                        -----------------------------------------
Magnitude (a.u.)       :      1.26239
Magnitude (Debye)      :      3.20874

                             ****ORCA TERMINATED NORMALLY****
TOTAL RUN TIME: 0 days 0 hours 0 minutes 6 seconds 603 msec
