                         Program Version 3.0.3 - RELEASE   -
|  1> ! RI PBE def2-SVP def2-SVP/J NBO PAL2
|  2> % maxcore 2000
|  3> % output
|  4>     # printlevel mini
|  5>     print[ P_Basis ] 0
|  6>     print[ P_SCFInfo ] 1
|  7>     print[ P_SCFIterInfo ] 1
|  8>     print[ P_OrbEn ] 0
|  9>     print[ P_Cartesian ] 0
| 10> end
| 11> *xyz 0 1
| 12>  C        1.2500360000     0.1203660000    -0.7774510000
| 13>  C        2.2452290000     0.8347700000     0.1345570000
| 14>  C        2.6766180000     2.1124450000    -0.5549180000
| 15>  O        3.6821950000     2.2296200000    -1.1984290000
| 16>  N        1.6268770000     1.1762490000     1.3890700000
| 17>  C        2.1620350000     0.7318040000     2.4475260000
| 18>  N        1.7097600000     1.0419230000     3.6905580000
| 19>  H        1.7079650000    -0.1186250000    -1.7394240000
| 20>  H        0.3714520000     0.7472440000    -0.9468900000
| 21>  H        0.9162280000    -0.8052060000    -0.3044020000
| 22>  H        3.1458230000     0.2126240000     0.2519920000
| 23>  H        1.9631130000     2.9555110000    -0.4300040000
| 24>  H        3.0521590000     0.0882960000     2.4466270000
| 25>  H        0.8181980000     1.5047730000     3.7525650000
| 26>  H        1.9800110000     0.4632960000     4.4640330000
| 27> *
| 28>
| 29>                          ****END OF INPUT****
 Total Charge           Charge          ....    0
 Multiplicity           Mult            ....    1
 Number of Electrons    NEL             ....   54
 Basis Dimension        Dim             ....  138

MULLIKEN ATOMIC CHARGES
-----------------------
   0 C :    0.042267
   1 C :   -0.008136
   2 C :    0.121666
   3 O :   -0.161755
   4 N :   -0.202366
   5 C :   -0.000665
   6 N :   -0.063838
   7 H :    0.027170
   8 H :    0.023618
   9 H :    0.020336
  10 H :   -0.007804
  11 H :   -0.012439
  12 H :   -0.011974
  13 H :    0.115090
  14 H :    0.118829
Sum of atomic charges:   -0.0000000

LOEWDIN ATOMIC CHARGES
----------------------
   0 C :   -0.052120
   1 C :   -0.039291
   2 C :    0.094122
   3 O :   -0.109277
   4 N :   -0.155982
   5 C :    0.027055
   6 N :    0.008582
   7 H :    0.031011
   8 H :    0.029228
   9 H :    0.028979
  10 H :    0.010872
  11 H :   -0.013310
  12 H :   -0.006540
  13 H :    0.073389
  14 H :    0.073283

  Mayer bond orders larger than 0.1
B(  0-C ,  1-C ) :   1.0598 B(  0-C ,  7-H ) :   0.9537 B(  0-C ,  8-H ) :   0.9544
B(  0-C ,  9-H ) :   0.9521 B(  1-C ,  2-C ) :   0.9180 B(  1-C ,  4-N ) :   0.9857
B(  1-C , 10-H ) :   0.8794 B(  2-C ,  3-O ) :   2.1878 B(  2-C , 11-H ) :   0.9178
B(  4-N ,  5-C ) :   1.8033 B(  5-C ,  6-N ) :   1.2562 B(  5-C , 12-H ) :   0.9255
B(  6-N , 13-H ) :   0.9494 B(  6-N , 14-H ) :   0.9540

FINAL SINGLE POINT ENERGY      -341.283006503211

DIPOLE MOMENT
-------------
                                X             Y             Z
Electronic contribution:      2.75963       3.27569      -0.00024
Nuclear contribution   :     -3.36954      -4.05478       1.43432
                        -----------------------------------------
Total Dipole Moment    :     -0.60991      -0.77909       1.43408
                        -----------------------------------------
Magnitude (a.u.)       :      1.74228
Magnitude (Debye)      :      4.42853

                             ****ORCA TERMINATED NORMALLY****
TOTAL RUN TIME: 0 days 0 hours 0 minutes 6 seconds 814 msec
