                         Program Version 3.0.3 - RELEASE   -
|  1> ! RI PBE def2-SVP def2-SVP/J NBO PAL2
|  2> % maxcore 2000
|  3> % output
|  4>     # printlevel mini
|  5>     print[ P_Basis ] 0
|  6>     print[ P_SCFInfo ] 1
|  7>     print[ P_SCFIterInfo ] 1
|  8>     print[ P_OrbEn ] 0
|  9>     print[ P_Cartesian ] 0
| 10> end
| 11> *xyz 0 1
| 12>  C        0.5390150000    -0.8484200000    -0.0342730000
| 13>  C        1.9467270000    -0.9709810000    -0.5681080000
| 14>  C        2.0478470000    -1.9053390000    -1.7542140000
| 15>  O        2.3316260000     0.3672740000    -0.9260970000
| 16>  N        3.6903050000     0.4384030000    -1.1855470000
| 17>  C        4.4025840000     1.2505860000    -0.3168100000
| 18>  N        4.0571150000     1.6949040000     0.8123360000
| 19>  H        0.1740050000    -1.8260770000     0.2853610000
| 20>  H       -0.1314530000    -0.4678720000    -0.8085070000
| 21>  H        0.5015630000    -0.1693000000     0.8190590000
| 22>  H        2.6224760000    -1.3093440000     0.2265300000
| 23>  H        1.3810420000    -1.5786530000    -2.5565850000
| 24>  H        1.7632530000    -2.9187210000    -1.4622240000
| 25>  H        3.0700340000    -1.9426520000    -2.1348870000
| 26>  H        3.8462370000     0.6368050000    -2.1663180000
| 27>  H        5.4070640000     1.4441540000    -0.7021170000
| 28>  H        3.0869580000     1.4437340000     1.0044000000
| 29> *
| 30>
| 31>                          ****END OF INPUT****
 Total Charge           Charge          ....    0
 Multiplicity           Mult            ....    1
 Number of Electrons    NEL             ....   56
 Basis Dimension        Dim             ....  148

MULLIKEN ATOMIC CHARGES
-----------------------
   0 C :    0.010314
   1 C :    0.044036
   2 C :    0.009112
   3 O :   -0.311775
   4 N :    0.013981
   5 C :   -0.015757
   6 N :   -0.141080
   7 H :    0.026368
   8 H :    0.028823
   9 H :    0.032109
  10 H :    0.016465
  11 H :    0.020532
  12 H :    0.023461
  13 H :    0.021415
  14 H :    0.127443
  15 H :    0.009593
  16 H :    0.084959
Sum of atomic charges:   -0.0000000

LOEWDIN ATOMIC CHARGES
----------------------
   0 C :   -0.066840
   1 C :    0.040278
   2 C :   -0.076652
   3 O :   -0.110980
   4 N :    0.050401
   5 C :   -0.006568
   6 N :   -0.148185
   7 H :    0.035264
   8 H :    0.031437
   9 H :    0.031389
  10 H :    0.014468
  11 H :    0.027571
  12 H :    0.033718
  13 H :    0.025129
  14 H :    0.063889
  15 H :    0.015949
  16 H :    0.039734

  Mayer bond orders larger than 0.1
B(  0-C ,  1-C ) :   1.0917 B(  0-C ,  7-H ) :   0.9576 B(  0-C ,  8-H ) :   0.9528
B(  0-C ,  9-H ) :   0.9567 B(  1-C ,  2-C ) :   1.0961 B(  1-C ,  3-O ) :   0.9180
B(  1-C , 10-H ) :   0.9278 B(  2-C , 11-H ) :   0.9525 B(  2-C , 12-H ) :   0.9542
B(  2-C , 13-H ) :   0.9497 B(  3-O ,  4-N ) :   0.9521 B(  4-N ,  5-C ) :   1.1070
B(  4-N ,  6-N ) :   0.1051 B(  4-N , 14-H ) :   0.9218 B(  5-C ,  6-N ) :   2.0307
B(  5-C , 15-H ) :   0.9339 B(  6-N , 16-H ) :   0.9344

FINAL SINGLE POINT ENERGY      -342.429188635200

DIPOLE MOMENT
-------------
                                X             Y             Z
Electronic contribution:      4.45567       5.33969       0.62194
Nuclear contribution   :     -4.87860      -6.19269      -1.54795
                        -----------------------------------------
Total Dipole Moment    :     -0.42292      -0.85300      -0.92601
                        -----------------------------------------
Magnitude (a.u.)       :      1.32814
Magnitude (Debye)      :      3.37587

                             ****ORCA TERMINATED NORMALLY****
TOTAL RUN TIME: 0 days 0 hours 0 minutes 7 seconds 634 msec
