                         Program Version 3.0.3 - RELEASE   -
|  1> ! RI PBE def2-SVP def2-SVP/J NBO PAL2
|  2> % maxcore 2000
|  3> % output
|  4>     # printlevel mini
|  5>     print[ P_Basis ] 0
|  6>     print[ P_SCFInfo ] 1
|  7>     print[ P_SCFIterInfo ] 1
|  8>     print[ P_OrbEn ] 0
|  9>     print[ P_Cartesian ] 0
| 10> end
| 11> *xyz 0 1
| 12>  C        1.4162160000    -0.7045340000     0.1705990000
| 13>  C        2.3457610000     0.3649930000    -0.3739350000
| 14>  C        2.6354510000     0.1372820000    -1.8531470000
| 15>  O        3.5406510000     1.0705720000    -2.3841800000
| 16>  N        1.7755390000     1.6801460000    -0.1474900000
| 17>  C        2.4870930000     2.7862420000     0.2371910000
| 18>  N        3.7401090000     2.9888430000     0.2429010000
| 19>  H        1.8333970000    -1.6996920000     0.0067690000
| 20>  H        0.4431930000    -0.6677730000    -0.3298630000
| 21>  H        1.2567240000    -0.5749230000     1.2425080000
| 22>  H        3.2993400000     0.3205320000     0.1658750000
| 23>  H        1.6845850000     0.1411160000    -2.4076470000
| 24>  H        3.0939740000    -0.8462260000    -1.9865860000
| 25>  H        3.1588370000     1.9488470000    -2.2877720000
| 26>  H        0.7856680000     1.7126050000     0.0295180000
| 27>  H        1.8332450000     3.5980410000     0.5661300000
| 28>  H        4.2637280000     2.1889570000    -0.1100810000
| 29> *
| 30>
| 31>                          ****END OF INPUT****
 Total Charge           Charge          ....    0
 Multiplicity           Mult            ....    1
 Number of Electrons    NEL             ....   56
 Basis Dimension        Dim             ....  148

MULLIKEN ATOMIC CHARGES
-----------------------
   0 C :   -0.012621
   1 C :   -0.075239
   2 C :    0.233175
   3 O :   -0.278412
   4 N :   -0.131528
   5 C :   -0.045416
   6 N :   -0.153336
   7 H :    0.033304
   8 H :    0.022176
   9 H :    0.039627
  10 H :    0.018591
  11 H :   -0.014319
  12 H :    0.008512
  13 H :    0.163312
  14 H :    0.110878
  15 H :    0.008538
  16 H :    0.072758
Sum of atomic charges:    0.0000000

LOEWDIN ATOMIC CHARGES
----------------------
   0 C :   -0.061065
   1 C :   -0.012154
   2 C :    0.050393
   3 O :   -0.110335
   4 N :   -0.022433
   5 C :    0.001996
   6 N :   -0.170198
   7 H :    0.036247
   8 H :    0.025995
   9 H :    0.032578
  10 H :    0.022857
  11 H :    0.002052
  12 H :    0.021654
  13 H :    0.069062
  14 H :    0.070517
  15 H :    0.012809
  16 H :    0.030024

  Mayer bond orders larger than 0.1
B(  0-C ,  1-C ) :   1.0807 B(  0-C ,  7-H ) :   0.9589 B(  0-C ,  8-H ) :   0.9517
B(  0-C ,  9-H ) :   0.9591 B(  1-C ,  2-C ) :   1.0182 B(  1-C ,  4-N ) :   0.9829
B(  1-C , 10-H ) :   0.8996 B(  2-C ,  3-O ) :   1.0913 B(  2-C , 11-H ) :   0.9215
B(  2-C , 12-H ) :   0.9359 B(  3-O , 13-H ) :   0.9702 B(  4-N ,  5-C ) :   1.1574
B(  4-N ,  6-N ) :   0.1169 B(  4-N , 14-H ) :   0.9286 B(  5-C ,  6-N ) :   1.9873
B(  5-C , 15-H ) :   0.9408 B(  6-N , 16-H ) :   0.9409

FINAL SINGLE POINT ENERGY      -342.477525228387

DIPOLE MOMENT
-------------
                                X             Y             Z
Electronic contribution:      2.37610       4.33945      -0.95565
Nuclear contribution   :     -3.77609      -5.24374       1.04762
                        -----------------------------------------
Total Dipole Moment    :     -1.40000      -0.90429       0.09197
                        -----------------------------------------
Magnitude (a.u.)       :      1.66919
Magnitude (Debye)      :      4.24274

                             ****ORCA TERMINATED NORMALLY****
TOTAL RUN TIME: 0 days 0 hours 0 minutes 7 seconds 832 msec
