                         Program Version 3.0.3 - RELEASE   -
|  1> ! RI PBE def2-SVP def2-SVP/J NBO PAL2
|  2> % maxcore 2000
|  3> % output
|  4>     # printlevel mini
|  5>     print[ P_Basis ] 0
|  6>     print[ P_SCFInfo ] 1
|  7>     print[ P_SCFIterInfo ] 1
|  8>     print[ P_OrbEn ] 0
|  9>     print[ P_Cartesian ] 0
| 10> end
| 11> *xyz 0 1
| 12>  C        2.1248320000    -0.0425450000     0.7173970000
| 13>  C        3.4877480000    -0.6737800000     0.5200960000
| 14>  C        4.3469180000     0.1067560000    -0.4524620000
| 15>  O        3.9612330000     1.1238390000    -1.0007000000
| 16>  N        5.5925040000    -0.3917990000    -0.6885390000
| 17>  C        6.1295830000    -1.5879780000    -0.0828830000
| 18>  N        6.4312220000     0.2874800000    -1.5780510000
| 19>  H        1.5311040000    -0.6278260000     1.4224570000
| 20>  H        1.5830270000     0.0186150000    -0.2269900000
| 21>  H        2.2177620000     0.9741160000     1.1007100000
| 22>  H        3.3900520000    -1.7024780000     0.1552550000
| 23>  H        4.0207050000    -0.7531860000     1.4743090000
| 24>  H        5.5423030000    -2.4767490000    -0.3337140000
| 25>  H        6.1859900000    -1.5089500000     1.0072390000
| 26>  H        7.1359160000    -1.7172730000    -0.4726200000
| 27>  H        6.5253740000     1.2441250000    -1.2472310000
| 28>  H        5.9431280000     0.3665540000    -2.4662920000
| 29> *
| 30>
| 31>                          ****END OF INPUT****
 Total Charge           Charge          ....    0
 Multiplicity           Mult            ....    1
 Number of Electrons    NEL             ....   56
 Basis Dimension        Dim             ....  148

MULLIKEN ATOMIC CHARGES
-----------------------
   0 C :    0.013095
   1 C :   -0.082343
   2 C :    0.033108
   3 O :   -0.224589
   4 N :   -0.258423
   5 C :    0.136024
   6 N :   -0.050199
   7 H :    0.013380
   8 H :    0.033670
   9 H :    0.031148
  10 H :    0.031417
  11 H :    0.032303
  12 H :    0.022677
  13 H :    0.029146
  14 H :    0.033298
  15 H :    0.102020
  16 H :    0.104268
Sum of atomic charges:   -0.0000000

LOEWDIN ATOMIC CHARGES
----------------------
   0 C :   -0.060579
   1 C :   -0.078325
   2 C :    0.012357
   3 O :   -0.202730
   4 N :   -0.008226
   5 C :    0.009580
   6 N :   -0.021898
   7 H :    0.025686
   8 H :    0.032405
   9 H :    0.032371
  10 H :    0.037385
  11 H :    0.037199
  12 H :    0.021529
  13 H :    0.022551
  14 H :    0.034450
  15 H :    0.052932
  16 H :    0.053312

  Mayer bond orders larger than 0.1
B(  0-C ,  1-C ) :   1.1279 B(  0-C ,  7-H ) :   0.9531 B(  0-C ,  8-H ) :   0.9629
B(  0-C ,  9-H ) :   0.9611 B(  1-C ,  2-C ) :   0.9748 B(  1-C , 10-H ) :   0.9132
B(  1-C , 11-H ) :   0.9149 B(  2-C ,  3-O ) :   2.0745 B(  2-C ,  4-N ) :   1.1654
B(  4-N ,  5-C ) :   0.9981 B(  4-N ,  6-N ) :   1.0512 B(  5-C , 12-H ) :   0.9603
B(  5-C , 13-H ) :   0.9616 B(  5-C , 14-H ) :   0.9525 B(  6-N , 15-H ) :   0.9673
B(  6-N , 16-H ) :   0.9669

FINAL SINGLE POINT ENERGY      -342.481898987092

DIPOLE MOMENT
-------------
                                X             Y             Z
Electronic contribution:      2.13507       3.53154      -3.56194
Nuclear contribution   :     -1.76600      -4.30107       3.94405
                        -----------------------------------------
Total Dipole Moment    :      0.36907      -0.76953       0.38211
                        -----------------------------------------
Magnitude (a.u.)       :      0.93509
Magnitude (Debye)      :      2.37681

                             ****ORCA TERMINATED NORMALLY****
TOTAL RUN TIME: 0 days 0 hours 0 minutes 7 seconds 435 msec
