                         Program Version 3.0.3 - RELEASE   -
|  1> ! RI PBE def2-SVP def2-SVP/J NBO PAL2
|  2> % maxcore 2000
|  3> % output
|  4>     # printlevel mini
|  5>     print[ P_Basis ] 0
|  6>     print[ P_SCFInfo ] 1
|  7>     print[ P_SCFIterInfo ] 1
|  8>     print[ P_OrbEn ] 0
|  9>     print[ P_Cartesian ] 0
| 10> end
| 11> *xyz 0 1
| 12>  C        1.0040380000     0.0366920000     0.0329110000
| 13>  C        2.5131080000     0.0000690000    -0.0983710000
| 14>  C        3.1457000000     1.3371550000     0.2083460000
| 15>  O        2.5090930000     2.3153560000     0.5211360000
| 16>  N        4.5235110000     1.4272510000     0.1212500000
| 17>  C        5.4329330000     0.4447140000    -0.2149420000
| 18>  N        6.6903100000     0.5545630000    -0.2871380000
| 19>  H        0.5811380000    -0.9431900000    -0.1951210000
| 20>  H        0.5700110000     0.7692080000    -0.6480920000
| 21>  H        0.7062090000     0.3167390000     1.0436500000
| 22>  H        2.8083150000    -0.3001470000    -1.1098220000
| 23>  H        2.9438380000    -0.7503920000     0.5736330000
| 24>  H        4.8783830000     2.3491500000     0.3391280000
| 25>  H        4.9799320000    -0.5196210000    -0.4362500000
| 26>  H        7.0087810000     1.4974530000    -0.0607290000
| 27> *
| 28>
| 29>                          ****END OF INPUT****
 Total Charge           Charge          ....    0
 Multiplicity           Mult            ....    1
 Number of Electrons    NEL             ....   54
 Basis Dimension        Dim             ....  138

MULLIKEN ATOMIC CHARGES
-----------------------
   0 C :    0.031928
   1 C :   -0.106106
   2 C :    0.014168
   3 O :   -0.174278
   4 N :   -0.050382
   5 C :   -0.018920
   6 N :   -0.109429
   7 H :    0.014142
   8 H :    0.034724
   9 H :    0.031854
  10 H :    0.049971
  11 H :    0.055063
  12 H :    0.115044
  13 H :    0.030423
  14 H :    0.081799
Sum of atomic charges:   -0.0000000

LOEWDIN ATOMIC CHARGES
----------------------
   0 C :   -0.054297
   1 C :   -0.081181
   2 C :    0.046734
   3 O :   -0.154640
   4 N :    0.017568
   5 C :    0.027011
   6 N :   -0.130707
   7 H :    0.028559
   8 H :    0.033738
   9 H :    0.033188
  10 H :    0.042630
  11 H :    0.043589
  12 H :    0.080563
  13 H :    0.021396
  14 H :    0.045849

  Mayer bond orders larger than 0.1
B(  0-C ,  1-C ) :   1.1223 B(  0-C ,  7-H ) :   0.9532 B(  0-C ,  8-H ) :   0.9650
B(  0-C ,  9-H ) :   0.9645 B(  1-C ,  2-C ) :   0.9736 B(  1-C , 10-H ) :   0.9123
B(  1-C , 11-H ) :   0.9117 B(  2-C ,  3-O ) :   2.1391 B(  2-C ,  4-N ) :   1.1120
B(  4-N ,  5-C ) :   1.1076 B(  4-N , 12-H ) :   0.9010 B(  5-C ,  6-N ) :   2.0210
B(  5-C , 13-H ) :   0.9290 B(  6-N , 14-H ) :   0.9397

FINAL SINGLE POINT ENERGY      -341.313515453750

DIPOLE MOMENT
-------------
                                X             Y             Z
Electronic contribution:      4.43181       4.19381       0.76353
Nuclear contribution   :     -4.55669      -4.38626      -0.80615
                        -----------------------------------------
Total Dipole Moment    :     -0.12488      -0.19246      -0.04262
                        -----------------------------------------
Magnitude (a.u.)       :      0.23335
Magnitude (Debye)      :      0.59312

                             ****ORCA TERMINATED NORMALLY****
TOTAL RUN TIME: 0 days 0 hours 0 minutes 6 seconds 866 msec
