                         Program Version 3.0.3 - RELEASE   -
|  1> ! RI PBE def2-SVP def2-SVP/J NBO PAL2
|  2> % maxcore 2000
|  3> % output
|  4>     # printlevel mini
|  5>     print[ P_Basis ] 0
|  6>     print[ P_SCFInfo ] 1
|  7>     print[ P_SCFIterInfo ] 1
|  8>     print[ P_OrbEn ] 0
|  9>     print[ P_Cartesian ] 0
| 10> end
| 11> *xyz 0 1
| 12>  C        1.0380420000     0.3721140000    -0.1234160000
| 13>  C        2.5251120000     0.1611110000     0.1083650000
| 14>  C        2.8315390000    -1.2640110000     0.4996950000
| 15>  O        4.2383090000    -1.3676680000     0.6982080000
| 16>  N        4.5798860000    -2.6726270000     1.0171110000
| 17>  C        5.4251530000    -3.2888280000     0.1084090000
| 18>  N        5.6943480000    -2.9489290000    -1.0765350000
| 19>  H        0.8291910000     1.4058020000    -0.4042800000
| 20>  H        0.4585240000     0.1502370000     0.7767600000
| 21>  H        0.6648890000    -0.2706300000    -0.9251090000
| 22>  H        2.8852960000     0.8302370000     0.8956260000
| 23>  H        3.0878450000     0.4097060000    -0.7965210000
| 24>  H        2.5200130000    -1.9662180000    -0.2823940000
| 25>  H        2.3099830000    -1.5367600000     1.4257790000
| 26>  H        4.8905170000    -2.7201870000     1.9803580000
| 27>  H        5.8314850000    -4.2151230000     0.5227110000
| 28>  H        5.2549580000    -2.0537460000    -1.2924670000
| 29> *
| 30>
| 31>                          ****END OF INPUT****
 Total Charge           Charge          ....    0
 Multiplicity           Mult            ....    1
 Number of Electrons    NEL             ....   56
 Basis Dimension        Dim             ....  148

MULLIKEN ATOMIC CHARGES
-----------------------
   0 C :   -0.041271
   1 C :   -0.055860
   2 C :    0.182703
   3 O :   -0.315582
   4 N :    0.009106
   5 C :   -0.012472
   6 N :   -0.141338
   7 H :    0.029934
   8 H :    0.025911
   9 H :    0.026970
  10 H :    0.027973
  11 H :    0.026689
  12 H :    0.016585
  13 H :    0.001536
  14 H :    0.126060
  15 H :    0.008503
  16 H :    0.084553
Sum of atomic charges:   -0.0000000

LOEWDIN ATOMIC CHARGES
----------------------
   0 C :   -0.062673
   1 C :   -0.056683
   2 C :    0.056203
   3 O :   -0.113532
   4 N :    0.050509
   5 C :   -0.006558
   6 N :   -0.149211
   7 H :    0.031776
   8 H :    0.026568
   9 H :    0.027291
  10 H :    0.029447
  11 H :    0.029284
  12 H :    0.010938
  13 H :    0.006247
  14 H :    0.064550
  15 H :    0.015843
  16 H :    0.040000

  Mayer bond orders larger than 0.1
B(  0-C ,  1-C ) :   1.1046 B(  0-C ,  7-H ) :   0.9626 B(  0-C ,  8-H ) :   0.9680
B(  0-C ,  9-H ) :   0.9682 B(  1-C ,  2-C ) :   1.0841 B(  1-C , 10-H ) :   0.9360
B(  1-C , 11-H ) :   0.9367 B(  2-C ,  3-O ) :   0.9386 B(  2-C , 12-H ) :   0.9453
B(  2-C , 13-H ) :   0.9406 B(  3-O ,  4-N ) :   0.9500 B(  4-N ,  5-C ) :   1.1068
B(  4-N ,  6-N ) :   0.1061 B(  4-N , 14-H ) :   0.9246 B(  5-C ,  6-N ) :   2.0303
B(  5-C , 15-H ) :   0.9337 B(  6-N , 16-H ) :   0.9340

FINAL SINGLE POINT ENERGY      -342.423306614058

DIPOLE MOMENT
-------------
                                X             Y             Z
Electronic contribution:      7.35220      -4.84678       0.96600
Nuclear contribution   :     -8.16933       5.23863       0.00819
                        -----------------------------------------
Total Dipole Moment    :     -0.81713       0.39185       0.97420
                        -----------------------------------------
Magnitude (a.u.)       :      1.33053
Magnitude (Debye)      :      3.38193

                             ****ORCA TERMINATED NORMALLY****
TOTAL RUN TIME: 0 days 0 hours 0 minutes 7 seconds 305 msec
