                         Program Version 3.0.3 - RELEASE   -
|  1> ! RI PBE def2-SVP def2-SVP/J NBO PAL2
|  2> % maxcore 2000
|  3> % output
|  4>     # printlevel mini
|  5>     print[ P_Basis ] 0
|  6>     print[ P_SCFInfo ] 1
|  7>     print[ P_SCFIterInfo ] 1
|  8>     print[ P_OrbEn ] 0
|  9>     print[ P_Cartesian ] 0
| 10> end
| 11> *xyz 0 1
| 12>  C        0.7314950000     0.0282540000    -0.5852400000
| 13>  C        1.9820860000    -0.1164700000    -0.1691400000
| 14>  C        3.0764730000     0.6577630000    -0.8038490000
| 15>  O        2.9132580000     1.4436150000    -1.7064490000
| 16>  N        4.3298620000     0.4033150000    -0.2645070000
| 17>  C        5.4950370000     1.0051140000    -0.6918390000
| 18>  O        6.5649970000     0.7606960000    -0.2019510000
| 19>  H       -0.0846010000    -0.5256950000    -0.1381250000
| 20>  H        0.5080360000     0.7161120000    -1.3934480000
| 21>  H        2.2313600000    -0.7987770000     0.6381740000
| 22>  H        4.4274930000    -0.2599470000     0.4902020000
| 23>  H        5.3281030000     1.7152300000    -1.5131260000
| 24> *
| 25>
| 26>                          ****END OF INPUT****
 Total Charge           Charge          ....    0
 Multiplicity           Mult            ....    1
 Number of Electrons    NEL             ....   52
 Basis Dimension        Dim             ....  123

MULLIKEN ATOMIC CHARGES
-----------------------
   0 C :    0.034945
   1 C :   -0.088873
   2 C :    0.107282
   3 O :   -0.173335
   4 N :   -0.081443
   5 C :    0.146357
   6 O :   -0.187047
   7 H :    0.041193
   8 H :    0.055117
   9 H :    0.003757
  10 H :    0.120164
  11 H :    0.021883
Sum of atomic charges:    0.0000000

LOEWDIN ATOMIC CHARGES
----------------------
   0 C :    0.027799
   1 C :   -0.079313
   2 C :    0.045981
   3 O :   -0.151336
   4 N :    0.016295
   5 C :    0.090475
   6 O :   -0.136828
   7 H :    0.035232
   8 H :    0.039070
   9 H :    0.027744
  10 H :    0.082920
  11 H :    0.001960

  Mayer bond orders larger than 0.1
B(  0-C ,  1-C ) :   1.9716 B(  0-C ,  7-H ) :   0.9382 B(  0-C ,  8-H ) :   0.9357
B(  1-C ,  2-C ) :   0.9645 B(  1-C ,  9-H ) :   0.9440 B(  2-C ,  3-O ) :   2.1098
B(  2-C ,  4-N ) :   1.0909 B(  4-N ,  5-C ) :   1.0900 B(  4-N , 10-H ) :   0.9065
B(  5-C ,  6-O ) :   2.1065 B(  5-C , 11-H ) :   0.9315

FINAL SINGLE POINT ENERGY      -359.954062328975

DIPOLE MOMENT
-------------
                                X             Y             Z
Electronic contribution:      4.30869       1.32736      -0.58715
Nuclear contribution   :     -5.37924      -2.06484       1.18649
                        -----------------------------------------
Total Dipole Moment    :     -1.07055      -0.73748       0.59933
                        -----------------------------------------
Magnitude (a.u.)       :      1.43149
Magnitude (Debye)      :      3.63855

                             ****ORCA TERMINATED NORMALLY****
TOTAL RUN TIME: 0 days 0 hours 0 minutes 5 seconds 463 msec
