                         Program Version 3.0.3 - RELEASE   -
|  1> ! RI PBE def2-SVP def2-SVP/J NBO PAL2
|  2> % maxcore 2000
|  3> % output
|  4>     # printlevel mini
|  5>     print[ P_Basis ] 0
|  6>     print[ P_SCFInfo ] 1
|  7>     print[ P_SCFIterInfo ] 1
|  8>     print[ P_OrbEn ] 0
|  9>     print[ P_Cartesian ] 0
| 10> end
| 11> *xyz 0 1
| 12>  C        2.4124470000     1.5618770000    -1.7946510000
| 13>  C        1.7640810000     1.1720080000    -0.7080080000
| 14>  C        2.3129890000     0.3117470000     0.3733390000
| 15>  O        3.6571820000    -0.0378660000     0.0777220000
| 16>  N        4.1721850000    -0.8456350000     1.0667900000
| 17>  C        5.2150900000    -0.3570300000     1.7959930000
| 18>  O        5.9355080000    -1.0460890000     2.4717060000
| 19>  H        1.9296810000     2.1920810000    -2.5316040000
| 20>  H        3.4377680000     1.2675910000    -1.9818300000
| 21>  H        0.7350150000     1.4828770000    -0.5453030000
| 22>  H        1.7078890000    -0.5999420000     0.4758370000
| 23>  H        2.2719020000     0.8352060000     1.3377720000
| 24>  H        4.1766710000    -1.8298470000     0.8289510000
| 25>  H        5.2873830000     0.7426030000     1.7182760000
| 26> *
| 27>
| 28>                          ****END OF INPUT****
 Total Charge           Charge          ....    0
 Multiplicity           Mult            ....    1
 Number of Electrons    NEL             ....   54
 Basis Dimension        Dim             ....  133

MULLIKEN ATOMIC CHARGES
-----------------------
   0 C :   -0.020142
   1 C :   -0.140063
   2 C :    0.261406
   3 O :   -0.294372
   4 N :    0.013711
   5 C :    0.137512
   6 O :   -0.209794
   7 H :    0.032203
   8 H :    0.035002
   9 H :    0.019423
  10 H :    0.021069
  11 H :    0.022074
  12 H :    0.130943
  13 H :   -0.008971
Sum of atomic charges:   -0.0000000

LOEWDIN ATOMIC CHARGES
----------------------
   0 C :   -0.054222
   1 C :   -0.051639
   2 C :    0.057779
   3 O :   -0.095629
   4 N :    0.076748
   5 C :    0.042369
   6 O :   -0.163529
   7 H :    0.028745
   8 H :    0.027000
   9 H :    0.034168
  10 H :    0.020969
  11 H :    0.021572
  12 H :    0.067424
  13 H :   -0.011755

  Mayer bond orders larger than 0.1
B(  0-C ,  1-C ) :   2.0257 B(  0-C ,  7-H ) :   0.9451 B(  0-C ,  8-H ) :   0.9432
B(  1-C ,  2-C ) :   1.0546 B(  1-C ,  9-H ) :   0.9436 B(  2-C ,  3-O ) :   0.9577
B(  2-C , 10-H ) :   0.9228 B(  2-C , 11-H ) :   0.9242 B(  3-O ,  4-N ) :   0.9309
B(  4-N ,  5-C ) :   1.1605 B(  4-N ,  6-O ) :   0.1101 B(  4-N , 12-H ) :   0.9184
B(  5-C ,  6-O ) :   2.0682 B(  5-C , 13-H ) :   0.9222

FINAL SINGLE POINT ENERGY      -361.060077681983

DIPOLE MOMENT
-------------
                                X             Y             Z
Electronic contribution:      4.65325      -3.18057       3.36826
Nuclear contribution   :     -5.80253       3.34492      -3.94311
                        -----------------------------------------
Total Dipole Moment    :     -1.14928       0.16435      -0.57485
                        -----------------------------------------
Magnitude (a.u.)       :      1.29550
Magnitude (Debye)      :      3.29289

                             ****ORCA TERMINATED NORMALLY****
TOTAL RUN TIME: 0 days 0 hours 0 minutes 6 seconds 385 msec
