                         Program Version 3.0.3 - RELEASE   -
|  1> ! RI PBE def2-SVP def2-SVP/J NBO PAL2
|  2> % maxcore 2000
|  3> % output
|  4>     # printlevel mini
|  5>     print[ P_Basis ] 0
|  6>     print[ P_SCFInfo ] 1
|  7>     print[ P_SCFIterInfo ] 1
|  8>     print[ P_OrbEn ] 0
|  9>     print[ P_Cartesian ] 0
| 10> end
| 11> *xyz 0 1
| 12>  C        0.8566990000     0.0347370000     0.0141250000
| 13>  C        2.3205780000    -0.1605700000     0.3284490000
| 14>  C        2.5790670000    -1.3436140000     1.2353310000
| 15>  O        2.9560420000    -0.3330230000    -0.9523490000
| 16>  N        4.3280790000    -0.3174200000    -0.8460850000
| 17>  C        4.9912160000     0.7227840000    -1.4232670000
| 18>  O        6.1738110000     0.7155180000    -1.6547560000
| 19>  H        0.2976160000     0.2136860000     0.9341840000
| 20>  H        0.4471100000    -0.8553280000    -0.4691310000
| 21>  H        0.7123760000     0.8871250000    -0.6514210000
| 22>  H        2.7331250000     0.7495690000     0.7812590000
| 23>  H        2.1881890000    -2.2613270000     0.7882700000
| 24>  H        2.0856040000    -1.1934180000     2.1979780000
| 25>  H        3.6462680000    -1.4690620000     1.4276990000
| 26>  H        4.7585800000    -1.2321780000    -0.8860690000
| 27>  H        4.3194410000     1.5789000000    -1.6145260000
| 28> *
| 29>
| 30>                          ****END OF INPUT****
 Total Charge           Charge          ....    0
 Multiplicity           Mult            ....    1
 Number of Electrons    NEL             ....   56
 Basis Dimension        Dim             ....  143

MULLIKEN ATOMIC CHARGES
-----------------------
   0 C :    0.015536
   1 C :    0.052688
   2 C :    0.001513
   3 O :   -0.298696
   4 N :    0.020990
   5 C :    0.140341
   6 O :   -0.215542
   7 H :    0.027503
   8 H :    0.028239
   9 H :    0.033599
  10 H :    0.007054
  11 H :    0.021912
  12 H :    0.026344
  13 H :    0.026973
  14 H :    0.127691
  15 H :   -0.016145
Sum of atomic charges:   -0.0000000

LOEWDIN ATOMIC CHARGES
----------------------
   0 C :   -0.064019
   1 C :    0.041415
   2 C :   -0.076211
   3 O :   -0.104395
   4 N :    0.076455
   5 C :    0.042216
   6 O :   -0.167912
   7 H :    0.035670
   8 H :    0.031424
   9 H :    0.032834
  10 H :    0.011124
  11 H :    0.028633
  12 H :    0.036160
  13 H :    0.026603
  14 H :    0.064642
  15 H :   -0.014640

  Mayer bond orders larger than 0.1
B(  0-C ,  1-C ) :   1.0897 B(  0-C ,  7-H ) :   0.9566 B(  0-C ,  8-H ) :   0.9563
B(  0-C ,  9-H ) :   0.9561 B(  1-C ,  2-C ) :   1.0974 B(  1-C ,  3-O ) :   0.9221
B(  1-C , 10-H ) :   0.9256 B(  2-C , 11-H ) :   0.9532 B(  2-C , 12-H ) :   0.9519
B(  2-C , 13-H ) :   0.9519 B(  3-O ,  4-N ) :   0.9332 B(  4-N ,  5-C ) :   1.1672
B(  4-N ,  6-O ) :   0.1099 B(  4-N , 14-H ) :   0.9160 B(  5-C ,  6-O ) :   2.0631
B(  5-C , 15-H ) :   0.9203

FINAL SINGLE POINT ENERGY      -362.292801531547

DIPOLE MOMENT
-------------
                                X             Y             Z
Electronic contribution:      8.17066       1.99023      -5.59740
Nuclear contribution   :     -9.32694      -2.46002       6.35328
                        -----------------------------------------
Total Dipole Moment    :     -1.15628      -0.46979       0.75588
                        -----------------------------------------
Magnitude (a.u.)       :      1.45912
Magnitude (Debye)      :      3.70879

                             ****ORCA TERMINATED NORMALLY****
TOTAL RUN TIME: 0 days 0 hours 0 minutes 6 seconds 507 msec
