                         Program Version 3.0.3 - RELEASE   -
|  1> ! RI PBE def2-SVP def2-SVP/J NBO PAL2
|  2> % maxcore 2000
|  3> % output
|  4>     # printlevel mini
|  5>     print[ P_Basis ] 0
|  6>     print[ P_SCFInfo ] 1
|  7>     print[ P_SCFIterInfo ] 1
|  8>     print[ P_OrbEn ] 0
|  9>     print[ P_Cartesian ] 0
| 10> end
| 11> *xyz 0 1
| 12>  C        1.2701940000     0.1725840000     0.4202340000
| 13>  C        2.2822070000    -0.9102830000     0.0993430000
| 14>  C        2.7552180000    -1.6238260000     1.3593430000
| 15>  O        3.6542110000    -2.6699260000     1.1161050000
| 16>  N        1.7218370000    -1.8332520000    -0.8761430000
| 17>  C        2.4799350000    -2.5392160000    -1.7309680000
| 18>  O        3.6962310000    -2.5329280000    -1.7470510000
| 19>  H        1.6867300000     0.8841390000     1.1345830000
| 20>  H        0.3670580000    -0.2544150000     0.8675790000
| 21>  H        0.9842290000     0.7217060000    -0.4786730000
| 22>  H        3.1587610000    -0.4618730000    -0.3813590000
| 23>  H        1.8870300000    -2.0380140000     1.8893740000
| 24>  H        3.2073810000    -0.8673250000     2.0183030000
| 25>  H        4.0126030000    -2.5786900000     0.2212790000
| 26>  H        0.7228610000    -1.9475880000    -0.9196740000
| 27>  H        1.8855160000    -3.1345930000    -2.4457440000
| 28> *
| 29>
| 30>                          ****END OF INPUT****
 Total Charge           Charge          ....    0
 Multiplicity           Mult            ....    1
 Number of Electrons    NEL             ....   56
 Basis Dimension        Dim             ....  143

MULLIKEN ATOMIC CHARGES
-----------------------
   0 C :    0.001027
   1 C :   -0.115036
   2 C :    0.246146
   3 O :   -0.280692
   4 N :   -0.104518
   5 C :    0.142867
   6 O :   -0.261289
   7 H :    0.037206
   8 H :    0.021913
   9 H :    0.034592
  10 H :    0.032939
  11 H :   -0.014454
  12 H :   -0.002236
  13 H :    0.152401
  14 H :    0.116157
  15 H :   -0.007022
Sum of atomic charges:    0.0000000

LOEWDIN ATOMIC CHARGES
----------------------
   0 C :   -0.058486
   1 C :   -0.010308
   2 C :    0.052015
   3 O :   -0.125137
   4 N :    0.018321
   5 C :    0.056820
   6 O :   -0.192855
   7 H :    0.038243
   8 H :    0.026488
   9 H :    0.031377
  10 H :    0.030380
  11 H :    0.008729
  12 H :    0.007448
  13 H :    0.046951
  14 H :    0.076765
  15 H :   -0.006750

  Mayer bond orders larger than 0.1
B(  0-C ,  1-C ) :   1.0830 B(  0-C ,  7-H ) :   0.9575 B(  0-C ,  8-H ) :   0.9522
B(  0-C ,  9-H ) :   0.9584 B(  1-C ,  2-C ) :   1.0466 B(  1-C ,  4-N ) :   0.9515
B(  1-C , 10-H ) :   0.9054 B(  2-C ,  3-O ) :   1.1380 B(  2-C , 11-H ) :   0.9099
B(  2-C , 12-H ) :   0.9260 B(  3-O , 13-H ) :   0.9447 B(  4-N ,  5-C ) :   1.2665
B(  4-N ,  6-O ) :   0.1032 B(  4-N , 14-H ) :   0.9272 B(  5-C ,  6-O ) :   1.9049
B(  5-C , 15-H ) :   0.9293

FINAL SINGLE POINT ENERGY      -362.348689045896

DIPOLE MOMENT
-------------
                                X             Y             Z
Electronic contribution:      3.38011      -4.60059      -3.44161
Nuclear contribution   :     -4.89183       5.43165       3.30865
                        -----------------------------------------
Total Dipole Moment    :     -1.51172       0.83106      -0.13296
                        -----------------------------------------
Magnitude (a.u.)       :      1.73021
Magnitude (Debye)      :      4.39785

                             ****ORCA TERMINATED NORMALLY****
TOTAL RUN TIME: 0 days 0 hours 0 minutes 7 seconds 177 msec
