                         Program Version 3.0.3 - RELEASE   -
|  1> ! RI PBE def2-SVP def2-SVP/J NBO PAL2
|  2> % maxcore 2000
|  3> % output
|  4>     # printlevel mini
|  5>     print[ P_Basis ] 0
|  6>     print[ P_SCFInfo ] 1
|  7>     print[ P_SCFIterInfo ] 1
|  8>     print[ P_OrbEn ] 0
|  9>     print[ P_Cartesian ] 0
| 10> end
| 11> *xyz 0 1
| 12>  C        1.3348000000    -0.5563800000     0.9928590000
| 13>  C        2.8193820000    -0.3048240000     0.8115980000
| 14>  C        3.4327900000    -1.2583010000    -0.1869760000
| 15>  O        2.7721860000    -2.0408160000    -0.8679310000
| 16>  N        4.7696720000    -1.2572950000    -0.3262950000
| 17>  C        5.7605550000    -0.3522240000     0.1584490000
| 18>  O        5.2522410000    -2.1048670000    -1.3040610000
| 19>  H        0.9149100000     0.1567020000     1.7048090000
| 20>  H        1.1513930000    -1.5653350000     1.3640160000
| 21>  H        0.8044210000    -0.4579670000     0.0457590000
| 22>  H        3.3425780000    -0.3945630000     1.7685350000
| 23>  H        2.9912240000     0.7202920000     0.4642070000
| 24>  H        5.3297900000     0.2646250000     0.9434500000
| 25>  H        6.1265180000     0.2921220000    -0.6476570000
| 26>  H        6.6040520000    -0.9118840000     0.5699800000
| 27>  H        4.4107680000    -2.5153740000    -1.6036420000
| 28> *
| 29>
| 30>                          ****END OF INPUT****
 Total Charge           Charge          ....    0
 Multiplicity           Mult            ....    1
 Number of Electrons    NEL             ....   56
 Basis Dimension        Dim             ....  143

MULLIKEN ATOMIC CHARGES
-----------------------
   0 C :    0.010336
   1 C :   -0.091956
   2 C :    0.087359
   3 O :   -0.276136
   4 N :   -0.111451
   5 C :    0.112438
   6 O :   -0.184321
   7 H :    0.014797
   8 H :    0.031360
   9 H :    0.037069
  10 H :    0.043724
  11 H :    0.040352
  12 H :    0.039282
  13 H :    0.040724
  14 H :    0.044409
  15 H :    0.162013
Sum of atomic charges:    0.0000000

LOEWDIN ATOMIC CHARGES
----------------------
   0 C :   -0.056218
   1 C :   -0.073489
   2 C :    0.005976
   3 O :   -0.211240
   4 N :    0.069632
   5 C :    0.014567
   6 O :   -0.071456
   7 H :    0.026921
   8 H :    0.032913
   9 H :    0.033731
  10 H :    0.036373
  11 H :    0.039170
  12 H :    0.036333
  13 H :    0.028387
  14 H :    0.032608
  15 H :    0.055791

  Mayer bond orders larger than 0.1
B(  0-C ,  1-C ) :   1.1290 B(  0-C ,  7-H ) :   0.9547 B(  0-C ,  8-H ) :   0.9664
B(  0-C ,  9-H ) :   0.9621 B(  1-C ,  2-C ) :   0.9991 B(  1-C , 10-H ) :   0.9213
B(  1-C , 11-H ) :   0.9165 B(  2-C ,  3-O ) :   1.9066 B(  2-C ,  4-N ) :   1.2143
B(  3-O ,  4-N ) :   0.1052 B(  3-O , 15-H ) :   0.1385 B(  4-N ,  5-C ) :   1.0040
B(  4-N ,  6-O ) :   0.9970 B(  5-C , 12-H ) :   0.9536 B(  5-C , 13-H ) :   0.9537
B(  5-C , 14-H ) :   0.9562 B(  6-O , 15-H ) :   0.9107

FINAL SINGLE POINT ENERGY      -362.305145453306

DIPOLE MOMENT
-------------
                                X             Y             Z
Electronic contribution:      2.43709      -4.56633      -4.64667
Nuclear contribution   :     -1.99309       5.50109       5.38764
                        -----------------------------------------
Total Dipole Moment    :      0.44400       0.93476       0.74097
                        -----------------------------------------
Magnitude (a.u.)       :      1.27278
Magnitude (Debye)      :      3.23514

                             ****ORCA TERMINATED NORMALLY****
TOTAL RUN TIME: 0 days 0 hours 0 minutes 7 seconds 60 msec
