                         Program Version 3.0.3 - RELEASE   -
|  1> ! RI PBE def2-SVP def2-SVP/J NBO PAL2
|  2> % maxcore 2000
|  3> % output
|  4>     # printlevel mini
|  5>     print[ P_Basis ] 0
|  6>     print[ P_SCFInfo ] 1
|  7>     print[ P_SCFIterInfo ] 1
|  8>     print[ P_OrbEn ] 0
|  9>     print[ P_Cartesian ] 0
| 10> end
| 11> *xyz 0 1
| 12>  C        0.8839430000     0.2684340000     0.2368660000
| 13>  C        2.3720810000     0.0653530000     0.0471310000
| 14>  C        2.6979160000    -1.1628760000    -0.7684370000
| 15>  O        1.8712230000    -1.9099840000    -1.2267400000
| 16>  N        4.0596130000    -1.3683500000    -0.9560390000
| 17>  C        4.5989870000    -2.4196270000    -1.6655510000
| 18>  O        5.7837740000    -2.5659680000    -1.8072860000
| 19>  H        0.6943750000     1.1644400000     0.8300230000
| 20>  H        0.4355330000    -0.5851590000     0.7462280000
| 21>  H        0.3792790000     0.3760940000    -0.7237920000
| 22>  H        2.8845760000    -0.0268750000     1.0121570000
| 23>  H        2.8285930000     0.9294470000    -0.4502640000
| 24>  H        4.7224550000    -0.7194850000    -0.5568840000
| 25>  H        3.8315520000    -3.0908430000    -2.0751110000
| 26> *
| 27>
| 28>                          ****END OF INPUT****
 Total Charge           Charge          ....    0
 Multiplicity           Mult            ....    1
 Number of Electrons    NEL             ....   54
 Basis Dimension        Dim             ....  133

MULLIKEN ATOMIC CHARGES
-----------------------
   0 C :    0.002261
   1 C :   -0.069871
   2 C :    0.036678
   3 O :   -0.172184
   4 N :   -0.073228
   5 C :    0.142590
   6 O :   -0.188796
   7 H :    0.021750
   8 H :    0.039251
   9 H :    0.037321
  10 H :    0.043877
  11 H :    0.042926
  12 H :    0.117166
  13 H :    0.020260
Sum of atomic charges:   -0.0000000

LOEWDIN ATOMIC CHARGES
----------------------
   0 C :   -0.057779
   1 C :   -0.079403
   2 C :    0.052535
   3 O :   -0.143234
   4 N :    0.010324
   5 C :    0.087617
   6 O :   -0.140365
   7 H :    0.030589
   8 H :    0.035069
   9 H :    0.034835
  10 H :    0.043230
  11 H :    0.042937
  12 H :    0.082442
  13 H :    0.001203

  Mayer bond orders larger than 0.1
B(  0-C ,  1-C ) :   1.1315 B(  0-C ,  7-H ) :   0.9550 B(  0-C ,  8-H ) :   0.9662
B(  0-C ,  9-H ) :   0.9649 B(  1-C ,  2-C ) :   0.9665 B(  1-C , 10-H ) :   0.9149
B(  1-C , 11-H ) :   0.9170 B(  2-C ,  3-O ) :   2.1276 B(  2-C ,  4-N ) :   1.1043
B(  4-N ,  5-C ) :   1.0956 B(  4-N , 12-H ) :   0.9076 B(  5-C ,  6-O ) :   2.1072
B(  5-C , 13-H ) :   0.9295

FINAL SINGLE POINT ENERGY      -361.177879422497

DIPOLE MOMENT
-------------
                                X             Y             Z
Electronic contribution:      5.85223      -5.58339      -3.87939
Nuclear contribution   :     -6.08983       6.69910       4.61827
                        -----------------------------------------
Total Dipole Moment    :     -0.23759       1.11570       0.73888
                        -----------------------------------------
Magnitude (a.u.)       :      1.35911
Magnitude (Debye)      :      3.45459

                             ****ORCA TERMINATED NORMALLY****
TOTAL RUN TIME: 0 days 0 hours 0 minutes 6 seconds 650 msec
