                         Program Version 3.0.3 - RELEASE   -
|  1> ! RI PBE def2-SVP def2-SVP/J NBO PAL2
|  2> % maxcore 2000
|  3> % output
|  4>     # printlevel mini
|  5>     print[ P_Basis ] 0
|  6>     print[ P_SCFInfo ] 1
|  7>     print[ P_SCFIterInfo ] 1
|  8>     print[ P_OrbEn ] 0
|  9>     print[ P_Cartesian ] 0
| 10> end
| 11> *xyz 0 1
| 12>  C        0.9344580000     1.9946200000    -0.4442350000
| 13>  C        2.1909720000     1.1464810000    -0.5511600000
| 14>  C        2.0990480000    -0.0961390000     0.2996900000
| 15>  O        3.3160750000    -0.8232010000     0.1388660000
| 16>  N        3.3042340000    -1.9698810000     0.9002560000
| 17>  C        3.3410690000    -3.1636940000     0.2479900000
| 18>  O        3.6177420000    -4.2086920000     0.7807650000
| 19>  H        1.0142720000     2.8892890000    -1.0639530000
| 20>  H        0.7585850000     2.3196170000     0.5846590000
| 21>  H        0.0505750000     1.4420170000    -0.7735530000
| 22>  H        3.0665210000     1.7240350000    -0.2401060000
| 23>  H        2.3621020000     0.8510730000    -1.5905820000
| 24>  H        1.2556820000    -0.7268640000    -0.0054540000
| 25>  H        1.9645930000     0.1604640000     1.3582050000
| 26>  H        3.8006950000    -1.8879170000     1.7787050000
| 27>  H        3.0510760000    -3.0570280000    -0.8127940000
| 28> *
| 29>
| 30>                          ****END OF INPUT****
 Total Charge           Charge          ....    0
 Multiplicity           Mult            ....    1
 Number of Electrons    NEL             ....   56
 Basis Dimension        Dim             ....  143

MULLIKEN ATOMIC CHARGES
-----------------------
   0 C :   -0.037290
   1 C :   -0.059646
   2 C :    0.185440
   3 O :   -0.297346
   4 N :    0.017466
   5 C :    0.140864
   6 O :   -0.214626
   7 H :    0.032593
   8 H :    0.024082
   9 H :    0.027243
  10 H :    0.028555
  11 H :    0.030916
  12 H :    0.007816
  13 H :    0.003415
  14 H :    0.126558
  15 H :   -0.016039
Sum of atomic charges:   -0.0000000

LOEWDIN ATOMIC CHARGES
----------------------
   0 C :   -0.061729
   1 C :   -0.056798
   2 C :    0.058082
   3 O :   -0.104904
   4 N :    0.077463
   5 C :    0.041076
   6 O :   -0.168618
   7 H :    0.032728
   8 H :    0.026666
   9 H :    0.027505
  10 H :    0.030192
  11 H :    0.031004
  12 H :    0.008619
  13 H :    0.007163
  14 H :    0.065677
  15 H :   -0.014126

  Mayer bond orders larger than 0.1
B(  0-C ,  1-C ) :   1.1073 B(  0-C ,  7-H ) :   0.9614 B(  0-C ,  8-H ) :   0.9674
B(  0-C ,  9-H ) :   0.9684 B(  1-C ,  2-C ) :   1.0842 B(  1-C , 10-H ) :   0.9362
B(  1-C , 11-H ) :   0.9357 B(  2-C ,  3-O ) :   0.9490 B(  2-C , 12-H ) :   0.9426
B(  2-C , 13-H ) :   0.9402 B(  3-O ,  4-N ) :   0.9315 B(  4-N ,  5-C ) :   1.1673
B(  4-N ,  6-O ) :   0.1118 B(  4-N , 14-H ) :   0.9190 B(  5-C ,  6-O ) :   2.0640
B(  5-C , 15-H ) :   0.9201

FINAL SINGLE POINT ENERGY      -362.287064980989

DIPOLE MOMENT
-------------
                                X             Y             Z
Electronic contribution:      5.97466     -10.68563       2.45806
Nuclear contribution   :     -6.44735      12.09699      -2.44001
                        -----------------------------------------
Total Dipole Moment    :     -0.47270       1.41135       0.01805
                        -----------------------------------------
Magnitude (a.u.)       :      1.48852
Magnitude (Debye)      :      3.78352

                             ****ORCA TERMINATED NORMALLY****
TOTAL RUN TIME: 0 days 0 hours 0 minutes 6 seconds 784 msec
