                         Program Version 3.0.3 - RELEASE   -
|  1> ! RI PBE def2-SVP def2-SVP/J NBO PAL2
|  2> % maxcore 2000
|  3> % output
|  4>     # printlevel mini
|  5>     print[ P_Basis ] 0
|  6>     print[ P_SCFInfo ] 1
|  7>     print[ P_SCFIterInfo ] 1
|  8>     print[ P_OrbEn ] 0
|  9>     print[ P_Cartesian ] 0
| 10> end
| 11> *xyz 0 1
| 12>  C        0.2333950000    -0.8859450000    -0.9432020000
| 13>  C        1.2165080000    -0.3121410000    -0.2622420000
| 14>  C        2.6080560000    -0.4279290000    -0.7546790000
| 15>  O        2.9337620000    -1.0225680000    -1.7606450000
| 16>  N        3.5830110000     0.1899030000    -0.0024970000
| 17>  N        3.3411820000     0.8727570000     1.1236180000
| 18>  C        4.3249800000     1.3975630000     1.7281010000
| 19>  H       -0.7960410000    -0.8214340000    -0.6121070000
| 20>  H        0.4489530000    -1.4351860000    -1.8532580000
| 21>  H        1.0445750000     0.2443630000     0.6494960000
| 22>  H        4.5298260000     0.0963830000    -0.3605150000
| 23>  H        4.1210910000     1.9479260000     2.6380480000
| 24>  H        5.3573820000     1.3196070000     1.3755820000
| 25> *
| 26>
| 27>                          ****END OF INPUT****
 Total Charge           Charge          ....    0
 Multiplicity           Mult            ....    1
 Number of Electrons    NEL             ....   52
 Basis Dimension        Dim             ....  128

MULLIKEN ATOMIC CHARGES
-----------------------
   0 C :    0.028990
   1 C :   -0.091510
   2 C :    0.094944
   3 O :   -0.184915
   4 N :   -0.047996
   5 N :   -0.038443
   6 C :   -0.036429
   7 H :    0.032830
   8 H :    0.046099
   9 H :    0.015984
  10 H :    0.103309
  11 H :    0.056303
  12 H :    0.020834
Sum of atomic charges:    0.0000000

LOEWDIN ATOMIC CHARGES
----------------------
   0 C :    0.013561
   1 C :   -0.070774
   2 C :    0.029706
   3 O :   -0.169856
   4 N :    0.068546
   5 N :   -0.011054
   6 C :   -0.039863
   7 H :    0.030595
   8 H :    0.033531
   9 H :    0.028823
  10 H :    0.061472
  11 H :    0.026009
  12 H :   -0.000695

  Mayer bond orders larger than 0.1
B(  0-C ,  1-C ) :   1.9494 B(  0-C ,  7-H ) :   0.9406 B(  0-C ,  8-H ) :   0.9332
B(  1-C ,  2-C ) :   0.9919 B(  1-C ,  9-H ) :   0.9355 B(  2-C ,  3-O ) :   2.1057
B(  2-C ,  4-N ) :   1.0905 B(  4-N ,  5-N ) :   1.0729 B(  4-N , 10-H ) :   0.8946
B(  5-N ,  6-C ) :   1.8874 B(  6-C , 11-H ) :   0.9560 B(  6-C , 12-H ) :   0.9333

FINAL SINGLE POINT ENERGY      -340.058525449306

DIPOLE MOMENT
-------------
                                X             Y             Z
Electronic contribution:      1.41049      -0.90315      -1.72840
Nuclear contribution   :     -1.07595       1.42349       2.47618
                        -----------------------------------------
Total Dipole Moment    :      0.33454       0.52034       0.74778
                        -----------------------------------------
Magnitude (a.u.)       :      0.97049
Magnitude (Debye)      :      2.46678

                             ****ORCA TERMINATED NORMALLY****
TOTAL RUN TIME: 0 days 0 hours 0 minutes 6 seconds 142 msec
