                         Program Version 3.0.3 - RELEASE   -
|  1> ! RI PBE def2-SVP def2-SVP/J NBO PAL2
|  2> % maxcore 2000
|  3> % output
|  4>     # printlevel mini
|  5>     print[ P_Basis ] 0
|  6>     print[ P_SCFInfo ] 1
|  7>     print[ P_SCFIterInfo ] 1
|  8>     print[ P_OrbEn ] 0
|  9>     print[ P_Cartesian ] 0
| 10> end
| 11> *xyz 0 1
| 12>  C        0.9082400000    -0.1473520000    -0.0999220000
| 13>  C        2.3633510000    -0.4406310000    -0.1680650000
| 14>  C        2.8091760000    -1.4263750000    -1.2078360000
| 15>  O        2.0132450000    -1.9501040000    -1.9444240000
| 16>  N        3.1536760000     0.1507880000     0.6489390000
| 17>  N        4.4957690000    -0.1864620000     0.5104250000
| 18>  C        5.2165740000     0.4247230000     1.3548880000
| 19>  H        0.3456060000    -1.0658660000     0.0855580000
| 20>  H        0.5543860000     0.2364980000    -1.0601660000
| 21>  H        0.7101310000     0.5770120000     0.6874090000
| 22>  H        3.8864270000    -1.6379540000    -1.2565830000
| 23>  H        6.2862380000     0.2393550000     1.3416440000
| 24>  H        4.7895000000     1.1190790000     2.0810520000
| 25> *
| 26>
| 27>                          ****END OF INPUT****
 Total Charge           Charge          ....    0
 Multiplicity           Mult            ....    1
 Number of Electrons    NEL             ....   52
 Basis Dimension        Dim             ....  128

MULLIKEN ATOMIC CHARGES
-----------------------
   0 C :    0.069214
   1 C :   -0.206878
   2 C :    0.164633
   3 O :   -0.142555
   4 N :   -0.049436
   5 N :   -0.102631
   6 C :    0.036358
   7 H :    0.051860
   8 H :    0.050709
   9 H :    0.033419
  10 H :    0.006701
  11 H :    0.057003
  12 H :    0.031606
Sum of atomic charges:   -0.0000000

LOEWDIN ATOMIC CHARGES
----------------------
   0 C :   -0.059845
   1 C :   -0.046275
   2 C :    0.076267
   3 O :   -0.089175
   4 N :   -0.032689
   5 N :   -0.042739
   6 C :    0.027725
   7 H :    0.051151
   8 H :    0.050822
   9 H :    0.037591
  10 H :   -0.000800
  11 H :    0.024709
  12 H :    0.003258

  Mayer bond orders larger than 0.1
B(  0-C ,  1-C ) :   1.0922 B(  0-C ,  7-H ) :   0.9349 B(  0-C ,  8-H ) :   0.9352
B(  0-C ,  9-H ) :   0.9456 B(  1-C ,  2-C ) :   0.9275 B(  1-C ,  4-N ) :   1.8464
B(  1-C ,  6-C ) :   0.1100 B(  2-C ,  3-O ) :   2.1493 B(  2-C , 10-H ) :   0.9331
B(  4-N ,  5-N ) :   1.0036 B(  5-N ,  6-C ) :   1.9132 B(  6-C , 11-H ) :   0.9516
B(  6-C , 12-H ) :   0.9229

FINAL SINGLE POINT ENERGY      -340.033025559965

DIPOLE MOMENT
-------------
                                X             Y             Z
Electronic contribution:      1.56039      -1.98057      -1.97811
Nuclear contribution   :     -1.19728       2.43060       2.57204
                        -----------------------------------------
Total Dipole Moment    :      0.36312       0.45003       0.59393
                        -----------------------------------------
Magnitude (a.u.)       :      0.82893
Magnitude (Debye)      :      2.10697

                             ****ORCA TERMINATED NORMALLY****
TOTAL RUN TIME: 0 days 0 hours 0 minutes 5 seconds 548 msec
