                         Program Version 3.0.3 - RELEASE   -
|  1> ! RI PBE def2-SVP def2-SVP/J NBO PAL2
|  2> % maxcore 2000
|  3> % output
|  4>     # printlevel mini
|  5>     print[ P_Basis ] 0
|  6>     print[ P_SCFInfo ] 1
|  7>     print[ P_SCFIterInfo ] 1
|  8>     print[ P_OrbEn ] 0
|  9>     print[ P_Cartesian ] 0
| 10> end
| 11> *xyz 0 1
| 12>  C        0.8768960000    -0.1595040000     0.1119310000
| 13>  C        2.3036110000     0.2707250000     0.0657770000
| 14>  C        2.5332070000     1.7635260000     0.0809130000
| 15>  O        3.6613550000     2.2349120000    -0.5856960000
| 16>  N        3.1871470000    -0.6543940000     0.0656460000
| 17>  N        4.5040340000    -0.2002650000     0.0690800000
| 18>  C        5.3439930000    -1.1308350000     0.2426860000
| 19>  H        0.3748570000     0.1097220000    -0.8225800000
| 20>  H        0.3462760000     0.3606180000     0.9158470000
| 21>  H        0.8037900000    -1.2345150000     0.2648820000
| 22>  H        2.5232250000     2.0588100000     1.1474010000
| 23>  H        1.6567190000     2.2426140000    -0.3670880000
| 24>  H        4.3576350000     1.5786710000    -0.4048600000
| 25>  H        6.3984990000    -0.8749260000     0.2621670000
| 26>  H        5.0266580000    -2.1667780000     0.3717830000
| 27> *
| 28>
| 29>                          ****END OF INPUT****
 Total Charge           Charge          ....    0
 Multiplicity           Mult            ....    1
 Number of Electrons    NEL             ....   54
 Basis Dimension        Dim             ....  138

MULLIKEN ATOMIC CHARGES
-----------------------
   0 C :    0.051374
   1 C :   -0.248731
   2 C :    0.268402
   3 O :   -0.275236
   4 N :   -0.083335
   5 N :   -0.125223
   6 C :    0.041950
   7 H :    0.051808
   8 H :    0.040594
   9 H :    0.033330
  10 H :    0.015978
  11 H :    0.001596
  12 H :    0.140047
  13 H :    0.053994
  14 H :    0.033454
Sum of atomic charges:   -0.0000000

LOEWDIN ATOMIC CHARGES
----------------------
   0 C :   -0.061280
   1 C :   -0.010359
   2 C :    0.039960
   3 O :   -0.123603
   4 N :   -0.074386
   5 N :   -0.023000
   6 C :    0.022831
   7 H :    0.048043
   8 H :    0.043394
   9 H :    0.036584
  10 H :    0.024295
  11 H :    0.027241
  12 H :    0.020327
  13 H :    0.023757
  14 H :    0.006195

  Mayer bond orders larger than 0.1
B(  0-C ,  1-C ) :   1.0802 B(  0-C ,  7-H ) :   0.9354 B(  0-C ,  8-H ) :   0.9455
B(  0-C ,  9-H ) :   0.9459 B(  1-C ,  2-C ) :   0.9745 B(  1-C ,  4-N ) :   1.8913
B(  1-C ,  6-C ) :   0.1032 B(  2-C ,  3-O ) :   1.1276 B(  2-C , 10-H ) :   0.8914
B(  2-C , 11-H ) :   0.9192 B(  3-O , 12-H ) :   0.9282 B(  4-N ,  5-N ) :   0.9922
B(  5-N ,  6-C ) :   1.9080 B(  5-N , 12-H ) :   0.1477 B(  6-C , 13-H ) :   0.9526
B(  6-C , 14-H ) :   0.9258

FINAL SINGLE POINT ENERGY      -341.237098717634

DIPOLE MOMENT
-------------
                                X             Y             Z
Electronic contribution:      3.65740       0.12581      -0.85495
Nuclear contribution   :     -3.87387      -0.64420       1.28138
                        -----------------------------------------
Total Dipole Moment    :     -0.21647      -0.51840       0.42644
                        -----------------------------------------
Magnitude (a.u.)       :      0.70530
Magnitude (Debye)      :      1.79272

                             ****ORCA TERMINATED NORMALLY****
TOTAL RUN TIME: 0 days 0 hours 0 minutes 6 seconds 889 msec
