                         Program Version 3.0.3 - RELEASE   -
|  1> ! RI PBE def2-SVP def2-SVP/J NBO PAL2
|  2> % maxcore 2000
|  3> % output
|  4>     # printlevel mini
|  5>     print[ P_Basis ] 0
|  6>     print[ P_SCFInfo ] 1
|  7>     print[ P_SCFIterInfo ] 1
|  8>     print[ P_OrbEn ] 0
|  9>     print[ P_Cartesian ] 0
| 10> end
| 11> *xyz 0 1
| 12>  C        1.3485000000     0.2648600000    -0.1852880000
| 13>  C        2.5448540000    -0.2085650000     0.6224220000
| 14>  C        2.2700720000    -0.2093700000     2.1169710000
| 15>  O        3.3999990000    -0.5802140000     2.8609560000
| 16>  N        2.9904410000    -1.5478850000     0.2610650000
| 17>  N        3.7146320000    -1.6276320000    -0.8762050000
| 18>  C        3.7288890000    -2.7182680000    -1.5233460000
| 19>  H        1.0791850000     1.2907510000     0.0777570000
| 20>  H        0.4750050000    -0.3691130000    -0.0020060000
| 21>  H        1.5736640000     0.2354800000    -1.2529730000
| 22>  H        3.4031480000     0.4409210000     0.4306300000
| 23>  H        1.4173520000    -0.8773770000     2.3287230000
| 24>  H        1.9782220000     0.7939500000     2.4367710000
| 25>  H        3.8197920000    -1.2954340000     2.3668960000
| 26>  H        2.2549550000    -2.2503460000     0.3417990000
| 27>  H        4.3594530000    -2.7786930000    -2.4020970000
| 28>  H        3.1475570000    -3.5985560000    -1.2291640000
| 29> *
| 30>
| 31>                          ****END OF INPUT****
 Total Charge           Charge          ....    0
 Multiplicity           Mult            ....    1
 Number of Electrons    NEL             ....   56
 Basis Dimension        Dim             ....  148

MULLIKEN ATOMIC CHARGES
-----------------------
   0 C :    0.017599
   1 C :   -0.061911
   2 C :    0.223309
   3 O :   -0.278130
   4 N :   -0.151036
   5 N :   -0.069837
   6 C :   -0.050843
   7 H :    0.026069
   8 H :    0.011658
   9 H :    0.035339
  10 H :    0.024526
  11 H :   -0.020765
  12 H :    0.008092
  13 H :    0.146066
  14 H :    0.089281
  15 H :    0.045817
  16 H :    0.004766
Sum of atomic charges:   -0.0000000

LOEWDIN ATOMIC CHARGES
----------------------
   0 C :   -0.070914
   1 C :   -0.022820
   2 C :    0.051140
   3 O :   -0.120758
   4 N :    0.007656
   5 N :   -0.023764
   6 C :   -0.068119
   7 H :    0.032994
   8 H :    0.022879
   9 H :    0.032363
  10 H :    0.030914
  11 H :   -0.001843
  12 H :    0.022495
  13 H :    0.053222
  14 H :    0.042156
  15 H :    0.020859
  16 H :   -0.008459

  Mayer bond orders larger than 0.1
B(  0-C ,  1-C ) :   1.0799 B(  0-C ,  7-H ) :   0.9552 B(  0-C ,  8-H ) :   0.9508
B(  0-C ,  9-H ) :   0.9536 B(  1-C ,  2-C ) :   1.0382 B(  1-C ,  4-N ) :   0.9677
B(  1-C , 10-H ) :   0.9003 B(  2-C ,  3-O ) :   1.0941 B(  2-C , 11-H ) :   0.9123
B(  2-C , 12-H ) :   0.9364 B(  3-O , 13-H ) :   0.9652 B(  4-N ,  5-N ) :   1.0894
B(  4-N ,  6-C ) :   0.1357 B(  4-N , 14-H ) :   0.9109 B(  5-N ,  6-C ) :   1.8947
B(  6-C , 15-H ) :   0.9568 B(  6-C , 16-H ) :   0.9275

FINAL SINGLE POINT ENERGY      -342.442138177174

DIPOLE MOMENT
-------------
                                X             Y             Z
Electronic contribution:      3.92250      -1.42905       1.40815
Nuclear contribution   :     -4.64518       0.99450      -1.90633
                        -----------------------------------------
Total Dipole Moment    :     -0.72268      -0.43455      -0.49818
                        -----------------------------------------
Magnitude (a.u.)       :      0.97943
Magnitude (Debye)      :      2.48951

                             ****ORCA TERMINATED NORMALLY****
TOTAL RUN TIME: 0 days 0 hours 0 minutes 7 seconds 706 msec
