                         Program Version 3.0.3 - RELEASE   -
|  1> ! RI PBE def2-SVP def2-SVP/J NBO PAL2
|  2> % maxcore 2000
|  3> % output
|  4>     # printlevel mini
|  5>     print[ P_Basis ] 0
|  6>     print[ P_SCFInfo ] 1
|  7>     print[ P_SCFIterInfo ] 1
|  8>     print[ P_OrbEn ] 0
|  9>     print[ P_Cartesian ] 0
| 10> end
| 11> *xyz 0 1
| 12>  C        1.1020500000    -0.9786940000    -0.1257650000
| 13>  C        2.1391550000    -0.1833450000    -0.9003180000
| 14>  C        3.3089230000     0.2137500000    -0.0280300000
| 15>  O        3.1786310000     0.6337790000     1.1060550000
| 16>  N        4.5318350000     0.0898810000    -0.6088520000
| 17>  N        5.6750710000     0.5941360000     0.0058100000
| 18>  C        6.3135170000    -0.4027670000     0.8555900000
| 19>  H        0.2207880000    -1.1688850000    -0.7409180000
| 20>  H        0.7960980000    -0.4291970000     0.7646990000
| 21>  H        1.5052250000    -1.9412340000     0.1967010000
| 22>  H        1.6940490000     0.7475270000    -1.2689910000
| 23>  H        2.4856160000    -0.7384620000    -1.7773320000
| 24>  H        4.5991990000    -0.0439660000    -1.6041080000
| 25>  H        5.3614210000     1.3652550000     0.5880790000
| 26>  H        6.7156540000    -1.2048230000     0.2339570000
| 27>  H        5.6347040000    -0.8326080000     1.6007690000
| 28>  H        7.1487430000     0.0771410000     1.3693840000
| 29> *
| 30>
| 31>                          ****END OF INPUT****
 Total Charge           Charge          ....    0
 Multiplicity           Mult            ....    1
 Number of Electrons    NEL             ....   56
 Basis Dimension        Dim             ....  148

MULLIKEN ATOMIC CHARGES
-----------------------
   0 C :   -0.026690
   1 C :   -0.008645
   2 C :    0.005331
   3 O :   -0.227273
   4 N :   -0.089350
   5 N :   -0.157125
   6 C :    0.078270
   7 H :    0.020301
   8 H :    0.044652
   9 H :    0.024520
  10 H :    0.040697
  11 H :    0.000060
  12 H :    0.121565
  13 H :    0.105547
  14 H :    0.018636
  15 H :    0.025002
  16 H :    0.024503
Sum of atomic charges:   -0.0000000

LOEWDIN ATOMIC CHARGES
----------------------
   0 C :   -0.057409
   1 C :   -0.071985
   2 C :    0.014454
   3 O :   -0.200435
   4 N :    0.039316
   5 N :   -0.046100
   6 C :   -0.008123
   7 H :    0.027075
   8 H :    0.033534
   9 H :    0.028664
  10 H :    0.045144
  11 H :    0.021870
  12 H :    0.068552
  13 H :    0.049655
  14 H :    0.018930
  15 H :    0.010542
  16 H :    0.026316

  Mayer bond orders larger than 0.1
B(  0-C ,  1-C ) :   1.1210 B(  0-C ,  7-H ) :   0.9609 B(  0-C ,  8-H ) :   0.9603
B(  0-C ,  9-H ) :   0.9703 B(  1-C ,  2-C ) :   0.9722 B(  1-C , 10-H ) :   0.9074
B(  1-C , 11-H ) :   0.9257 B(  2-C ,  3-O ) :   2.0491 B(  2-C ,  4-N ) :   1.1943
B(  4-N ,  5-N ) :   1.0341 B(  4-N , 12-H ) :   0.9280 B(  5-N ,  6-C ) :   1.0302
B(  5-N , 13-H ) :   0.9449 B(  6-C , 14-H ) :   0.9734 B(  6-C , 15-H ) :   0.9597
B(  6-C , 16-H ) :   0.9701

FINAL SINGLE POINT ENERGY      -342.482991766611

DIPOLE MOMENT
-------------
                                X             Y             Z
Electronic contribution:      1.58233       3.48780       0.30608
Nuclear contribution   :     -1.41190      -3.83302      -1.15835
                        -----------------------------------------
Total Dipole Moment    :      0.17043      -0.34522      -0.85227
                        -----------------------------------------
Magnitude (a.u.)       :      0.93519
Magnitude (Debye)      :      2.37707

                             ****ORCA TERMINATED NORMALLY****
TOTAL RUN TIME: 0 days 0 hours 0 minutes 7 seconds 306 msec
