                         Program Version 3.0.3 - RELEASE   -
|  1> ! RI PBE def2-SVP def2-SVP/J NBO PAL2
|  2> % maxcore 2000
|  3> % output
|  4>     # printlevel mini
|  5>     print[ P_Basis ] 0
|  6>     print[ P_SCFInfo ] 1
|  7>     print[ P_SCFIterInfo ] 1
|  8>     print[ P_OrbEn ] 0
|  9>     print[ P_Cartesian ] 0
| 10> end
| 11> *xyz 0 1
| 12>  C        0.9079310000    -0.1191610000    -0.1595770000
| 13>  C        2.4057920000     0.0527690000    -0.0171690000
| 14>  C        2.9617120000     1.0374130000    -1.0117190000
| 15>  O        2.2997820000     1.6293500000    -1.8343810000
| 16>  N        4.3191680000     1.2620980000    -0.9602740000
| 17>  N        5.1270710000     0.6524610000    -0.0841060000
| 18>  C        6.3651040000     0.9265840000    -0.1159610000
| 19>  H        0.5376540000    -0.8376540000     0.5740200000
| 20>  H        0.6458890000    -0.4769460000    -1.1562220000
| 21>  H        0.3871080000     0.8274790000    -0.0092570000
| 22>  H        2.9369650000    -0.8953950000    -0.1455430000
| 23>  H        2.6816560000     0.3917120000     0.9861490000
| 24>  H        4.6853100000     1.9282480000    -1.6351470000
| 25>  H        7.0100760000     0.4279570000     0.5968680000
| 26>  H        6.8054720000     1.6355750000    -0.8229800000
| 27> *
| 28>
| 29>                          ****END OF INPUT****
 Total Charge           Charge          ....    0
 Multiplicity           Mult            ....    1
 Number of Electrons    NEL             ....   54
 Basis Dimension        Dim             ....  138

MULLIKEN ATOMIC CHARGES
-----------------------
   0 C :    0.012834
   1 C :   -0.047534
   2 C :    0.021122
   3 O :   -0.185983
   4 N :   -0.042204
   5 N :   -0.045063
   6 C :   -0.039592
   7 H :    0.014485
   8 H :    0.028713
   9 H :    0.029722
  10 H :    0.039484
  11 H :    0.038714
  12 H :    0.101670
  13 H :    0.054410
  14 H :    0.019222
Sum of atomic charges:   -0.0000000

LOEWDIN ATOMIC CHARGES
----------------------
   0 C :   -0.059492
   1 C :   -0.076912
   2 C :    0.036782
   3 O :   -0.165191
   4 N :    0.060910
   5 N :   -0.013492
   6 C :   -0.042456
   7 H :    0.027309
   8 H :    0.031037
   9 H :    0.031262
  10 H :    0.043778
  11 H :    0.043631
  12 H :    0.059280
  13 H :    0.025074
  14 H :   -0.001521

  Mayer bond orders larger than 0.1
B(  0-C ,  1-C ) :   1.1177 B(  0-C ,  7-H ) :   0.9563 B(  0-C ,  8-H ) :   0.9648
B(  0-C ,  9-H ) :   0.9647 B(  1-C ,  2-C ) :   0.9975 B(  1-C , 10-H ) :   0.9050
B(  1-C , 11-H ) :   0.9062 B(  2-C ,  3-O ) :   2.1226 B(  2-C ,  4-N ) :   1.1077
B(  4-N ,  5-N ) :   1.0744 B(  4-N ,  6-C ) :   0.1032 B(  4-N , 12-H ) :   0.8997
B(  5-N ,  6-C ) :   1.8880 B(  6-C , 13-H ) :   0.9566 B(  6-C , 14-H ) :   0.9334

FINAL SINGLE POINT ENERGY      -341.282386503197

DIPOLE MOMENT
-------------
                                X             Y             Z
Electronic contribution:      2.87614       2.96775      -2.72755
Nuclear contribution   :     -1.90095      -3.06999       3.06342
                        -----------------------------------------
Total Dipole Moment    :      0.97519      -0.10224       0.33588
                        -----------------------------------------
Magnitude (a.u.)       :      1.03647
Magnitude (Debye)      :      2.63449

                             ****ORCA TERMINATED NORMALLY****
TOTAL RUN TIME: 0 days 0 hours 0 minutes 6 seconds 608 msec
