                         Program Version 3.0.3 - RELEASE   -
|  1> ! RI PBE def2-SVP def2-SVP/J NBO PAL2
|  2> % maxcore 2000
|  3> % output
|  4>     # printlevel mini
|  5>     print[ P_Basis ] 0
|  6>     print[ P_SCFInfo ] 1
|  7>     print[ P_SCFIterInfo ] 1
|  8>     print[ P_OrbEn ] 0
|  9>     print[ P_Cartesian ] 0
| 10> end
| 11> *xyz 0 1
| 12>  C        0.5706780000     0.2934920000    -0.0858690000
| 13>  C        2.0732820000     0.1040770000    -0.0640980000
| 14>  C        2.6496410000    -0.0492530000    -1.4484680000
| 15>  O        1.9892370000    -0.1146890000    -2.4611380000
| 16>  N        4.0232390000    -0.0698770000    -1.5381280000
| 17>  O        4.7527320000    -0.4071680000    -0.4125820000
| 18>  C        5.6475580000     0.6380730000    -0.0779990000
| 19>  H        0.1832140000     0.3804300000     0.9309610000
| 20>  H        0.0782850000    -0.5484010000    -0.5735380000
| 21>  H        0.2954170000     1.1927260000    -0.6387590000
| 22>  H        2.3574650000    -0.7835910000     0.5109310000
| 23>  H        2.5757590000     0.9391390000     0.4340720000
| 24>  H        4.3876380000    -0.4965520000    -2.3816400000
| 25>  H        6.1688550000     0.3047280000     0.8196720000
| 26>  H        5.1100660000     1.5683350000     0.1272850000
| 27>  H        6.3728540000     0.8090310000    -0.8797120000
| 28> *
| 29>
| 30>                          ****END OF INPUT****
 Total Charge           Charge          ....    0
 Multiplicity           Mult            ....    1
 Number of Electrons    NEL             ....   56
 Basis Dimension        Dim             ....  143

MULLIKEN ATOMIC CHARGES
-----------------------
   0 C :    0.007235
   1 C :   -0.056899
   2 C :    0.013239
   3 O :   -0.193565
   4 N :    0.015162
   5 O :   -0.293806
   6 C :    0.153806
   7 H :    0.011248
   8 H :    0.033319
   9 H :    0.028532
  10 H :    0.044756
  11 H :    0.027706
  12 H :    0.125709
  13 H :    0.038958
  14 H :    0.023788
  15 H :    0.020811
Sum of atomic charges:    0.0000000

LOEWDIN ATOMIC CHARGES
----------------------
   0 C :   -0.059006
   1 C :   -0.080184
   2 C :    0.021135
   3 O :   -0.171446
   4 N :    0.067807
   5 O :   -0.108204
   6 C :    0.047690
   7 H :    0.026130
   8 H :    0.032345
   9 H :    0.031003
  10 H :    0.044531
  11 H :    0.037194
  12 H :    0.063946
  13 H :    0.027118
  14 H :    0.009412
  15 H :    0.010529

  Mayer bond orders larger than 0.1
B(  0-C ,  1-C ) :   1.1244 B(  0-C ,  7-H ) :   0.9563 B(  0-C ,  8-H ) :   0.9639
B(  0-C ,  9-H ) :   0.9672 B(  1-C ,  2-C ) :   0.9772 B(  1-C , 10-H ) :   0.9004
B(  1-C , 11-H ) :   0.9179 B(  2-C ,  3-O ) :   2.1148 B(  2-C ,  4-N ) :   1.1439
B(  4-N ,  5-O ) :   0.9471 B(  4-N , 12-H ) :   0.9148 B(  5-O ,  6-C ) :   0.9687
B(  6-C , 13-H ) :   0.9716 B(  6-C , 14-H ) :   0.9648 B(  6-C , 15-H ) :   0.9684

FINAL SINGLE POINT ENERGY      -362.293140078060

DIPOLE MOMENT
-------------
                                X             Y             Z
Electronic contribution:      1.63377      -2.43726      -5.01587
Nuclear contribution   :     -0.63926       2.66354       5.74437
                        -----------------------------------------
Total Dipole Moment    :      0.99451       0.22628       0.72849
                        -----------------------------------------
Magnitude (a.u.)       :      1.25338
Magnitude (Debye)      :      3.18584

                             ****ORCA TERMINATED NORMALLY****
TOTAL RUN TIME: 0 days 0 hours 0 minutes 6 seconds 958 msec
