                         Program Version 3.0.3 - RELEASE   -
|  1> ! RI PBE def2-SVP def2-SVP/J NBO PAL2
|  2> % maxcore 2000
|  3> % output
|  4>     # printlevel mini
|  5>     print[ P_Basis ] 0
|  6>     print[ P_SCFInfo ] 1
|  7>     print[ P_SCFIterInfo ] 1
|  8>     print[ P_OrbEn ] 0
|  9>     print[ P_Cartesian ] 0
| 10> end
| 11> *xyz 0 1
| 12>  C        0.9685430000     0.5021630000     0.5175140000
| 13>  C        2.2737110000     0.2964340000     0.4061760000
| 14>  C        2.8896670000     0.1342380000    -0.9283630000
| 15>  O        2.3311230000     0.1664430000    -1.9805260000
| 16>  O        4.2358460000    -0.0632620000    -0.7581220000
| 17>  N        4.9263680000    -0.2299870000    -1.9539250000
| 18>  C        6.1546780000    -0.4056880000    -1.7221450000
| 19>  H        0.4949400000     0.6238260000     1.4839380000
| 20>  H        0.3471030000     0.5523700000    -0.3698200000
| 21>  H        2.9275610000     0.2399900000     1.2685250000
| 22>  H        6.7865940000    -0.5465510000    -2.5913870000
| 23>  H        6.5809560000    -0.4192670000    -0.7200630000
| 24> *
| 25>
| 26>                          ****END OF INPUT****
 Total Charge           Charge          ....    0
 Multiplicity           Mult            ....    1
 Number of Electrons    NEL             ....   52
 Basis Dimension        Dim             ....  123

MULLIKEN ATOMIC CHARGES
-----------------------
   0 C :    0.031650
   1 C :   -0.087513
   2 C :    0.179149
   3 O :   -0.135100
   4 O :   -0.233259
   5 N :    0.023294
   6 C :    0.002206
   7 H :    0.039391
   8 H :    0.051574
   9 H :    0.017023
  10 H :    0.068866
  11 H :    0.042719
Sum of atomic charges:   -0.0000000

LOEWDIN ATOMIC CHARGES
----------------------
   0 C :    0.018947
   1 C :   -0.072354
   2 C :    0.031756
   3 O :   -0.112409
   4 O :   -0.038243
   5 N :    0.034587
   6 C :   -0.011539
   7 H :    0.033358
   8 H :    0.037156
   9 H :    0.032914
  10 H :    0.034908
  11 H :    0.010920

  Mayer bond orders larger than 0.1
B(  0-C ,  1-C ) :   1.9555 B(  0-C ,  7-H ) :   0.9420 B(  0-C ,  8-H ) :   0.9355
B(  1-C ,  2-C ) :   0.9880 B(  1-C ,  9-H ) :   0.9500 B(  2-C ,  3-O ) :   2.1718
B(  2-C ,  4-O ) :   1.0356 B(  4-O ,  5-N ) :   0.9261 B(  5-N ,  6-C ) :   1.9681
B(  6-C , 10-H ) :   0.9487 B(  6-C , 11-H ) :   0.9295

FINAL SINGLE POINT ENERGY      -359.869936600846

DIPOLE MOMENT
-------------
                                X             Y             Z
Electronic contribution:      0.57361      -0.21818      -2.52971
Nuclear contribution   :      0.03755       0.17406       3.50630
                        -----------------------------------------
Total Dipole Moment    :      0.61116      -0.04411       0.97659
                        -----------------------------------------
Magnitude (a.u.)       :      1.15290
Magnitude (Debye)      :      2.93045

                             ****ORCA TERMINATED NORMALLY****
TOTAL RUN TIME: 0 days 0 hours 0 minutes 5 seconds 727 msec
