                         Program Version 3.0.3 - RELEASE   -
|  1> ! RI PBE def2-SVP def2-SVP/J NBO PAL2
|  2> % maxcore 2000
|  3> % output
|  4>     # printlevel mini
|  5>     print[ P_Basis ] 0
|  6>     print[ P_SCFInfo ] 1
|  7>     print[ P_SCFIterInfo ] 1
|  8>     print[ P_OrbEn ] 0
|  9>     print[ P_Cartesian ] 0
| 10> end
| 11> *xyz 0 1
| 12>  C        0.8102470000     0.3446610000     0.2710840000
| 13>  C        2.2809370000     0.0025490000     0.2806240000
| 14>  C        2.7256550000    -0.5929290000     1.6052280000
| 15>  O        4.1185890000    -0.6251480000     1.7754880000
| 16>  O        2.4561340000    -0.9195780000    -0.8073700000
| 17>  N        3.7676950000    -1.2808360000    -0.9490800000
| 18>  C        3.9584120000    -2.0524290000    -1.9327180000
| 19>  H        0.6060070000     1.1369890000     0.9927170000
| 20>  H        0.2067800000    -0.5278020000     0.5331760000
| 21>  H        0.5025900000     0.6894110000    -0.7170350000
| 22>  H        2.8879830000     0.8919800000     0.0728290000
| 23>  H        2.2788100000    -1.5954430000     1.6974400000
| 24>  H        2.3211310000     0.0218360000     2.4146310000
| 25>  H        4.4846120000    -0.9515880000     0.9425190000
| 26>  H        4.9750640000    -2.3840810000    -2.1028170000
| 27>  H        3.1497450000    -2.3750830000    -2.5863040000
| 28> *
| 29>
| 30>                          ****END OF INPUT****
 Total Charge           Charge          ....    0
 Multiplicity           Mult            ....    1
 Number of Electrons    NEL             ....   56
 Basis Dimension        Dim             ....  143

MULLIKEN ATOMIC CHARGES
-----------------------
   0 C :    0.002717
   1 C :    0.029154
   2 C :    0.206019
   3 O :   -0.280600
   4 O :   -0.271877
   5 N :   -0.023974
   6 C :   -0.004398
   7 H :    0.033999
   8 H :    0.029352
   9 H :    0.032461
  10 H :    0.012527
  11 H :   -0.009397
  12 H :    0.006817
  13 H :    0.141618
  14 H :    0.056756
  15 H :    0.038827
Sum of atomic charges:    0.0000000

LOEWDIN ATOMIC CHARGES
----------------------
   0 C :   -0.064331
   1 C :    0.022893
   2 C :    0.041469
   3 O :   -0.125174
   4 O :   -0.077630
   5 N :    0.016810
   6 C :   -0.035378
   7 H :    0.036793
   8 H :    0.031607
   9 H :    0.033184
  10 H :    0.014998
  11 H :    0.005372
  12 H :    0.023748
  13 H :    0.034790
  14 H :    0.029532
  15 H :    0.011316

  Mayer bond orders larger than 0.1
B(  0-C ,  1-C ) :   1.0805 B(  0-C ,  7-H ) :   0.9579 B(  0-C ,  8-H ) :   0.9560
B(  0-C ,  9-H ) :   0.9522 B(  1-C ,  2-C ) :   1.0428 B(  1-C ,  4-O ) :   0.9268
B(  1-C , 10-H ) :   0.9166 B(  2-C ,  3-O ) :   1.1028 B(  2-C , 11-H ) :   0.9053
B(  2-C , 12-H ) :   0.9350 B(  3-O , 13-H ) :   0.9548 B(  4-O ,  5-N ) :   0.9801
B(  4-O ,  6-C ) :   0.1294 B(  5-N ,  6-C ) :   1.9213 B(  5-N , 13-H ) :   0.1025
B(  6-C , 14-H ) :   0.9523 B(  6-C , 15-H ) :   0.9336

FINAL SINGLE POINT ENERGY      -362.264814252041

DIPOLE MOMENT
-------------
                                X             Y             Z
Electronic contribution:      3.78231      -1.51506      -1.36509
Nuclear contribution   :     -4.20915       1.39004       0.67387
                        -----------------------------------------
Total Dipole Moment    :     -0.42684      -0.12502      -0.69122
                        -----------------------------------------
Magnitude (a.u.)       :      0.82195
Magnitude (Debye)      :      2.08924

                             ****ORCA TERMINATED NORMALLY****
TOTAL RUN TIME: 0 days 0 hours 0 minutes 7 seconds 513 msec
