                         Program Version 3.0.3 - RELEASE   -
|  1> ! RI PBE def2-SVP def2-SVP/J NBO PAL2
|  2> % maxcore 2000
|  3> % output
|  4>     # printlevel mini
|  5>     print[ P_Basis ] 0
|  6>     print[ P_SCFInfo ] 1
|  7>     print[ P_SCFIterInfo ] 1
|  8>     print[ P_OrbEn ] 0
|  9>     print[ P_Cartesian ] 0
| 10> end
| 11> *xyz 0 1
| 12>  C        0.8338520000    -0.0878500000    -0.5049190000
| 13>  C        2.3280490000    -0.0659880000    -0.2582070000
| 14>  C        2.6728460000     0.2722800000     1.1664550000
| 15>  O        1.9081500000     0.5071800000     2.0467620000
| 16>  O        4.0380560000     0.2683300000     1.2974640000
| 17>  N        4.4756720000     0.5709220000     2.5839010000
| 18>  C        5.7367050000     0.5481990000     2.6282230000
| 19>  H        0.6241040000    -0.3361460000    -1.5467160000
| 20>  H        0.3862460000     0.8820870000    -0.2846050000
| 21>  H        0.3425810000    -0.8252900000     0.1310930000
| 22>  H        2.8328140000     0.6610960000    -0.9024080000
| 23>  H        2.7895910000    -1.0311510000    -0.4902630000
| 24>  H        6.1825680000     0.7708290000     3.5907900000
| 25>  H        6.3639770000     0.3210020000     1.7673310000
| 26> *
| 27>
| 28>                          ****END OF INPUT****
 Total Charge           Charge          ....    0
 Multiplicity           Mult            ....    1
 Number of Electrons    NEL             ....   54
 Basis Dimension        Dim             ....  133

MULLIKEN ATOMIC CHARGES
-----------------------
   0 C :   -0.007334
   1 C :   -0.050664
   2 C :    0.118817
   3 O :   -0.137897
   4 O :   -0.234133
   5 N :    0.021697
   6 C :   -0.000127
   7 H :    0.019254
   8 H :    0.035738
   9 H :    0.036736
  10 H :    0.046325
  11 H :    0.042471
  12 H :    0.066139
  13 H :    0.042976
Sum of atomic charges:   -0.0000000

LOEWDIN ATOMIC CHARGES
----------------------
   0 C :   -0.058942
   1 C :   -0.077143
   2 C :    0.040053
   3 O :   -0.108599
   4 O :   -0.046259
   5 N :    0.034110
   6 C :   -0.016243
   7 H :    0.029424
   8 H :    0.033080
   9 H :    0.033382
  10 H :    0.046708
  11 H :    0.045905
  12 H :    0.033911
  13 H :    0.010614

  Mayer bond orders larger than 0.1
B(  0-C ,  1-C ) :   1.1209 B(  0-C ,  7-H ) :   0.9567 B(  0-C ,  8-H ) :   0.9671
B(  0-C ,  9-H ) :   0.9669 B(  1-C ,  2-C ) :   0.9911 B(  1-C , 10-H ) :   0.9156
B(  1-C , 11-H ) :   0.9161 B(  2-C ,  3-O ) :   2.1815 B(  2-C ,  4-O ) :   1.0510
B(  4-O ,  5-N ) :   0.9217 B(  5-N ,  6-C ) :   1.9707 B(  6-C , 12-H ) :   0.9481
B(  6-C , 13-H ) :   0.9289

FINAL SINGLE POINT ENERGY      -361.093824800561

DIPOLE MOMENT
-------------
                                X             Y             Z
Electronic contribution:      3.12061       1.24308       5.42593
Nuclear contribution   :     -2.23955      -1.45474      -6.19536
                        -----------------------------------------
Total Dipole Moment    :      0.88106      -0.21166      -0.76943
                        -----------------------------------------
Magnitude (a.u.)       :      1.18873
Magnitude (Debye)      :      3.02152

                             ****ORCA TERMINATED NORMALLY****
TOTAL RUN TIME: 0 days 0 hours 0 minutes 5 seconds 972 msec
