                         Program Version 3.0.3 - RELEASE   -
|  1> ! RI PBE def2-SVP def2-SVP/J NBO PAL2
|  2> % maxcore 2000
|  3> % output
|  4>     # printlevel mini
|  5>     print[ P_Basis ] 0
|  6>     print[ P_SCFInfo ] 1
|  7>     print[ P_SCFIterInfo ] 1
|  8>     print[ P_OrbEn ] 0
|  9>     print[ P_Cartesian ] 0
| 10> end
| 11> *xyz 0 1
| 12>  C        1.7298300000     1.0762600000     0.2076120000
| 13>  C        2.0860410000    -0.3567090000    -0.1269340000
| 14>  N        2.7843070000    -0.4390940000    -1.3951900000
| 15>  C        2.7383550000    -1.7115730000    -2.0924070000
| 16>  C        1.9772610000    -0.5472830000    -2.5935220000
| 17>  C        2.4567880000     0.2785690000    -3.7616130000
| 18>  O        3.8522830000     0.4125800000    -3.7565130000
| 19>  H        1.2287990000     1.1327870000     1.1763040000
| 20>  H        1.0586170000     1.5000100000    -0.5437340000
| 21>  H        2.6273260000     1.6966450000     0.2470800000
| 22>  H        1.1757860000    -0.9796240000    -0.1367950000
| 23>  H        2.7459360000    -0.7699820000     0.6423790000
| 24>  H        2.1703770000    -2.5134890000    -1.6272460000
| 25>  H        3.6559270000    -2.0106220000    -2.5867180000
| 26>  H        0.8969010000    -0.5814950000    -2.4569460000
| 27>  H        1.9651450000     1.2632780000    -3.7233970000
| 28>  H        2.1678460000    -0.1963080000    -4.7041810000
| 29>  H        4.0945770000     0.4917510000    -2.8220600000
| 30> *
| 31>
| 32>                          ****END OF INPUT****
 Total Charge           Charge          ....    0
 Multiplicity           Mult            ....    1
 Number of Electrons    NEL             ....   56
 Basis Dimension        Dim             ....  153

MULLIKEN ATOMIC CHARGES
-----------------------
   0 C :   -0.021430
   1 C :    0.075902
   2 N :   -0.311177
   3 C :    0.092131
   4 C :   -0.152002
   5 C :    0.296394
   6 O :   -0.288723
   7 H :    0.024936
   8 H :    0.025950
   9 H :    0.032070
  10 H :   -0.009490
  11 H :    0.016983
  12 H :    0.022535
  13 H :    0.031088
  14 H :    0.018305
  15 H :   -0.008235
  16 H :    0.007648
  17 H :    0.147115
Sum of atomic charges:   -0.0000000

LOEWDIN ATOMIC CHARGES
----------------------
   0 C :   -0.072109
   1 C :    0.013876
   2 N :   -0.106409
   3 C :    0.009341
   4 C :   -0.024695
   5 C :    0.057060
   6 O :   -0.122430
   7 H :    0.031634
   8 H :    0.026402
   9 H :    0.030653
  10 H :    0.004002
  11 H :    0.023466
  12 H :    0.015655
  13 H :    0.020478
  14 H :    0.015912
  15 H :    0.005173
  16 H :    0.020977
  17 H :    0.051015

  Mayer bond orders larger than 0.1
B(  0-C ,  1-C ) :   1.1274 B(  0-C ,  7-H ) :   0.9573 B(  0-C ,  8-H ) :   0.9638
B(  0-C ,  9-H ) :   0.9582 B(  1-C ,  2-N ) :   1.0071 B(  1-C , 10-H ) :   0.9143
B(  1-C , 11-H ) :   0.9409 B(  2-N ,  3-C ) :   0.9441 B(  2-N ,  4-C ) :   0.9366
B(  3-C ,  4-C ) :   1.0426 B(  3-C , 12-H ) :   0.9309 B(  3-C , 13-H ) :   0.9355
B(  4-C ,  5-C ) :   1.0171 B(  4-C , 14-H ) :   0.9188 B(  5-C ,  6-O ) :   1.0976
B(  5-C , 15-H ) :   0.9198 B(  5-C , 16-H ) :   0.9334 B(  6-O , 17-H ) :   0.9505

FINAL SINGLE POINT ENERGY      -326.424480056299

DIPOLE MOMENT
-------------
                                X             Y             Z
Electronic contribution:      3.11933      -0.96274      -3.88137
Nuclear contribution   :     -3.84171       0.69802       4.54264
                        -----------------------------------------
Total Dipole Moment    :     -0.72238      -0.26471       0.66127
                        -----------------------------------------
Magnitude (a.u.)       :      1.01449
Magnitude (Debye)      :      2.57863

                             ****ORCA TERMINATED NORMALLY****
TOTAL RUN TIME: 0 days 0 hours 0 minutes 7 seconds 900 msec
