                         Program Version 3.0.3 - RELEASE   -
|  1> ! RI PBE def2-SVP def2-SVP/J NBO PAL2
|  2> % maxcore 2000
|  3> % output
|  4>     # printlevel mini
|  5>     print[ P_Basis ] 0
|  6>     print[ P_SCFInfo ] 1
|  7>     print[ P_SCFIterInfo ] 1
|  8>     print[ P_OrbEn ] 0
|  9>     print[ P_Cartesian ] 0
| 10> end
| 11> *xyz 0 1
| 12>  C        0.9148180000     1.2120470000     0.2679970000
| 13>  C        1.6273890000     2.0701620000    -0.7542240000
| 14>  N        3.0649940000     1.8687400000    -0.6922050000
| 15>  C        3.8949820000     2.9294760000    -1.1763610000
| 16>  C        3.7702860000     2.6772830000     0.2912040000
| 17>  C        4.8738610000     2.0060840000     1.0106750000
| 18>  O        5.2783200000     2.3408890000     2.0909550000
| 19>  H       -0.1665130000     1.3419590000     0.1904450000
| 20>  H        1.2143550000     1.4801320000     1.2840890000
| 21>  H        1.1487820000     0.1572600000     0.1132460000
| 22>  H        1.3679230000     3.1323720000    -0.6090780000
| 23>  H        1.3082250000     1.7984220000    -1.7649180000
| 24>  H        3.4204930000     3.8403420000    -1.5351240000
| 25>  H        4.7958960000     2.6338660000    -1.7046730000
| 26>  H        3.2073600000     3.4072380000     0.8685330000
| 27>  H        5.3165290000     1.1494300000     0.4580200000
| 28> *
| 29>
| 30>                          ****END OF INPUT****
 Total Charge           Charge          ....    0
 Multiplicity           Mult            ....    1
 Number of Electrons    NEL             ....   54
 Basis Dimension        Dim             ....  143

MULLIKEN ATOMIC CHARGES
-----------------------
   0 C :   -0.029320
   1 C :    0.074861
   2 N :   -0.279201
   3 C :    0.094084
   4 C :   -0.082633
   5 C :    0.196089
   6 O :   -0.157759
   7 H :    0.033164
   8 H :    0.028139
   9 H :    0.039310
  10 H :   -0.008422
  11 H :    0.018266
  12 H :    0.033887
  13 H :    0.041114
  14 H :    0.021890
  15 H :   -0.023468
Sum of atomic charges:    0.0000000

LOEWDIN ATOMIC CHARGES
----------------------
   0 C :   -0.071980
   1 C :    0.016543
   2 N :   -0.090972
   3 C :    0.027489
   4 C :   -0.037329
   5 C :    0.084260
   6 O :   -0.109679
   7 H :    0.033589
   8 H :    0.028810
   9 H :    0.033256
  10 H :    0.003527
  11 H :    0.026098
  12 H :    0.020287
  13 H :    0.023735
  14 H :    0.022249
  15 H :   -0.009883

  Mayer bond orders larger than 0.1
B(  0-C ,  1-C ) :   1.1237 B(  0-C ,  7-H ) :   0.9596 B(  0-C ,  8-H ) :   0.9631
B(  0-C ,  9-H ) :   0.9595 B(  1-C ,  2-N ) :   0.9962 B(  1-C , 10-H ) :   0.9155
B(  1-C , 11-H ) :   0.9394 B(  2-N ,  3-C ) :   0.9827 B(  2-N ,  4-C ) :   0.8594
B(  3-C ,  4-C ) :   0.9843 B(  3-C , 12-H ) :   0.9241 B(  3-C , 13-H ) :   0.9427
B(  4-C ,  5-C ) :   0.9822 B(  4-C , 14-H ) :   0.9269 B(  5-C ,  6-O ) :   2.1777
B(  5-C , 15-H ) :   0.9222

FINAL SINGLE POINT ENERGY      -325.223827037105

DIPOLE MOMENT
-------------
                                X             Y             Z
Electronic contribution:      7.08226       0.69227       3.03509
Nuclear contribution   :     -7.82952      -0.42036      -3.93162
                        -----------------------------------------
Total Dipole Moment    :     -0.74726       0.27191      -0.89653
                        -----------------------------------------
Magnitude (a.u.)       :      1.19838
Magnitude (Debye)      :      3.04603

                             ****ORCA TERMINATED NORMALLY****
TOTAL RUN TIME: 0 days 0 hours 0 minutes 7 seconds 541 msec
