                         Program Version 3.0.3 - RELEASE   -
|  1> ! RI PBE def2-SVP def2-SVP/J NBO PAL2
|  2> % maxcore 2000
|  3> % output
|  4>     # printlevel mini
|  5>     print[ P_Basis ] 0
|  6>     print[ P_SCFInfo ] 1
|  7>     print[ P_SCFIterInfo ] 1
|  8>     print[ P_OrbEn ] 0
|  9>     print[ P_Cartesian ] 0
| 10> end
| 11> *xyz 0 1
| 12>  C        2.4326300000    -1.2668150000    -0.0035060000
| 13>  C        2.4639290000     0.0629550000    -0.0350050000
| 14>  N        2.8657830000     0.8290070000    -1.1140030000
| 15>  C        2.9507500000     2.2768860000    -1.2889230000
| 16>  C        3.4643500000     2.0173360000    -2.7192220000
| 17>  C        3.3197090000     0.5327060000    -2.3808850000
| 18>  O        3.5067530000    -0.5100120000    -2.9410160000
| 19>  H        2.0999940000    -1.7674880000     0.8951520000
| 20>  H        2.7316610000    -1.8633560000    -0.8546780000
| 21>  H        2.1627120000     0.6573860000     0.8221180000
| 22>  H        3.6657590000     2.7570290000    -0.6164560000
| 23>  H        1.9840350000     2.7822110000    -1.2249100000
| 24>  H        4.4890640000     2.3304200000    -2.9178470000
| 25>  H        2.8125710000     2.3555250000    -3.5244080000
| 26> *
| 27>
| 28>                          ****END OF INPUT****
 Total Charge           Charge          ....    0
 Multiplicity           Mult            ....    1
 Number of Electrons    NEL             ....   52
 Basis Dimension        Dim             ....  133

MULLIKEN ATOMIC CHARGES
-----------------------
   0 C :   -0.053349
   1 C :    0.033413
   2 N :   -0.236991
   3 C :    0.148130
   4 C :   -0.077150
   5 C :    0.099700
   6 O :   -0.163402
   7 H :    0.026486
   8 H :    0.049361
   9 H :    0.007065
  10 H :    0.034503
  11 H :    0.032441
  12 H :    0.048507
  13 H :    0.051284
Sum of atomic charges:   -0.0000000

LOEWDIN ATOMIC CHARGES
----------------------
   0 C :   -0.089307
   1 C :   -0.002685
   2 N :   -0.007046
   3 C :    0.051836
   4 C :   -0.055611
   5 C :    0.030424
   6 O :   -0.143969
   7 H :    0.029870
   8 H :    0.032635
   9 H :    0.027130
  10 H :    0.022390
  11 H :    0.021945
  12 H :    0.040937
  13 H :    0.041452

  Mayer bond orders larger than 0.1
B(  0-C ,  1-C ) :   1.9226 B(  0-C ,  7-H ) :   0.9391 B(  0-C ,  8-H ) :   0.9405
B(  1-C ,  2-N ) :   1.0660 B(  1-C ,  9-H ) :   0.9545 B(  2-N ,  3-C ) :   1.0032
B(  2-N ,  5-C ) :   1.1117 B(  3-C ,  4-C ) :   1.1155 B(  3-C , 10-H ) :   0.9337
B(  3-C , 11-H ) :   0.9333 B(  4-C ,  5-C ) :   0.9723 B(  4-C , 12-H ) :   0.9159
B(  4-C , 13-H ) :   0.9157 B(  5-C ,  6-O ) :   2.1334

FINAL SINGLE POINT ENERGY      -324.058882265209

DIPOLE MOMENT
-------------
                                X             Y             Z
Electronic contribution:      0.82645      -1.88044      -2.36318
Nuclear contribution   :     -1.03228       3.11865       2.98225
                        -----------------------------------------
Total Dipole Moment    :     -0.20583       1.23822       0.61907
                        -----------------------------------------
Magnitude (a.u.)       :      1.39957
Magnitude (Debye)      :      3.55743

                             ****ORCA TERMINATED NORMALLY****
TOTAL RUN TIME: 0 days 0 hours 0 minutes 6 seconds 266 msec
