                         Program Version 3.0.3 - RELEASE   -
|  1> ! RI PBE def2-SVP def2-SVP/J NBO PAL2
|  2> % maxcore 2000
|  3> % output
|  4>     # printlevel mini
|  5>     print[ P_Basis ] 0
|  6>     print[ P_SCFInfo ] 1
|  7>     print[ P_SCFIterInfo ] 1
|  8>     print[ P_OrbEn ] 0
|  9>     print[ P_Cartesian ] 0
| 10> end
| 11> *xyz 0 1
| 12>  C        2.9148420000     0.5139840000    -1.1142660000
| 13>  C        2.3035890000    -0.1546490000     0.1055560000
| 14>  N        3.0095520000     0.1286610000     1.3224810000
| 15>  C        3.1952970000     1.3498420000     2.0940860000
| 16>  C        3.9948780000     0.5075490000     3.1107050000
| 17>  C        3.6958750000    -0.6759970000     2.1847890000
| 18>  O        3.9351600000    -1.8535320000     2.1716160000
| 19>  H        2.3422740000     0.2644780000    -2.0102270000
| 20>  H        3.9446550000     0.1830940000    -1.2620940000
| 21>  H        2.9160270000     1.6020470000    -1.0134970000
| 22>  H        2.3181430000    -1.2417410000    -0.0040410000
| 23>  H        1.2543970000     0.1464670000     0.2150530000
| 24>  H        2.2627780000     1.7773750000     2.4754480000
| 25>  H        3.7677320000     2.1257170000     1.5782550000
| 26>  H        3.5515690000     0.4197250000     4.1021510000
| 27>  H        5.0533320000     0.7509790000     3.1979040000
| 28> *
| 29>
| 30>                          ****END OF INPUT****
 Total Charge           Charge          ....    0
 Multiplicity           Mult            ....    1
 Number of Electrons    NEL             ....   54
 Basis Dimension        Dim             ....  143

MULLIKEN ATOMIC CHARGES
-----------------------
   0 C :   -0.050327
   1 C :    0.090846
   2 N :   -0.301665
   3 C :    0.161652
   4 C :   -0.085978
   5 C :    0.082952
   6 O :   -0.186361
   7 H :    0.029583
   8 H :    0.034611
   9 H :    0.032069
  10 H :    0.042297
  11 H :    0.020507
  12 H :    0.015399
  13 H :    0.022180
  14 H :    0.045192
  15 H :    0.047045
Sum of atomic charges:   -0.0000000

LOEWDIN ATOMIC CHARGES
----------------------
   0 C :   -0.074273
   1 C :    0.016962
   2 N :   -0.034350
   3 C :    0.046336
   4 C :   -0.059025
   5 C :    0.015829
   6 O :   -0.172614
   7 H :    0.033220
   8 H :    0.031807
   9 H :    0.026687
  10 H :    0.037875
  11 H :    0.023476
  12 H :    0.015857
  13 H :    0.015723
  14 H :    0.038255
  15 H :    0.038234

  Mayer bond orders larger than 0.1
B(  0-C ,  1-C ) :   1.1228 B(  0-C ,  7-H ) :   0.9594 B(  0-C ,  8-H ) :   0.9628
B(  0-C ,  9-H ) :   0.9672 B(  1-C ,  2-N ) :   0.9719 B(  1-C , 10-H ) :   0.9333
B(  1-C , 11-H ) :   0.9382 B(  2-N ,  3-C ) :   1.0210 B(  2-N ,  5-C ) :   1.1708
B(  2-N ,  6-O ) :   0.1105 B(  3-C ,  4-C ) :   1.1079 B(  3-C , 12-H ) :   0.9296
B(  3-C , 13-H ) :   0.9313 B(  4-C ,  5-C ) :   0.9564 B(  4-C , 14-H ) :   0.9193
B(  4-C , 15-H ) :   0.9177 B(  5-C ,  6-O ) :   2.1354

FINAL SINGLE POINT ENERGY      -325.276506713960

DIPOLE MOMENT
-------------
                                X             Y             Z
Electronic contribution:      1.60900      -4.62556       4.51048
Nuclear contribution   :     -2.05744       5.90798      -4.84955
                        -----------------------------------------
Total Dipole Moment    :     -0.44844       1.28242      -0.33908
                        -----------------------------------------
Magnitude (a.u.)       :      1.40024
Magnitude (Debye)      :      3.55913

                             ****ORCA TERMINATED NORMALLY****
TOTAL RUN TIME: 0 days 0 hours 0 minutes 7 seconds 663 msec
