                         Program Version 3.0.3 - RELEASE   -
|  1> ! RI PBE def2-SVP def2-SVP/J NBO PAL2
|  2> % maxcore 2000
|  3> % output
|  4>     # printlevel mini
|  5>     print[ P_Basis ] 0
|  6>     print[ P_SCFInfo ] 1
|  7>     print[ P_SCFIterInfo ] 1
|  8>     print[ P_OrbEn ] 0
|  9>     print[ P_Cartesian ] 0
| 10> end
| 11> *xyz 0 1
| 12>  C        3.0751210000    -1.0845460000    -0.1067530000
| 13>  C        2.3645000000     0.1941910000     0.2836330000
| 14>  N        2.9314430000     1.3454700000    -0.3756180000
| 15>  C        2.3335580000     2.6544690000    -0.0713910000
| 16>  C        3.7449540000     3.2027500000     0.0762620000
| 17>  O        4.2298990000     4.2859080000     0.1607780000
| 18>  C        4.2759400000     1.7769550000     0.0444660000
| 19>  H        2.6208400000    -1.9445370000     0.3896620000
| 20>  H        4.1295430000    -1.0553660000     0.1807840000
| 21>  H        3.0236210000    -1.2375900000    -1.1864750000
| 22>  H        2.3892010000     0.3153060000     1.3845880000
| 23>  H        1.3097770000     0.1329640000    -0.0022390000
| 24>  H        1.7987450000     2.6931530000     0.8915700000
| 25>  H        1.7006820000     3.0842030000    -0.8522300000
| 26>  H        4.5599660000     1.4457000000     1.0570460000
| 27>  H        5.0921820000     1.5567910000    -0.6477830000
| 28> *
| 29>
| 30>                          ****END OF INPUT****
 Total Charge           Charge          ....    0
 Multiplicity           Mult            ....    1
 Number of Electrons    NEL             ....   54
 Basis Dimension        Dim             ....  143

MULLIKEN ATOMIC CHARGES
-----------------------
   0 C :   -0.020834
   1 C :    0.066805
   2 N :   -0.373408
   3 C :    0.139964
   4 C :   -0.069448
   5 O :   -0.110848
   6 C :    0.130666
   7 H :    0.022647
   8 H :    0.025284
   9 H :    0.033037
  10 H :   -0.008510
  11 H :    0.017551
  12 H :    0.025633
  13 H :    0.047957
  14 H :    0.024686
  15 H :    0.048818
Sum of atomic charges:   -0.0000000

LOEWDIN ATOMIC CHARGES
----------------------
   0 C :   -0.071845
   1 C :    0.006266
   2 N :   -0.121076
   3 C :    0.000762
   4 C :    0.053435
   5 O :   -0.086650
   6 C :   -0.001966
   7 H :    0.031428
   8 H :    0.025581
   9 H :    0.030789
  10 H :   -0.002532
  11 H :    0.024175
  12 H :    0.025653
  13 H :    0.030652
  14 H :    0.024864
  15 H :    0.030463

  Mayer bond orders larger than 0.1
B(  0-C ,  1-C ) :   1.1210 B(  0-C ,  7-H ) :   0.9552 B(  0-C ,  8-H ) :   0.9625
B(  0-C ,  9-H ) :   0.9621 B(  1-C ,  2-N ) :   1.0125 B(  1-C , 10-H ) :   0.9154
B(  1-C , 11-H ) :   0.9392 B(  2-N ,  3-C ) :   1.0061 B(  2-N ,  6-C ) :   1.0032
B(  3-C ,  4-C ) :   0.9611 B(  3-C ,  6-C ) :  -0.1021 B(  3-C , 12-H ) :   0.8940
B(  3-C , 13-H ) :   0.9255 B(  4-C ,  5-O ) :   2.2531 B(  4-C ,  6-C ) :   0.9605
B(  6-C , 14-H ) :   0.8923 B(  6-C , 15-H ) :   0.9256

FINAL SINGLE POINT ENERGY      -325.233392541790

DIPOLE MOMENT
-------------
                                X             Y             Z
Electronic contribution:      2.31681       9.18990      -0.80822
Nuclear contribution   :     -2.71445     -10.05585       1.03316
                        -----------------------------------------
Total Dipole Moment    :     -0.39764      -0.86595       0.22495
                        -----------------------------------------
Magnitude (a.u.)       :      0.97908
Magnitude (Debye)      :      2.48861

                             ****ORCA TERMINATED NORMALLY****
TOTAL RUN TIME: 0 days 0 hours 0 minutes 7 seconds 656 msec
