                         Program Version 3.0.3 - RELEASE   -
|  1> ! RI PBE def2-SVP def2-SVP/J NBO PAL2
|  2> % maxcore 2000
|  3> % output
|  4>     # printlevel mini
|  5>     print[ P_Basis ] 0
|  6>     print[ P_SCFInfo ] 1
|  7>     print[ P_SCFIterInfo ] 1
|  8>     print[ P_OrbEn ] 0
|  9>     print[ P_Cartesian ] 0
| 10> end
| 11> *xyz 0 1
| 12>  C        3.1340240000    -0.0153930000    -1.1477000000
| 13>  C        2.2183030000     0.0719840000     0.0558090000
| 14>  N        2.7448590000    -0.6479530000     1.1855520000
| 15>  C        1.9449920000    -0.7012730000     2.4136660000
| 16>  C        2.4734330000    -2.1270730000     2.6454820000
| 17>  O        3.5959020000    -2.2144240000     3.4798220000
| 18>  C        2.7846660000    -2.1158260000     1.1387790000
| 19>  H        2.7225090000     0.5478740000    -1.9879120000
| 20>  H        3.2596820000    -1.0513680000    -1.4734060000
| 21>  H        4.1213020000     0.3862540000    -0.9102480000
| 22>  H        1.2112440000    -0.3029570000    -0.2135830000
| 23>  H        2.0942020000     1.1185610000     0.3539060000
| 24>  H        0.8604610000    -0.6942960000     2.2191510000
| 25>  H        2.1841290000     0.0519140000     3.1701450000
| 26>  H        1.7618010000    -2.8701100000     3.0009050000
| 27>  H        4.2337650000    -1.5606830000     3.1754280000
| 28>  H        1.9616400000    -2.5486230000     0.5467310000
| 29>  H        3.7323940000    -2.5610190000     0.8240910000
| 30> *
| 31>
| 32>                          ****END OF INPUT****
 Total Charge           Charge          ....    0
 Multiplicity           Mult            ....    1
 Number of Electrons    NEL             ....   56
 Basis Dimension        Dim             ....  153

MULLIKEN ATOMIC CHARGES
-----------------------
   0 C :   -0.019782
   1 C :    0.071006
   2 N :   -0.370419
   3 C :    0.165842
   4 C :   -0.016944
   5 O :   -0.247549
   6 C :    0.166196
   7 H :    0.022780
   8 H :    0.023262
   9 H :    0.025659
  10 H :   -0.018154
  11 H :    0.015282
  12 H :   -0.005958
  13 H :    0.012847
  14 H :    0.015329
  15 H :    0.154458
  16 H :   -0.006054
  17 H :    0.012200
Sum of atomic charges:   -0.0000000

LOEWDIN ATOMIC CHARGES
----------------------
   0 C :   -0.071196
   1 C :    0.003843
   2 N :   -0.124169
   3 C :    0.011837
   4 C :    0.045748
   5 O :   -0.100990
   6 C :    0.011330
   7 H :    0.030604
   8 H :    0.025347
   9 H :    0.028193
  10 H :   -0.004043
  11 H :    0.022834
  12 H :    0.006443
  13 H :    0.011561
  14 H :    0.015674
  15 H :    0.069783
  16 H :    0.006363
  17 H :    0.010839

  Mayer bond orders larger than 0.1
B(  0-C ,  1-C ) :   1.1228 B(  0-C ,  7-H ) :   0.9580 B(  0-C ,  8-H ) :   0.9635
B(  0-C ,  9-H ) :   0.9596 B(  1-C ,  2-N ) :   1.0310 B(  1-C , 10-H ) :   0.9128
B(  1-C , 11-H ) :   0.9392 B(  2-N ,  3-C ) :   0.9973 B(  2-N ,  6-C ) :   0.9917
B(  3-C ,  4-C ) :   1.0309 B(  3-C , 12-H ) :   0.9050 B(  3-C , 13-H ) :   0.9262
B(  4-C ,  5-O ) :   1.0900 B(  4-C ,  6-C ) :   1.0294 B(  4-C , 14-H ) :   0.9338
B(  5-O , 15-H ) :   0.9767 B(  6-C , 16-H ) :   0.9058 B(  6-C , 17-H ) :   0.9270

FINAL SINGLE POINT ENERGY      -326.424526613257

DIPOLE MOMENT
-------------
                                X             Y             Z
Electronic contribution:      1.44434      -2.30297       5.85014
Nuclear contribution   :     -1.65640       2.59377      -6.33050
                        -----------------------------------------
Total Dipole Moment    :     -0.21206       0.29080      -0.48036
                        -----------------------------------------
Magnitude (a.u.)       :      0.60023
Magnitude (Debye)      :      1.52566

                             ****ORCA TERMINATED NORMALLY****
TOTAL RUN TIME: 0 days 0 hours 0 minutes 7 seconds 991 msec
