                         Program Version 3.0.3 - RELEASE   -
|  1> ! RI PBE def2-SVP def2-SVP/J NBO PAL2
|  2> % maxcore 2000
|  3> % output
|  4>     # printlevel mini
|  5>     print[ P_Basis ] 0
|  6>     print[ P_SCFInfo ] 1
|  7>     print[ P_SCFIterInfo ] 1
|  8>     print[ P_OrbEn ] 0
|  9>     print[ P_Cartesian ] 0
| 10> end
| 11> *xyz 0 1
| 12>  C        1.5372050000     1.1251910000    -0.6732510000
| 13>  C        2.7686700000     0.3249460000    -1.0411010000
| 14>  N        3.8818670000     0.6536400000    -0.1703910000
| 15>  C        5.0701270000    -0.0837650000    -0.4464850000
| 16>  C        6.0130910000     0.4612240000    -1.4878050000
| 17>  C        6.3716320000     0.4991230000    -0.0335410000
| 18>  O        7.3192690000    -0.3887630000     0.4687400000
| 19>  H        0.7080380000     0.8952230000    -1.3455770000
| 20>  H        1.7430660000     2.1962040000    -0.7277460000
| 21>  H        1.2087980000     0.8970010000     0.3453660000
| 22>  H        3.0717840000     0.5566450000    -2.0674380000
| 23>  H        2.5297830000    -0.7527630000    -1.0256110000
| 24>  H        3.6122550000     0.5277450000     0.7987300000
| 25>  H        5.0292230000    -1.1744370000    -0.3954170000
| 26>  H        5.7429760000     1.3952940000    -1.9647900000
| 27>  H        6.5323230000    -0.2577200000    -2.1094840000
| 28>  H        6.3256670000     1.4673180000     0.4594400000
| 29>  H        8.1847460000    -0.1091840000     0.1589610000
| 30> *
| 31>
| 32>                          ****END OF INPUT****
 Total Charge           Charge          ....    0
 Multiplicity           Mult            ....    1
 Number of Electrons    NEL             ....   56
 Basis Dimension        Dim             ....  153

MULLIKEN ATOMIC CHARGES
-----------------------
   0 C :   -0.037522
   1 C :    0.076865
   2 N :   -0.206452
   3 C :   -0.050873
   4 C :   -0.003219
   5 C :    0.058909
   6 O :   -0.237209
   7 H :    0.023465
   8 H :    0.031579
   9 H :    0.016982
  10 H :    0.006762
  11 H :   -0.009566
  12 H :    0.099097
  13 H :    0.011838
  14 H :    0.024804
  15 H :    0.026855
  16 H :    0.007152
  17 H :    0.160534
Sum of atomic charges:   -0.0000000

LOEWDIN ATOMIC CHARGES
----------------------
   0 C :   -0.074591
   1 C :    0.010802
   2 N :   -0.088227
   3 C :   -0.011910
   4 C :   -0.069127
   5 C :    0.029552
   6 O :   -0.100486
   7 H :    0.030263
   8 H :    0.028173
   9 H :    0.023032
  10 H :    0.019564
  11 H :   -0.000521
  12 H :    0.056486
  13 H :    0.009013
  14 H :    0.028333
  15 H :    0.027416
  16 H :    0.008390
  17 H :    0.073836

  Mayer bond orders larger than 0.1
B(  0-C ,  1-C ) :   1.1125 B(  0-C ,  7-H ) :   0.9577 B(  0-C ,  8-H ) :   0.9632
B(  0-C ,  9-H ) :   0.9658 B(  1-C ,  2-N ) :   1.0251 B(  1-C , 10-H ) :   0.9369
B(  1-C , 11-H ) :   0.9257 B(  2-N ,  3-C ) :   1.0976 B(  2-N , 12-H ) :   0.9393
B(  3-C ,  4-C ) :   0.9948 B(  3-C ,  5-C ) :   0.9253 B(  3-C , 13-H ) :   0.9187
B(  4-C ,  5-C ) :   1.0041 B(  4-C , 14-H ) :   0.9218 B(  4-C , 15-H ) :   0.9325
B(  5-C ,  6-O ) :   1.1416 B(  5-C , 16-H ) :   0.9373 B(  6-O , 17-H ) :   0.9797

FINAL SINGLE POINT ENERGY      -326.423725483398

DIPOLE MOMENT
-------------
                                X             Y             Z
Electronic contribution:      6.86898      -1.42615       2.39340
Nuclear contribution   :     -6.79801       1.55210      -2.57093
                        -----------------------------------------
Total Dipole Moment    :      0.07097       0.12595      -0.17753
                        -----------------------------------------
Magnitude (a.u.)       :      0.22895
Magnitude (Debye)      :      0.58194

                             ****ORCA TERMINATED NORMALLY****
TOTAL RUN TIME: 0 days 0 hours 0 minutes 7 seconds 837 msec
