                         Program Version 3.0.3 - RELEASE   -
|  1> ! RI PBE def2-SVP def2-SVP/J NBO PAL2
|  2> % maxcore 2000
|  3> % output
|  4>     # printlevel mini
|  5>     print[ P_Basis ] 0
|  6>     print[ P_SCFInfo ] 1
|  7>     print[ P_SCFIterInfo ] 1
|  8>     print[ P_OrbEn ] 0
|  9>     print[ P_Cartesian ] 0
| 10> end
| 11> *xyz 0 1
| 12>  C        0.9796090000     0.3007580000    -0.1316010000
| 13>  C        2.4816520000     0.0649790000    -0.0108960000
| 14>  N        3.0126090000    -0.8498210000    -1.0160530000
| 15>  C        3.2289360000     1.3811930000    -0.0301850000
| 16>  C        4.7224630000     1.4485460000    -0.1837200000
| 17>  C        3.8212800000     1.9531440000    -1.2677910000
| 18>  O        3.6561960000     3.3253010000    -1.4567490000
| 19>  H        0.4314630000    -0.6438460000    -0.0812200000
| 20>  H        0.7460790000     0.7813380000    -1.0867800000
| 21>  H        0.6091870000     0.9507080000     0.6659830000
| 22>  H        2.6811380000    -0.4013610000     0.9618540000
| 23>  H        2.6379560000    -0.6177900000    -1.9293080000
| 24>  H        2.7153370000    -1.7962900000    -0.8166390000
| 25>  H        2.8097310000     2.1367530000     0.6269820000
| 26>  H        5.2450850000     0.5185540000    -0.3714170000
| 27>  H        5.2479210000     2.1868860000     0.4097440000
| 28>  H        3.7781210000     1.3581680000    -2.1772320000
| 29>  H        4.4575270000     3.6676900000    -1.8619750000
| 30> *
| 31>
| 32>                          ****END OF INPUT****
 Total Charge           Charge          ....    0
 Multiplicity           Mult            ....    1
 Number of Electrons    NEL             ....   56
 Basis Dimension        Dim             ....  153

MULLIKEN ATOMIC CHARGES
-----------------------
   0 C :    0.037904
   1 C :    0.019275
   2 N :   -0.185170
   3 C :   -0.100956
   4 C :    0.020340
   5 C :    0.019010
   6 O :   -0.240033
   7 H :    0.003579
   8 H :    0.014359
   9 H :    0.011676
  10 H :    0.000834
  11 H :    0.086388
  12 H :    0.090543
  13 H :    0.017977
  14 H :    0.024821
  15 H :    0.018514
  16 H :    0.002047
  17 H :    0.158892
Sum of atomic charges:    0.0000000

LOEWDIN ATOMIC CHARGES
----------------------
   0 C :   -0.074122
   1 C :    0.002150
   2 N :   -0.092002
   3 C :   -0.052838
   4 C :   -0.063486
   5 C :    0.030377
   6 O :   -0.103086
   7 H :    0.018734
   8 H :    0.024557
   9 H :    0.026585
  10 H :    0.024014
  11 H :    0.046805
  12 H :    0.053823
  13 H :    0.031128
  14 H :    0.026536
  15 H :    0.024745
  16 H :    0.003494
  17 H :    0.072587

  Mayer bond orders larger than 0.1
B(  0-C ,  1-C ) :   1.0846 B(  0-C ,  7-H ) :   0.9557 B(  0-C ,  8-H ) :   0.9549
B(  0-C ,  9-H ) :   0.9465 B(  1-C ,  2-N ) :   1.1020 B(  1-C ,  3-C ) :   1.0153
B(  1-C , 10-H ) :   0.9047 B(  2-N , 11-H ) :   0.9633 B(  2-N , 12-H ) :   0.9653
B(  3-C ,  4-C ) :   0.9846 B(  3-C ,  5-C ) :   0.9443 B(  3-C , 13-H ) :   0.9357
B(  4-C ,  5-C ) :   1.0030 B(  4-C , 14-H ) :   0.9173 B(  4-C , 15-H ) :   0.9298
B(  5-C ,  6-O ) :   1.1345 B(  5-C , 16-H ) :   0.9355 B(  6-O , 17-H ) :   0.9813

FINAL SINGLE POINT ENERGY      -326.429098020967

DIPOLE MOMENT
-------------
                                X             Y             Z
Electronic contribution:      2.70605       3.33329      -1.27403
Nuclear contribution   :     -2.73876      -3.70044       1.07776
                        -----------------------------------------
Total Dipole Moment    :     -0.03271      -0.36715      -0.19628
                        -----------------------------------------
Magnitude (a.u.)       :      0.41760
Magnitude (Debye)      :      1.06146

                             ****ORCA TERMINATED NORMALLY****
TOTAL RUN TIME: 0 days 0 hours 0 minutes 7 seconds 939 msec
