                         Program Version 3.0.3 - RELEASE   -
|  1> ! RI PBE def2-SVP def2-SVP/J NBO PAL2
|  2> % maxcore 2000
|  3> % output
|  4>     # printlevel mini
|  5>     print[ P_Basis ] 0
|  6>     print[ P_SCFInfo ] 1
|  7>     print[ P_SCFIterInfo ] 1
|  8>     print[ P_OrbEn ] 0
|  9>     print[ P_Cartesian ] 0
| 10> end
| 11> *xyz 0 1
| 12>  C        1.0447020000     0.1966170000     0.0271290000
| 13>  C        2.5686190000     0.1309420000     0.0158300000
| 14>  N        3.1381970000    -0.2978370000    -1.2519330000
| 15>  C        3.1597320000     1.4758420000     0.3933770000
| 16>  C        4.6807710000     1.6477730000     0.3350890000
| 17>  C        4.3750610000     2.7537290000    -0.6743190000
| 18>  O        2.9689520000     2.4601660000    -0.6447840000
| 19>  H        0.6134750000    -0.7682710000    -0.2515070000
| 20>  H        0.6942570000     0.9460950000    -0.6876950000
| 21>  H        0.6597300000     0.4643450000     1.0155610000
| 22>  H        2.9015850000    -0.5779670000     0.7858490000
| 23>  H        2.8572090000     0.3574060000    -1.9735370000
| 24>  H        2.7770390000    -1.2061610000    -1.5139680000
| 25>  H        2.7077210000     1.8185720000     1.3331530000
| 26>  H        5.1923450000     0.7847890000    -0.0873620000
| 27>  H        5.1593880000     1.9616810000     1.2616330000
| 28>  H        4.7947210000     2.6262670000    -1.6764630000
| 29>  H        4.5759950000     3.7727120000    -0.3266520000
| 30> *
| 31>
| 32>                          ****END OF INPUT****
 Total Charge           Charge          ....    0
 Multiplicity           Mult            ....    1
 Number of Electrons    NEL             ....   56
 Basis Dimension        Dim             ....  153

MULLIKEN ATOMIC CHARGES
-----------------------
   0 C :    0.036849
   1 C :    0.003968
   2 N :   -0.188347
   3 C :    0.043005
   4 C :    0.021860
   5 C :    0.187878
   6 O :   -0.365897
   7 H :    0.007355
   8 H :    0.023313
   9 H :    0.004649
  10 H :    0.005909
  11 H :    0.091690
  12 H :    0.084574
  13 H :   -0.008865
  14 H :    0.014678
  15 H :    0.016877
  16 H :    0.013518
  17 H :    0.006987
Sum of atomic charges:    0.0000000

LOEWDIN ATOMIC CHARGES
----------------------
   0 C :   -0.074001
   1 C :   -0.018939
   2 N :   -0.091907
   3 C :    0.067280
   4 C :   -0.051744
   5 C :    0.087173
   6 O :   -0.188023
   7 H :    0.020149
   8 H :    0.027755
   9 H :    0.023935
  10 H :    0.025644
  11 H :    0.048494
  12 H :    0.050930
  13 H :    0.007882
  14 H :    0.027139
  15 H :    0.022088
  16 H :    0.008784
  17 H :    0.007360

  Mayer bond orders larger than 0.1
B(  0-C ,  1-C ) :   1.0777 B(  0-C ,  7-H ) :   0.9592 B(  0-C ,  8-H ) :   0.9553
B(  0-C ,  9-H ) :   0.9445 B(  1-C ,  2-N ) :   1.0733 B(  1-C ,  3-C ) :   0.9965
B(  1-C , 10-H ) :   0.9001 B(  2-N , 11-H ) :   0.9610 B(  2-N , 12-H ) :   0.9664
B(  3-C ,  4-C ) :   1.0805 B(  3-C ,  6-O ) :   1.0391 B(  3-C , 13-H ) :   0.9150
B(  4-C ,  5-C ) :   1.1221 B(  4-C , 14-H ) :   0.9067 B(  4-C , 15-H ) :   0.9383
B(  5-C ,  6-O ) :   1.0157 B(  5-C , 16-H ) :   0.9408 B(  5-C , 17-H ) :   0.9369

FINAL SINGLE POINT ENERGY      -326.431404209812

DIPOLE MOMENT
-------------
                                X             Y             Z
Electronic contribution:      1.24887       2.34197      -0.78891
Nuclear contribution   :     -1.22012      -2.68004       0.94025
                        -----------------------------------------
Total Dipole Moment    :      0.02875      -0.33807       0.15134
                        -----------------------------------------
Magnitude (a.u.)       :      0.37151
Magnitude (Debye)      :      0.94431

                             ****ORCA TERMINATED NORMALLY****
TOTAL RUN TIME: 0 days 0 hours 0 minutes 7 seconds 762 msec
