                         Program Version 3.0.3 - RELEASE   -
|  1> ! RI PBE def2-SVP def2-SVP/J NBO PAL2
|  2> % maxcore 2000
|  3> % output
|  4>     # printlevel mini
|  5>     print[ P_Basis ] 0
|  6>     print[ P_SCFInfo ] 1
|  7>     print[ P_SCFIterInfo ] 1
|  8>     print[ P_OrbEn ] 0
|  9>     print[ P_Cartesian ] 0
| 10> end
| 11> *xyz 0 1
| 12>  C        1.7422340000     0.8007470000    -0.5190890000
| 13>  C        2.7926230000     0.1880620000     0.3968760000
| 14>  N        2.2314540000    -0.6040780000     1.4859120000
| 15>  C        3.7961860000    -0.7048080000    -0.3156170000
| 16>  C        5.0070710000    -1.0775480000     0.4919010000
| 17>  C        3.8626440000    -0.7818890000    -1.7735360000
| 18>  O        3.1947880000    -1.7896890000    -1.0301340000
| 19>  H        1.0077500000     1.3474610000     0.0772510000
| 20>  H        1.2128390000     0.0210500000    -1.0736210000
| 21>  H        2.1763520000     1.5054370000    -1.2330230000
| 22>  H        3.3690910000     1.0001780000     0.8570420000
| 23>  H        1.7149530000    -1.3852050000     1.0953580000
| 24>  H        1.5764490000    -0.0513620000     2.0246040000
| 25>  H        4.7019800000    -1.4802950000     1.4586910000
| 26>  H        5.6322070000    -0.1979820000     0.6690560000
| 27>  H        5.6003650000    -1.8249080000    -0.0365500000
| 28>  H        4.7972160000    -1.0934710000    -2.2358170000
| 29>  H        3.2228100000    -0.1650100000    -2.3974940000
| 30> *
| 31>
| 32>                          ****END OF INPUT****
 Total Charge           Charge          ....    0
 Multiplicity           Mult            ....    1
 Number of Electrons    NEL             ....   56
 Basis Dimension        Dim             ....  153

MULLIKEN ATOMIC CHARGES
-----------------------
   0 C :    0.017751
   1 C :    0.037353
   2 N :   -0.178053
   3 C :   -0.185072
   4 C :    0.122953
   5 C :    0.182074
   6 O :   -0.304470
   7 H :    0.007934
   8 H :    0.023676
   9 H :    0.012690
  10 H :    0.000230
  11 H :    0.093018
  12 H :    0.083987
  13 H :    0.027397
  14 H :    0.015443
  15 H :    0.010568
  16 H :    0.014745
  17 H :    0.017776
Sum of atomic charges:   -0.0000000

LOEWDIN ATOMIC CHARGES
----------------------
   0 C :   -0.078533
   1 C :   -0.004110
   2 N :   -0.087778
   3 C :    0.011041
   4 C :   -0.058800
   5 C :    0.057110
   6 O :   -0.160581
   7 H :    0.023439
   8 H :    0.026050
   9 H :    0.023435
  10 H :    0.025624
  11 H :    0.052530
  12 H :    0.049579
  13 H :    0.033338
  14 H :    0.032184
  15 H :    0.030401
  16 H :    0.012960
  17 H :    0.012109

  Mayer bond orders larger than 0.1
B(  0-C ,  1-C ) :   1.0878 B(  0-C ,  7-H ) :   0.9519 B(  0-C ,  8-H ) :   0.9396
B(  0-C ,  9-H ) :   0.9407 B(  1-C ,  2-N ) :   1.0926 B(  1-C ,  3-C ) :   0.9806
B(  1-C , 10-H ) :   0.9038 B(  2-N , 11-H ) :   0.9616 B(  2-N , 12-H ) :   0.9676
B(  3-C ,  4-C ) :   1.0861 B(  3-C ,  5-C ) :   1.1083 B(  3-C ,  6-O ) :   0.9104
B(  4-C , 13-H ) :   0.9391 B(  4-C , 14-H ) :   0.9450 B(  4-C , 15-H ) :   0.9361
B(  5-C ,  6-O ) :   1.0134 B(  5-C , 16-H ) :   0.9244 B(  5-C , 17-H ) :   0.9056

FINAL SINGLE POINT ENERGY      -326.431204791728

DIPOLE MOMENT
-------------
                                X             Y             Z
Electronic contribution:      0.14400      -3.06681      -1.07801
Nuclear contribution   :     -0.24138       3.75578       0.99784
                        -----------------------------------------
Total Dipole Moment    :     -0.09737       0.68897      -0.08017
                        -----------------------------------------
Magnitude (a.u.)       :      0.70042
Magnitude (Debye)      :      1.78033

                             ****ORCA TERMINATED NORMALLY****
TOTAL RUN TIME: 0 days 0 hours 0 minutes 7 seconds 816 msec
