                         Program Version 3.0.3 - RELEASE   -
|  1> ! RI PBE def2-SVP def2-SVP/J NBO PAL2
|  2> % maxcore 2000
|  3> % output
|  4>     # printlevel mini
|  5>     print[ P_Basis ] 0
|  6>     print[ P_SCFInfo ] 1
|  7>     print[ P_SCFIterInfo ] 1
|  8>     print[ P_OrbEn ] 0
|  9>     print[ P_Cartesian ] 0
| 10> end
| 11> *xyz 0 1
| 12>  C        1.1075460000     0.7350970000     0.1398540000
| 13>  C        2.4087410000     0.7152950000    -0.6338990000
| 14>  N        3.4787910000     0.1419890000     0.1603540000
| 15>  C        4.7439130000     0.0803850000    -0.5036800000
| 16>  C        5.8821740000    -0.6144710000     0.2446990000
| 17>  O        6.2340140000    -1.3815700000    -0.9138120000
| 18>  C        5.0471170000    -0.9667960000    -1.6010050000
| 19>  H        0.3123850000     1.1987600000    -0.4474690000
| 20>  H        1.2235210000     1.2919780000     1.0717350000
| 21>  H        0.7834010000    -0.2793240000     0.3908600000
| 22>  H        2.7013510000     1.7391860000    -0.8921460000
| 23>  H        2.2600050000     0.1854940000    -1.5908600000
| 24>  H        3.2116730000    -0.7794830000     0.4899950000
| 25>  H        5.0151110000     1.0886350000    -0.8275110000
| 26>  H        5.5292330000    -1.2518010000     1.0665920000
| 27>  H        6.7097300000     0.0044470000     0.6010190000
| 28>  H        4.3016220000    -1.7728170000    -1.6520230000
| 29>  H        5.2638810000    -0.6089140000    -2.6116940000
| 30> *
| 31>
| 32>                          ****END OF INPUT****
 Total Charge           Charge          ....    0
 Multiplicity           Mult            ....    1
 Number of Electrons    NEL             ....   56
 Basis Dimension        Dim             ....  153

MULLIKEN ATOMIC CHARGES
-----------------------
   0 C :   -0.032586
   1 C :    0.065666
   2 N :   -0.190466
   3 C :   -0.187996
   4 C :    0.270390
   5 O :   -0.365298
   6 C :    0.249876
   7 H :    0.024779
   8 H :    0.031597
   9 H :    0.020147
  10 H :    0.008129
  11 H :   -0.008267
  12 H :    0.091583
  13 H :    0.014240
  14 H :   -0.007282
  15 H :    0.015792
  16 H :   -0.011116
  17 H :    0.010811
Sum of atomic charges:    0.0000000

LOEWDIN ATOMIC CHARGES
----------------------
   0 C :   -0.072244
   1 C :    0.009511
   2 N :   -0.085938
   3 C :   -0.018913
   4 C :    0.082766
   5 O :   -0.185056
   6 C :    0.060843
   7 H :    0.031194
   8 H :    0.029252
   9 H :    0.024084
  10 H :    0.021017
  11 H :   -0.001206
  12 H :    0.049908
  13 H :    0.024517
  14 H :    0.005803
  15 H :    0.012710
  16 H :    0.002822
  17 H :    0.008929

  Mayer bond orders larger than 0.1
B(  0-C ,  1-C ) :   1.1224 B(  0-C ,  7-H ) :   0.9570 B(  0-C ,  8-H ) :   0.9623
B(  0-C ,  9-H ) :   0.9655 B(  1-C ,  2-N ) :   1.0324 B(  1-C , 10-H ) :   0.9342
B(  1-C , 11-H ) :   0.9245 B(  2-N ,  3-C ) :   1.0961 B(  2-N , 12-H ) :   0.9273
B(  3-C ,  4-C ) :   1.0754 B(  3-C ,  6-C ) :   1.0481 B(  3-C , 13-H ) :   0.9007
B(  4-C ,  5-O ) :   1.0355 B(  4-C , 14-H ) :   0.9163 B(  4-C , 15-H ) :   0.9358
B(  5-O ,  6-C ) :   1.0393 B(  6-C , 16-H ) :   0.9091 B(  6-C , 17-H ) :   0.9359

FINAL SINGLE POINT ENERGY      -326.417394306858

DIPOLE MOMENT
-------------
                                X             Y             Z
Electronic contribution:      6.80261      -2.51502      -0.49767
Nuclear contribution   :     -7.46757       2.78025       0.46692
                        -----------------------------------------
Total Dipole Moment    :     -0.66496       0.26523      -0.03075
                        -----------------------------------------
Magnitude (a.u.)       :      0.71656
Magnitude (Debye)      :      1.82136

                             ****ORCA TERMINATED NORMALLY****
TOTAL RUN TIME: 0 days 0 hours 0 minutes 7 seconds 841 msec
