                         Program Version 3.0.3 - RELEASE   -
|  1> ! RI PBE def2-SVP def2-SVP/J NBO PAL2
|  2> % maxcore 2000
|  3> % output
|  4>     # printlevel mini
|  5>     print[ P_Basis ] 0
|  6>     print[ P_SCFInfo ] 1
|  7>     print[ P_SCFIterInfo ] 1
|  8>     print[ P_OrbEn ] 0
|  9>     print[ P_Cartesian ] 0
| 10> end
| 11> *xyz 0 1
| 12>  C        0.9585090000    -0.1522260000     0.1901590000
| 13>  C        2.4813530000    -0.0785840000     0.1325390000
| 14>  N        3.1494350000    -0.6590500000     1.2895450000
| 15>  C        2.9999360000    -0.6997530000    -1.1558950000
| 16>  C        4.5146520000    -0.8571560000    -1.3265400000
| 17>  O        4.3927480000    -2.2762560000    -1.5187690000
| 18>  C        2.9814310000    -2.2293980000    -1.3007090000
| 19>  H        0.5799210000     0.3206300000     1.0998320000
| 20>  H        0.6223880000    -1.1943040000     0.1920560000
| 21>  H        0.4973910000     0.3468490000    -0.6670330000
| 22>  H        2.7731780000     0.9793180000     0.1113970000
| 23>  H        2.8452770000    -1.6145480000     1.4376460000
| 24>  H        2.9112690000    -0.1450630000     2.1282590000
| 25>  H        2.5254490000    -0.1995010000    -2.0025470000
| 26>  H        5.0900080000    -0.6199730000    -0.4275880000
| 27>  H        4.9558310000    -0.3677270000    -2.2004500000
| 28>  H        2.6897550000    -2.7912160000    -0.4038970000
| 29>  H        2.4203880000    -2.6255420000    -2.1534970000
| 30> *
| 31>
| 32>                          ****END OF INPUT****
 Total Charge           Charge          ....    0
 Multiplicity           Mult            ....    1
 Number of Electrons    NEL             ....   56
 Basis Dimension        Dim             ....  153

MULLIKEN ATOMIC CHARGES
-----------------------
   0 C :    0.032404
   1 C :    0.004337
   2 N :   -0.171086
   3 C :   -0.264879
   4 C :    0.293481
   5 O :   -0.368754
   6 C :    0.244435
   7 H :    0.011931
   8 H :    0.006569
   9 H :    0.011653
  10 H :    0.007768
  11 H :    0.082167
  12 H :    0.089783
  13 H :    0.012017
  14 H :    0.004040
  15 H :    0.002435
  16 H :   -0.005084
  17 H :    0.006784
Sum of atomic charges:   -0.0000000

LOEWDIN ATOMIC CHARGES
----------------------
   0 C :   -0.076362
   1 C :   -0.004953
   2 N :   -0.087126
   3 C :   -0.061806
   4 C :    0.089158
   5 O :   -0.184802
   6 C :    0.082940
   7 H :    0.022334
   8 H :    0.021742
   9 H :    0.026101
  10 H :    0.025250
  11 H :    0.046425
  12 H :    0.053177
  13 H :    0.026571
  14 H :    0.008055
  15 H :    0.005846
  16 H :   -0.000804
  17 H :    0.008254

  Mayer bond orders larger than 0.1
B(  0-C ,  1-C ) :   1.0729 B(  0-C ,  7-H ) :   0.9586 B(  0-C ,  8-H ) :   0.9546
B(  0-C ,  9-H ) :   0.9466 B(  1-C ,  2-N ) :   1.0984 B(  1-C ,  3-C ) :   1.0021
B(  1-C , 10-H ) :   0.9035 B(  2-N , 11-H ) :   0.9643 B(  2-N , 12-H ) :   0.9685
B(  3-C ,  4-C ) :   1.0847 B(  3-C ,  6-C ) :   1.0863 B(  3-C , 13-H ) :   0.9140
B(  4-C ,  5-O ) :   1.0284 B(  4-C , 14-H ) :   0.9166 B(  4-C , 15-H ) :   0.9320
B(  5-O ,  6-C ) :   1.0493 B(  6-C , 16-H ) :   0.9224 B(  6-C , 17-H ) :   0.9308

FINAL SINGLE POINT ENERGY      -326.422328335637

DIPOLE MOMENT
-------------
                                X             Y             Z
Electronic contribution:      4.49579      -2.39776      -2.07329
Nuclear contribution   :     -5.41397       2.95498       2.46104
                        -----------------------------------------
Total Dipole Moment    :     -0.91818       0.55722       0.38775
                        -----------------------------------------
Magnitude (a.u.)       :      1.14188
Magnitude (Debye)      :      2.90244

                             ****ORCA TERMINATED NORMALLY****
TOTAL RUN TIME: 0 days 0 hours 0 minutes 7 seconds 220 msec
