                         Program Version 3.0.3 - RELEASE   -
|  1> ! RI PBE def2-SVP def2-SVP/J NBO PAL2
|  2> % maxcore 2000
|  3> % output
|  4>     # printlevel mini
|  5>     print[ P_Basis ] 0
|  6>     print[ P_SCFInfo ] 1
|  7>     print[ P_SCFIterInfo ] 1
|  8>     print[ P_OrbEn ] 0
|  9>     print[ P_Cartesian ] 0
| 10> end
| 11> *xyz 0 1
| 12>  C        1.2216000000     0.0871640000    -0.5081770000
| 13>  C        2.3616570000     0.0392400000     0.5017680000
| 14>  N        2.0191150000     0.5173570000     1.8363150000
| 15>  C        2.8962500000    -1.3625550000     0.6284360000
| 16>  O        3.6078430000    -1.8721500000    -0.4893900000
| 17>  C        4.3174980000    -1.6612830000     0.7313930000
| 18>  C        4.8424850000    -2.8787780000     1.4222090000
| 19>  H        0.8595160000     1.1105860000    -0.6364220000
| 20>  H        0.3813160000    -0.5276800000    -0.1692160000
| 21>  H        1.5454860000    -0.2874650000    -1.4822220000
| 22>  H        3.1833000000     0.6633990000     0.1333780000
| 23>  H        1.2225030000     0.0014090000     2.1954950000
| 24>  H        1.7330310000     1.4882120000     1.7948160000
| 25>  H        2.1989400000    -2.0787740000     1.0717840000
| 26>  H        4.9974120000    -0.8101920000     0.6928300000
| 27>  H        4.0935260000    -3.6727250000     1.4266280000
| 28>  H        5.1096470000    -2.6430780000     2.4555520000
| 29>  H        5.7369640000    -3.2537990000     0.9185140000
| 30> *
| 31>
| 32>                          ****END OF INPUT****
 Total Charge           Charge          ....    0
 Multiplicity           Mult            ....    1
 Number of Electrons    NEL             ....   56
 Basis Dimension        Dim             ....  153

MULLIKEN ATOMIC CHARGES
-----------------------
   0 C :    0.035003
   1 C :    0.009785
   2 N :   -0.182625
   3 C :    0.076237
   4 O :   -0.286279
   5 C :   -0.007323
   6 C :    0.072409
   7 H :    0.009124
   8 H :    0.002907
   9 H :    0.027439
  10 H :   -0.008567
  11 H :    0.084066
  12 H :    0.087995
  13 H :   -0.008154
  14 H :    0.012519
  15 H :    0.017051
  16 H :    0.030787
  17 H :    0.027626
Sum of atomic charges:   -0.0000000

LOEWDIN ATOMIC CHARGES
----------------------
   0 C :   -0.074325
   1 C :   -0.014872
   2 N :   -0.095109
   3 C :    0.041531
   4 O :   -0.159555
   5 C :    0.043372
   6 C :   -0.068731
   7 H :    0.021123
   8 H :    0.020144
   9 H :    0.031580
  10 H :    0.026439
  11 H :    0.048049
  12 H :    0.051687
  13 H :    0.008432
  14 H :    0.015406
  15 H :    0.033162
  16 H :    0.037391
  17 H :    0.034278

  Mayer bond orders larger than 0.1
B(  0-C ,  1-C ) :   1.0546 B(  0-C ,  7-H ) :   0.9573 B(  0-C ,  8-H ) :   0.9523
B(  0-C ,  9-H ) :   0.9477 B(  1-C ,  2-N ) :   1.0680 B(  1-C ,  3-C ) :   1.0083
B(  1-C , 10-H ) :   0.8903 B(  2-N , 11-H ) :   0.9669 B(  2-N , 12-H ) :   0.9648
B(  3-C ,  4-O ) :   0.9806 B(  3-C ,  5-C ) :   1.0627 B(  3-C , 13-H ) :   0.9134
B(  4-O ,  5-C ) :   0.9937 B(  5-C ,  6-C ) :   1.0945 B(  5-C , 14-H ) :   0.9201
B(  6-C , 15-H ) :   0.9435 B(  6-C , 16-H ) :   0.9503 B(  6-C , 17-H ) :   0.9469

FINAL SINGLE POINT ENERGY      -326.431774408402

DIPOLE MOMENT
-------------
                                X             Y             Z
Electronic contribution:      1.62864      -0.72980      -1.34649
Nuclear contribution   :     -1.99002       1.02895       1.78184
                        -----------------------------------------
Total Dipole Moment    :     -0.36138       0.29915       0.43534
                        -----------------------------------------
Magnitude (a.u.)       :      0.64000
Magnitude (Debye)      :      1.62676

                             ****ORCA TERMINATED NORMALLY****
TOTAL RUN TIME: 0 days 0 hours 0 minutes 7 seconds 873 msec
