                         Program Version 3.0.3 - RELEASE   -
|  1> ! RI PBE def2-SVP def2-SVP/J NBO PAL2
|  2> % maxcore 2000
|  3> % output
|  4>     # printlevel mini
|  5>     print[ P_Basis ] 0
|  6>     print[ P_SCFInfo ] 1
|  7>     print[ P_SCFIterInfo ] 1
|  8>     print[ P_OrbEn ] 0
|  9>     print[ P_Cartesian ] 0
| 10> end
| 11> *xyz 0 1
| 12>  C        0.8322470000    -0.0437700000    -0.1219790000
| 13>  C        2.3456890000     0.0690720000    -0.1957930000
| 14>  N        2.8844670000    -0.0454510000    -1.5535090000
| 15>  C        2.9365450000     1.3397670000     0.3820140000
| 16>  O        4.3268560000     1.3283190000     0.2949870000
| 17>  C        2.2583340000     2.6728300000     0.2235340000
| 18>  C        2.3979440000     2.0251090000     1.5806470000
| 19>  H        0.5105520000    -1.0024190000    -0.5357890000
| 20>  H        0.3460050000     0.7464500000    -0.7006640000
| 21>  H        0.4659900000     0.0100130000     0.9056880000
| 22>  H        2.7886010000    -0.7540360000     0.3779190000
| 23>  H        2.3932570000     0.5851830000    -2.1778940000
| 24>  H        2.7680170000    -0.9828430000    -1.9158350000
| 25>  H        4.5065890000     0.9542450000    -0.5811870000
| 26>  H        1.2678380000     2.7312420000    -0.2119050000
| 27>  H        2.9074650000     3.5113150000     0.0063950000
| 28>  H        1.5061990000     1.6409220000     2.0594920000
| 29>  H        3.1356860000     2.4403450000     2.2556010000
| 30> *
| 31>
| 32>                          ****END OF INPUT****
 Total Charge           Charge          ....    0
 Multiplicity           Mult            ....    1
 Number of Electrons    NEL             ....   56
 Basis Dimension        Dim             ....  153

MULLIKEN ATOMIC CHARGES
-----------------------
   0 C :    0.006460
   1 C :    0.039569
   2 N :   -0.195916
   3 C :   -0.050559
   4 O :   -0.232647
   5 C :   -0.032730
   6 C :   -0.016759
   7 H :    0.006958
   8 H :    0.016799
   9 H :    0.022762
  10 H :    0.007069
  11 H :    0.091951
  12 H :    0.092469
  13 H :    0.139884
  14 H :    0.017476
  15 H :    0.027843
  16 H :    0.021445
  17 H :    0.037926
Sum of atomic charges:   -0.0000000

LOEWDIN ATOMIC CHARGES
----------------------
   0 C :   -0.073591
   1 C :   -0.005647
   2 N :   -0.079796
   3 C :    0.005037
   4 O :   -0.097234
   5 C :   -0.064210
   6 C :   -0.047599
   7 H :    0.025093
   8 H :    0.023101
   9 H :    0.028985
  10 H :    0.026479
  11 H :    0.053546
  12 H :    0.054501
  13 H :    0.048905
  14 H :    0.016948
  15 H :    0.028645
  16 H :    0.022433
  17 H :    0.034405

  Mayer bond orders larger than 0.1
B(  0-C ,  1-C ) :   1.0793 B(  0-C ,  7-H ) :   0.9497 B(  0-C ,  8-H ) :   0.9487
B(  0-C ,  9-H ) :   0.9481 B(  1-C ,  2-N ) :   1.0569 B(  1-C ,  3-C ) :   0.9869
B(  1-C , 10-H ) :   0.8967 B(  2-N , 11-H ) :   0.9665 B(  2-N , 12-H ) :   0.9643
B(  2-N , 13-H ) :   0.1087 B(  3-C ,  4-O ) :   1.1419 B(  3-C ,  5-C ) :   0.9478
B(  3-C ,  6-C ) :   0.9882 B(  4-O , 13-H ) :   0.9437 B(  5-C ,  6-C ) :   1.0300
B(  5-C , 14-H ) :   0.9356 B(  5-C , 15-H ) :   0.9313 B(  6-C , 16-H ) :   0.9363
B(  6-C , 17-H ) :   0.9281

FINAL SINGLE POINT ENERGY      -326.437613885963

DIPOLE MOMENT
-------------
                                X             Y             Z
Electronic contribution:      4.69322       0.77599       0.36945
Nuclear contribution   :     -5.48134      -1.28112      -0.98908
                        -----------------------------------------
Total Dipole Moment    :     -0.78812      -0.50512      -0.61963
                        -----------------------------------------
Magnitude (a.u.)       :      1.12259
Magnitude (Debye)      :      2.85341

                             ****ORCA TERMINATED NORMALLY****
TOTAL RUN TIME: 0 days 0 hours 0 minutes 8 seconds 146 msec
