                         Program Version 3.0.3 - RELEASE   -
|  1> ! RI PBE def2-SVP def2-SVP/J NBO PAL2
|  2> % maxcore 2000
|  3> % output
|  4>     # printlevel mini
|  5>     print[ P_Basis ] 0
|  6>     print[ P_SCFInfo ] 1
|  7>     print[ P_SCFIterInfo ] 1
|  8>     print[ P_OrbEn ] 0
|  9>     print[ P_Cartesian ] 0
| 10> end
| 11> *xyz 0 1
| 12>  C        0.7147980000     0.4263540000    -0.7389700000
| 13>  C        2.0342350000    -0.2033750000    -0.3462540000
| 14>  N        3.0377290000     0.8078600000    -0.0806530000
| 15>  C        4.3067790000     0.2680090000     0.3523390000
| 16>  C        5.3118930000     1.3682690000     0.5251090000
| 17>  C        5.5790340000     1.9623260000     1.8326240000
| 18>  O        6.4850130000     1.0417770000     1.2490260000
| 19>  H       -0.0276240000    -0.3397150000    -0.9719360000
| 20>  H        0.8397740000     1.0677900000    -1.6136460000
| 21>  H        0.3125590000     1.0384660000     0.0740090000
| 22>  H        2.4026860000    -0.8307240000    -1.1655660000
| 23>  H        1.8819900000    -0.8787480000     0.5147060000
| 24>  H        2.6885970000     1.4572760000     0.6154780000
| 25>  H        4.6663700000    -0.4207890000    -0.4209190000
| 26>  H        4.2519160000    -0.3118660000     1.2902880000
| 27>  H        5.4802990000     1.9825170000    -0.3581390000
| 28>  H        5.0425120000     1.5915440000     2.7040890000
| 29>  H        5.9356280000     2.9871170000     1.9007060000
| 30> *
| 31>
| 32>                          ****END OF INPUT****
 Total Charge           Charge          ....    0
 Multiplicity           Mult            ....    1
 Number of Electrons    NEL             ....   56
 Basis Dimension        Dim             ....  153

MULLIKEN ATOMIC CHARGES
-----------------------
   0 C :   -0.036611
   1 C :    0.061680
   2 N :   -0.279161
   3 C :    0.207899
   4 C :   -0.050177
   5 C :    0.144559
   6 O :   -0.288148
   7 H :    0.024319
   8 H :    0.032024
   9 H :    0.021503
  10 H :    0.010760
  11 H :   -0.008621
  12 H :    0.093326
  13 H :    0.015375
  14 H :   -0.024127
  15 H :    0.023050
  16 H :    0.019921
  17 H :    0.032431
Sum of atomic charges:    0.0000000

LOEWDIN ATOMIC CHARGES
----------------------
   0 C :   -0.073703
   1 C :    0.007773
   2 N :   -0.102753
   3 C :    0.006020
   4 C :    0.032804
   5 C :    0.051468
   6 O :   -0.152423
   7 H :    0.031422
   8 H :    0.029086
   9 H :    0.023665
  10 H :    0.020705
  11 H :   -0.000993
  12 H :    0.051437
  13 H :    0.028361
  14 H :    0.002082
  15 H :    0.016770
  16 H :    0.011997
  17 H :    0.016280

  Mayer bond orders larger than 0.1
B(  0-C ,  1-C ) :   1.1177 B(  0-C ,  7-H ) :   0.9551 B(  0-C ,  8-H ) :   0.9623
B(  0-C ,  9-H ) :   0.9665 B(  1-C ,  2-N ) :   1.0289 B(  1-C , 10-H ) :   0.9382
B(  1-C , 11-H ) :   0.9228 B(  2-N ,  3-C ) :   1.0214 B(  2-N , 12-H ) :   0.9425
B(  3-C ,  4-C ) :   1.0374 B(  3-C , 13-H ) :   0.9173 B(  3-C , 14-H ) :   0.8930
B(  4-C ,  5-C ) :   1.0919 B(  4-C ,  6-O ) :   0.9799 B(  4-C , 15-H ) :   0.9351
B(  5-C ,  6-O ) :   1.0029 B(  5-C , 16-H ) :   0.9267 B(  5-C , 17-H ) :   0.9391

FINAL SINGLE POINT ENERGY      -326.416061982580

DIPOLE MOMENT
-------------
                                X             Y             Z
Electronic contribution:      8.18244       1.59509       1.95182
Nuclear contribution   :     -8.92389      -1.40090      -1.75889
                        -----------------------------------------
Total Dipole Moment    :     -0.74145       0.19419       0.19292
                        -----------------------------------------
Magnitude (a.u.)       :      0.79037
Magnitude (Debye)      :      2.00895

                             ****ORCA TERMINATED NORMALLY****
TOTAL RUN TIME: 0 days 0 hours 0 minutes 7 seconds 383 msec
