                         Program Version 3.0.3 - RELEASE   -
|  1> ! RI PBE def2-SVP def2-SVP/J NBO PAL2
|  2> % maxcore 2000
|  3> % output
|  4>     # printlevel mini
|  5>     print[ P_Basis ] 0
|  6>     print[ P_SCFInfo ] 1
|  7>     print[ P_SCFIterInfo ] 1
|  8>     print[ P_OrbEn ] 0
|  9>     print[ P_Cartesian ] 0
| 10> end
| 11> *xyz 0 1
| 12>  C        0.8507610000     0.1113100000     0.0025900000
| 13>  C        2.3720050000     0.0268690000     0.0339750000
| 14>  N        2.9224240000    -0.2754160000     1.3512280000
| 15>  C        2.9170170000    -0.9996700000    -0.9540370000
| 16>  C        2.6201250000    -0.6916940000    -2.3896710000
| 17>  C        2.5319090000    -1.7341660000    -3.4061330000
| 18>  O        1.3619540000    -1.1050920000    -2.9124230000
| 19>  H        0.4951180000     0.8634660000     0.7122070000
| 20>  H        0.4093180000    -0.8513140000     0.2794930000
| 21>  H        0.4742090000     0.3718200000    -0.9889090000
| 22>  H        2.7784780000     1.0057680000    -0.2527490000
| 23>  H        2.5801640000    -1.1781330000     1.6650970000
| 24>  H        2.5940970000     0.4028400000     2.0290470000
| 25>  H        2.5131650000    -1.9915960000    -0.7167940000
| 26>  H        4.0025820000    -1.0514380000    -0.8203530000
| 27>  H        2.9188190000     0.3023530000    -2.7255340000
| 28>  H        2.6597430000    -2.7732170000    -3.1102280000
| 29>  H        2.7829220000    -1.5079010000    -4.4396160000
| 30> *
| 31>
| 32>                          ****END OF INPUT****
 Total Charge           Charge          ....    0
 Multiplicity           Mult            ....    1
 Number of Electrons    NEL             ....   56
 Basis Dimension        Dim             ....  153

MULLIKEN ATOMIC CHARGES
-----------------------
   0 C :    0.033463
   1 C :   -0.083497
   2 N :   -0.179148
   3 C :    0.123421
   4 C :   -0.027020
   5 C :    0.150818
   6 O :   -0.295827
   7 H :    0.007171
   8 H :    0.004658
   9 H :    0.029848
  10 H :   -0.002767
  11 H :    0.082228
  12 H :    0.084787
  13 H :   -0.015536
  14 H :    0.026055
  15 H :    0.012944
  16 H :    0.022180
  17 H :    0.026222
Sum of atomic charges:   -0.0000000

LOEWDIN ATOMIC CHARGES
----------------------
   0 C :   -0.076358
   1 C :   -0.004380
   2 N :   -0.099696
   3 C :   -0.049091
   4 C :    0.041072
   5 C :    0.055044
   6 O :   -0.161858
   7 H :    0.019664
   8 H :    0.021557
   9 H :    0.029933
  10 H :    0.019567
  11 H :    0.047596
  12 H :    0.050440
  13 H :    0.026149
  14 H :    0.036911
  15 H :    0.014673
  16 H :    0.013580
  17 H :    0.015195

  Mayer bond orders larger than 0.1
B(  0-C ,  1-C ) :   1.0721 B(  0-C ,  7-H ) :   0.9586 B(  0-C ,  8-H ) :   0.9538
B(  0-C ,  9-H ) :   0.9422 B(  1-C ,  2-N ) :   1.0845 B(  1-C ,  3-C ) :   1.0709
B(  1-C , 10-H ) :   0.9056 B(  2-N , 11-H ) :   0.9678 B(  2-N , 12-H ) :   0.9666
B(  3-C ,  4-C ) :   1.0489 B(  3-C , 13-H ) :   0.8930 B(  3-C , 14-H ) :   0.9142
B(  4-C ,  5-C ) :   1.0838 B(  4-C ,  6-O ) :   0.9436 B(  4-C , 15-H ) :   0.9321
B(  5-C ,  6-O ) :   1.0138 B(  5-C , 16-H ) :   0.9307 B(  5-C , 17-H ) :   0.9334

FINAL SINGLE POINT ENERGY      -326.424657950181

DIPOLE MOMENT
-------------
                                X             Y             Z
Electronic contribution:      0.22241      -0.90810      -3.86288
Nuclear contribution   :     -0.02331       0.86936       4.04722
                        -----------------------------------------
Total Dipole Moment    :      0.19910      -0.03875       0.18434
                        -----------------------------------------
Magnitude (a.u.)       :      0.27409
Magnitude (Debye)      :      0.69667

                             ****ORCA TERMINATED NORMALLY****
TOTAL RUN TIME: 0 days 0 hours 0 minutes 7 seconds 623 msec
