                         Program Version 3.0.3 - RELEASE   -
|  1> ! RI PBE def2-SVP def2-SVP/J NBO PAL2
|  2> % maxcore 2000
|  3> % output
|  4>     # printlevel mini
|  5>     print[ P_Basis ] 0
|  6>     print[ P_SCFInfo ] 1
|  7>     print[ P_SCFIterInfo ] 1
|  8>     print[ P_OrbEn ] 0
|  9>     print[ P_Cartesian ] 0
| 10> end
| 11> *xyz 0 1
| 12>  C        1.1212260000     0.0891690000     0.2577230000
| 13>  C        2.6346310000     0.0605570000     0.2589180000
| 14>  N        3.1725840000     0.6280870000     1.4826110000
| 15>  C        4.6241580000     0.5369740000     1.5774870000
| 16>  C        5.1501310000     1.2213930000     2.8288030000
| 17>  C        4.8769130000     2.7171160000     2.8543820000
| 18>  O        3.5066970000     3.0263080000     2.9164720000
| 19>  H        0.7269960000    -0.3191020000    -0.6748990000
| 20>  H        0.7521100000     1.1106070000     0.3706850000
| 21>  H        0.7145870000    -0.5095850000     1.0781510000
| 22>  H        3.0189820000     0.6516230000    -0.5790270000
| 23>  H        2.9900850000    -0.9718780000     0.0996430000
| 24>  H        2.7593980000     0.1534410000     2.2794840000
| 25>  H        5.0419480000     1.0334300000     0.6934170000
| 26>  H        4.9721410000    -0.5089830000     1.5399240000
| 27>  H        6.2307990000     1.0541720000     2.8898070000
| 28>  H        4.7081550000     0.7594940000     3.7201230000
| 29>  H        5.3459500000     3.1795590000     1.9696620000
| 30>  H        5.3472130000     3.1650700000     3.7347010000
| 31>  H        3.0743170000     2.4311490000     2.2795330000
| 32> *
| 33>
| 34>                          ****END OF INPUT****
 Total Charge           Charge          ....    0
 Multiplicity           Mult            ....    1
 Number of Electrons    NEL             ....   58
 Basis Dimension        Dim             ....  163

MULLIKEN ATOMIC CHARGES
-----------------------
   0 C :   -0.028492
   1 C :    0.076860
   2 N :   -0.293854
   3 C :    0.091177
   4 C :   -0.065879
   5 C :    0.192660
   6 O :   -0.301861
   7 H :    0.024486
   8 H :    0.032945
   9 H :    0.022812
  10 H :    0.014032
  11 H :   -0.009317
  12 H :    0.110375
  13 H :    0.007045
  14 H :   -0.003668
  15 H :    0.012844
  16 H :    0.010405
  17 H :   -0.018256
  18 H :    0.002482
  19 H :    0.123203
Sum of atomic charges:    0.0000000

LOEWDIN ATOMIC CHARGES
----------------------
   0 C :   -0.069850
   1 C :    0.009986
   2 N :   -0.077356
   3 C :    0.011128
   4 C :   -0.071519
   5 C :    0.055143
   6 O :   -0.141480
   7 H :    0.032490
   8 H :    0.030037
   9 H :    0.025086
  10 H :    0.022454
  11 H :    0.002337
  12 H :    0.057183
  13 H :    0.021059
  14 H :    0.003837
  15 H :    0.032628
  16 H :    0.022305
  17 H :   -0.002189
  18 H :    0.015552
  19 H :    0.021167

  Mayer bond orders larger than 0.1
B(  0-C ,  1-C ) :   1.1142 B(  0-C ,  7-H ) :   0.9574 B(  0-C ,  8-H ) :   0.9652
B(  0-C ,  9-H ) :   0.9673 B(  1-C ,  2-N ) :   1.0160 B(  1-C , 10-H ) :   0.9390
B(  1-C , 11-H ) :   0.9222 B(  2-N ,  3-C ) :   1.0104 B(  2-N , 12-H ) :   0.9299
B(  2-N , 19-H ) :   0.1547 B(  3-C ,  4-C ) :   1.0880 B(  3-C , 13-H ) :   0.9325
B(  3-C , 14-H ) :   0.9246 B(  4-C ,  5-C ) :   1.0797 B(  4-C , 15-H ) :   0.9143
B(  4-C , 16-H ) :   0.9269 B(  5-C ,  6-O ) :   1.0920 B(  5-C , 17-H ) :   0.9250
B(  5-C , 18-H ) :   0.9389 B(  6-O , 19-H ) :   0.9370

FINAL SINGLE POINT ENERGY      -327.654641835628

DIPOLE MOMENT
-------------
                                X             Y             Z
Electronic contribution:      0.74900       3.05929       2.62210
Nuclear contribution   :     -0.61186      -4.11122      -3.10923
                        -----------------------------------------
Total Dipole Moment    :      0.13714      -1.05193      -0.48713
                        -----------------------------------------
Magnitude (a.u.)       :      1.16733
Magnitude (Debye)      :      2.96712

                             ****ORCA TERMINATED NORMALLY****
TOTAL RUN TIME: 0 days 0 hours 0 minutes 8 seconds 606 msec
