                         Program Version 3.0.3 - RELEASE   -
|  1> ! RI PBE def2-SVP def2-SVP/J NBO PAL2
|  2> % maxcore 2000
|  3> % output
|  4>     # printlevel mini
|  5>     print[ P_Basis ] 0
|  6>     print[ P_SCFInfo ] 1
|  7>     print[ P_SCFIterInfo ] 1
|  8>     print[ P_OrbEn ] 0
|  9>     print[ P_Cartesian ] 0
| 10> end
| 11> *xyz 0 1
| 12>  C        2.6646350000     0.3863680000    -1.3909600000
| 13>  C        2.2349230000    -0.1647750000    -0.2634940000
| 14>  N        2.7855590000     0.0753630000     1.0031660000
| 15>  C        1.9629750000     0.1466230000     2.1288890000
| 16>  C        0.6384850000     0.2479520000     2.1031370000
| 17>  C        4.1556990000     0.1487230000     1.1698480000
| 18>  O        4.7036010000     0.3896190000     2.2134930000
| 19>  H        2.2335880000     0.0841250000    -2.3359500000
| 20>  H        3.4423920000     1.1399570000    -1.4107100000
| 21>  H        1.4159720000    -0.8779140000    -0.2563380000
| 22>  H        2.5268660000     0.1154280000     3.0525990000
| 23>  H        0.0694870000     0.3298970000     1.1857140000
| 24>  H        0.0912750000     0.2658120000     3.0353420000
| 25>  H        4.6918400000    -0.0607670000     0.2308740000
| 26> *
| 27>
| 28>                          ****END OF INPUT****
 Total Charge           Charge          ....    0
 Multiplicity           Mult            ....    1
 Number of Electrons    NEL             ....   52
 Basis Dimension        Dim             ....  133

MULLIKEN ATOMIC CHARGES
-----------------------
   0 C :   -0.050899
   1 C :    0.046504
   2 N :   -0.175080
   3 C :    0.063550
   4 C :   -0.065852
   5 C :    0.174769
   6 O :   -0.198146
   7 H :    0.037689
   8 H :    0.043186
   9 H :    0.030254
  10 H :    0.029266
  11 H :    0.031925
  12 H :    0.035292
  13 H :   -0.002458
Sum of atomic charges:    0.0000000

LOEWDIN ATOMIC CHARGES
----------------------
   0 C :   -0.071606
   1 C :    0.016019
   2 N :    0.014881
   3 C :    0.021158
   4 C :   -0.092398
   5 C :    0.073384
   6 O :   -0.144844
   7 H :    0.035727
   8 H :    0.030443
   9 H :    0.029674
  10 H :    0.032295
  11 H :    0.025111
  12 H :    0.034833
  13 H :   -0.004677

  Mayer bond orders larger than 0.1
B(  0-C ,  1-C ) :   1.9295 B(  0-C ,  7-H ) :   0.9428 B(  0-C ,  8-H ) :   0.9528
B(  1-C ,  2-N ) :   1.0307 B(  1-C ,  9-H ) :   0.9450 B(  2-N ,  3-C ) :   1.0481
B(  2-N ,  5-C ) :   1.0779 B(  3-C ,  4-C ) :   1.9075 B(  3-C , 10-H ) :   0.9506
B(  4-C , 11-H ) :   0.9457 B(  4-C , 12-H ) :   0.9398 B(  5-C ,  6-O ) :   2.0508
B(  5-C , 13-H ) :   0.9251

FINAL SINGLE POINT ENERGY      -324.045422992035

DIPOLE MOMENT
-------------
                                X             Y             Z
Electronic contribution:      3.88453       0.01868       2.50512
Nuclear contribution   :     -4.57579      -0.24463      -3.32444
                        -----------------------------------------
Total Dipole Moment    :     -0.69126      -0.22594      -0.81932
                        -----------------------------------------
Magnitude (a.u.)       :      1.09552
Magnitude (Debye)      :      2.78460

                             ****ORCA TERMINATED NORMALLY****
TOTAL RUN TIME: 0 days 0 hours 0 minutes 6 seconds 613 msec
