                         Program Version 3.0.3 - RELEASE   -
|  1> ! RI PBE def2-SVP def2-SVP/J NBO PAL2
|  2> % maxcore 2000
|  3> % output
|  4>     # printlevel mini
|  5>     print[ P_Basis ] 0
|  6>     print[ P_SCFInfo ] 1
|  7>     print[ P_SCFIterInfo ] 1
|  8>     print[ P_OrbEn ] 0
|  9>     print[ P_Cartesian ] 0
| 10> end
| 11> *xyz 0 1
| 12>  C        1.0804920000    -0.2116720000     0.0709690000
| 13>  C        2.5024190000    -0.1626420000    -0.4779740000
| 14>  N        2.5827820000    -0.4862220000    -1.9004370000
| 15>  C        3.1378650000     1.2098980000    -0.2445110000
| 16>  C        4.6598860000     1.2398870000    -0.1179250000
| 17>  C        5.4587460000     0.4664310000    -1.1592700000
| 18>  O        5.5161990000    -0.9266910000    -0.9027810000
| 19>  H        0.6187500000    -1.1819690000    -0.1308670000
| 20>  H        0.4593710000     0.5590220000    -0.3990660000
| 21>  H        1.0567250000    -0.0438720000     1.1517510000
| 22>  H        3.1047150000    -0.9144840000     0.0408660000
| 23>  H        1.8599980000     0.0127370000    -2.4083740000
| 24>  H        2.4270040000    -1.4744230000    -2.0539000000
| 25>  H        2.7152620000     1.6561760000     0.6620110000
| 26>  H        2.8288780000     1.8607680000    -1.0719400000
| 27>  H        4.9499080000     0.8652070000     0.8731630000
| 28>  H        4.9847850000     2.2865210000    -0.1418370000
| 29>  H        6.4754410000     0.8792820000    -1.2157450000
| 30>  H        4.9970600000     0.5628780000    -2.1423530000
| 31>  H        6.0225330000    -1.0545120000    -0.0966880000
| 32> *
| 33>
| 34>                          ****END OF INPUT****
 Total Charge           Charge          ....    0
 Multiplicity           Mult            ....    1
 Number of Electrons    NEL             ....   58
 Basis Dimension        Dim             ....  163

MULLIKEN ATOMIC CHARGES
-----------------------
   0 C :    0.011564
   1 C :   -0.061647
   2 N :   -0.171912
   3 C :    0.045302
   4 C :   -0.041680
   5 C :    0.193652
   6 O :   -0.291656
   7 H :    0.005024
   8 H :    0.007189
   9 H :    0.013821
  10 H :   -0.001922
  11 H :    0.078634
  12 H :    0.086792
  13 H :   -0.003816
  14 H :   -0.000458
  15 H :   -0.012041
  16 H :   -0.000001
  17 H :   -0.010416
  18 H :    0.007583
  19 H :    0.145987
Sum of atomic charges:   -0.0000000

LOEWDIN ATOMIC CHARGES
----------------------
   0 C :   -0.080924
   1 C :   -0.005436
   2 N :   -0.083620
   3 C :   -0.041728
   4 C :   -0.061347
   5 C :    0.053468
   6 O :   -0.120245
   7 H :    0.018733
   8 H :    0.019879
   9 H :    0.023835
  10 H :    0.016158
  11 H :    0.044338
  12 H :    0.051661
  13 H :    0.021453
  14 H :    0.021757
  15 H :    0.016288
  16 H :    0.026330
  17 H :    0.001003
  18 H :    0.017931
  19 H :    0.060465

  Mayer bond orders larger than 0.1
B(  0-C ,  1-C ) :   1.0730 B(  0-C ,  7-H ) :   0.9588 B(  0-C ,  8-H ) :   0.9531
B(  0-C ,  9-H ) :   0.9469 B(  1-C ,  2-N ) :   1.0733 B(  1-C ,  3-C ) :   1.0402
B(  1-C , 10-H ) :   0.9122 B(  2-N , 11-H ) :   0.9682 B(  2-N , 12-H ) :   0.9672
B(  3-C ,  4-C ) :   1.1172 B(  3-C , 13-H ) :   0.9329 B(  3-C , 14-H ) :   0.9194
B(  4-C ,  5-C ) :   1.0755 B(  4-C , 15-H ) :   0.9280 B(  4-C , 16-H ) :   0.9183
B(  5-C ,  6-O ) :   1.0221 B(  5-C , 17-H ) :   0.9373 B(  5-C , 18-H ) :   0.9273
B(  6-O , 19-H ) :   0.9863

FINAL SINGLE POINT ENERGY      -327.647190661980

DIPOLE MOMENT
-------------
                                X             Y             Z
Electronic contribution:      3.60651      -2.05956      -1.50936
Nuclear contribution   :     -3.79020       2.21655       1.90522
                        -----------------------------------------
Total Dipole Moment    :     -0.18369       0.15699       0.39586
                        -----------------------------------------
Magnitude (a.u.)       :      0.46378
Magnitude (Debye)      :      1.17884

                             ****ORCA TERMINATED NORMALLY****
TOTAL RUN TIME: 0 days 0 hours 0 minutes 8 seconds 746 msec
