                         Program Version 3.0.3 - RELEASE   -
|  1> ! RI PBE def2-SVP def2-SVP/J NBO PAL2
|  2> % maxcore 2000
|  3> % output
|  4>     # printlevel mini
|  5>     print[ P_Basis ] 0
|  6>     print[ P_SCFInfo ] 1
|  7>     print[ P_SCFIterInfo ] 1
|  8>     print[ P_OrbEn ] 0
|  9>     print[ P_Cartesian ] 0
| 10> end
| 11> *xyz 0 1
| 12>  C        0.9555930000     0.0326990000    -0.0199810000
| 13>  C        2.4543350000    -0.0302150000    -0.0468790000
| 14>  N        3.0508320000     1.1446510000     0.2799780000
| 15>  C        3.1184030000    -1.1804870000    -0.3745640000
| 16>  C        2.4155190000    -2.4561630000    -0.7289600000
| 17>  C        4.5582900000    -1.2369130000    -0.3994940000
| 18>  O        5.2071120000    -2.2254820000    -0.6815310000
| 19>  H        0.6026190000     1.0262260000     0.2612790000
| 20>  H        0.5490880000    -0.6845610000     0.6953020000
| 21>  H        0.5386360000    -0.2085280000    -0.9994100000
| 22>  H        2.4931460000     1.9437470000     0.5084650000
| 23>  H        4.0471370000     1.2481560000     0.3034350000
| 24>  H        1.3305930000    -2.3663640000    -0.6965840000
| 25>  H        2.7117020000    -3.2605310000    -0.0499090000
| 26>  H        2.7006900000    -2.7874070000    -1.7313590000
| 27>  H        5.1079060000    -0.3033500000    -0.1405050000
| 28> *
| 29>
| 30>                          ****END OF INPUT****
 Total Charge           Charge          ....    0
 Multiplicity           Mult            ....    1
 Number of Electrons    NEL             ....   54
 Basis Dimension        Dim             ....  143

MULLIKEN ATOMIC CHARGES
-----------------------
   0 C :    0.046328
   1 C :   -0.138523
   2 N :   -0.020808
   3 C :   -0.147169
   4 C :    0.063693
   5 C :    0.084569
   6 O :   -0.205557
   7 H :    0.002312
   8 H :    0.060658
   9 H :    0.058674
  10 H :    0.109923
  11 H :    0.102950
  12 H :   -0.003005
  13 H :    0.031956
  14 H :    0.027355
  15 H :   -0.073357
Sum of atomic charges:   -0.0000000

LOEWDIN ATOMIC CHARGES
----------------------
   0 C :   -0.056165
   1 C :    0.030294
   2 N :    0.036321
   3 C :   -0.165921
   4 C :   -0.054371
   5 C :    0.045544
   6 O :   -0.160244
   7 H :    0.026574
   8 H :    0.048838
   9 H :    0.048551
  10 H :    0.071389
  11 H :    0.064630
  12 H :    0.021395
  13 H :    0.037037
  14 H :    0.036327
  15 H :   -0.030196

  Mayer bond orders larger than 0.1
B(  0-C ,  1-C ) :   1.0852 B(  0-C ,  7-H ) :   0.9398 B(  0-C ,  8-H ) :   0.9413
B(  0-C ,  9-H ) :   0.9413 B(  1-C ,  2-N ) :   1.3517 B(  1-C ,  3-C ) :   1.5080
B(  2-N , 10-H ) :   0.9399 B(  2-N , 11-H ) :   0.9427 B(  3-C ,  4-C ) :   1.1205
B(  3-C ,  5-C ) :   1.1032 B(  4-C , 12-H ) :   0.9400 B(  4-C , 13-H ) :   0.9400
B(  4-C , 14-H ) :   0.9392 B(  5-C ,  6-O ) :   2.0837 B(  5-C , 15-H ) :   0.9276

FINAL SINGLE POINT ENERGY      -325.267238116168

DIPOLE MOMENT
-------------
                                X             Y             Z
Electronic contribution:      6.10338      -0.32600      -0.12848
Nuclear contribution   :     -7.40204       2.04457       0.62168
                        -----------------------------------------
Total Dipole Moment    :     -1.29866       1.71857       0.49320
                        -----------------------------------------
Magnitude (a.u.)       :      2.20981
Magnitude (Debye)      :      5.61689

                             ****ORCA TERMINATED NORMALLY****
TOTAL RUN TIME: 0 days 0 hours 0 minutes 7 seconds 393 msec
