                         Program Version 3.0.3 - RELEASE   -
|  1> ! RI PBE def2-SVP def2-SVP/J NBO PAL2
|  2> % maxcore 2000
|  3> % output
|  4>     # printlevel mini
|  5>     print[ P_Basis ] 0
|  6>     print[ P_SCFInfo ] 1
|  7>     print[ P_SCFIterInfo ] 1
|  8>     print[ P_OrbEn ] 0
|  9>     print[ P_Cartesian ] 0
| 10> end
| 11> *xyz 0 1
| 12>  C        0.8225540000     0.1390350000    -0.1056960000
| 13>  C        2.2966850000    -0.0703350000     0.0547320000
| 14>  N        2.6388970000    -0.5328810000     1.2825340000
| 15>  C        3.1352010000     0.2021680000    -0.9799380000
| 16>  C        4.5799850000     0.0881580000    -1.0850670000
| 17>  C        5.4092660000    -0.4053890000     0.0831470000
| 18>  O        5.1453380000     0.3902850000    -2.1220550000
| 19>  H        0.2828760000    -0.7996790000     0.0536850000
| 20>  H        0.5852600000     0.5095740000    -1.0999900000
| 21>  H        0.4558450000     0.8604970000     0.6310910000
| 22>  H        1.9276970000    -0.6976420000     1.9685740000
| 23>  H        3.5886030000    -0.7206560000     1.5376500000
| 24>  H        2.6747870000     0.5665900000    -1.8897350000
| 25>  H        5.1222750000    -1.4227970000     0.3694390000
| 26>  H        5.2961450000     0.2504390000     0.9529330000
| 27>  H        6.4560960000    -0.4102560000    -0.2150040000
| 28> *
| 29>
| 30>                          ****END OF INPUT****
 Total Charge           Charge          ....    0
 Multiplicity           Mult            ....    1
 Number of Electrons    NEL             ....   54
 Basis Dimension        Dim             ....  143

MULLIKEN ATOMIC CHARGES
-----------------------
   0 C :    0.037495
   1 C :   -0.117951
   2 N :   -0.021600
   3 C :   -0.029876
   4 C :   -0.042846
   5 C :   -0.009807
   6 O :   -0.195885
   7 H :    0.041299
   8 H :    0.032748
   9 H :    0.041311
  10 H :    0.109290
  11 H :    0.080806
  12 H :   -0.026342
  13 H :    0.033860
  14 H :    0.038751
  15 H :    0.028749
Sum of atomic charges:   -0.0000000

LOEWDIN ATOMIC CHARGES
----------------------
   0 C :   -0.055736
   1 C :    0.024871
   2 N :    0.031381
   3 C :   -0.158871
   4 C :    0.027704
   5 C :   -0.099292
   6 O :   -0.163752
   7 H :    0.038580
   8 H :    0.041882
   9 H :    0.038443
  10 H :    0.074150
  11 H :    0.062677
  12 H :    0.032009
  13 H :    0.033053
  14 H :    0.033566
  15 H :    0.039334

  Mayer bond orders larger than 0.1
B(  0-C ,  1-C ) :   1.0716 B(  0-C ,  7-H ) :   0.9456 B(  0-C ,  8-H ) :   0.9504
B(  0-C ,  9-H ) :   0.9461 B(  1-C ,  2-N ) :   1.3393 B(  1-C ,  3-C ) :   1.5576
B(  2-N , 10-H ) :   0.9419 B(  2-N , 11-H ) :   0.9410 B(  3-C ,  4-C ) :   1.0794
B(  3-C , 12-H ) :   0.9280 B(  4-C ,  5-C ) :   1.0430 B(  4-C ,  6-O ) :   2.0887
B(  5-C , 13-H ) :   0.9320 B(  5-C , 14-H ) :   0.9342 B(  5-C , 15-H ) :   0.9285

FINAL SINGLE POINT ENERGY      -325.273229825706

DIPOLE MOMENT
-------------
                                X             Y             Z
Electronic contribution:      3.06176       0.91458      -3.54802
Nuclear contribution   :     -4.26444      -1.43375       5.39244
                        -----------------------------------------
Total Dipole Moment    :     -1.20268      -0.51917       1.84441
                        -----------------------------------------
Magnitude (a.u.)       :      2.26226
Magnitude (Debye)      :      5.75022

                             ****ORCA TERMINATED NORMALLY****
TOTAL RUN TIME: 0 days 0 hours 0 minutes 7 seconds 421 msec
