                         Program Version 3.0.3 - RELEASE   -
|  1> ! RI PBE def2-SVP def2-SVP/J NBO PAL2
|  2> % maxcore 2000
|  3> % output
|  4>     # printlevel mini
|  5>     print[ P_Basis ] 0
|  6>     print[ P_SCFInfo ] 1
|  7>     print[ P_SCFIterInfo ] 1
|  8>     print[ P_OrbEn ] 0
|  9>     print[ P_Cartesian ] 0
| 10> end
| 11> *xyz 0 1
| 12>  C        0.7861810000    -0.2563590000    -0.5059190000
| 13>  C        2.2319240000     0.1364270000    -0.1930450000
| 14>  N        2.7030490000     1.3018370000    -0.9215750000
| 15>  C        2.4106460000     0.3091890000     1.2854280000
| 16>  C        2.9955750000     1.3360260000     1.8910510000
| 17>  C        3.1332170000     1.4518690000     3.3718180000
| 18>  O        4.4852950000     1.5697850000     3.7785630000
| 19>  H        0.6626370000    -0.4440280000    -1.5755930000
| 20>  H        0.1020460000     0.5470220000    -0.2174050000
| 21>  H        0.4888020000    -1.1613070000     0.0316000000
| 22>  H        2.8734280000    -0.7032310000    -0.4972010000
| 23>  H        2.1101730000     2.0996620000    -0.7177160000
| 24>  H        2.6415360000     1.1368840000    -1.9185390000
| 25>  H        1.9942010000    -0.4918720000     1.8958510000
| 26>  H        3.4390500000     2.1312730000     1.2970150000
| 27>  H        2.6425980000     0.5994160000     3.8624900000
| 28>  H        2.6456770000     2.3624350000     3.7331160000
| 29>  H        4.9739440000     0.8499820000     3.3699720000
| 30> *
| 31>
| 32>                          ****END OF INPUT****
 Total Charge           Charge          ....    0
 Multiplicity           Mult            ....    1
 Number of Electrons    NEL             ....   56
 Basis Dimension        Dim             ....  153

MULLIKEN ATOMIC CHARGES
-----------------------
   0 C :   -0.010303
   1 C :    0.022797
   2 N :   -0.167184
   3 C :   -0.061667
   4 C :   -0.128597
   5 C :    0.256917
   6 O :   -0.295098
   7 H :    0.014033
   8 H :    0.018615
   9 H :    0.014213
  10 H :    0.019666
  11 H :    0.089535
  12 H :    0.087647
  13 H :   -0.013413
  14 H :    0.001250
  15 H :   -0.010547
  16 H :    0.012284
  17 H :    0.149852
Sum of atomic charges:   -0.0000000

LOEWDIN ATOMIC CHARGES
----------------------
   0 C :   -0.075698
   1 C :   -0.007286
   2 N :   -0.086589
   3 C :   -0.040673
   4 C :   -0.070015
   5 C :    0.055824
   6 O :   -0.124602
   7 H :    0.021811
   8 H :    0.023741
   9 H :    0.025572
  10 H :    0.034034
  11 H :    0.050027
  12 H :    0.052866
  13 H :    0.021023
  14 H :    0.023559
  15 H :    0.004493
  16 H :    0.026165
  17 H :    0.065750

  Mayer bond orders larger than 0.1
B(  0-C ,  1-C ) :   1.0589 B(  0-C ,  7-H ) :   0.9578 B(  0-C ,  8-H ) :   0.9603
B(  0-C ,  9-H ) :   0.9453 B(  1-C ,  2-N ) :   1.1361 B(  1-C ,  3-C ) :   0.9999
B(  1-C , 10-H ) :   0.8876 B(  2-N , 11-H ) :   0.9609 B(  2-N , 12-H ) :   0.9667
B(  3-C ,  4-C ) :   1.8838 B(  3-C , 13-H ) :   0.9525 B(  4-C ,  5-C ) :   1.0579
B(  4-C , 14-H ) :   0.9373 B(  5-C ,  6-O ) :   1.0284 B(  5-C , 15-H ) :   0.9335
B(  5-C , 16-H ) :   0.9178 B(  6-O , 17-H ) :   0.9862

FINAL SINGLE POINT ENERGY      -326.432140134662

DIPOLE MOMENT
-------------
                                X             Y             Z
Electronic contribution:      4.19479       1.77599       3.51902
Nuclear contribution   :     -4.79361      -2.27238      -4.25542
                        -----------------------------------------
Total Dipole Moment    :     -0.59883      -0.49639      -0.73640
                        -----------------------------------------
Magnitude (a.u.)       :      1.07111
Magnitude (Debye)      :      2.72256

                             ****ORCA TERMINATED NORMALLY****
TOTAL RUN TIME: 0 days 0 hours 0 minutes 7 seconds 600 msec
