                         Program Version 3.0.3 - RELEASE   -
|  1> ! RI PBE def2-SVP def2-SVP/J NBO PAL2
|  2> % maxcore 2000
|  3> % output
|  4>     # printlevel mini
|  5>     print[ P_Basis ] 0
|  6>     print[ P_SCFInfo ] 1
|  7>     print[ P_SCFIterInfo ] 1
|  8>     print[ P_OrbEn ] 0
|  9>     print[ P_Cartesian ] 0
| 10> end
| 11> *xyz 0 1
| 12>  C        1.0607940000    -0.2753770000     0.4813310000
| 13>  C        2.4881260000    -0.1548310000    -0.0255680000
| 14>  N        3.1283430000    -1.4583740000    -0.2635990000
| 15>  C        2.6609730000     0.6963230000    -1.2643370000
| 16>  C        1.6441870000     1.2013110000    -1.9533970000
| 17>  C        4.0868270000     0.9783740000    -1.6650340000
| 18>  O        4.8054080000    -0.1672750000    -2.0569400000
| 19>  H        1.0397450000    -0.8822210000     1.3900530000
| 20>  H        0.4191210000    -0.7614130000    -0.2589460000
| 21>  H        0.6309670000     0.7003520000     0.7185270000
| 22>  H        3.0881980000     0.3267900000     0.7589750000
| 23>  H        2.5699780000    -1.9970640000    -0.9179240000
| 24>  H        3.1785920000    -1.9904270000     0.5970480000
| 25>  H        0.6094000000     1.0419720000    -1.6733390000
| 26>  H        1.8208080000     1.8094940000    -2.8339470000
| 27>  H        4.5904160000     1.4814240000    -0.8211620000
| 28>  H        4.0970810000     1.6742880000    -2.5074020000
| 29>  H        4.5568370000    -0.8601450000    -1.4194370000
| 30> *
| 31>
| 32>                          ****END OF INPUT****
 Total Charge           Charge          ....    0
 Multiplicity           Mult            ....    1
 Number of Electrons    NEL             ....   56
 Basis Dimension        Dim             ....  153

MULLIKEN ATOMIC CHARGES
-----------------------
   0 C :    0.022180
   1 C :    0.016723
   2 N :   -0.204748
   3 C :   -0.200036
   4 C :   -0.029880
   5 C :    0.287177
   6 O :   -0.299790
   7 H :    0.011978
   8 H :    0.025004
   9 H :    0.028090
  10 H :    0.010901
  11 H :    0.105766
  12 H :    0.100817
  13 H :    0.008802
  14 H :    0.012253
  15 H :   -0.019339
  16 H :   -0.007798
  17 H :    0.131901
Sum of atomic charges:   -0.0000000

LOEWDIN ATOMIC CHARGES
----------------------
   0 C :   -0.075665
   1 C :    0.001628
   2 N :   -0.056700
   3 C :   -0.051071
   4 C :   -0.060747
   5 C :    0.063076
   6 O :   -0.137415
   7 H :    0.024987
   8 H :    0.025593
   9 H :    0.032251
  10 H :    0.032008
  11 H :    0.059083
  12 H :    0.056835
  13 H :    0.018167
  14 H :    0.024394
  15 H :    0.003111
  16 H :    0.018045
  17 H :    0.022421

  Mayer bond orders larger than 0.1
B(  0-C ,  1-C ) :   1.1145 B(  0-C ,  7-H ) :   0.9494 B(  0-C ,  8-H ) :   0.9434
B(  0-C ,  9-H ) :   0.9419 B(  1-C ,  2-N ) :   1.0428 B(  1-C ,  3-C ) :   0.9961
B(  1-C , 10-H ) :   0.8871 B(  2-N , 11-H ) :   0.9588 B(  2-N , 12-H ) :   0.9620
B(  2-N , 17-H ) :   0.1556 B(  3-C ,  4-C ) :   1.9914 B(  3-C ,  5-C ) :   1.0338
B(  4-C , 13-H ) :   0.9241 B(  4-C , 14-H ) :   0.9251 B(  5-C ,  6-O ) :   1.0952
B(  5-C , 15-H ) :   0.9009 B(  5-C , 16-H ) :   0.9242 B(  6-O , 17-H ) :   0.9343

FINAL SINGLE POINT ENERGY      -326.438634310325

DIPOLE MOMENT
-------------
                                X             Y             Z
Electronic contribution:      3.77040      -0.17910      -2.42248
Nuclear contribution   :     -4.69694      -0.19824       3.32670
                        -----------------------------------------
Total Dipole Moment    :     -0.92654      -0.37735       0.90422
                        -----------------------------------------
Magnitude (a.u.)       :      1.34851
Magnitude (Debye)      :      3.42765

                             ****ORCA TERMINATED NORMALLY****
TOTAL RUN TIME: 0 days 0 hours 0 minutes 7 seconds 723 msec
