                         Program Version 3.0.3 - RELEASE   -
|  1> ! RI PBE def2-SVP def2-SVP/J NBO PAL2
|  2> % maxcore 2000
|  3> % output
|  4>     # printlevel mini
|  5>     print[ P_Basis ] 0
|  6>     print[ P_SCFInfo ] 1
|  7>     print[ P_SCFIterInfo ] 1
|  8>     print[ P_OrbEn ] 0
|  9>     print[ P_Cartesian ] 0
| 10> end
| 11> *xyz 0 1
| 12>  C        1.4163460000     0.2994770000    -0.4713580000
| 13>  C        2.8853990000    -0.0510970000    -0.6713280000
| 14>  N        3.7530280000     1.1308220000    -0.5752300000
| 15>  C        3.3922740000    -1.1363820000     0.2882890000
| 16>  C        2.5110530000    -2.3784360000     0.2610480000
| 17>  C        4.8353890000    -1.5395560000    -0.0211340000
| 18>  O        5.7840880000    -0.5311720000     0.1979730000
| 19>  H        1.1319950000     1.1256990000    -1.1286900000
| 20>  H        1.2310180000     0.6135760000     0.5612940000
| 21>  H        0.7547470000    -0.5399790000    -0.6922920000
| 22>  H        3.0131870000    -0.4400690000    -1.6903510000
| 23>  H        3.5871790000     1.6073810000     0.3059150000
| 24>  H        3.5305210000     1.7919250000    -1.3098190000
| 25>  H        3.3806590000    -0.7179530000     1.3054400000
| 26>  H        2.4324020000    -2.7835580000    -0.7531390000
| 27>  H        1.5004650000    -2.1787430000     0.6192540000
| 28>  H        2.9347200000    -3.1606400000     0.8951960000
| 29>  H        4.8755770000    -1.9079320000    -1.0617670000
| 30>  H        5.1108990000    -2.3821190000     0.6210240000
| 31>  H        5.3982830000     0.2700660000    -0.2010240000
| 32> *
| 33>
| 34>                          ****END OF INPUT****
 Total Charge           Charge          ....    0
 Multiplicity           Mult            ....    1
 Number of Electrons    NEL             ....   58
 Basis Dimension        Dim             ....  163

MULLIKEN ATOMIC CHARGES
-----------------------
   0 C :    0.028316
   1 C :   -0.036523
   2 N :   -0.185644
   3 C :   -0.164928
   4 C :    0.015145
   5 C :    0.237955
   6 O :   -0.294587
   7 H :    0.009266
   8 H :    0.012960
   9 H :    0.025622
  10 H :    0.003737
  11 H :    0.101012
  12 H :    0.099595
  13 H :   -0.001403
  14 H :    0.015946
  15 H :    0.022377
  16 H :    0.020553
  17 H :   -0.030889
  18 H :   -0.003340
  19 H :    0.124830
Sum of atomic charges:   -0.0000000

LOEWDIN ATOMIC CHARGES
----------------------
   0 C :   -0.076239
   1 C :    0.001216
   2 N :   -0.053150
   3 C :   -0.068012
   4 C :   -0.056352
   5 C :    0.056852
   6 O :   -0.140626
   7 H :    0.022398
   8 H :    0.024328
   9 H :    0.029031
  10 H :    0.021164
  11 H :    0.056212
  12 H :    0.056778
  13 H :    0.020176
  14 H :    0.025080
  15 H :    0.024515
  16 H :    0.029301
  17 H :   -0.004314
  18 H :    0.014031
  19 H :    0.017613

  Mayer bond orders larger than 0.1
B(  0-C ,  1-C ) :   1.0842 B(  0-C ,  7-H ) :   0.9534 B(  0-C ,  8-H ) :   0.9527
B(  0-C ,  9-H ) :   0.9431 B(  1-C ,  2-N ) :   1.0518 B(  1-C ,  3-C ) :   1.0184
B(  1-C , 10-H ) :   0.9099 B(  2-N , 11-H ) :   0.9598 B(  2-N , 12-H ) :   0.9622
B(  2-N , 19-H ) :   0.1704 B(  3-C ,  4-C ) :   1.0772 B(  3-C ,  5-C ) :   1.0300
B(  3-C , 13-H ) :   0.8938 B(  4-C , 14-H ) :   0.9591 B(  4-C , 15-H ) :   0.9504
B(  4-C , 16-H ) :   0.9538 B(  5-C ,  6-O ) :   1.1155 B(  5-C , 17-H ) :   0.9141
B(  5-C , 18-H ) :   0.9365 B(  6-O , 19-H ) :   0.9294

FINAL SINGLE POINT ENERGY      -327.661885552722

DIPOLE MOMENT
-------------
                                X             Y             Z
Electronic contribution:      5.41266       1.67538       0.32648
Nuclear contribution   :     -6.63281      -1.16088      -0.61794
                        -----------------------------------------
Total Dipole Moment    :     -1.22015       0.51450      -0.29146
                        -----------------------------------------
Magnitude (a.u.)       :      1.35588
Magnitude (Debye)      :      3.44638

                             ****ORCA TERMINATED NORMALLY****
TOTAL RUN TIME: 0 days 0 hours 0 minutes 8 seconds 950 msec
