                         Program Version 3.0.3 - RELEASE   -
|  1> ! RI PBE def2-SVP def2-SVP/J NBO PAL2
|  2> % maxcore 2000
|  3> % output
|  4>     # printlevel mini
|  5>     print[ P_Basis ] 0
|  6>     print[ P_SCFInfo ] 1
|  7>     print[ P_SCFIterInfo ] 1
|  8>     print[ P_OrbEn ] 0
|  9>     print[ P_Cartesian ] 0
| 10> end
| 11> *xyz 0 1
| 12>  C        1.3508770000    -0.4181630000    -0.1021440000
| 13>  C        2.7962420000     0.0478010000    -0.1786660000
| 14>  N        3.7395970000    -1.0265670000    -0.4940780000
| 15>  C        3.0545870000     1.2128860000    -1.1625530000
| 16>  C        2.6570000000     0.8571260000    -2.5930270000
| 17>  C        2.3497050000     2.4802540000    -0.7143560000
| 18>  O        4.4431880000     1.4883690000    -1.1176460000
| 19>  H        1.2421820000    -1.1879610000     0.6660380000
| 20>  H        1.0247200000    -0.8498020000    -1.0526930000
| 21>  H        0.6697830000     0.3978910000     0.1484130000
| 22>  H        3.0960490000     0.4352260000     0.8013790000
| 23>  H        3.3735180000    -1.6287840000    -1.2221530000
| 24>  H        3.9107960000    -1.6084290000     0.3148130000
| 25>  H        1.5812790000     0.6963290000    -2.6985390000
| 26>  H        3.1799470000    -0.0404450000    -2.9336800000
| 27>  H        2.9469660000     1.6746230000    -3.2554770000
| 28>  H        1.2648970000     2.3957260000    -0.7992220000
| 29>  H        2.6759730000     3.3134460000    -1.3398290000
| 30>  H        2.6076740000     2.7158620000     0.3207470000
| 31>  H        4.8579200000     0.6137130000    -1.0488160000
| 32> *
| 33>
| 34>                          ****END OF INPUT****
 Total Charge           Charge          ....    0
 Multiplicity           Mult            ....    1
 Number of Electrons    NEL             ....   58
 Basis Dimension        Dim             ....  163

MULLIKEN ATOMIC CHARGES
-----------------------
   0 C :    0.027112
   1 C :   -0.037640
   2 N :   -0.186619
   3 C :   -0.106512
   4 C :    0.056661
   5 C :    0.070097
   6 O :   -0.259076
   7 H :    0.010765
   8 H :    0.014392
   9 H :    0.020564
  10 H :   -0.003045
  11 H :    0.092271
  12 H :    0.100649
  13 H :    0.007273
  14 H :   -0.006208
  15 H :    0.021829
  16 H :    0.014821
  17 H :    0.019468
  18 H :    0.009666
  19 H :    0.133533
Sum of atomic charges:   -0.0000000

LOEWDIN ATOMIC CHARGES
----------------------
   0 C :   -0.075793
   1 C :   -0.010766
   2 N :   -0.073864
   3 C :    0.010023
   4 C :   -0.071837
   5 C :   -0.059447
   6 O :   -0.115099
   7 H :    0.024105
   8 H :    0.022717
   9 H :    0.029536
  10 H :    0.021704
  11 H :    0.050840
  12 H :    0.057909
  13 H :    0.020785
  14 H :    0.019152
  15 H :    0.031180
  16 H :    0.023571
  17 H :    0.031474
  18 H :    0.025677
  19 H :    0.038134

  Mayer bond orders larger than 0.1
B(  0-C ,  1-C ) :   1.0734 B(  0-C ,  7-H ) :   0.9504 B(  0-C ,  8-H ) :   0.9476
B(  0-C ,  9-H ) :   0.9486 B(  1-C ,  2-N ) :   1.0829 B(  1-C ,  3-C ) :   0.9826
B(  1-C , 10-H ) :   0.9064 B(  2-N , 11-H ) :   0.9639 B(  2-N , 12-H ) :   0.9638
B(  2-N , 19-H ) :   0.1174 B(  3-C ,  4-C ) :   1.0320 B(  3-C ,  5-C ) :   1.0585
B(  3-C ,  6-O ) :   1.0729 B(  4-C , 13-H ) :   0.9450 B(  4-C , 14-H ) :   0.9448
B(  4-C , 15-H ) :   0.9513 B(  5-C , 16-H ) :   0.9526 B(  5-C , 17-H ) :   0.9468
B(  5-C , 18-H ) :   0.9457 B(  6-O , 19-H ) :   0.9430

FINAL SINGLE POINT ENERGY      -327.666613254708

DIPOLE MOMENT
-------------
                                X             Y             Z
Electronic contribution:      4.75388       0.43409       0.49974
Nuclear contribution   :     -5.34322      -1.37364      -0.23201
                        -----------------------------------------
Total Dipole Moment    :     -0.58934      -0.93954       0.26772
                        -----------------------------------------
Magnitude (a.u.)       :      1.14094
Magnitude (Debye)      :      2.90004

                             ****ORCA TERMINATED NORMALLY****
TOTAL RUN TIME: 0 days 0 hours 0 minutes 9 seconds 15 msec
