                         Program Version 3.0.3 - RELEASE   -
|  1> ! RI PBE def2-SVP def2-SVP/J NBO PAL2
|  2> % maxcore 2000
|  3> % output
|  4>     # printlevel mini
|  5>     print[ P_Basis ] 0
|  6>     print[ P_SCFInfo ] 1
|  7>     print[ P_SCFIterInfo ] 1
|  8>     print[ P_OrbEn ] 0
|  9>     print[ P_Cartesian ] 0
| 10> end
| 11> *xyz 0 1
| 12>  C        0.8542410000    -0.1267520000    -0.4849810000
| 13>  C        2.2106540000     0.0099590000     0.2110530000
| 14>  N        3.2563210000    -0.8654110000    -0.3108810000
| 15>  C        2.6733940000     1.3954090000     0.1570070000
| 16>  C        3.0326320000     2.5402200000     0.0691400000
| 17>  C        3.5289460000     3.9098540000     0.0104930000
| 18>  O        4.9027120000     3.9926010000    -0.3073230000
| 19>  H        0.5006220000    -1.1584890000    -0.4103630000
| 20>  H        0.9418070000     0.1362800000    -1.5417190000
| 21>  H        0.1066500000     0.5270280000    -0.0301490000
| 22>  H        2.0787450000    -0.2544960000     1.2678780000
| 23>  H        3.4709510000    -0.6097030000    -1.2680780000
| 24>  H        2.9229220000    -1.8224580000    -0.3222540000
| 25>  H        3.3125120000     4.4083680000     0.9660110000
| 26>  H        3.0025620000     4.4678860000    -0.7682690000
| 27>  H        5.3700290000     3.3574120000     0.2423460000
| 28> *
| 29>
| 30>                          ****END OF INPUT****
 Total Charge           Charge          ....    0
 Multiplicity           Mult            ....    1
 Number of Electrons    NEL             ....   54
 Basis Dimension        Dim             ....  143

MULLIKEN ATOMIC CHARGES
-----------------------
   0 C :    0.017393
   1 C :    0.001762
   2 N :   -0.176484
   3 C :   -0.069638
   4 C :   -0.227857
   5 C :    0.262207
   6 O :   -0.281492
   7 H :    0.015727
   8 H :    0.021476
   9 H :    0.025306
  10 H :    0.019380
  11 H :    0.094279
  12 H :    0.086985
  13 H :    0.022770
  14 H :    0.030138
  15 H :    0.158049
Sum of atomic charges:   -0.0000000

LOEWDIN ATOMIC CHARGES
----------------------
   0 C :   -0.067534
   1 C :   -0.010578
   2 N :   -0.089222
   3 C :   -0.044003
   4 C :   -0.087760
   5 C :    0.050863
   6 O :   -0.115298
   7 H :    0.022796
   8 H :    0.026562
   9 H :    0.031319
  10 H :    0.040835
  11 H :    0.053393
  12 H :    0.051483
  13 H :    0.025190
  14 H :    0.040513
  15 H :    0.071441

  Mayer bond orders larger than 0.1
B(  0-C ,  1-C ) :   1.0717 B(  0-C ,  7-H ) :   0.9556 B(  0-C ,  8-H ) :   0.9545
B(  0-C ,  9-H ) :   0.9474 B(  1-C ,  2-N ) :   1.0931 B(  1-C ,  3-C ) :   1.0044
B(  1-C , 10-H ) :   0.8657 B(  2-N , 11-H ) :   0.9645 B(  2-N , 12-H ) :   0.9647
B(  3-C ,  4-C ) :   2.6989 B(  4-C ,  5-C ) :   1.0182 B(  5-C ,  6-O ) :   1.0739
B(  5-C , 13-H ) :   0.9212 B(  5-C , 14-H ) :   0.8991 B(  6-O , 15-H ) :   0.9831

FINAL SINGLE POINT ENERGY      -325.187977145095

DIPOLE MOMENT
-------------
                                X             Y             Z
Electronic contribution:      4.04384       4.00170       0.85580
Nuclear contribution   :     -4.61751      -4.57707      -0.76529
                        -----------------------------------------
Total Dipole Moment    :     -0.57367      -0.57537       0.09051
                        -----------------------------------------
Magnitude (a.u.)       :      0.81752
Magnitude (Debye)      :      2.07796

                             ****ORCA TERMINATED NORMALLY****
TOTAL RUN TIME: 0 days 0 hours 0 minutes 6 seconds 520 msec
