                         Program Version 3.0.3 - RELEASE   -
|  1> ! RI PBE def2-SVP def2-SVP/J NBO PAL2
|  2> % maxcore 2000
|  3> % output
|  4>     # printlevel mini
|  5>     print[ P_Basis ] 0
|  6>     print[ P_SCFInfo ] 1
|  7>     print[ P_SCFIterInfo ] 1
|  8>     print[ P_OrbEn ] 0
|  9>     print[ P_Cartesian ] 0
| 10> end
| 11> *xyz 0 1
| 12>  C        1.1167450000    -0.1137840000    -0.0647830000
| 13>  C        2.6391220000    -0.1303530000    -0.0940190000
| 14>  N        3.1911130000    -0.1710070000    -1.4531360000
| 15>  C        3.2204760000     1.0649430000     0.6539800000
| 16>  C        4.7432260000     1.0800690000     0.8083870000
| 17>  C        5.2798850000    -0.1073690000     1.5950180000
| 18>  O        5.3945210000     1.1990670000    -0.4381020000
| 19>  H        0.7051790000    -0.9684840000    -0.6087700000
| 20>  H        0.7324350000     0.7995240000    -0.5305320000
| 21>  H        0.7360920000    -0.1518780000     0.9593340000
| 22>  H        2.9794180000    -1.0469030000     0.4002010000
| 23>  H        2.8200510000     0.6014520000    -1.9978840000
| 24>  H        2.9141190000    -1.0228080000    -1.9263530000
| 25>  H        2.7634480000     1.1087750000     1.6481350000
| 26>  H        2.9225360000     1.9837870000     0.1328800000
| 27>  H        4.9976390000     1.9910280000     1.3633010000
| 28>  H        5.1049270000    -1.0473440000     1.0653950000
| 29>  H        4.8175220000    -0.1765810000     2.5843020000
| 30>  H        6.3579650000     0.0001970000     1.7252990000
| 31>  H        4.9331820000     0.5840590000    -1.0355460000
| 32> *
| 33>
| 34>                          ****END OF INPUT****
 Total Charge           Charge          ....    0
 Multiplicity           Mult            ....    1
 Number of Electrons    NEL             ....   58
 Basis Dimension        Dim             ....  163

MULLIKEN ATOMIC CHARGES
-----------------------
   0 C :    0.046816
   1 C :   -0.076652
   2 N :   -0.191966
   3 C :    0.006938
   4 C :    0.106675
   5 C :    0.012574
   6 O :   -0.296632
   7 H :    0.008168
   8 H :    0.009057
   9 H :    0.015837
  10 H :    0.009888
  11 H :    0.099446
  12 H :    0.096201
  13 H :    0.001878
  14 H :    0.002137
  15 H :   -0.010940
  16 H :    0.011278
  17 H :   -0.001235
  18 H :    0.024578
  19 H :    0.125955
Sum of atomic charges:    0.0000000

LOEWDIN ATOMIC CHARGES
----------------------
   0 C :   -0.072842
   1 C :   -0.004623
   2 N :   -0.059505
   3 C :   -0.056297
   4 C :    0.043745
   5 C :   -0.080634
   6 O :   -0.134007
   7 H :    0.021065
   8 H :    0.022447
   9 H :    0.028473
  10 H :    0.021804
  11 H :    0.055263
  12 H :    0.055664
  13 H :    0.027859
  14 H :    0.022595
  15 H :    0.016495
  16 H :    0.019884
  17 H :    0.021249
  18 H :    0.030034
  19 H :    0.021329

  Mayer bond orders larger than 0.1
B(  0-C ,  1-C ) :   1.0853 B(  0-C ,  7-H ) :   0.9562 B(  0-C ,  8-H ) :   0.9542
B(  0-C ,  9-H ) :   0.9492 B(  1-C ,  2-N ) :   1.0374 B(  1-C ,  3-C ) :   1.0564
B(  1-C , 10-H ) :   0.9122 B(  2-N , 11-H ) :   0.9606 B(  2-N , 12-H ) :   0.9637
B(  2-N , 19-H ) :   0.1592 B(  3-C ,  4-C ) :   1.0574 B(  3-C , 13-H ) :   0.9190
B(  3-C , 14-H ) :   0.9169 B(  4-C ,  5-C ) :   1.0711 B(  4-C ,  6-O ) :   1.0640
B(  4-C , 15-H ) :   0.9109 B(  5-C , 16-H ) :   0.9509 B(  5-C , 17-H ) :   0.9460
B(  5-C , 18-H ) :   0.9536 B(  6-O , 19-H ) :   0.9366

FINAL SINGLE POINT ENERGY      -327.666148523161

DIPOLE MOMENT
-------------
                                X             Y             Z
Electronic contribution:      3.40068       1.82204      -2.33161
Nuclear contribution   :     -4.56217      -2.34841       2.19803
                        -----------------------------------------
Total Dipole Moment    :     -1.16150      -0.52638      -0.13358
                        -----------------------------------------
Magnitude (a.u.)       :      1.28218
Magnitude (Debye)      :      3.25905

                             ****ORCA TERMINATED NORMALLY****
TOTAL RUN TIME: 0 days 0 hours 0 minutes 7 seconds 804 msec
