                         Program Version 3.0.3 - RELEASE   -
|  1> ! RI PBE def2-SVP def2-SVP/J NBO PAL2
|  2> % maxcore 2000
|  3> % output
|  4>     # printlevel mini
|  5>     print[ P_Basis ] 0
|  6>     print[ P_SCFInfo ] 1
|  7>     print[ P_SCFIterInfo ] 1
|  8>     print[ P_OrbEn ] 0
|  9>     print[ P_Cartesian ] 0
| 10> end
| 11> *xyz 0 1
| 12>  C        2.0035980000    -1.0737460000    -0.4907660000
| 13>  C        2.2720120000     0.2955530000     0.1083810000
| 14>  N        2.8298300000     0.2248800000     1.4475860000
| 15>  C        2.0208970000     0.0583480000     2.5600370000
| 16>  C        0.6956150000    -0.0577190000     2.5767100000
| 17>  C        4.1858630000     0.3112690000     1.6032390000
| 18>  O        4.9779070000     0.4409610000     0.7027730000
| 19>  H        1.5578750000    -0.9671510000    -1.4820770000
| 20>  H        1.3204710000    -1.6568030000     0.1294820000
| 21>  H        2.9358310000    -1.6312460000    -0.5964580000
| 22>  H        1.3586380000     0.8930420000     0.1584330000
| 23>  H        2.9976390000     0.8364100000    -0.4992880000
| 24>  H        2.5811290000     0.0285770000     3.4896420000
| 25>  H        0.0856390000    -0.0474200000     1.6834170000
| 26>  H        0.1890420000    -0.1711210000     3.5246620000
| 27>  H        4.4887950000     0.2507650000     2.6639260000
| 28> *
| 29>
| 30>                          ****END OF INPUT****
 Total Charge           Charge          ....    0
 Multiplicity           Mult            ....    1
 Number of Electrons    NEL             ....   54
 Basis Dimension        Dim             ....  143

MULLIKEN ATOMIC CHARGES
-----------------------
   0 C :   -0.030925
   1 C :    0.050152
   2 N :   -0.186875
   3 C :    0.055876
   4 C :   -0.075848
   5 C :    0.161780
   6 O :   -0.212120
   7 H :    0.032941
   8 H :    0.033700
   9 H :    0.041271
  10 H :    0.030405
  11 H :    0.041561
  12 H :    0.012444
  13 H :    0.027819
  14 H :    0.027206
  15 H :   -0.009387
Sum of atomic charges:   -0.0000000

LOEWDIN ATOMIC CHARGES
----------------------
   0 C :   -0.069298
   1 C :    0.029291
   2 N :    0.011390
   3 C :    0.011950
   4 C :   -0.118154
   5 C :    0.062413
   6 O :   -0.160977
   7 H :    0.035323
   8 H :    0.028623
   9 H :    0.034498
  10 H :    0.026866
  11 H :    0.033348
  12 H :    0.028083
  13 H :    0.023310
  14 H :    0.032445
  15 H :   -0.009111

  Mayer bond orders larger than 0.1
B(  0-C ,  1-C ) :   1.1317 B(  0-C ,  7-H ) :   0.9589 B(  0-C ,  8-H ) :   0.9633
B(  0-C ,  9-H ) :   0.9612 B(  1-C ,  2-N ) :   0.9679 B(  1-C , 10-H ) :   0.9323
B(  1-C , 11-H ) :   0.9242 B(  2-N ,  3-C ) :   1.0922 B(  2-N ,  5-C ) :   1.1246
B(  3-C ,  4-C ) :   1.8974 B(  3-C , 12-H ) :   0.9442 B(  4-C , 13-H ) :   0.9454
B(  4-C , 14-H ) :   0.9333 B(  5-C ,  6-O ) :   2.0263 B(  5-C , 15-H ) :   0.9237

FINAL SINGLE POINT ENERGY      -325.270007701917

DIPOLE MOMENT
-------------
                                X             Y             Z
Electronic contribution:      5.76268       2.33972       1.77987
Nuclear contribution   :     -6.63278      -2.48576      -1.46227
                        -----------------------------------------
Total Dipole Moment    :     -0.87010      -0.14604       0.31760
                        -----------------------------------------
Magnitude (a.u.)       :      0.93769
Magnitude (Debye)      :      2.38343

                             ****ORCA TERMINATED NORMALLY****
TOTAL RUN TIME: 0 days 0 hours 0 minutes 6 seconds 940 msec
