                         Program Version 3.0.3 - RELEASE   -
|  1> ! RI PBE def2-SVP def2-SVP/J NBO PAL2
|  2> % maxcore 2000
|  3> % output
|  4>     # printlevel mini
|  5>     print[ P_Basis ] 0
|  6>     print[ P_SCFInfo ] 1
|  7>     print[ P_SCFIterInfo ] 1
|  8>     print[ P_OrbEn ] 0
|  9>     print[ P_Cartesian ] 0
| 10> end
| 11> *xyz 0 1
| 12>  C        0.6367270000    -0.4534510000    -0.0346500000
| 13>  C        1.8250760000    -0.7976120000     0.8422800000
| 14>  N        2.8087180000     0.2700280000     0.9423590000
| 15>  C        2.3151580000     1.3962840000     1.7048090000
| 16>  C        4.0842650000    -0.2124270000     1.4517310000
| 17>  C        4.8760640000    -0.8976660000     0.3512440000
| 18>  O        4.9783160000    -0.0608950000    -0.7724760000
| 19>  H       -0.0160180000    -1.3234100000    -0.1357050000
| 20>  H        0.9677560000    -0.1569170000    -1.0324400000
| 21>  H        0.0341030000     0.3571790000     0.3791920000
| 22>  H        2.3261620000    -1.6725250000     0.4217230000
| 23>  H        1.4751970000    -1.0924800000     1.8492050000
| 24>  H        1.4177850000     1.8080830000     1.2415910000
| 25>  H        3.0688120000     2.1853570000     1.7256220000
| 26>  H        2.0679010000     1.1275580000     2.7471060000
| 27>  H        3.9627720000    -0.8844650000     2.3191300000
| 28>  H        4.6567280000     0.6559080000     1.7889750000
| 29>  H        4.4168640000    -1.8604690000     0.0812470000
| 30>  H        5.8866000000    -1.1141230000     0.7084960000
| 31>  H        4.1268230000     0.3985560000    -0.8102290000
| 32> *
| 33>
| 34>                          ****END OF INPUT****
 Total Charge           Charge          ....    0
 Multiplicity           Mult            ....    1
 Number of Electrons    NEL             ....   58
 Basis Dimension        Dim             ....  163

MULLIKEN ATOMIC CHARGES
-----------------------
   0 C :   -0.015873
   1 C :    0.069876
   2 N :   -0.367205
   3 C :    0.105381
   4 C :    0.040204
   5 C :    0.204741
   6 O :   -0.291567
   7 H :    0.026522
   8 H :    0.025988
   9 H :    0.024484
  10 H :    0.013953
  11 H :   -0.013831
  12 H :    0.019068
  13 H :    0.029780
  14 H :   -0.007026
  15 H :   -0.008843
  16 H :    0.012513
  17 H :   -0.010542
  18 H :    0.004990
  19 H :    0.137386
Sum of atomic charges:   -0.0000000

LOEWDIN ATOMIC CHARGES
----------------------
   0 C :   -0.071595
   1 C :    0.013727
   2 N :   -0.108831
   3 C :    0.003852
   4 C :   -0.003422
   5 C :    0.048329
   6 O :   -0.130145
   7 H :    0.033192
   8 H :    0.028378
   9 H :    0.023463
  10 H :    0.022121
  11 H :    0.002003
  12 H :    0.020869
  13 H :    0.024951
  14 H :    0.002436
  15 H :    0.006431
  16 H :    0.023609
  17 H :   -0.002329
  18 H :    0.019685
  19 H :    0.043277

  Mayer bond orders larger than 0.1
B(  0-C ,  1-C ) :   1.1210 B(  0-C ,  7-H ) :   0.9551 B(  0-C ,  8-H ) :   0.9612
B(  0-C ,  9-H ) :   0.9580 B(  1-C ,  2-N ) :   0.9954 B(  1-C , 10-H ) :   0.9370
B(  1-C , 11-H ) :   0.9146 B(  2-N ,  3-C ) :   1.0275 B(  2-N ,  4-C ) :   1.0089
B(  3-C , 12-H ) :   0.9642 B(  3-C , 13-H ) :   0.9653 B(  3-C , 14-H ) :   0.9401
B(  4-C ,  5-C ) :   1.0904 B(  4-C , 15-H ) :   0.9056 B(  4-C , 16-H ) :   0.9292
B(  5-C ,  6-O ) :   1.0855 B(  5-C , 17-H ) :   0.9096 B(  5-C , 18-H ) :   0.9312
B(  6-O , 19-H ) :   0.9571

FINAL SINGLE POINT ENERGY      -327.641489484094

DIPOLE MOMENT
-------------
                                X             Y             Z
Electronic contribution:      4.69896       0.22524      -2.35024
Nuclear contribution   :     -5.38010      -0.24654       2.99570
                        -----------------------------------------
Total Dipole Moment    :     -0.68114      -0.02131       0.64546
                        -----------------------------------------
Magnitude (a.u.)       :      0.93863
Magnitude (Debye)      :      2.38582

                             ****ORCA TERMINATED NORMALLY****
TOTAL RUN TIME: 0 days 0 hours 0 minutes 8 seconds 874 msec
