                         Program Version 3.0.3 - RELEASE   -
|  1> ! RI PBE def2-SVP def2-SVP/J NBO PAL2
|  2> % maxcore 2000
|  3> % output
|  4>     # printlevel mini
|  5>     print[ P_Basis ] 0
|  6>     print[ P_SCFInfo ] 1
|  7>     print[ P_SCFIterInfo ] 1
|  8>     print[ P_OrbEn ] 0
|  9>     print[ P_Cartesian ] 0
| 10> end
| 11> *xyz 0 1
| 12>  C        2.3744590000     1.8248760000    -0.3877230000
| 13>  C        2.6071050000     0.3528210000    -0.0924860000
| 14>  N        2.9599570000    -0.4155640000    -1.2728340000
| 15>  C        1.8666360000    -0.9439980000    -2.0457600000
| 16>  C        4.2778020000    -0.5470730000    -1.5876070000
| 17>  C        4.6346810000    -1.3631830000    -2.8088480000
| 18>  O        5.1479190000    -0.0292830000    -0.9085220000
| 19>  H        2.0789520000     2.3538680000     0.5214390000
| 20>  H        1.5836590000     1.9682710000    -1.1287510000
| 21>  H        3.2910600000     2.2806380000    -0.7654040000
| 22>  H        1.7087570000    -0.0995440000     0.3396790000
| 23>  H        3.4205280000     0.2440630000     0.6249590000
| 24>  H        1.3150520000    -1.7042250000    -1.4802450000
| 25>  H        2.2201380000    -1.3959360000    -2.9684270000
| 26>  H        1.1627280000    -0.1491000000    -2.3137210000
| 27>  H        4.2648290000    -0.8958590000    -3.7249360000
| 28>  H        4.2290790000    -2.3761420000    -2.7602820000
| 29>  H        5.7196780000    -1.4142520000    -2.8558310000
| 30> *
| 31>
| 32>                          ****END OF INPUT****
 Total Charge           Charge          ....    0
 Multiplicity           Mult            ....    1
 Number of Electrons    NEL             ....   56
 Basis Dimension        Dim             ....  153

MULLIKEN ATOMIC CHARGES
-----------------------
   0 C :   -0.027727
   1 C :    0.077927
   2 N :   -0.264117
   3 C :    0.096817
   4 C :    0.026055
   5 C :   -0.014458
   6 O :   -0.233627
   7 H :    0.025002
   8 H :    0.016536
   9 H :    0.042112
  10 H :    0.003641
  11 H :    0.037225
  12 H :    0.029496
  13 H :    0.030152
  14 H :    0.028097
  15 H :    0.043419
  16 H :    0.042368
  17 H :    0.041080
Sum of atomic charges:    0.0000000

LOEWDIN ATOMIC CHARGES
----------------------
   0 C :   -0.071922
   1 C :    0.026118
   2 N :   -0.033553
   3 C :    0.016778
   4 C :    0.026145
   5 C :   -0.092709
   6 O :   -0.202141
   7 H :    0.031369
   8 H :    0.021297
   9 H :    0.033760
  10 H :    0.018448
  11 H :    0.030771
  12 H :    0.022021
  13 H :    0.030058
  14 H :    0.022800
  15 H :    0.039399
  16 H :    0.037521
  17 H :    0.043839

  Mayer bond orders larger than 0.1
B(  0-C ,  1-C ) :   1.1329 B(  0-C ,  7-H ) :   0.9581 B(  0-C ,  8-H ) :   0.9612
B(  0-C ,  9-H ) :   0.9624 B(  1-C ,  2-N ) :   0.9748 B(  1-C , 10-H ) :   0.9362
B(  1-C , 11-H ) :   0.9240 B(  2-N ,  3-C ) :   1.0104 B(  2-N ,  4-C ) :   1.1678
B(  3-C , 12-H ) :   0.9589 B(  3-C , 13-H ) :   0.9550 B(  3-C , 14-H ) :   0.9558
B(  4-C ,  5-C ) :   1.0403 B(  4-C ,  6-O ) :   2.0245 B(  5-C , 15-H ) :   0.9411
B(  5-C , 16-H ) :   0.9410 B(  5-C , 17-H ) :   0.9433

FINAL SINGLE POINT ENERGY      -326.486729455845

DIPOLE MOMENT
-------------
                                X             Y             Z
Electronic contribution:      4.82732      -0.85642       1.47465
Nuclear contribution   :     -6.03303       0.47862      -2.00147
                        -----------------------------------------
Total Dipole Moment    :     -1.20571      -0.37780      -0.52682
                        -----------------------------------------
Magnitude (a.u.)       :      1.36895
Magnitude (Debye)      :      3.47958

                             ****ORCA TERMINATED NORMALLY****
TOTAL RUN TIME: 0 days 0 hours 0 minutes 8 seconds 511 msec
