                         Program Version 3.0.3 - RELEASE   -
|  1> ! RI PBE def2-SVP def2-SVP/J NBO PAL2
|  2> % maxcore 2000
|  3> % output
|  4>     # printlevel mini
|  5>     print[ P_Basis ] 0
|  6>     print[ P_SCFInfo ] 1
|  7>     print[ P_SCFIterInfo ] 1
|  8>     print[ P_OrbEn ] 0
|  9>     print[ P_Cartesian ] 0
| 10> end
| 11> *xyz 0 1
| 12>  C        3.3239780000     1.9961160000    -0.3664980000
| 13>  C        2.5619520000     1.3078550000    -1.4812150000
| 14>  N        3.0157720000    -0.0463900000    -1.7510660000
| 15>  C        2.0726860000    -0.7615220000    -2.5831890000
| 16>  C        4.3411460000    -0.1088200000    -2.3144320000
| 17>  C        4.9378350000    -1.4874080000    -2.1821040000
| 18>  O        5.7477860000    -1.9503210000    -2.9352930000
| 19>  H        2.8585690000     2.9572370000    -0.1374760000
| 20>  H        4.3638220000     2.2006650000    -0.6310030000
| 21>  H        3.3151900000     1.3843010000     0.5379380000
| 22>  H        2.5890820000     1.9293170000    -2.3957970000
| 23>  H        1.5090740000     1.2347470000    -1.1931390000
| 24>  H        1.0967150000    -0.7941150000    -2.0950190000
| 25>  H        2.4063650000    -1.7915860000    -2.7331100000
| 26>  H        1.9475000000    -0.3018520000    -3.5795600000
| 27>  H        5.0097170000     0.5489600000    -1.7467670000
| 28>  H        4.3984060000     0.2062690000    -3.3708940000
| 29>  H        4.5826930000    -2.0487510000    -1.2899660000
| 30> *
| 31>
| 32>                          ****END OF INPUT****
 Total Charge           Charge          ....    0
 Multiplicity           Mult            ....    1
 Number of Electrons    NEL             ....   56
 Basis Dimension        Dim             ....  153

MULLIKEN ATOMIC CHARGES
-----------------------
   0 C :   -0.014329
   1 C :    0.066801
   2 N :   -0.354977
   3 C :    0.095900
   4 C :    0.143127
   5 C :    0.054405
   6 O :   -0.156471
   7 H :    0.022609
   8 H :    0.025244
   9 H :    0.030075
  10 H :   -0.009603
  11 H :    0.011218
  12 H :    0.026585
  13 H :    0.029911
  14 H :   -0.006106
  15 H :    0.040643
  16 H :   -0.002814
  17 H :   -0.002218
Sum of atomic charges:   -0.0000000

LOEWDIN ATOMIC CHARGES
----------------------
   0 C :   -0.071927
   1 C :    0.013645
   2 N :   -0.112006
   3 C :    0.005491
   4 C :   -0.021610
   5 C :    0.080410
   6 O :   -0.103069
   7 H :    0.033997
   8 H :    0.023218
   9 H :    0.029558
  10 H :    0.001092
  11 H :    0.024180
  12 H :    0.024268
  13 H :    0.024031
  14 H :    0.002119
  15 H :    0.045443
  16 H :    0.012085
  17 H :   -0.010924

  Mayer bond orders larger than 0.1
B(  0-C ,  1-C ) :   1.1279 B(  0-C ,  7-H ) :   0.9493 B(  0-C ,  8-H ) :   0.9545
B(  0-C ,  9-H ) :   0.9617 B(  1-C ,  2-N ) :   1.0148 B(  1-C , 10-H ) :   0.9184
B(  1-C , 11-H ) :   0.9376 B(  2-N ,  3-C ) :   1.0316 B(  2-N ,  4-C ) :   0.9988
B(  3-C , 12-H ) :   0.9662 B(  3-C , 13-H ) :   0.9633 B(  3-C , 14-H ) :   0.9365
B(  4-C ,  5-C ) :   0.9476 B(  4-C , 15-H ) :   0.9027 B(  4-C , 16-H ) :   0.8927
B(  5-C ,  6-O ) :   2.1839 B(  5-C , 17-H ) :   0.9173

FINAL SINGLE POINT ENERGY      -326.439699446449

DIPOLE MOMENT
-------------
                                X             Y             Z
Electronic contribution:      5.58835      -5.98290      -2.29645
Nuclear contribution   :     -6.32388       6.67959       2.65423
                        -----------------------------------------
Total Dipole Moment    :     -0.73553       0.69670       0.35778
                        -----------------------------------------
Magnitude (a.u.)       :      1.07443
Magnitude (Debye)      :      2.73098

                             ****ORCA TERMINATED NORMALLY****
TOTAL RUN TIME: 0 days 0 hours 0 minutes 8 seconds 289 msec
