                         Program Version 3.0.3 - RELEASE   -
|  1> ! RI PBE def2-SVP def2-SVP/J NBO PAL2
|  2> % maxcore 2000
|  3> % output
|  4>     # printlevel mini
|  5>     print[ P_Basis ] 0
|  6>     print[ P_SCFInfo ] 1
|  7>     print[ P_SCFIterInfo ] 1
|  8>     print[ P_OrbEn ] 0
|  9>     print[ P_Cartesian ] 0
| 10> end
| 11> *xyz 0 1
| 12>  C        2.0922700000    -0.7118990000     1.1758610000
| 13>  C        2.4534990000     0.0570220000    -0.0839790000
| 14>  N        3.0331630000    -0.7860520000    -1.1122350000
| 15>  C        2.1645310000    -1.4928250000    -2.0270790000
| 16>  C        1.5694030000    -0.6124020000    -3.1134560000
| 17>  C        4.3755080000    -0.9319560000    -1.1667490000
| 18>  O        5.1722050000    -0.3909030000    -0.4313730000
| 19>  H        1.6402160000    -0.0433020000     1.9121380000
| 20>  H        2.9862020000    -1.1534640000     1.6193940000
| 21>  H        1.3777150000    -1.5122650000     0.9681290000
| 22>  H        3.1880280000     0.8291650000     0.1494880000
| 23>  H        1.5711710000     0.5503340000    -0.5006180000
| 24>  H        1.3658800000    -1.9775210000    -1.4547380000
| 25>  H        2.7479880000    -2.2976900000    -2.4826810000
| 26>  H        0.9765920000     0.2029200000    -2.6932630000
| 27>  H        0.9128360000    -1.1999750000    -3.7595140000
| 28>  H        2.3563090000    -0.1742340000    -3.7308760000
| 29>  H        4.6882720000    -1.6173540000    -1.9782490000
| 30> *
| 31>
| 32>                          ****END OF INPUT****
 Total Charge           Charge          ....    0
 Multiplicity           Mult            ....    1
 Number of Electrons    NEL             ....   56
 Basis Dimension        Dim             ....  153

MULLIKEN ATOMIC CHARGES
-----------------------
   0 C :   -0.039724
   1 C :    0.079078
   2 N :   -0.248500
   3 C :    0.077604
   4 C :   -0.028411
   5 C :    0.149965
   6 O :   -0.240559
   7 H :    0.029765
   8 H :    0.043431
   9 H :    0.023661
  10 H :    0.035960
  11 H :    0.010957
  12 H :    0.015979
  13 H :    0.021530
  14 H :    0.031529
  15 H :    0.030264
  16 H :    0.030825
  17 H :   -0.023355
Sum of atomic charges:   -0.0000000

LOEWDIN ATOMIC CHARGES
----------------------
   0 C :   -0.072499
   1 C :    0.026990
   2 N :   -0.023184
   3 C :    0.026327
   4 C :   -0.074497
   5 C :    0.043721
   6 O :   -0.191635
   7 H :    0.032883
   8 H :    0.034684
   9 H :    0.023184
  10 H :    0.031497
  11 H :    0.020354
  12 H :    0.021744
  13 H :    0.026608
  14 H :    0.026800
  15 H :    0.033158
  16 H :    0.030351
  17 H :   -0.016485

  Mayer bond orders larger than 0.1
B(  0-C ,  1-C ) :   1.1302 B(  0-C ,  7-H ) :   0.9588 B(  0-C ,  8-H ) :   0.9615
B(  0-C ,  9-H ) :   0.9624 B(  1-C ,  2-N ) :   0.9699 B(  1-C , 10-H ) :   0.9249
B(  1-C , 11-H ) :   0.9362 B(  2-N ,  3-C ) :   1.0002 B(  2-N ,  5-C ) :   1.1938
B(  2-N ,  6-O ) :   0.1021 B(  3-C ,  4-C ) :   1.1183 B(  3-C , 12-H ) :   0.9323
B(  3-C , 13-H ) :   0.9322 B(  4-C , 14-H ) :   0.9619 B(  4-C , 15-H ) :   0.9571
B(  4-C , 16-H ) :   0.9605 B(  5-C ,  6-O ) :   1.9947 B(  5-C , 17-H ) :   0.9175

FINAL SINGLE POINT ENERGY      -326.484618292494

DIPOLE MOMENT
-------------
                                X             Y             Z
Electronic contribution:      7.02690       0.39069       0.77588
Nuclear contribution   :     -8.36269      -0.72147      -1.29106
                        -----------------------------------------
Total Dipole Moment    :     -1.33579      -0.33078      -0.51518
                        -----------------------------------------
Magnitude (a.u.)       :      1.46940
Magnitude (Debye)      :      3.73493

                             ****ORCA TERMINATED NORMALLY****
TOTAL RUN TIME: 0 days 0 hours 0 minutes 8 seconds 468 msec
