                         Program Version 3.0.3 - RELEASE   -
|  1> ! RI PBE def2-SVP def2-SVP/J NBO PAL2
|  2> % maxcore 2000
|  3> % output
|  4>     # printlevel mini
|  5>     print[ P_Basis ] 0
|  6>     print[ P_SCFInfo ] 1
|  7>     print[ P_SCFIterInfo ] 1
|  8>     print[ P_OrbEn ] 0
|  9>     print[ P_Cartesian ] 0
| 10> end
| 11> *xyz 0 1
| 12>  C        1.4856870000     0.0982710000     3.1368380000
| 13>  C        2.9591550000     0.1683730000     2.7919800000
| 14>  N        3.2564070000    -0.6831930000     1.6533260000
| 15>  C        4.6571330000    -0.8030170000     1.2504190000
| 16>  C        5.4382340000     0.4990970000     1.1451410000
| 17>  C        5.3381810000    -1.7947350000     2.1895640000
| 18>  O        4.5795360000    -2.9671650000     2.3123470000
| 19>  H        1.2576510000     0.7296470000     3.9981220000
| 20>  H        1.1890470000    -0.9265160000     3.3693360000
| 21>  H        0.8698390000     0.4450160000     2.3013290000
| 22>  H        3.5499070000    -0.1805170000     3.6445610000
| 23>  H        3.2446170000     1.2182040000     2.6241780000
| 24>  H        2.6855180000    -0.4129560000     0.8632640000
| 25>  H        4.6321600000    -1.2768020000     0.2626570000
| 26>  H        5.5596710000     0.9811150000     2.1183930000
| 27>  H        4.9409780000     1.2069710000     0.4770090000
| 28>  H        6.4375820000     0.3093590000     0.7452510000
| 29>  H        5.5011780000    -1.3239130000     3.1726960000
| 30>  H        6.3229810000    -2.0592670000     1.7934460000
| 31>  H        3.6623380000    -2.6633610000     2.2207230000
| 32> *
| 33>
| 34>                          ****END OF INPUT****
 Total Charge           Charge          ....    0
 Multiplicity           Mult            ....    1
 Number of Electrons    NEL             ....   58
 Basis Dimension        Dim             ....  163

MULLIKEN ATOMIC CHARGES
-----------------------
   0 C :   -0.024419
   1 C :    0.051361
   2 N :   -0.256249
   3 C :   -0.118336
   4 C :    0.023106
   5 C :    0.229221
   6 O :   -0.284225
   7 H :    0.024545
   8 H :    0.026787
   9 H :    0.018184
  10 H :    0.022280
  11 H :    0.002857
  12 H :    0.104266
  13 H :    0.006215
  14 H :    0.024742
  15 H :    0.016131
  16 H :    0.019875
  17 H :   -0.017762
  18 H :   -0.001736
  19 H :    0.133160
Sum of atomic charges:    0.0000000

LOEWDIN ATOMIC CHARGES
----------------------
   0 C :   -0.069802
   1 C :    0.006434
   2 N :   -0.081394
   3 C :   -0.023100
   4 C :   -0.073251
   5 C :    0.049346
   6 O :   -0.130758
   7 H :    0.031020
   8 H :    0.027549
   9 H :    0.023819
  10 H :    0.023234
  11 H :    0.004066
  12 H :    0.055901
  13 H :    0.023446
  14 H :    0.025260
  15 H :    0.025341
  16 H :    0.031689
  17 H :   -0.004146
  18 H :    0.016148
  19 H :    0.039197

  Mayer bond orders larger than 0.1
B(  0-C ,  1-C ) :   1.1226 B(  0-C ,  7-H ) :   0.9586 B(  0-C ,  8-H ) :   0.9634
B(  0-C ,  9-H ) :   0.9637 B(  1-C ,  2-N ) :   1.0094 B(  1-C , 10-H ) :   0.9375
B(  1-C , 11-H ) :   0.9230 B(  2-N ,  3-C ) :   1.0571 B(  2-N , 12-H ) :   0.9389
B(  2-N , 19-H ) :   0.1144 B(  3-C ,  4-C ) :   1.0655 B(  3-C ,  5-C ) :   1.0440
B(  3-C , 13-H ) :   0.9137 B(  4-C , 14-H ) :   0.9517 B(  4-C , 15-H ) :   0.9521
B(  4-C , 16-H ) :   0.9486 B(  5-C ,  6-O ) :   1.1041 B(  5-C , 17-H ) :   0.9090
B(  5-C , 18-H ) :   0.9332 B(  6-O , 19-H ) :   0.9496

FINAL SINGLE POINT ENERGY      -327.651729432168

DIPOLE MOMENT
-------------
                                X             Y             Z
Electronic contribution:      1.11448      -5.03785      -0.86267
Nuclear contribution   :     -1.44475       6.07598       0.55768
                        -----------------------------------------
Total Dipole Moment    :     -0.33027       1.03813      -0.30499
                        -----------------------------------------
Magnitude (a.u.)       :      1.13128
Magnitude (Debye)      :      2.87549

                             ****ORCA TERMINATED NORMALLY****
TOTAL RUN TIME: 0 days 0 hours 0 minutes 8 seconds 777 msec
