                         Program Version 3.0.3 - RELEASE   -
|  1> ! RI PBE def2-SVP def2-SVP/J NBO PAL2
|  2> % maxcore 2000
|  3> % output
|  4>     # printlevel mini
|  5>     print[ P_Basis ] 0
|  6>     print[ P_SCFInfo ] 1
|  7>     print[ P_SCFIterInfo ] 1
|  8>     print[ P_OrbEn ] 0
|  9>     print[ P_Cartesian ] 0
| 10> end
| 11> *xyz 0 1
| 12>  C        0.9965860000     0.4183790000    -0.1608330000
| 13>  C        2.4622130000     0.1617890000     0.1169010000
| 14>  N        3.1307120000    -0.3308550000    -1.0776160000
| 15>  C        4.5443890000    -0.5531550000    -0.9176600000
| 16>  C        5.1028680000    -1.4155430000    -2.0491330000
| 17>  C        5.3775660000     0.7129590000    -0.8517210000
| 18>  O        4.9709150000     1.8036410000    -1.1444940000
| 19>  H        0.4813470000     0.7447430000     0.7448870000
| 20>  H        0.5102160000    -0.4857810000    -0.5328060000
| 21>  H        0.8729320000     1.2039140000    -0.9119420000
| 22>  H        2.5600970000    -0.6079200000     0.8910800000
| 23>  H        2.9253770000     1.0775430000     0.5154590000
| 24>  H        2.9896810000     0.3344510000    -1.8314600000
| 25>  H        4.7069300000    -1.0874940000     0.0285930000
| 26>  H        4.9285640000    -0.9332290000    -3.0143800000
| 27>  H        4.5982520000    -2.3815520000    -2.0531270000
| 28>  H        6.1779200000    -1.5795060000    -1.9407960000
| 29>  H        6.4385230000     0.5676160000    -0.5452420000
| 30> *
| 31>
| 32>                          ****END OF INPUT****
 Total Charge           Charge          ....    0
 Multiplicity           Mult            ....    1
 Number of Electrons    NEL             ....   56
 Basis Dimension        Dim             ....  153

MULLIKEN ATOMIC CHARGES
-----------------------
   0 C :   -0.037406
   1 C :    0.061184
   2 N :   -0.225010
   3 C :   -0.033048
   4 C :    0.030368
   5 C :    0.100856
   6 O :   -0.161767
   7 H :    0.021768
   8 H :    0.028008
   9 H :    0.027417
  10 H :    0.009721
  11 H :   -0.001832
  12 H :    0.097007
  13 H :    0.016478
  14 H :    0.025086
  15 H :    0.038510
  16 H :    0.023545
  17 H :   -0.020886
Sum of atomic charges:    0.0000000

LOEWDIN ATOMIC CHARGES
----------------------
   0 C :   -0.072388
   1 C :    0.008383
   2 N :   -0.086682
   3 C :   -0.042666
   4 C :   -0.051754
   5 C :    0.084450
   6 O :   -0.108149
   7 H :    0.030445
   8 H :    0.027220
   9 H :    0.026515
  10 H :    0.018486
  11 H :    0.001103
  12 H :    0.051519
  13 H :    0.034371
  14 H :    0.029527
  15 H :    0.035328
  16 H :    0.029299
  17 H :   -0.015008

  Mayer bond orders larger than 0.1
B(  0-C ,  1-C ) :   1.1244 B(  0-C ,  7-H ) :   0.9563 B(  0-C ,  8-H ) :   0.9617
B(  0-C ,  9-H ) :   0.9678 B(  1-C ,  2-N ) :   1.0250 B(  1-C , 10-H ) :   0.9371
B(  1-C , 11-H ) :   0.9206 B(  2-N ,  3-C ) :   1.0816 B(  2-N , 12-H ) :   0.9333
B(  3-C ,  4-C ) :   1.0646 B(  3-C ,  5-C ) :   0.9025 B(  3-C , 13-H ) :   0.8882
B(  4-C , 14-H ) :   0.9583 B(  4-C , 15-H ) :   0.9557 B(  4-C , 16-H ) :   0.9537
B(  5-C ,  6-O ) :   2.1762 B(  5-C , 17-H ) :   0.9096

FINAL SINGLE POINT ENERGY      -326.452015149770

DIPOLE MOMENT
-------------
                                X             Y             Z
Electronic contribution:      4.35449       3.67402      -0.75138
Nuclear contribution   :     -4.15914      -4.25016       0.91093
                        -----------------------------------------
Total Dipole Moment    :      0.19534      -0.57614       0.15954
                        -----------------------------------------
Magnitude (a.u.)       :      0.62893
Magnitude (Debye)      :      1.59860

                             ****ORCA TERMINATED NORMALLY****
TOTAL RUN TIME: 0 days 0 hours 0 minutes 8 seconds 356 msec
