                         Program Version 3.0.3 - RELEASE   -
|  1> ! RI PBE def2-SVP def2-SVP/J NBO PAL2
|  2> % maxcore 2000
|  3> % output
|  4>     # printlevel mini
|  5>     print[ P_Basis ] 0
|  6>     print[ P_SCFInfo ] 1
|  7>     print[ P_SCFIterInfo ] 1
|  8>     print[ P_OrbEn ] 0
|  9>     print[ P_Cartesian ] 0
| 10> end
| 11> *xyz 0 1
| 12>  C        1.4466970000    -1.0283140000     1.0812810000
| 13>  C        2.7425670000    -0.3249710000     1.4252210000
| 14>  N        3.5206380000    -1.0983850000     2.3738390000
| 15>  C        4.8196210000    -0.5284670000     2.6712890000
| 16>  C        5.4357390000    -1.1875360000     3.9021810000
| 17>  C        4.7322190000    -0.7945200000     5.1865000000
| 18>  O        5.4639190000    -2.5989090000     3.7460340000
| 19>  H        0.8507730000    -0.4304370000     0.3886050000
| 20>  H        0.8554630000    -1.2093590000     1.9813950000
| 21>  H        1.6379290000    -1.9938230000     0.6031250000
| 22>  H        2.5252620000     0.6468900000     1.8817040000
| 23>  H        3.3047630000    -0.1127570000     0.4983940000
| 24>  H        3.6598130000    -2.0289930000     1.9963020000
| 25>  H        4.6919330000     0.5410750000     2.8694190000
| 26>  H        5.5204210000    -0.6156430000     1.8251400000
| 27>  H        6.4869910000    -0.8874680000     3.9577810000
| 28>  H        3.6665840000    -1.0310900000     5.1203670000
| 29>  H        4.8269860000     0.2781710000     5.3725380000
| 30>  H        5.1646380000    -1.3293240000     6.0342990000
| 31>  H        4.5749460000    -2.9181290000     3.9290840000
| 32> *
| 33>
| 34>                          ****END OF INPUT****
 Total Charge           Charge          ....    0
 Multiplicity           Mult            ....    1
 Number of Electrons    NEL             ....   58
 Basis Dimension        Dim             ....  163

MULLIKEN ATOMIC CHARGES
-----------------------
   0 C :   -0.049427
   1 C :    0.076471
   2 N :   -0.284776
   3 C :    0.104119
   4 C :    0.088652
   5 C :   -0.012238
   6 O :   -0.287928
   7 H :    0.026934
   8 H :    0.031354
   9 H :    0.020792
  10 H :    0.008954
  11 H :   -0.011234
  12 H :    0.088696
  13 H :   -0.000891
  14 H :   -0.002299
  15 H :   -0.002625
  16 H :    0.017480
  17 H :    0.014060
  18 H :    0.023893
  19 H :    0.150014
Sum of atomic charges:   -0.0000000

LOEWDIN ATOMIC CHARGES
----------------------
   0 C :   -0.075518
   1 C :    0.009588
   2 N :   -0.105386
   3 C :   -0.002223
   4 C :    0.037670
   5 C :   -0.081193
   6 O :   -0.115221
   7 H :    0.031155
   8 H :    0.028147
   9 H :    0.023828
  10 H :    0.019038
  11 H :   -0.000562
  12 H :    0.046004
  13 H :    0.021697
  14 H :    0.003463
  15 H :    0.020259
  16 H :    0.022600
  17 H :    0.029149
  18 H :    0.026672
  19 H :    0.060833

  Mayer bond orders larger than 0.1
B(  0-C ,  1-C ) :   1.1198 B(  0-C ,  7-H ) :   0.9581 B(  0-C ,  8-H ) :   0.9615
B(  0-C ,  9-H ) :   0.9646 B(  1-C ,  2-N ) :   1.0337 B(  1-C , 10-H ) :   0.9372
B(  1-C , 11-H ) :   0.9208 B(  2-N ,  3-C ) :   1.0197 B(  2-N , 12-H ) :   0.9278
B(  3-C ,  4-C ) :   1.0236 B(  3-C , 13-H ) :   0.9231 B(  3-C , 14-H ) :   0.9180
B(  4-C ,  5-C ) :   1.0947 B(  4-C ,  6-O ) :   1.0400 B(  4-C , 15-H ) :   0.9082
B(  5-C , 16-H ) :   0.9483 B(  5-C , 17-H ) :   0.9496 B(  5-C , 18-H ) :   0.9571
B(  6-O , 19-H ) :   0.9799

FINAL SINGLE POINT ENERGY      -327.651089040191

DIPOLE MOMENT
-------------
                                X             Y             Z
Electronic contribution:      3.86942      -2.85210       1.22335
Nuclear contribution   :     -4.25502       3.11542      -1.40521
                        -----------------------------------------
Total Dipole Moment    :     -0.38560       0.26332      -0.18186
                        -----------------------------------------
Magnitude (a.u.)       :      0.50109
Magnitude (Debye)      :      1.27368

                             ****ORCA TERMINATED NORMALLY****
TOTAL RUN TIME: 0 days 0 hours 0 minutes 8 seconds 578 msec
