                         Program Version 3.0.3 - RELEASE   -
|  1> ! RI PBE def2-SVP def2-SVP/J NBO PAL2
|  2> % maxcore 2000
|  3> % output
|  4>     # printlevel mini
|  5>     print[ P_Basis ] 0
|  6>     print[ P_SCFInfo ] 1
|  7>     print[ P_SCFIterInfo ] 1
|  8>     print[ P_OrbEn ] 0
|  9>     print[ P_Cartesian ] 0
| 10> end
| 11> *xyz 0 1
| 12>  C        1.2997250000     0.9668150000    -1.3138620000
| 13>  C        2.7097880000     0.9923690000    -0.7638340000
| 14>  N        3.0463740000    -0.2670690000    -0.1398000000
| 15>  C        4.3836730000    -0.3496060000     0.3603390000
| 16>  C        4.8698190000    -1.7775510000     0.4409120000
| 17>  C        6.0889350000    -2.0225560000     1.2840440000
| 18>  O        4.3078270000    -2.6639540000    -0.1541240000
| 19>  H        1.0400230000     1.9275430000    -1.7631670000
| 20>  H        0.5817770000     0.7472560000    -0.5212060000
| 21>  H        1.1942090000     0.1994120000    -2.0861670000
| 22>  H        2.7938980000     1.7832340000    -0.0090620000
| 23>  H        3.4185690000     1.2611520000    -1.5691440000
| 24>  H        2.8828000000    -1.0526400000    -0.7603740000
| 25>  H        4.4757180000     0.1185510000     1.3496240000
| 26>  H        5.1293860000     0.1694810000    -0.2785100000
| 27>  H        5.7778330000    -2.0957410000     2.3310860000
| 28>  H        6.7991850000    -1.1955930000     1.2145760000
| 29>  H        6.5632700000    -2.9591040000     0.9955700000
| 30> *
| 31>
| 32>                          ****END OF INPUT****
 Total Charge           Charge          ....    0
 Multiplicity           Mult            ....    1
 Number of Electrons    NEL             ....   56
 Basis Dimension        Dim             ....  153

MULLIKEN ATOMIC CHARGES
-----------------------
   0 C :   -0.040887
   1 C :    0.064874
   2 N :   -0.263113
   3 C :    0.139297
   4 C :   -0.080422
   5 C :    0.017038
   6 O :   -0.170655
   7 H :    0.019260
   8 H :    0.032371
   9 H :    0.026587
  10 H :    0.007948
  11 H :   -0.013249
  12 H :    0.100158
  13 H :    0.017285
  14 H :    0.005967
  15 H :    0.059400
  16 H :    0.037549
  17 H :    0.040591
Sum of atomic charges:   -0.0000000

LOEWDIN ATOMIC CHARGES
----------------------
   0 C :   -0.073055
   1 C :    0.009040
   2 N :   -0.099651
   3 C :   -0.017565
   4 C :    0.056003
   5 C :   -0.086341
   6 O :   -0.120931
   7 H :    0.029327
   8 H :    0.029614
   9 H :    0.025674
  10 H :    0.017483
  11 H :   -0.003391
  12 H :    0.047466
  13 H :    0.028186
  14 H :    0.021878
  15 H :    0.055440
  16 H :    0.039566
  17 H :    0.041255

  Mayer bond orders larger than 0.1
B(  0-C ,  1-C ) :   1.1212 B(  0-C ,  7-H ) :   0.9573 B(  0-C ,  8-H ) :   0.9631
B(  0-C ,  9-H ) :   0.9673 B(  1-C ,  2-N ) :   1.0400 B(  1-C , 10-H ) :   0.9374
B(  1-C , 11-H ) :   0.9182 B(  2-N ,  3-C ) :   1.0799 B(  2-N , 12-H ) :   0.9198
B(  3-C ,  4-C ) :   0.9460 B(  3-C , 13-H ) :   0.9198 B(  3-C , 14-H ) :   0.8640
B(  4-C ,  5-C ) :   1.0371 B(  4-C ,  6-O ) :   2.1569 B(  5-C , 15-H ) :   0.9340
B(  5-C , 16-H ) :   0.9493 B(  5-C , 17-H ) :   0.9457

FINAL SINGLE POINT ENERGY      -326.462213173889

DIPOLE MOMENT
-------------
                                X             Y             Z
Electronic contribution:      1.74723      -5.84439       0.72318
Nuclear contribution   :     -1.13506       6.47254      -0.47607
                        -----------------------------------------
Total Dipole Moment    :      0.61217       0.62815       0.24711
                        -----------------------------------------
Magnitude (a.u.)       :      0.91126
Magnitude (Debye)      :      2.31623

                             ****ORCA TERMINATED NORMALLY****
TOTAL RUN TIME: 0 days 0 hours 0 minutes 7 seconds 880 msec
