                         Program Version 3.0.3 - RELEASE   -
|  1> ! RI PBE def2-SVP def2-SVP/J NBO PAL2
|  2> % maxcore 2000
|  3> % output
|  4>     # printlevel mini
|  5>     print[ P_Basis ] 0
|  6>     print[ P_SCFInfo ] 1
|  7>     print[ P_SCFIterInfo ] 1
|  8>     print[ P_OrbEn ] 0
|  9>     print[ P_Cartesian ] 0
| 10> end
| 11> *xyz 0 1
| 12>  C        1.0014630000    -0.0064330000    -0.0979140000
| 13>  C        2.5144320000     0.0145620000    -0.1455260000
| 14>  N        3.0749330000    -1.1469820000     0.5162590000
| 15>  C        4.5192860000    -1.2075110000     0.4456520000
| 16>  C        5.0390790000    -2.4305270000     1.1682890000
| 17>  C        6.5305210000    -2.5136730000     1.2601280000
| 18>  O        7.2933570000    -1.6872190000     0.8392810000
| 19>  H        0.5851490000     0.8871000000    -0.5675100000
| 20>  H        0.6491720000    -0.0531630000     0.9345140000
| 21>  H        0.6020460000    -0.8749370000    -0.6306170000
| 22>  H        2.8881010000     0.9048810000     0.3723080000
| 23>  H        2.8527050000     0.1035350000    -1.1934010000
| 24>  H        2.6760360000    -1.9864880000     0.1097350000
| 25>  H        4.9264330000    -0.3111290000     0.9232770000
| 26>  H        4.9056060000    -1.1986580000    -0.5872560000
| 27>  H        4.6917060000    -3.3602200000     0.6952720000
| 28>  H        4.6408310000    -2.4704700000     2.1909040000
| 29>  H        6.9149440000    -3.4247770000     1.7698860000
| 30> *
| 31>
| 32>                          ****END OF INPUT****
 Total Charge           Charge          ....    0
 Multiplicity           Mult            ....    1
 Number of Electrons    NEL             ....   56
 Basis Dimension        Dim             ....  153

MULLIKEN ATOMIC CHARGES
-----------------------
   0 C :   -0.026392
   1 C :    0.077881
   2 N :   -0.277456
   3 C :    0.101776
   4 C :   -0.021025
   5 C :    0.082028
   6 O :   -0.162657
   7 H :    0.021125
   8 H :    0.026276
   9 H :    0.017148
  10 H :    0.006430
  11 H :   -0.014435
  12 H :    0.092710
  13 H :    0.015207
  14 H :   -0.000177
  15 H :    0.028546
  16 H :    0.042978
  17 H :   -0.009964
Sum of atomic charges:   -0.0000000

LOEWDIN ATOMIC CHARGES
----------------------
   0 C :   -0.070618
   1 C :    0.009561
   2 N :   -0.105255
   3 C :    0.014974
   4 C :   -0.089747
   5 C :    0.092980
   6 O :   -0.110010
   7 H :    0.030420
   8 H :    0.027419
   9 H :    0.022509
  10 H :    0.020333
  11 H :   -0.002110
  12 H :    0.049932
  13 H :    0.025593
  14 H :    0.004422
  15 H :    0.042052
  16 H :    0.049894
  17 H :   -0.012347

  Mayer bond orders larger than 0.1
B(  0-C ,  1-C ) :   1.1134 B(  0-C ,  7-H ) :   0.9579 B(  0-C ,  8-H ) :   0.9640
B(  0-C ,  9-H ) :   0.9676 B(  1-C ,  2-N ) :   1.0281 B(  1-C , 10-H ) :   0.9367
B(  1-C , 11-H ) :   0.9219 B(  2-N ,  3-C ) :   1.0387 B(  2-N , 12-H ) :   0.9405
B(  3-C ,  4-C ) :   1.0727 B(  3-C , 13-H ) :   0.9291 B(  3-C , 14-H ) :   0.9206
B(  4-C ,  5-C ) :   0.9741 B(  4-C , 15-H ) :   0.9051 B(  4-C , 16-H ) :   0.8967
B(  5-C ,  6-O ) :   2.1807 B(  5-C , 17-H ) :   0.9297

FINAL SINGLE POINT ENERGY      -326.450301552536

DIPOLE MOMENT
-------------
                                X             Y             Z
Electronic contribution:      9.17935      -2.61014       1.90362
Nuclear contribution   :     -9.93611       2.07261      -1.97188
                        -----------------------------------------
Total Dipole Moment    :     -0.75676      -0.53753      -0.06826
                        -----------------------------------------
Magnitude (a.u.)       :      0.93074
Magnitude (Debye)      :      2.36576

                             ****ORCA TERMINATED NORMALLY****
TOTAL RUN TIME: 0 days 0 hours 0 minutes 8 seconds 104 msec
