                         Program Version 3.0.3 - RELEASE   -
|  1> ! RI PBE def2-SVP def2-SVP/J NBO PAL2
|  2> % maxcore 2000
|  3> % output
|  4>     # printlevel mini
|  5>     print[ P_Basis ] 0
|  6>     print[ P_SCFInfo ] 1
|  7>     print[ P_SCFIterInfo ] 1
|  8>     print[ P_OrbEn ] 0
|  9>     print[ P_Cartesian ] 0
| 10> end
| 11> *xyz 0 1
| 12>  C        1.1075250000    -0.0235880000    -0.0030350000
| 13>  C        2.6000560000    -0.0864260000     0.0096310000
| 14>  N        3.1005850000    -1.2416570000     0.5343250000
| 15>  C        3.3477400000     0.9359290000    -0.4677460000
| 16>  C        4.7802170000     0.9666720000    -0.4975830000
| 17>  N        5.4113530000     1.9734830000    -0.9661170000
| 18>  O        6.7859010000     1.7768560000    -0.8906860000
| 19>  H        0.7079320000    -0.1102630000     1.0127170000
| 20>  H        0.6905210000    -0.8470710000    -0.5920390000
| 21>  H        0.7613490000     0.9152740000    -0.4303580000
| 22>  H        2.4823950000    -1.9542290000     0.8686170000
| 23>  H        4.0850630000    -1.4115510000     0.6023770000
| 24>  H        2.8332900000     1.8032270000    -0.8601460000
| 25>  H        5.3652700000     0.1244960000    -0.1175220000
| 26>  H        7.1374030000     2.5879400000    -1.2664360000
| 27> *
| 28>
| 29>                          ****END OF INPUT****
 Total Charge           Charge          ....    0
 Multiplicity           Mult            ....    1
 Number of Electrons    NEL             ....   54
 Basis Dimension        Dim             ....  138

MULLIKEN ATOMIC CHARGES
-----------------------
   0 C :    0.048334
   1 C :   -0.122386
   2 N :   -0.053105
   3 C :    0.004037
   4 C :   -0.013650
   5 N :   -0.075487
   6 O :   -0.187382
   7 H :    0.032863
   8 H :    0.035555
   9 H :    0.024401
  10 H :    0.102539
  11 H :    0.102966
  12 H :   -0.025702
  13 H :   -0.038361
  14 H :    0.165377
Sum of atomic charges:   -0.0000000

LOEWDIN ATOMIC CHARGES
----------------------
   0 C :   -0.056899
   1 C :    0.005080
   2 N :    0.011625
   3 C :   -0.139016
   4 C :   -0.051411
   5 N :   -0.039643
   6 O :   -0.066463
   7 H :    0.034548
   8 H :    0.035151
   9 H :    0.039613
  10 H :    0.069342
  11 H :    0.066181
  12 H :    0.029049
  13 H :   -0.006258
  14 H :    0.069103

  Mayer bond orders larger than 0.1
B(  0-C ,  1-C ) :   1.0765 B(  0-C ,  7-H ) :   0.9446 B(  0-C ,  8-H ) :   0.9449
B(  0-C ,  9-H ) :   0.9489 B(  1-C ,  2-N ) :   1.3013 B(  1-C ,  3-C ) :   1.6120
B(  2-N , 10-H ) :   0.9501 B(  2-N , 11-H ) :   0.9484 B(  3-C ,  4-C ) :   1.1281
B(  3-C , 12-H ) :   0.9342 B(  4-C ,  5-N ) :   1.7913 B(  4-C , 13-H ) :   0.9339
B(  5-N ,  6-O ) :   0.9795 B(  6-O , 14-H ) :   0.9774

FINAL SINGLE POINT ENERGY      -341.237977748622

DIPOLE MOMENT
-------------
                                X             Y             Z
Electronic contribution:      6.42880       2.64056      -1.28142
Nuclear contribution   :     -6.92989      -3.54337       1.70246
                        -----------------------------------------
Total Dipole Moment    :     -0.50109      -0.90281       0.42104
                        -----------------------------------------
Magnitude (a.u.)       :      1.11509
Magnitude (Debye)      :      2.83433

                             ****ORCA TERMINATED NORMALLY****
TOTAL RUN TIME: 0 days 0 hours 0 minutes 6 seconds 927 msec
