                         Program Version 3.0.3 - RELEASE   -
|  1> ! RI PBE def2-SVP def2-SVP/J NBO PAL2
|  2> % maxcore 2000
|  3> % output
|  4>     # printlevel mini
|  5>     print[ P_Basis ] 0
|  6>     print[ P_SCFInfo ] 1
|  7>     print[ P_SCFIterInfo ] 1
|  8>     print[ P_OrbEn ] 0
|  9>     print[ P_Cartesian ] 0
| 10> end
| 11> *xyz 0 1
| 12>  C        0.8647490000    -0.0476190000     0.0834240000
| 13>  C        2.3557730000    -0.1355480000     0.1363620000
| 14>  N        2.8650120000    -1.3254090000     0.4916920000
| 15>  C        3.1391760000     0.9398130000    -0.1619060000
| 16>  C        4.5855130000     0.8756160000    -0.1168620000
| 17>  N        5.2493650000     2.0211140000    -0.4376750000
| 18>  O        5.2236640000    -0.1365600000     0.1889620000
| 19>  H        0.4331620000    -0.2781630000     1.0618920000
| 20>  H        0.4642880000    -0.7707360000    -0.6332040000
| 21>  H        0.5395480000     0.9481380000    -0.2119100000
| 22>  H        2.2665440000    -2.0996000000     0.7053580000
| 23>  H        3.8782850000    -1.3925080000     0.5296220000
| 24>  H        2.6545790000     1.8663220000    -0.4400880000
| 25>  H        4.7695990000     2.8632280000    -0.6913760000
| 26>  H        6.2527450000     2.0080220000    -0.4157620000
| 27> *
| 28>
| 29>                          ****END OF INPUT****
 Total Charge           Charge          ....    0
 Multiplicity           Mult            ....    1
 Number of Electrons    NEL             ....   54
 Basis Dimension        Dim             ....  138

MULLIKEN ATOMIC CHARGES
-----------------------
   0 C :    0.062423
   1 C :   -0.149066
   2 N :   -0.009338
   3 C :   -0.099242
   4 C :    0.068479
   5 N :   -0.051602
   6 O :   -0.283485
   7 H :    0.035727
   8 H :    0.037769
   9 H :    0.017322
  10 H :    0.093783
  11 H :    0.122092
  12 H :   -0.049209
  13 H :    0.097810
  14 H :    0.106537
Sum of atomic charges:   -0.0000000

LOEWDIN ATOMIC CHARGES
----------------------
   0 C :   -0.058312
   1 C :    0.033233
   2 N :    0.040758
   3 C :   -0.197205
   4 C :    0.032541
   5 N :    0.003961
   6 O :   -0.241792
   7 H :    0.037932
   8 H :    0.038342
   9 H :    0.036925
  10 H :    0.065606
  11 H :    0.059128
  12 H :    0.014673
  13 H :    0.066612
  14 H :    0.067597

  Mayer bond orders larger than 0.1
B(  0-C ,  1-C ) :   1.0783 B(  0-C ,  7-H ) :   0.9430 B(  0-C ,  8-H ) :   0.9433
B(  0-C ,  9-H ) :   0.9458 B(  1-C ,  2-N ) :   1.4306 B(  1-C ,  3-C ) :   1.5705
B(  2-N , 10-H ) :   0.9417 B(  2-N , 11-H ) :   0.8748 B(  3-C ,  4-C ) :   1.0491
B(  3-C , 12-H ) :   0.9217 B(  4-C ,  5-N ) :   1.2492 B(  4-C ,  6-O ) :   1.9111
B(  5-N , 13-H ) :   0.9448 B(  5-N , 14-H ) :   0.9384 B(  6-O , 11-H ) :   0.1343

FINAL SINGLE POINT ENERGY      -341.332657066756

DIPOLE MOMENT
-------------
                                X             Y             Z
Electronic contribution:      5.41403      -0.32424       0.19092
Nuclear contribution   :     -6.27027       0.67027      -0.31027
                        -----------------------------------------
Total Dipole Moment    :     -0.85623       0.34603      -0.11935
                        -----------------------------------------
Magnitude (a.u.)       :      0.93119
Magnitude (Debye)      :      2.36690

                             ****ORCA TERMINATED NORMALLY****
TOTAL RUN TIME: 0 days 0 hours 0 minutes 7 seconds 394 msec
