                         Program Version 3.0.3 - RELEASE   -
|  1> ! RI PBE def2-SVP def2-SVP/J NBO PAL2
|  2> % maxcore 2000
|  3> % output
|  4>     # printlevel mini
|  5>     print[ P_Basis ] 0
|  6>     print[ P_SCFInfo ] 1
|  7>     print[ P_SCFIterInfo ] 1
|  8>     print[ P_OrbEn ] 0
|  9>     print[ P_Cartesian ] 0
| 10> end
| 11> *xyz 0 1
| 12>  C        0.8510600000     0.5327770000     0.0216060000
| 13>  C        2.1627760000    -0.2338510000     0.0678250000
| 14>  N        3.2117890000     0.3071760000    -0.7935980000
| 15>  C        2.7393030000    -0.3831190000     1.4550540000
| 16>  C        3.9451190000    -1.2420800000     1.6424300000
| 17>  N        2.1532150000     0.2354730000     2.3980860000
| 18>  O        2.7688460000     0.0168240000     3.6238130000
| 19>  H        0.4875620000     0.5731460000    -1.0085630000
| 20>  H        0.9868960000     1.5542270000     0.3828020000
| 21>  H        0.0858040000     0.0632470000     0.6422500000
| 22>  H        1.9797620000    -1.2575580000    -0.2886210000
| 23>  H        3.3728040000     1.2816270000    -0.5628820000
| 24>  H        2.9176560000     0.2772960000    -1.7621490000
| 25>  H        4.3116370000    -1.5975790000     0.6814070000
| 26>  H        3.7043650000    -2.0893960000     2.2905920000
| 27>  H        4.7402490000    -0.6840170000     2.1414830000
| 28>  H        2.2271500000     0.5341990000     4.2252750000
| 29> *
| 30>
| 31>                          ****END OF INPUT****
 Total Charge           Charge          ....    0
 Multiplicity           Mult            ....    1
 Number of Electrons    NEL             ....   56
 Basis Dimension        Dim             ....  148

MULLIKEN ATOMIC CHARGES
-----------------------
   0 C :    0.071640
   1 C :   -0.022378
   2 N :   -0.184992
   3 C :   -0.219139
   4 C :    0.119462
   5 N :   -0.045616
   6 O :   -0.180279
   7 H :    0.000286
   8 H :    0.011748
   9 H :    0.014216
  10 H :    0.008522
  11 H :    0.086342
  12 H :    0.089243
  13 H :    0.015191
  14 H :    0.032815
  15 H :    0.033894
  16 H :    0.169045
Sum of atomic charges:   -0.0000000

LOEWDIN ATOMIC CHARGES
----------------------
   0 C :   -0.075860
   1 C :   -0.008005
   2 N :   -0.089786
   3 C :   -0.057608
   4 C :   -0.071984
   5 N :   -0.033148
   6 O :   -0.056630
   7 H :    0.018691
   8 H :    0.024559
   9 H :    0.029174
  10 H :    0.030777
  11 H :    0.051157
  12 H :    0.051018
  13 H :    0.032060
  14 H :    0.041732
  15 H :    0.042675
  16 H :    0.071179

  Mayer bond orders larger than 0.1
B(  0-C ,  1-C ) :   1.1169 B(  0-C ,  7-H ) :   0.9487 B(  0-C ,  8-H ) :   0.9379
B(  0-C ,  9-H ) :   0.9394 B(  1-C ,  2-N ) :   1.0694 B(  1-C ,  3-C ) :   1.0076
B(  1-C , 10-H ) :   0.8856 B(  2-N , 11-H ) :   0.9684 B(  2-N , 12-H ) :   0.9685
B(  3-C ,  4-C ) :   1.0910 B(  3-C ,  5-N ) :   1.9424 B(  4-C , 13-H ) :   0.9345
B(  4-C , 14-H ) :   0.9309 B(  4-C , 15-H ) :   0.9323 B(  5-N ,  6-O ) :   0.9974
B(  6-O , 16-H ) :   0.9773

FINAL SINGLE POINT ENERGY      -342.439593588793

DIPOLE MOMENT
-------------
                                X             Y             Z
Electronic contribution:      0.45268       0.60488       5.00071
Nuclear contribution   :     -0.68461      -0.39120      -5.17454
                        -----------------------------------------
Total Dipole Moment    :     -0.23194       0.21368      -0.17383
                        -----------------------------------------
Magnitude (a.u.)       :      0.36010
Magnitude (Debye)      :      0.91529

                             ****ORCA TERMINATED NORMALLY****
TOTAL RUN TIME: 0 days 0 hours 0 minutes 7 seconds 703 msec
