                         Program Version 3.0.3 - RELEASE   -
|  1> ! RI PBE def2-SVP def2-SVP/J NBO PAL2
|  2> % maxcore 2000
|  3> % output
|  4>     # printlevel mini
|  5>     print[ P_Basis ] 0
|  6>     print[ P_SCFInfo ] 1
|  7>     print[ P_SCFIterInfo ] 1
|  8>     print[ P_OrbEn ] 0
|  9>     print[ P_Cartesian ] 0
| 10> end
| 11> *xyz 0 1
| 12>  C        0.8919520000    -0.1400390000     0.1266120000
| 13>  C        2.4081950000    -0.0312560000     0.0277510000
| 14>  N        3.0103520000    -0.9308090000    -0.9483500000
| 15>  C        2.8553680000     1.3939210000    -0.3042350000
| 16>  C        2.5114850000     2.3835490000     0.7495480000
| 17>  N        1.7682600000     3.3733860000     0.4851680000
| 18>  O        1.5725440000     4.1811760000     1.5940950000
| 19>  H        0.5946720000    -1.1612700000     0.3788740000
| 20>  H        0.4269320000     0.1225400000    -0.8290490000
| 21>  H        0.4838930000     0.5294690000     0.8882930000
| 22>  H        2.8394090000    -0.2968640000     1.0014800000
| 23>  H        2.6424650000    -0.7306650000    -1.8728620000
| 24>  H        2.7585930000    -1.8903780000    -0.7419180000
| 25>  H        2.4083060000     1.7163200000    -1.2500670000
| 26>  H        3.9419420000     1.3728920000    -0.4408490000
| 27>  H        2.9085040000     2.2515690000     1.7597500000
| 28>  H        1.0085290000     4.8810680000     1.2542700000
| 29> *
| 30>
| 31>                          ****END OF INPUT****
 Total Charge           Charge          ....    0
 Multiplicity           Mult            ....    1
 Number of Electrons    NEL             ....   56
 Basis Dimension        Dim             ....  148

MULLIKEN ATOMIC CHARGES
-----------------------
   0 C :    0.033548
   1 C :   -0.090102
   2 N :   -0.179344
   3 C :    0.104372
   4 C :   -0.052296
   5 N :   -0.047670
   6 O :   -0.180877
   7 H :    0.010746
   8 H :    0.007284
   9 H :    0.022562
  10 H :    0.003325
  11 H :    0.084399
  12 H :    0.084521
  13 H :    0.000288
  14 H :    0.033126
  15 H :   -0.003260
  16 H :    0.169378
Sum of atomic charges:   -0.0000000

LOEWDIN ATOMIC CHARGES
----------------------
   0 C :   -0.076735
   1 C :   -0.002259
   2 N :   -0.097746
   3 C :   -0.048267
   4 C :   -0.032454
   5 N :   -0.018759
   6 O :   -0.059167
   7 H :    0.021417
   8 H :    0.022365
   9 H :    0.027474
  10 H :    0.020409
  11 H :    0.048447
  12 H :    0.050712
  13 H :    0.028456
  14 H :    0.040102
  15 H :    0.003832
  16 H :    0.072173

  Mayer bond orders larger than 0.1
B(  0-C ,  1-C ) :   1.0629 B(  0-C ,  7-H ) :   0.9599 B(  0-C ,  8-H ) :   0.9538
B(  0-C ,  9-H ) :   0.9415 B(  1-C ,  2-N ) :   1.0826 B(  1-C ,  3-C ) :   1.0500
B(  1-C , 10-H ) :   0.9138 B(  2-N , 11-H ) :   0.9670 B(  2-N , 12-H ) :   0.9675
B(  3-C ,  4-C ) :   1.0478 B(  3-C , 13-H ) :   0.9086 B(  3-C , 14-H ) :   0.9055
B(  4-C ,  5-N ) :   1.8866 B(  4-C ,  6-O ) :   0.1122 B(  4-C , 15-H ) :   0.9368
B(  5-N ,  6-O ) :   0.9882 B(  6-O , 16-H ) :   0.9764

FINAL SINGLE POINT ENERGY      -342.431960629738

DIPOLE MOMENT
-------------
                                X             Y             Z
Electronic contribution:      0.66876       7.25794       2.18348
Nuclear contribution   :     -1.10336      -7.48324      -2.26888
                        -----------------------------------------
Total Dipole Moment    :     -0.43460      -0.22530      -0.08540
                        -----------------------------------------
Magnitude (a.u.)       :      0.49692
Magnitude (Debye)      :      1.26307

                             ****ORCA TERMINATED NORMALLY****
TOTAL RUN TIME: 0 days 0 hours 0 minutes 7 seconds 845 msec
