                         Program Version 3.0.3 - RELEASE   -
|  1> ! RI PBE def2-SVP def2-SVP/J NBO PAL2
|  2> % maxcore 2000
|  3> % output
|  4>     # printlevel mini
|  5>     print[ P_Basis ] 0
|  6>     print[ P_SCFInfo ] 1
|  7>     print[ P_SCFIterInfo ] 1
|  8>     print[ P_OrbEn ] 0
|  9>     print[ P_Cartesian ] 0
| 10> end
| 11> *xyz 0 1
| 12>  C        1.0675530000     0.9420570000    -0.0803300000
| 13>  C        2.2281540000     0.0457460000     0.3317770000
| 14>  N        2.2971560000    -0.2238630000     1.7643130000
| 15>  C        2.1974170000    -1.2870640000    -0.4011800000
| 16>  C        2.4450390000    -1.1597030000    -1.8897070000
| 17>  N        1.9016100000    -2.1445900000    -2.6496440000
| 18>  O        3.0983670000    -0.2601050000    -2.3758480000
| 19>  H        1.1148610000     1.8981180000     0.4472770000
| 20>  H        0.1095620000     0.4706570000     0.1659790000
| 21>  H        1.0863750000     1.1500700000    -1.1525520000
| 22>  H        3.1625850000     0.5389340000     0.0491640000
| 23>  H        1.4167610000    -0.6115400000     2.0882970000
| 24>  H        2.4292030000     0.6424320000     2.2728470000
| 25>  H        1.2476920000    -1.8031360000    -0.2145220000
| 26>  H        2.9887860000    -1.9240010000     0.0083530000
| 27>  H        1.4124210000    -2.9196170000    -2.2425760000
| 28>  H        2.1174690000    -2.1628050000    -3.6314270000
| 29> *
| 30>
| 31>                          ****END OF INPUT****
 Total Charge           Charge          ....    0
 Multiplicity           Mult            ....    1
 Number of Electrons    NEL             ....   56
 Basis Dimension        Dim             ....  148

MULLIKEN ATOMIC CHARGES
-----------------------
   0 C :    0.027163
   1 C :   -0.088174
   2 N :   -0.166840
   3 C :    0.027188
   4 C :   -0.015867
   5 N :   -0.048973
   6 O :   -0.210290
   7 H :    0.008778
   8 H :   -0.003138
   9 H :    0.028320
  10 H :    0.022479
  11 H :    0.077892
  12 H :    0.083560
  13 H :   -0.008485
  14 H :    0.043609
  15 H :    0.106996
  16 H :    0.115783
Sum of atomic charges:   -0.0000000

LOEWDIN ATOMIC CHARGES
----------------------
   0 C :   -0.077072
   1 C :   -0.000683
   2 N :   -0.096287
   3 C :   -0.072563
   4 C :    0.029298
   5 N :    0.010275
   6 O :   -0.193358
   7 H :    0.022313
   8 H :    0.016026
   9 H :    0.030481
  10 H :    0.027970
  11 H :    0.044711
  12 H :    0.050492
  13 H :    0.019246
  14 H :    0.047696
  15 H :    0.069533
  16 H :    0.071923

  Mayer bond orders larger than 0.1
B(  0-C ,  1-C ) :   1.0729 B(  0-C ,  7-H ) :   0.9572 B(  0-C ,  8-H ) :   0.9527
B(  0-C ,  9-H ) :   0.9446 B(  1-C ,  2-N ) :   1.0943 B(  1-C ,  3-C ) :   1.0698
B(  1-C , 10-H ) :   0.9010 B(  2-N , 11-H ) :   0.9680 B(  2-N , 12-H ) :   0.9670
B(  3-C ,  4-C ) :   0.9459 B(  3-C , 13-H ) :   0.9173 B(  3-C , 14-H ) :   0.8925
B(  4-C ,  5-N ) :   1.2592 B(  4-C ,  6-O ) :   2.0835 B(  5-N , 15-H ) :   0.9417
B(  5-N , 16-H ) :   0.9368

FINAL SINGLE POINT ENERGY      -342.516757481243

DIPOLE MOMENT
-------------
                                X             Y             Z
Electronic contribution:      3.26819      -1.90111      -4.83116
Nuclear contribution   :     -4.25281       1.04540       4.99207
                        -----------------------------------------
Total Dipole Moment    :     -0.98462      -0.85572       0.16091
                        -----------------------------------------
Magnitude (a.u.)       :      1.31439
Magnitude (Debye)      :      3.34091

                             ****ORCA TERMINATED NORMALLY****
TOTAL RUN TIME: 0 days 0 hours 0 minutes 7 seconds 844 msec
