                         Program Version 3.0.3 - RELEASE   -
|  1> ! RI PBE def2-SVP def2-SVP/J NBO PAL2
|  2> % maxcore 2000
|  3> % output
|  4>     # printlevel mini
|  5>     print[ P_Basis ] 0
|  6>     print[ P_SCFInfo ] 1
|  7>     print[ P_SCFIterInfo ] 1
|  8>     print[ P_OrbEn ] 0
|  9>     print[ P_Cartesian ] 0
| 10> end
| 11> *xyz 0 1
| 12>  C        1.5836990000     0.7095160000     0.0324320000
| 13>  C        3.0517660000     0.3434740000    -0.0436040000
| 14>  N        3.5533200000    -0.0208940000     1.2598610000
| 15>  C        4.7934690000    -0.2555530000     1.4296080000
| 16>  C        5.8866820000    -0.1697740000     0.4148140000
| 17>  N        5.1810890000    -0.6961570000     2.6747810000
| 18>  O        4.1839140000    -0.5979390000     3.6347980000
| 19>  H        1.1965660000     0.9774900000    -0.9534140000
| 20>  H        1.4339880000     1.5579840000     0.7036320000
| 21>  H        1.0000820000    -0.1292580000     0.4172600000
| 22>  H        3.6163370000     1.1884080000    -0.4644330000
| 23>  H        3.1813420000    -0.4917780000    -0.7467100000
| 24>  H        5.6892870000    -0.8594190000    -0.4092350000
| 25>  H        6.8557050000    -0.4247990000     0.8454330000
| 26>  H        5.9374550000     0.8370580000    -0.0058930000
| 27>  H        6.0331650000    -0.2802120000     3.0292720000
| 28>  H        3.4322260000    -0.2747270000     3.0831990000
| 29> *
| 30>
| 31>                          ****END OF INPUT****
 Total Charge           Charge          ....    0
 Multiplicity           Mult            ....    1
 Number of Electrons    NEL             ....   56
 Basis Dimension        Dim             ....  148

MULLIKEN ATOMIC CHARGES
-----------------------
   0 C :   -0.001640
   1 C :    0.053404
   2 N :   -0.266707
   3 C :   -0.100410
   4 C :    0.055979
   5 N :    0.023663
   6 O :   -0.235179
   7 H :    0.010762
   8 H :    0.022390
   9 H :    0.027005
  10 H :   -0.003839
  11 H :    0.011310
  12 H :    0.053463
  13 H :    0.014255
  14 H :    0.047153
  15 H :    0.131172
  16 H :    0.157219
Sum of atomic charges:   -0.0000000

LOEWDIN ATOMIC CHARGES
----------------------
   0 C :   -0.071561
   1 C :    0.003925
   2 N :   -0.167271
   3 C :   -0.015593
   4 C :   -0.071942
   5 N :    0.077232
   6 O :   -0.096380
   7 H :    0.024687
   8 H :    0.025890
   9 H :    0.027896
  10 H :    0.010853
  11 H :    0.017621
  12 H :    0.048536
  13 H :    0.033945
  14 H :    0.044370
  15 H :    0.069322
  16 H :    0.038469

  Mayer bond orders larger than 0.1
B(  0-C ,  1-C ) :   1.1150 B(  0-C ,  7-H ) :   0.9549 B(  0-C ,  8-H ) :   0.9662
B(  0-C ,  9-H ) :   0.9642 B(  1-C ,  2-N ) :   1.0338 B(  1-C , 10-H ) :   0.9239
B(  1-C , 11-H ) :   0.9307 B(  2-N ,  3-C ) :   1.7417 B(  2-N , 16-H ) :   0.1561
B(  3-C ,  4-C ) :   1.0766 B(  3-C ,  5-N ) :   1.1850 B(  4-C , 12-H ) :   0.9397
B(  4-C , 13-H ) :   0.9380 B(  4-C , 14-H ) :   0.9393 B(  5-N ,  6-O ) :   1.0176
B(  5-N , 15-H ) :   0.9187 B(  6-O , 16-H ) :   0.9039

FINAL SINGLE POINT ENERGY      -342.438007118565

DIPOLE MOMENT
-------------
                                X             Y             Z
Electronic contribution:      2.59637      -2.43552       6.91926
Nuclear contribution   :     -1.82731       2.87489      -7.73673
                        -----------------------------------------
Total Dipole Moment    :      0.76906       0.43937      -0.81747
                        -----------------------------------------
Magnitude (a.u.)       :      1.20530
Magnitude (Debye)      :      3.06364

                             ****ORCA TERMINATED NORMALLY****
TOTAL RUN TIME: 0 days 0 hours 0 minutes 7 seconds 648 msec
