                         Program Version 3.0.3 - RELEASE   -
|  1> ! RI PBE def2-SVP def2-SVP/J NBO PAL2
|  2> % maxcore 2000
|  3> % output
|  4>     # printlevel mini
|  5>     print[ P_Basis ] 0
|  6>     print[ P_SCFInfo ] 1
|  7>     print[ P_SCFIterInfo ] 1
|  8>     print[ P_OrbEn ] 0
|  9>     print[ P_Cartesian ] 0
| 10> end
| 11> *xyz 0 1
| 12>  C        2.9722550000    -0.7598860000     1.4430720000
| 13>  C        2.9657730000    -0.2907100000    -0.0046870000
| 14>  N        3.2872820000    -1.3134860000    -0.9758940000
| 15>  C        2.3312270000    -2.3695250000    -1.1910130000
| 16>  C        4.6000820000    -1.5786660000    -1.2216800000
| 17>  N        4.9955940000    -2.6936080000    -1.6985970000
| 18>  O        6.3734690000    -2.6363190000    -1.9611700000
| 19>  H        2.7299390000     0.0686190000     2.1132470000
| 20>  H        3.9544650000    -1.1483610000     1.7226030000
| 21>  H        2.2360840000    -1.5492840000     1.6103980000
| 22>  H        3.6832730000     0.5252740000    -0.1326880000
| 23>  H        1.9818830000     0.1154120000    -0.2608550000
| 24>  H        1.3242160000    -1.9493210000    -1.1586390000
| 25>  H        2.4074620000    -3.1721330000    -0.4461790000
| 26>  H        2.5052500000    -2.8168020000    -2.1704560000
| 27>  H        5.2993260000    -0.7663310000    -1.0191640000
| 28>  H        6.5589200000    -3.5239850000    -2.2749870000
| 29> *
| 30>
| 31>                          ****END OF INPUT****
 Total Charge           Charge          ....    0
 Multiplicity           Mult            ....    1
 Number of Electrons    NEL             ....   56
 Basis Dimension        Dim             ....  148

MULLIKEN ATOMIC CHARGES
-----------------------
   0 C :   -0.029819
   1 C :    0.055410
   2 N :   -0.261146
   3 C :    0.105056
   4 C :    0.096766
   5 N :   -0.128899
   6 O :   -0.203982
   7 H :    0.026549
   8 H :    0.030796
   9 H :    0.029310
  10 H :    0.025767
  11 H :    0.016554
  12 H :    0.017447
  13 H :    0.025263
  14 H :    0.035587
  15 H :   -0.004380
  16 H :    0.163721
Sum of atomic charges:    0.0000000

LOEWDIN ATOMIC CHARGES
----------------------
   0 C :   -0.079259
   1 C :    0.021973
   2 N :   -0.034095
   3 C :    0.012836
   4 C :   -0.022404
   5 N :   -0.093321
   6 O :   -0.080881
   7 H :    0.031711
   8 H :    0.029967
   9 H :    0.027461
  10 H :    0.026408
  11 H :    0.022090
  12 H :    0.022803
  13 H :    0.016033
  14 H :    0.030793
  15 H :    0.001048
  16 H :    0.066836

  Mayer bond orders larger than 0.1
B(  0-C ,  1-C ) :   1.1052 B(  0-C ,  7-H ) :   0.9553 B(  0-C ,  8-H ) :   0.9599
B(  0-C ,  9-H ) :   0.9630 B(  1-C ,  2-N ) :   1.0283 B(  1-C , 10-H ) :   0.9379
B(  1-C , 11-H ) :   0.9415 B(  2-N ,  3-C ) :   1.0157 B(  2-N ,  4-C ) :   1.1636
B(  3-C , 12-H ) :   0.9613 B(  3-C , 13-H ) :   0.9571 B(  3-C , 14-H ) :   0.9548
B(  4-C ,  5-N ) :   1.7408 B(  4-C , 15-H ) :   0.9314 B(  5-N ,  6-O ) :   0.9550
B(  6-O , 16-H ) :   0.9805

FINAL SINGLE POINT ENERGY      -342.432505371616

DIPOLE MOMENT
-------------
                                X             Y             Z
Electronic contribution:      6.02993      -2.29619      -5.28361
Nuclear contribution   :     -6.54958       2.50578       5.66987
                        -----------------------------------------
Total Dipole Moment    :     -0.51965       0.20959       0.38625
                        -----------------------------------------
Magnitude (a.u.)       :      0.68056
Magnitude (Debye)      :      1.72984

                             ****ORCA TERMINATED NORMALLY****
TOTAL RUN TIME: 0 days 0 hours 0 minutes 7 seconds 850 msec
