                         Program Version 3.0.3 - RELEASE   -
|  1> ! RI PBE def2-SVP def2-SVP/J NBO PAL2
|  2> % maxcore 2000
|  3> % output
|  4>     # printlevel mini
|  5>     print[ P_Basis ] 0
|  6>     print[ P_SCFInfo ] 1
|  7>     print[ P_SCFIterInfo ] 1
|  8>     print[ P_OrbEn ] 0
|  9>     print[ P_Cartesian ] 0
| 10> end
| 11> *xyz 0 1
| 12>  C        2.3285700000    -2.0642320000     0.5903430000
| 13>  C        2.5396300000    -0.6275760000     0.1364790000
| 14>  N        3.0575650000     0.2515180000     1.1628510000
| 15>  C        2.0890590000     0.9221110000     1.9963690000
| 16>  C        4.3713140000     0.2781360000     1.5510040000
| 17>  N        5.2437670000    -0.4732220000     0.7899400000
| 18>  O        4.7660380000     0.8970120000     2.5233240000
| 19>  H        1.9083100000    -2.6645990000    -0.2204060000
| 20>  H        1.6363790000    -2.1085840000     1.4339960000
| 21>  H        3.2716520000    -2.5170280000     0.9012810000
| 22>  H        1.5891320000    -0.2002250000    -0.1950540000
| 23>  H        3.1857280000    -0.5996200000    -0.7471030000
| 24>  H        1.4436170000     1.5617090000     1.3869140000
| 25>  H        2.6226070000     1.5315800000     2.7213700000
| 26>  H        1.4575120000     0.2086740000     2.5383140000
| 27>  H        5.0332850000    -0.6636370000    -0.1737510000
| 28>  H        6.2050470000    -0.2474160000     0.9821380000
| 29> *
| 30>
| 31>                          ****END OF INPUT****
 Total Charge           Charge          ....    0
 Multiplicity           Mult            ....    1
 Number of Electrons    NEL             ....   56
 Basis Dimension        Dim             ....  148

MULLIKEN ATOMIC CHARGES
-----------------------
   0 C :   -0.018931
   1 C :    0.047758
   2 N :   -0.290105
   3 C :    0.098175
   4 C :    0.083380
   5 N :   -0.104125
   6 O :   -0.242237
   7 H :    0.025235
   8 H :    0.030395
   9 H :    0.031884
  10 H :    0.010794
  11 H :    0.012749
  12 H :    0.020598
  13 H :    0.053388
  14 H :    0.020485
  15 H :    0.100413
  16 H :    0.120143
Sum of atomic charges:   -0.0000000

LOEWDIN ATOMIC CHARGES
----------------------
   0 C :   -0.077664
   1 C :    0.019961
   2 N :   -0.058603
   3 C :    0.017244
   4 C :    0.023206
   5 N :   -0.030586
   6 O :   -0.228998
   7 H :    0.030361
   8 H :    0.029677
   9 H :    0.028036
  10 H :    0.027219
  11 H :    0.016666
  12 H :    0.018585
  13 H :    0.034838
  14 H :    0.015747
  15 H :    0.059071
  16 H :    0.075240

  Mayer bond orders larger than 0.1
B(  0-C ,  1-C ) :   1.1188 B(  0-C ,  7-H ) :   0.9546 B(  0-C ,  8-H ) :   0.9585
B(  0-C ,  9-H ) :   0.9573 B(  1-C ,  2-N ) :   1.0094 B(  1-C , 10-H ) :   0.9301
B(  1-C , 11-H ) :   0.9379 B(  2-N ,  3-C ) :   1.0002 B(  2-N ,  4-C ) :   1.1099
B(  3-C , 12-H ) :   0.9656 B(  3-C , 13-H ) :   0.9486 B(  3-C , 14-H ) :   0.9634
B(  4-C ,  5-N ) :   1.1551 B(  4-C ,  6-O ) :   2.0347 B(  5-N , 15-H ) :   0.9412
B(  5-N , 16-H ) :   0.9436

FINAL SINGLE POINT ENERGY      -342.523420977276

DIPOLE MOMENT
-------------
                                X             Y             Z
Electronic contribution:      5.68909       3.62665       2.36244
Nuclear contribution   :     -6.18198      -4.19134      -3.62503
                        -----------------------------------------
Total Dipole Moment    :     -0.49289      -0.56469      -1.26259
                        -----------------------------------------
Magnitude (a.u.)       :      1.46831
Magnitude (Debye)      :      3.73216

                             ****ORCA TERMINATED NORMALLY****
TOTAL RUN TIME: 0 days 0 hours 0 minutes 8 seconds 88 msec
