                         Program Version 3.0.3 - RELEASE   -
|  1> ! RI PBE def2-SVP def2-SVP/J NBO PAL2
|  2> % maxcore 2000
|  3> % output
|  4>     # printlevel mini
|  5>     print[ P_Basis ] 0
|  6>     print[ P_SCFInfo ] 1
|  7>     print[ P_SCFIterInfo ] 1
|  8>     print[ P_OrbEn ] 0
|  9>     print[ P_Cartesian ] 0
| 10> end
| 11> *xyz 0 1
| 12>  C        1.1372320000    -0.4598470000     0.6477260000
| 13>  C        2.6465550000    -0.3755700000     0.5691190000
| 14>  N        3.0661130000     0.8094460000    -0.1531170000
| 15>  C        4.5049110000     0.9710630000    -0.2095100000
| 16>  C        4.8631650000     2.1459390000    -1.0508960000
| 17>  N        5.5512230000     3.0841190000    -0.5532030000
| 18>  O        5.7965680000     4.0890100000    -1.4711600000
| 19>  H        0.8254460000    -1.3705220000     1.1633220000
| 20>  H        0.6987990000    -0.4580930000    -0.3521900000
| 21>  H        0.7232400000     0.3895430000     1.1994010000
| 22>  H        3.0380060000    -1.2477160000     0.0333730000
| 23>  H        3.0748100000    -0.4197300000     1.5863200000
| 24>  H        2.6532510000     1.6319910000     0.2723470000
| 25>  H        4.9206590000     0.0678510000    -0.6744970000
| 26>  H        4.9865310000     1.0775890000     0.7750340000
| 27>  H        4.5105860000     2.1875350000    -2.0828940000
| 28>  H        6.3158260000     4.7214820000    -0.9670850000
| 29> *
| 30>
| 31>                          ****END OF INPUT****
 Total Charge           Charge          ....    0
 Multiplicity           Mult            ....    1
 Number of Electrons    NEL             ....   56
 Basis Dimension        Dim             ....  148

MULLIKEN ATOMIC CHARGES
-----------------------
   0 C :   -0.026619
   1 C :    0.075859
   2 N :   -0.290752
   3 C :    0.190072
   4 C :   -0.071437
   5 N :   -0.043282
   6 O :   -0.177354
   7 H :    0.020642
   8 H :    0.028402
   9 H :    0.019585
  10 H :    0.005073
  11 H :   -0.014476
  12 H :    0.098777
  13 H :    0.014248
  14 H :   -0.006145
  15 H :    0.007166
  16 H :    0.170242
Sum of atomic charges:   -0.0000000

LOEWDIN ATOMIC CHARGES
----------------------
   0 C :   -0.070755
   1 C :    0.009094
   2 N :   -0.104494
   3 C :    0.005941
   4 C :   -0.040173
   5 N :   -0.015595
   6 O :   -0.055055
   7 H :    0.030207
   8 H :    0.028275
   9 H :    0.023647
  10 H :    0.019301
  11 H :   -0.001988
  12 H :    0.053647
  13 H :    0.030815
  14 H :    0.006791
  15 H :    0.007411
  16 H :    0.072932

  Mayer bond orders larger than 0.1
B(  0-C ,  1-C ) :   1.1163 B(  0-C ,  7-H ) :   0.9576 B(  0-C ,  8-H ) :   0.9628
B(  0-C ,  9-H ) :   0.9681 B(  1-C ,  2-N ) :   1.0280 B(  1-C , 10-H ) :   0.9370
B(  1-C , 11-H ) :   0.9210 B(  2-N ,  3-C ) :   1.0051 B(  2-N , 12-H ) :   0.9426
B(  3-C ,  4-C ) :   1.0345 B(  3-C , 13-H ) :   0.9118 B(  3-C , 14-H ) :   0.9083
B(  4-C ,  5-N ) :   1.9008 B(  4-C ,  6-O ) :   0.1152 B(  4-C , 15-H ) :   0.9433
B(  5-N ,  6-O ) :   0.9934 B(  6-O , 16-H ) :   0.9763

FINAL SINGLE POINT ENERGY      -342.423578668369

DIPOLE MOMENT
-------------
                                X             Y             Z
Electronic contribution:      7.22756       7.95651      -3.56840
Nuclear contribution   :     -7.23945      -7.92892       3.90745
                        -----------------------------------------
Total Dipole Moment    :     -0.01190       0.02759       0.33905
                        -----------------------------------------
Magnitude (a.u.)       :      0.34038
Magnitude (Debye)      :      0.86518

                             ****ORCA TERMINATED NORMALLY****
TOTAL RUN TIME: 0 days 0 hours 0 minutes 6 seconds 860 msec
