                         Program Version 3.0.3 - RELEASE   -
|  1> ! RI PBE def2-SVP def2-SVP/J NBO PAL2
|  2> % maxcore 2000
|  3> % output
|  4>     # printlevel mini
|  5>     print[ P_Basis ] 0
|  6>     print[ P_SCFInfo ] 1
|  7>     print[ P_SCFIterInfo ] 1
|  8>     print[ P_OrbEn ] 0
|  9>     print[ P_Cartesian ] 0
| 10> end
| 11> *xyz 0 1
| 12>  C        1.3564710000    -0.5322280000    -0.1859210000
| 13>  C        2.8480970000    -0.2815040000    -0.1325960000
| 14>  N        3.1340970000     1.1189380000     0.1288100000
| 15>  C        4.5457540000     1.4120900000     0.2630440000
| 16>  C        4.8781290000     2.8940670000     0.1822200000
| 17>  N        3.9100930000     3.6508700000    -0.3745180000
| 18>  O        5.9421640000     3.3256250000     0.5742030000
| 19>  H        1.1477190000    -1.5802640000    -0.4092980000
| 20>  H        0.8867620000     0.0857240000    -0.9540630000
| 21>  H        0.8827480000    -0.2993790000     0.7724190000
| 22>  H        3.3032530000    -0.5388780000    -1.0949410000
| 23>  H        3.3092050000    -0.9460490000     0.6172640000
| 24>  H        2.6492380000     1.4030290000     0.9732940000
| 25>  H        5.0779050000     0.9374560000    -0.5688500000
| 26>  H        5.0088330000     1.0305930000     1.1831980000
| 27>  H        3.0790160000     3.1981270000    -0.7179090000
| 28>  H        4.0777980000     4.6299820000    -0.5229360000
| 29> *
| 30>
| 31>                          ****END OF INPUT****
 Total Charge           Charge          ....    0
 Multiplicity           Mult            ....    1
 Number of Electrons    NEL             ....   56
 Basis Dimension        Dim             ....  148

MULLIKEN ATOMIC CHARGES
-----------------------
   0 C :   -0.035616
   1 C :    0.070953
   2 N :   -0.293610
   3 C :    0.112449
   4 C :   -0.064708
   5 N :   -0.040670
   6 O :   -0.209820
   7 H :    0.026459
   8 H :    0.028138
   9 H :    0.021533
  10 H :    0.012013
  11 H :   -0.001836
  12 H :    0.105417
  13 H :    0.039992
  14 H :    0.016376
  15 H :    0.099167
  16 H :    0.113764
Sum of atomic charges:   -0.0000000

LOEWDIN ATOMIC CHARGES
----------------------
   0 C :   -0.072348
   1 C :    0.010625
   2 N :   -0.100200
   3 C :   -0.015314
   4 C :    0.006404
   5 N :    0.015687
   6 O :   -0.200280
   7 H :    0.032864
   8 H :    0.027717
   9 H :    0.024533
  10 H :    0.021249
  11 H :    0.003608
  12 H :    0.056325
  13 H :    0.042461
  14 H :    0.019407
  15 H :    0.056527
  16 H :    0.070735

  Mayer bond orders larger than 0.1
B(  0-C ,  1-C ) :   1.1175 B(  0-C ,  7-H ) :   0.9576 B(  0-C ,  8-H ) :   0.9631
B(  0-C ,  9-H ) :   0.9672 B(  1-C ,  2-N ) :   1.0197 B(  1-C , 10-H ) :   0.9385
B(  1-C , 11-H ) :   0.9264 B(  2-N ,  3-C ) :   1.0172 B(  2-N , 12-H ) :   0.9386
B(  3-C ,  4-C ) :   0.9329 B(  3-C , 13-H ) :   0.9155 B(  3-C , 14-H ) :   0.9180
B(  4-C ,  5-N ) :   1.2958 B(  4-C ,  6-O ) :   2.1153 B(  5-N , 15-H ) :   0.9078
B(  5-N , 16-H ) :   0.9382

FINAL SINGLE POINT ENERGY      -342.512645632008

DIPOLE MOMENT
-------------
                                X             Y             Z
Electronic contribution:      6.58794       7.63894       0.94163
Nuclear contribution   :     -7.92330      -8.14739      -1.27242
                        -----------------------------------------
Total Dipole Moment    :     -1.33536      -0.50844      -0.33079
                        -----------------------------------------
Magnitude (a.u.)       :      1.46667
Magnitude (Debye)      :      3.72797

                             ****ORCA TERMINATED NORMALLY****
TOTAL RUN TIME: 0 days 0 hours 0 minutes 6 seconds 582 msec
