                         Program Version 3.0.3 - RELEASE   -
|  1> ! RI PBE def2-SVP def2-SVP/J NBO PAL2
|  2> % maxcore 2000
|  3> % output
|  4>     # printlevel mini
|  5>     print[ P_Basis ] 0
|  6>     print[ P_SCFInfo ] 1
|  7>     print[ P_SCFIterInfo ] 1
|  8>     print[ P_OrbEn ] 0
|  9>     print[ P_Cartesian ] 0
| 10> end
| 11> *xyz 0 1
| 12>  C        0.9500930000    -1.2705700000    -0.9775680000
| 13>  C        2.2821720000    -0.6311930000    -0.6468330000
| 14>  N        3.3094220000    -1.0536900000    -1.5745110000
| 15>  C        4.5879930000    -0.4207640000    -1.3486080000
| 16>  C        5.5796240000    -0.8200510000    -2.4108140000
| 17>  O        5.1229760000    -0.3427010000    -3.6536920000
| 18>  C        5.9530020000    -0.7226230000    -4.7146130000
| 19>  H        0.1845630000    -0.9727850000    -0.2578910000
| 20>  H        1.0331450000    -2.3592740000    -0.9677020000
| 21>  H        0.6060210000    -0.9679640000    -1.9711160000
| 22>  H        2.5939660000    -0.9299330000     0.3609760000
| 23>  H        2.1693260000     0.4681410000    -0.6197600000
| 24>  H        3.0176010000    -0.8566800000    -2.5253520000
| 25>  H        4.9766190000    -0.7403020000    -0.3749000000
| 26>  H        4.5225190000     0.6819800000    -1.3214840000
| 27>  H        5.6725170000    -1.9159700000    -2.4396550000
| 28>  H        6.5697280000    -0.3973350000    -2.1816530000
| 29>  H        5.5260040000    -0.3157570000    -5.6317660000
| 30>  H        6.0168990000    -1.8158940000    -4.8056430000
| 31>  H        6.9710210000    -0.3266340000    -4.5914050000
| 32> *
| 33>
| 34>                          ****END OF INPUT****
 Total Charge           Charge          ....    0
 Multiplicity           Mult            ....    1
 Number of Electrons    NEL             ....   58
 Basis Dimension        Dim             ....  163

MULLIKEN ATOMIC CHARGES
-----------------------
   0 C :   -0.042366
   1 C :    0.074482
   2 N :   -0.282047
   3 C :    0.113926
   4 C :    0.167352
   5 O :   -0.359778
   6 C :    0.156247
   7 H :    0.021999
   8 H :    0.033480
   9 H :    0.018608
  10 H :   -0.001557
  11 H :   -0.010323
  12 H :    0.097453
  13 H :   -0.001287
  14 H :   -0.008949
  15 H :   -0.003083
  16 H :   -0.010299
  17 H :    0.027711
  18 H :    0.008265
  19 H :    0.000165
Sum of atomic charges:    0.0000000

LOEWDIN ATOMIC CHARGES
----------------------
   0 C :   -0.074559
   1 C :    0.008033
   2 N :   -0.104944
   3 C :    0.003217
   4 C :    0.055801
   5 O :   -0.153603
   6 C :    0.051005
   7 H :    0.029402
   8 H :    0.028592
   9 H :    0.023599
  10 H :    0.016442
  11 H :   -0.002210
  12 H :    0.049141
  13 H :    0.023370
  14 H :    0.002074
  15 H :    0.006246
  16 H :    0.005589
  17 H :    0.022213
  18 H :    0.006158
  19 H :    0.004433

  Mayer bond orders larger than 0.1
B(  0-C ,  1-C ) :   1.1180 B(  0-C ,  7-H ) :   0.9568 B(  0-C ,  8-H ) :   0.9639
B(  0-C ,  9-H ) :   0.9655 B(  1-C ,  2-N ) :   1.0351 B(  1-C , 10-H ) :   0.9356
B(  1-C , 11-H ) :   0.9204 B(  2-N ,  3-C ) :   1.0418 B(  2-N , 12-H ) :   0.9348
B(  3-C ,  4-C ) :   1.0852 B(  3-C , 13-H ) :   0.9211 B(  3-C , 14-H ) :   0.9081
B(  4-C ,  5-O ) :   1.0146 B(  4-C , 15-H ) :   0.9173 B(  4-C , 16-H ) :   0.9195
B(  5-O ,  6-C ) :   1.0196 B(  6-C , 17-H ) :   0.9760 B(  6-C , 18-H ) :   0.9571
B(  6-C , 19-H ) :   0.9545

FINAL SINGLE POINT ENERGY      -327.636734825880

DIPOLE MOMENT
-------------
                                X             Y             Z
Electronic contribution:      2.09669       0.72172      -1.58536
Nuclear contribution   :     -1.80121      -0.67159       1.45833
                        -----------------------------------------
Total Dipole Moment    :      0.29547       0.05013      -0.12703
                        -----------------------------------------
Magnitude (a.u.)       :      0.32551
Magnitude (Debye)      :      0.82737

                             ****ORCA TERMINATED NORMALLY****
TOTAL RUN TIME: 0 days 0 hours 0 minutes 8 seconds 21 msec
