                         Program Version 3.0.3 - RELEASE   -
|  1> ! RI PBE def2-SVP def2-SVP/J NBO PAL2
|  2> % maxcore 2000
|  3> % output
|  4>     # printlevel mini
|  5>     print[ P_Basis ] 0
|  6>     print[ P_SCFInfo ] 1
|  7>     print[ P_SCFIterInfo ] 1
|  8>     print[ P_OrbEn ] 0
|  9>     print[ P_Cartesian ] 0
| 10> end
| 11> *xyz 0 1
| 12>  C        0.9155830000     0.0680490000    -0.0091140000
| 13>  C        2.4075720000    -0.0162080000     0.0650820000
| 14>  N        2.8747680000    -0.8318420000     1.0294300000
| 15>  C        3.1739630000     0.7004830000    -0.8030580000
| 16>  C        4.6118210000     0.7449970000    -0.8814260000
| 17>  O        5.2587170000    -0.0373150000     0.0400780000
| 18>  O        5.2547290000     1.3971230000    -1.6704350000
| 19>  H        0.4865730000    -0.9207260000    -0.1968190000
| 20>  H        0.5986960000     0.7392930000    -0.8040060000
| 21>  H        0.5065640000     0.4324770000     0.9379110000
| 22>  H        2.2388180000    -1.3233410000     1.6270970000
| 23>  H        3.8664090000    -0.9479240000     1.1505890000
| 24>  H        2.6742310000     1.3198790000    -1.5329130000
| 25>  H        6.1995440000     0.0960540000    -0.1355270000
| 26> *
| 27>
| 28>                          ****END OF INPUT****
 Total Charge           Charge          ....    0
 Multiplicity           Mult            ....    1
 Number of Electrons    NEL             ....   54
 Basis Dimension        Dim             ....  133

MULLIKEN ATOMIC CHARGES
-----------------------
   0 C :    0.041591
   1 C :   -0.116504
   2 N :   -0.014323
   3 C :   -0.088991
   4 C :    0.097188
   5 O :   -0.195148
   6 O :   -0.201962
   7 H :    0.041435
   8 H :    0.031589
   9 H :    0.041977
  10 H :    0.103261
  11 H :    0.112869
  12 H :   -0.012199
  13 H :    0.159217
Sum of atomic charges:   -0.0000000

LOEWDIN ATOMIC CHARGES
----------------------
   0 C :   -0.055866
   1 C :    0.033386
   2 N :    0.039839
   3 C :   -0.178324
   4 C :    0.032677
   5 O :   -0.053786
   6 O :   -0.181774
   7 H :    0.039379
   8 H :    0.041636
   9 H :    0.039524
  10 H :    0.071353
  11 H :    0.060191
  12 H :    0.035318
  13 H :    0.076446

  Mayer bond orders larger than 0.1
B(  0-C ,  1-C ) :   1.0761 B(  0-C ,  7-H ) :   0.9463 B(  0-C ,  8-H ) :   0.9494
B(  0-C ,  9-H ) :   0.9462 B(  1-C ,  2-N ) :   1.3888 B(  1-C ,  3-C ) :   1.5213
B(  2-N , 10-H ) :   0.9437 B(  2-N , 11-H ) :   0.9127 B(  3-C ,  4-C ) :   1.1007
B(  3-C , 12-H ) :   0.9471 B(  4-C ,  5-O ) :   1.1413 B(  4-C ,  6-O ) :   2.0630
B(  5-O , 13-H ) :   0.9450

FINAL SINGLE POINT ENERGY      -361.172204569276

DIPOLE MOMENT
-------------
                                X             Y             Z
Electronic contribution:      6.83645       1.30582      -1.68202
Nuclear contribution   :     -7.69976      -2.34583       2.93337
                        -----------------------------------------
Total Dipole Moment    :     -0.86331      -1.04001       1.25135
                        -----------------------------------------
Magnitude (a.u.)       :      1.84196
Magnitude (Debye)      :      4.68188

                             ****ORCA TERMINATED NORMALLY****
TOTAL RUN TIME: 0 days 0 hours 0 minutes 6 seconds 789 msec
