                         Program Version 3.0.3 - RELEASE   -
|  1> ! RI PBE def2-SVP def2-SVP/J NBO PAL2
|  2> % maxcore 2000
|  3> % output
|  4>     # printlevel mini
|  5>     print[ P_Basis ] 0
|  6>     print[ P_SCFInfo ] 1
|  7>     print[ P_SCFIterInfo ] 1
|  8>     print[ P_OrbEn ] 0
|  9>     print[ P_Cartesian ] 0
| 10> end
| 11> *xyz 0 1
| 12>  C        0.8286100000     0.0798560000     0.1946040000
| 13>  C        2.3513220000     0.0417410000     0.2360240000
| 14>  N        2.9273880000     0.5064700000     1.4932490000
| 15>  C        2.8896360000    -1.3545170000    -0.0335000000
| 16>  C        2.6815230000    -1.8355540000    -1.4384390000
| 17>  O        2.9305110000    -3.1529000000    -1.5517270000
| 18>  O        2.3607970000    -1.1610720000    -2.3797440000
| 19>  H        0.4648800000     1.0935320000     0.3810560000
| 20>  H        0.4071670000    -0.5743920000     0.9656520000
| 21>  H        0.4463050000    -0.2391490000    -0.7774690000
| 22>  H        2.7351630000     0.6956210000    -0.5531490000
| 23>  H        2.5526650000    -0.0318260000     2.2679140000
| 24>  H        2.6605490000     1.4692910000     1.6609880000
| 25>  H        2.4587660000    -2.0894050000     0.6549540000
| 26>  H        3.9689870000    -1.3645600000     0.1523350000
| 27>  H        2.8120520000    -3.3753260000    -2.4859480000
| 28> *
| 29>
| 30>                          ****END OF INPUT****
 Total Charge           Charge          ....    0
 Multiplicity           Mult            ....    1
 Number of Electrons    NEL             ....   56
 Basis Dimension        Dim             ....  143

MULLIKEN ATOMIC CHARGES
-----------------------
   0 C :    0.031610
   1 C :   -0.070855
   2 N :   -0.175993
   3 C :    0.025377
   4 C :    0.055948
   5 O :   -0.136947
   6 O :   -0.186452
   7 H :    0.010080
   8 H :    0.000124
   9 H :    0.022864
  10 H :    0.017131
  11 H :    0.082328
  12 H :    0.085158
  13 H :    0.023468
  14 H :    0.052831
  15 H :    0.163328
Sum of atomic charges:   -0.0000000

LOEWDIN ATOMIC CHARGES
----------------------
   0 C :   -0.075946
   1 C :   -0.000280
   2 N :   -0.095925
   3 C :   -0.069860
   4 C :    0.044844
   5 O :   -0.017499
   6 O :   -0.155791
   7 H :    0.022389
   8 H :    0.017857
   9 H :    0.028118
  10 H :    0.027486
  11 H :    0.047432
  12 H :    0.051464
  13 H :    0.037873
  14 H :    0.054098
  15 H :    0.083738

  Mayer bond orders larger than 0.1
B(  0-C ,  1-C ) :   1.0613 B(  0-C ,  7-H ) :   0.9609 B(  0-C ,  8-H ) :   0.9530
B(  0-C ,  9-H ) :   0.9468 B(  1-C ,  2-N ) :   1.0913 B(  1-C ,  3-C ) :   1.0587
B(  1-C , 10-H ) :   0.9055 B(  2-N , 11-H ) :   0.9677 B(  2-N , 12-H ) :   0.9671
B(  3-C ,  4-C ) :   0.9657 B(  3-C , 13-H ) :   0.9091 B(  3-C , 14-H ) :   0.8987
B(  4-C ,  5-O ) :   1.2547 B(  4-C ,  6-O ) :   2.0850 B(  5-O , 15-H ) :   0.9477

FINAL SINGLE POINT ENERGY      -362.361367290852

DIPOLE MOMENT
-------------
                                X             Y             Z
Electronic contribution:      2.78796      -4.55079      -5.94202
Nuclear contribution   :     -3.05099       4.28361       6.36874
                        -----------------------------------------
Total Dipole Moment    :     -0.26303      -0.26718       0.42672
                        -----------------------------------------
Magnitude (a.u.)       :      0.56803
Magnitude (Debye)      :      1.44382

                             ****ORCA TERMINATED NORMALLY****
TOTAL RUN TIME: 0 days 0 hours 0 minutes 7 seconds 559 msec
