                         Program Version 3.0.3 - RELEASE   -
|  1> ! RI PBE def2-SVP def2-SVP/J NBO PAL2
|  2> % maxcore 2000
|  3> % output
|  4>     # printlevel mini
|  5>     print[ P_Basis ] 0
|  6>     print[ P_SCFInfo ] 1
|  7>     print[ P_SCFIterInfo ] 1
|  8>     print[ P_OrbEn ] 0
|  9>     print[ P_Cartesian ] 0
| 10> end
| 11> *xyz 0 1
| 12>  C        1.6481660000    -0.1740080000     1.0638210000
| 13>  C        3.0903210000    -0.2500730000     0.6114830000
| 14>  N        3.2450110000     0.3350320000    -0.7107090000
| 15>  C        4.5974090000     0.3507410000    -1.1858690000
| 16>  C        5.5042200000     1.3633110000    -0.5150940000
| 17>  O        6.7961980000     1.1539340000    -0.8155040000
| 18>  O        5.1333720000     2.2746050000     0.1732780000
| 19>  H        1.5220460000    -0.6500350000     2.0383260000
| 20>  H        0.9914020000    -0.6693910000     0.3457390000
| 21>  H        1.3235550000     0.8660770000     1.1601990000
| 22>  H        3.4015610000    -1.2990100000     0.5465340000
| 23>  H        3.7369400000     0.2303210000     1.3628070000
| 24>  H        2.8834630000     1.2822530000    -0.7004220000
| 25>  H        4.6240980000     0.5807090000    -2.2581170000
| 26>  H        5.0454260000    -0.6418160000    -1.0841110000
| 27>  H        7.3020000000     1.8618500000    -0.3914720000
| 28> *
| 29>
| 30>                          ****END OF INPUT****
 Total Charge           Charge          ....    0
 Multiplicity           Mult            ....    1
 Number of Electrons    NEL             ....   56
 Basis Dimension        Dim             ....  143

MULLIKEN ATOMIC CHARGES
-----------------------
   0 C :   -0.030210
   1 C :    0.054773
   2 N :   -0.231719
   3 C :    0.083340
   4 C :    0.018864
   5 O :   -0.136687
   6 O :   -0.188984
   7 H :    0.020033
   8 H :    0.028339
   9 H :    0.023345
  10 H :    0.005969
  11 H :    0.003115
  12 H :    0.099830
  13 H :    0.050257
  14 H :    0.033474
  15 H :    0.166261
Sum of atomic charges:   -0.0000000

LOEWDIN ATOMIC CHARGES
----------------------
   0 C :   -0.070671
   1 C :    0.007878
   2 N :   -0.088017
   3 C :   -0.025014
   4 C :    0.021786
   5 O :   -0.016207
   6 O :   -0.157094
   7 H :    0.030242
   8 H :    0.027574
   9 H :    0.025535
  10 H :    0.018128
  11 H :    0.001356
  12 H :    0.054356
  13 H :    0.046041
  14 H :    0.039153
  15 H :    0.084954

  Mayer bond orders larger than 0.1
B(  0-C ,  1-C ) :   1.1268 B(  0-C ,  7-H ) :   0.9574 B(  0-C ,  8-H ) :   0.9627
B(  0-C ,  9-H ) :   0.9671 B(  1-C ,  2-N ) :   1.0297 B(  1-C , 10-H ) :   0.9351
B(  1-C , 11-H ) :   0.9210 B(  2-N ,  3-C ) :   1.1444 B(  2-N , 12-H ) :   0.9406
B(  3-C ,  4-C ) :   0.9212 B(  3-C , 13-H ) :   0.9167 B(  3-C , 14-H ) :   0.9202
B(  4-C ,  5-O ) :   1.2348 B(  4-C ,  6-O ) :   2.1066 B(  5-O , 15-H ) :   0.9470

FINAL SINGLE POINT ENERGY      -362.353728395730

DIPOLE MOMENT
-------------
                                X             Y             Z
Electronic contribution:      7.93848       4.68326      -2.62917
Nuclear contribution   :     -7.52172      -4.78219       2.54720
                        -----------------------------------------
Total Dipole Moment    :      0.41677      -0.09893      -0.08197
                        -----------------------------------------
Magnitude (a.u.)       :      0.43612
Magnitude (Debye)      :      1.10853

                             ****ORCA TERMINATED NORMALLY****
TOTAL RUN TIME: 0 days 0 hours 0 minutes 7 seconds 440 msec
