                         Program Version 3.0.3 - RELEASE   -
|  1> ! RI PBE def2-SVP def2-SVP/J NBO PAL2
|  2> % maxcore 2000
|  3> % output
|  4>     # printlevel mini
|  5>     print[ P_Basis ] 0
|  6>     print[ P_SCFInfo ] 1
|  7>     print[ P_SCFIterInfo ] 1
|  8>     print[ P_OrbEn ] 0
|  9>     print[ P_Cartesian ] 0
| 10> end
| 11> *xyz 0 1
| 12>  C        0.2125960000    -0.5238730000    -0.6998940000
| 13>  C        1.4215090000    -0.2703890000    -0.1803530000
| 14>  N        1.7493980000     0.2962860000     1.0271310000
| 15>  C        0.8837250000     0.7409450000     1.9949410000
| 16>  N        1.1723410000     1.2644960000     3.1108970000
| 17>  C        2.6080650000    -0.6349680000    -0.9840650000
| 18>  O        3.7368170000    -0.4486480000    -0.6062350000
| 19>  H       -0.7222270000    -0.3011490000    -0.2045590000
| 20>  H        0.1607570000    -0.9813710000    -1.6790250000
| 21>  H        2.7470770000     0.3772440000     1.1816530000
| 22>  H       -0.1667690000     0.6118210000     1.7372840000
| 23>  H        2.1809990000     1.3378160000     3.2498680000
| 24>  H        2.3838220000    -1.0946110000    -1.9641530000
| 25> *
| 26>
| 27>                          ****END OF INPUT****
 Total Charge           Charge          ....    0
 Multiplicity           Mult            ....    1
 Number of Electrons    NEL             ....   52
 Basis Dimension        Dim             ....  128

MULLIKEN ATOMIC CHARGES
-----------------------
   0 C :   -0.055435
   1 C :   -0.042927
   2 N :   -0.028272
   3 C :   -0.010146
   4 N :   -0.116649
   5 C :    0.157292
   6 O :   -0.167434
   7 H :    0.038485
   8 H :    0.028627
   9 H :    0.102815
  10 H :    0.022431
  11 H :    0.079715
  12 H :   -0.008503
Sum of atomic charges:   -0.0000000

LOEWDIN ATOMIC CHARGES
----------------------
   0 C :   -0.065575
   1 C :   -0.044425
   2 N :    0.033273
   3 C :    0.029419
   4 N :   -0.133797
   5 C :    0.088870
   6 O :   -0.107721
   7 H :    0.028690
   8 H :    0.033635
   9 H :    0.070890
  10 H :    0.019414
  11 H :    0.045232
  12 H :    0.002095

  Mayer bond orders larger than 0.1
B(  0-C ,  1-C ) :   1.7553 B(  0-C ,  7-H ) :   0.9446 B(  0-C ,  8-H ) :   0.9158
B(  1-C ,  2-N ) :   1.1815 B(  1-C ,  5-C ) :   0.9938 B(  2-N ,  3-C ) :   1.1193
B(  2-N ,  9-H ) :   0.8808 B(  3-C ,  4-N ) :   2.0113 B(  3-C , 10-H ) :   0.9405
B(  4-N , 11-H ) :   0.9407 B(  5-C ,  6-O ) :   2.0951 B(  5-C , 12-H ) :   0.9344

FINAL SINGLE POINT ENERGY      -340.075896723104

DIPOLE MOMENT
-------------
                                X             Y             Z
Electronic contribution:      3.25712       0.05726       0.05115
Nuclear contribution   :     -3.48834      -0.41214      -0.81578
                        -----------------------------------------
Total Dipole Moment    :     -0.23123      -0.35488      -0.76463
                        -----------------------------------------
Magnitude (a.u.)       :      0.87411
Magnitude (Debye)      :      2.22181

                             ****ORCA TERMINATED NORMALLY****
TOTAL RUN TIME: 0 days 0 hours 0 minutes 6 seconds 639 msec
