                         Program Version 3.0.3 - RELEASE   -
|  1> ! RI PBE def2-SVP def2-SVP/J NBO PAL2
|  2> % maxcore 2000
|  3> % output
|  4>     # printlevel mini
|  5>     print[ P_Basis ] 0
|  6>     print[ P_SCFInfo ] 1
|  7>     print[ P_SCFIterInfo ] 1
|  8>     print[ P_OrbEn ] 0
|  9>     print[ P_Cartesian ] 0
| 10> end
| 11> *xyz 0 1
| 12>  C        2.2116740000     1.3737000000    -0.0630780000
| 13>  C        3.3759440000     0.7441510000     0.0641210000
| 14>  N        3.4562170000    -0.6298620000     0.2350780000
| 15>  C        4.6092770000    -1.1435990000     0.3476730000
| 16>  N        4.7717440000    -2.4936430000     0.5192850000
| 17>  C        5.9800880000    -3.1223650000     0.6483080000
| 18>  O        6.1088350000    -4.3075590000     0.7983930000
| 19>  H        2.1737830000     2.4467120000    -0.1955120000
| 20>  H        1.2802140000     0.8213340000    -0.0361210000
| 21>  H        4.3127300000     1.3088500000     0.0358910000
| 22>  H        5.5467160000    -0.5759250000     0.3191140000
| 23>  H        3.9369850000    -3.0645700000     0.5527000000
| 24>  H        6.8311020000    -2.4188140000     0.5994570000
| 25> *
| 26>
| 27>                          ****END OF INPUT****
 Total Charge           Charge          ....    0
 Multiplicity           Mult            ....    1
 Number of Electrons    NEL             ....   52
 Basis Dimension        Dim             ....  128

MULLIKEN ATOMIC CHARGES
-----------------------
   0 C :   -0.018729
   1 C :    0.004057
   2 N :   -0.112386
   3 C :    0.040387
   4 N :   -0.025211
   5 C :    0.129847
   6 O :   -0.186552
   7 H :    0.030461
   8 H :    0.026843
   9 H :   -0.017994
  10 H :    0.001027
  11 H :    0.132609
  12 H :   -0.004359
Sum of atomic charges:   -0.0000000

LOEWDIN ATOMIC CHARGES
----------------------
   0 C :   -0.060398
   1 C :   -0.011720
   2 N :   -0.098060
   3 C :    0.046224
   4 N :    0.049904
   5 C :    0.066284
   6 O :   -0.142499
   7 H :    0.029339
   8 H :    0.029293
   9 H :    0.005556
  10 H :    0.001039
  11 H :    0.093993
  12 H :   -0.008955

  Mayer bond orders larger than 0.1
B(  0-C ,  1-C ) :   1.8844 B(  0-C ,  3-C ) :   0.1093 B(  0-C ,  7-H ) :   0.9405
B(  0-C ,  8-H ) :   0.9438 B(  1-C ,  2-N ) :   1.1817 B(  1-C ,  9-H ) :   0.9392
B(  2-N ,  3-C ) :   1.7747 B(  3-C ,  4-N ) :   1.1333 B(  3-C , 10-H ) :   0.9262
B(  4-N ,  5-C ) :   1.1238 B(  4-N , 11-H ) :   0.9088 B(  5-C ,  6-O ) :   2.0990
B(  5-C , 12-H ) :   0.9212

FINAL SINGLE POINT ENERGY      -340.091221601798

DIPOLE MOMENT
-------------
                                X             Y             Z
Electronic contribution:      2.27487      -5.74809       0.79609
Nuclear contribution   :     -2.14715       6.59591      -0.89707
                        -----------------------------------------
Total Dipole Moment    :      0.12772       0.84783      -0.10099
                        -----------------------------------------
Magnitude (a.u.)       :      0.86332
Magnitude (Debye)      :      2.19438

                             ****ORCA TERMINATED NORMALLY****
TOTAL RUN TIME: 0 days 0 hours 0 minutes 5 seconds 836 msec
