                         Program Version 3.0.3 - RELEASE   -
|  1> ! RI PBE def2-SVP def2-SVP/J NBO PAL2
|  2> % maxcore 2000
|  3> % output
|  4>     # printlevel mini
|  5>     print[ P_Basis ] 0
|  6>     print[ P_SCFInfo ] 1
|  7>     print[ P_SCFIterInfo ] 1
|  8>     print[ P_OrbEn ] 0
|  9>     print[ P_Cartesian ] 0
| 10> end
| 11> *xyz 0 1
| 12>  C        2.5972880000     0.8759760000    -0.5484790000
| 13>  C        2.2972090000    -0.1417330000     0.2480850000
| 14>  N        3.1466060000    -1.1163160000     0.8030040000
| 15>  C        2.5389410000    -2.0977100000     1.6275230000
| 16>  N        3.0647570000    -3.0616380000     2.2334000000
| 17>  C        4.5020000000    -1.1090280000     0.5517320000
| 18>  O        5.2937490000    -1.9058620000     0.9875230000
| 19>  H        1.7947530000     1.5233320000    -0.8733780000
| 20>  H        3.5900800000     1.1144340000    -0.9039780000
| 21>  H        1.2660980000    -0.2933150000     0.5470690000
| 22>  H        1.4627110000    -1.9304320000     1.7013910000
| 23>  H        4.0706750000    -3.0991640000     2.0779500000
| 24>  H        4.8073130000    -0.2824240000    -0.1046410000
| 25> *
| 26>
| 27>                          ****END OF INPUT****
 Total Charge           Charge          ....    0
 Multiplicity           Mult            ....    1
 Number of Electrons    NEL             ....   52
 Basis Dimension        Dim             ....  128

MULLIKEN ATOMIC CHARGES
-----------------------
   0 C :   -0.072019
   1 C :    0.073927
   2 N :   -0.167987
   3 C :   -0.008320
   4 N :   -0.057293
   5 C :    0.192795
   6 O :   -0.196637
   7 H :    0.041132
   8 H :    0.035445
   9 H :    0.023745
  10 H :    0.024303
  11 H :    0.101633
  12 H :    0.009275
Sum of atomic charges:   -0.0000000

LOEWDIN ATOMIC CHARGES
----------------------
   0 C :   -0.092995
   1 C :    0.018077
   2 N :   -0.006081
   3 C :    0.036969
   4 N :   -0.083527
   5 C :    0.092894
   6 O :   -0.126167
   7 H :    0.039639
   8 H :    0.025024
   9 H :    0.033048
  10 H :    0.017136
  11 H :    0.043179
  12 H :    0.002805

  Mayer bond orders larger than 0.1
B(  0-C ,  1-C ) :   1.9487 B(  0-C ,  7-H ) :   0.9262 B(  0-C ,  8-H ) :   0.9521
B(  1-C ,  2-N ) :   1.0341 B(  1-C ,  9-H ) :   0.9426 B(  2-N ,  3-C ) :   0.9674
B(  2-N ,  5-C ) :   1.0904 B(  3-C ,  4-N ) :   2.1217 B(  3-C , 10-H ) :   0.9356
B(  4-N , 11-H ) :   0.9272 B(  5-C ,  6-O ) :   2.0246 B(  5-C , 12-H ) :   0.9321

FINAL SINGLE POINT ENERGY      -340.075509059779

DIPOLE MOMENT
-------------
                                X             Y             Z
Electronic contribution:      2.55082      -3.05111       1.76435
Nuclear contribution   :     -3.09359       4.17966      -2.48040
                        -----------------------------------------
Total Dipole Moment    :     -0.54277       1.12855      -0.71605
                        -----------------------------------------
Magnitude (a.u.)       :      1.44255
Magnitude (Debye)      :      3.66666

                             ****ORCA TERMINATED NORMALLY****
TOTAL RUN TIME: 0 days 0 hours 0 minutes 5 seconds 908 msec
