                         Program Version 3.0.3 - RELEASE   -
|  1> ! RI PBE def2-SVP def2-SVP/J NBO PAL2
|  2> % maxcore 2000
|  3> % output
|  4>     # printlevel mini
|  5>     print[ P_Basis ] 0
|  6>     print[ P_SCFInfo ] 1
|  7>     print[ P_SCFIterInfo ] 1
|  8>     print[ P_OrbEn ] 0
|  9>     print[ P_Cartesian ] 0
| 10> end
| 11> *xyz 0 1
| 12>  C        1.0542430000    -0.0387460000     0.1056400000
| 13>  C        2.3767930000    -0.1647680000     0.0415390000
| 14>  N        3.2451860000     0.8271120000    -0.3584740000
| 15>  C        4.6020660000     0.7354750000    -0.4365240000
| 16>  N        5.4028040000    -0.2225900000    -0.1810520000
| 17>  C        5.2378650000     2.0090300000    -0.9121560000
| 18>  O        4.6032560000     2.9913530000    -1.1891430000
| 19>  H        0.4472220000    -0.8708120000     0.4313680000
| 20>  H        0.5490930000     0.8827330000    -0.1606970000
| 21>  H        2.8541380000    -1.0992720000     0.3144480000
| 22>  H        2.8758890000     1.7294230000    -0.6297790000
| 23>  H        4.9338180000    -1.0674820000     0.1383710000
| 24>  H        6.3376370000     1.9534530000    -0.9818510000
| 25> *
| 26>
| 27>                          ****END OF INPUT****
 Total Charge           Charge          ....    0
 Multiplicity           Mult            ....    1
 Number of Electrons    NEL             ....   52
 Basis Dimension        Dim             ....  128

MULLIKEN ATOMIC CHARGES
-----------------------
   0 C :   -0.070472
   1 C :    0.035516
   2 N :    0.000504
   3 C :   -0.199550
   4 N :   -0.067972
   5 C :    0.186813
   6 O :   -0.149056
   7 H :    0.035750
   8 H :    0.025570
   9 H :    0.000279
  10 H :    0.111233
  11 H :    0.088234
  12 H :    0.003151
Sum of atomic charges:   -0.0000000

LOEWDIN ATOMIC CHARGES
----------------------
   0 C :   -0.104114
   1 C :    0.009375
   2 N :    0.048856
   3 C :   -0.046577
   4 N :   -0.121744
   5 C :    0.096627
   6 O :   -0.096123
   7 H :    0.033897
   8 H :    0.026051
   9 H :    0.023112
  10 H :    0.078293
  11 H :    0.044949
  12 H :    0.007399

  Mayer bond orders larger than 0.1
B(  0-C ,  1-C ) :   1.9059 B(  0-C ,  7-H ) :   0.9390 B(  0-C ,  8-H ) :   0.9525
B(  1-C ,  2-N ) :   1.1334 B(  1-C ,  9-H ) :   0.9414 B(  2-N ,  3-C ) :   1.1973
B(  2-N ,  4-N ) :   0.1057 B(  2-N , 10-H ) :   0.8755 B(  3-C ,  4-N ) :   1.9563
B(  3-C ,  5-C ) :   0.9148 B(  4-N , 11-H ) :   0.9410 B(  5-C ,  6-O ) :   2.1438
B(  5-C , 12-H ) :   0.9276

FINAL SINGLE POINT ENERGY      -340.075105949021

DIPOLE MOMENT
-------------
                                X             Y             Z
Electronic contribution:      3.83314       3.18158      -1.36935
Nuclear contribution   :     -4.46001      -3.61352       1.56187
                        -----------------------------------------
Total Dipole Moment    :     -0.62687      -0.43195       0.19251
                        -----------------------------------------
Magnitude (a.u.)       :      0.78524
Magnitude (Debye)      :      1.99592

                             ****ORCA TERMINATED NORMALLY****
TOTAL RUN TIME: 0 days 0 hours 0 minutes 6 seconds 584 msec
