                         Program Version 3.0.3 - RELEASE   -
|  1> ! RI PBE def2-SVP def2-SVP/J NBO PAL2
|  2> % maxcore 2000
|  3> % output
|  4>     # printlevel mini
|  5>     print[ P_Basis ] 0
|  6>     print[ P_SCFInfo ] 1
|  7>     print[ P_SCFIterInfo ] 1
|  8>     print[ P_OrbEn ] 0
|  9>     print[ P_Cartesian ] 0
| 10> end
| 11> *xyz 0 1
| 12>  C        1.0813550000    -0.0694730000    -0.0487380000
| 13>  C        2.5925390000     0.1056980000     0.0401840000
| 14>  N        3.3037360000    -0.4183760000    -1.1237840000
| 15>  C        2.9640140000     1.5872420000     0.1651380000
| 16>  N        2.6731080000     2.3201170000    -1.0587280000
| 17>  C        3.1335240000    -0.6468750000     1.2616740000
| 18>  O        4.5343410000    -0.6664580000     1.2680870000
| 19>  H        0.6760140000     0.4554520000    -0.9175440000
| 20>  H        0.5807810000     0.3090730000     0.8479900000
| 21>  H        0.8214710000    -1.1270310000    -0.1522480000
| 22>  H        3.2680080000     0.2804640000    -1.8601790000
| 23>  H        2.8668910000    -1.2647580000    -1.4681640000
| 24>  H        4.0387650000     1.6426880000     0.3498790000
| 25>  H        2.4607730000     1.9944510000     1.0531620000
| 26>  H        3.2275940000     3.1626060000    -1.1179110000
| 27>  H        1.7016430000     2.5972840000    -1.1058720000
| 28>  H        2.7234760000    -1.6701670000     1.2526510000
| 29>  H        2.7944920000    -0.1674680000     2.1858180000
| 30>  H        4.7656160000    -0.7584790000     0.3285740000
| 31> *
| 32>
| 33>                          ****END OF INPUT****
 Total Charge           Charge          ....    0
 Multiplicity           Mult            ....    1
 Number of Electrons    NEL             ....   58
 Basis Dimension        Dim             ....  158

MULLIKEN ATOMIC CHARGES
-----------------------
   0 C :    0.064549
   1 C :   -0.336516
   2 N :   -0.151970
   3 C :    0.129540
   4 N :   -0.197267
   5 C :    0.283980
   6 O :   -0.281098
   7 H :    0.007524
   8 H :    0.008745
   9 H :    0.012046
  10 H :    0.087717
  11 H :    0.086026
  12 H :    0.001356
  13 H :   -0.009371
  14 H :    0.100018
  15 H :    0.092369
  16 H :   -0.024016
  17 H :   -0.010724
  18 H :    0.137093
Sum of atomic charges:   -0.0000000

LOEWDIN ATOMIC CHARGES
----------------------
   0 C :   -0.066532
   1 C :   -0.057423
   2 N :   -0.071411
   3 C :    0.011721
   4 N :   -0.095210
   5 C :    0.056376
   6 O :   -0.125969
   7 H :    0.021168
   8 H :    0.025695
   9 H :    0.022556
  10 H :    0.041585
  11 H :    0.050902
  12 H :    0.020126
  13 H :    0.005262
  14 H :    0.058504
  15 H :    0.052099
  16 H :   -0.002849
  17 H :    0.012839
  18 H :    0.040562

  Mayer bond orders larger than 0.1
B(  0-C ,  1-C ) :   1.0434 B(  0-C ,  7-H ) :   0.9502 B(  0-C ,  8-H ) :   0.9493
B(  0-C ,  9-H ) :   0.9492 B(  1-C ,  2-N ) :   1.0616 B(  1-C ,  3-C ) :   0.9931
B(  1-C ,  5-C ) :   0.9972 B(  2-N , 10-H ) :   0.9332 B(  2-N , 11-H ) :   0.9619
B(  2-N , 18-H ) :   0.1257 B(  3-C ,  4-N ) :   1.1160 B(  3-C , 12-H ) :   0.9141
B(  3-C , 13-H ) :   0.9327 B(  4-N , 14-H ) :   0.9650 B(  4-N , 15-H ) :   0.9669
B(  5-C ,  6-O ) :   1.0966 B(  5-C , 16-H ) :   0.9166 B(  5-C , 17-H ) :   0.9266
B(  6-O , 18-H ) :   0.9384

FINAL SINGLE POINT ENERGY      -343.681067345849

DIPOLE MOMENT
-------------
                                X             Y             Z
Electronic contribution:      3.81568      -0.90258       0.61324
Nuclear contribution   :     -4.73740       1.52037      -1.22538
                        -----------------------------------------
Total Dipole Moment    :     -0.92172       0.61779      -0.61215
                        -----------------------------------------
Magnitude (a.u.)       :      1.26727
Magnitude (Debye)      :      3.22113

                             ****ORCA TERMINATED NORMALLY****
TOTAL RUN TIME: 0 days 0 hours 0 minutes 8 seconds 540 msec
