                         Program Version 3.0.3 - RELEASE   -
|  1> ! RI PBE def2-SVP def2-SVP/J NBO PAL2
|  2> % maxcore 2000
|  3> % output
|  4>     # printlevel mini
|  5>     print[ P_Basis ] 0
|  6>     print[ P_SCFInfo ] 1
|  7>     print[ P_SCFIterInfo ] 1
|  8>     print[ P_OrbEn ] 0
|  9>     print[ P_Cartesian ] 0
| 10> end
| 11> *xyz 0 1
| 12>  C        2.9796740000     0.8527000000     1.4645550000
| 13>  C        2.7377290000     0.2024430000     0.1079980000
| 14>  N        3.3657210000     0.9001870000    -1.0109430000
| 15>  C        3.1398090000    -1.2804210000     0.0777020000
| 16>  N        2.8702510000    -1.9135240000    -1.2077020000
| 17>  C        4.6126170000    -1.5305210000     0.4015780000
| 18>  O        4.9163780000    -2.8905450000     0.2512800000
| 19>  H        2.5583610000     1.8608780000     1.4880150000
| 20>  H        4.0485110000     0.9365880000     1.6793800000
| 21>  H        2.5200610000     0.2774770000     2.2735580000
| 22>  H        1.6594740000     0.2230150000    -0.0920940000
| 23>  H        4.3312420000     1.1234980000    -0.7995300000
| 24>  H        2.8962040000     1.7772260000    -1.1947320000
| 25>  H        2.5537570000    -1.8090110000     0.8379010000
| 26>  H        3.0759200000    -1.2387110000    -1.9397700000
| 27>  H        1.8958170000    -2.1699920000    -1.2931310000
| 28>  H        4.8370390000    -1.2503550000     1.4336330000
| 29>  H        5.2469730000    -0.9155610000    -0.2583140000
| 30>  H        4.3938540000    -3.1576810000    -0.5223860000
| 31> *
| 32>
| 33>                          ****END OF INPUT****
 Total Charge           Charge          ....    0
 Multiplicity           Mult            ....    1
 Number of Electrons    NEL             ....   58
 Basis Dimension        Dim             ....  158

MULLIKEN ATOMIC CHARGES
-----------------------
   0 C :    0.034192
   1 C :   -0.068688
   2 N :   -0.174429
   3 C :   -0.058060
   4 N :   -0.182763
   5 C :    0.226847
   6 O :   -0.288684
   7 H :    0.005809
   8 H :    0.021430
   9 H :    0.016880
  10 H :   -0.001907
  11 H :    0.088500
  12 H :    0.092275
  13 H :    0.001343
  14 H :    0.088074
  15 H :    0.092429
  16 H :   -0.003394
  17 H :   -0.025685
  18 H :    0.135831
Sum of atomic charges:   -0.0000000

LOEWDIN ATOMIC CHARGES
----------------------
   0 C :   -0.075789
   1 C :   -0.018364
   2 N :   -0.086697
   3 C :   -0.025069
   4 N :   -0.076436
   5 C :    0.046264
   6 O :   -0.131359
   7 H :    0.022605
   8 H :    0.023608
   9 H :    0.028837
  10 H :    0.018885
  11 H :    0.047739
  12 H :    0.054694
  13 H :    0.021328
  14 H :    0.044573
  15 H :    0.054542
  16 H :    0.013488
  17 H :   -0.003849
  18 H :    0.041001

  Mayer bond orders larger than 0.1
B(  0-C ,  1-C ) :   1.0718 B(  0-C ,  7-H ) :   0.9506 B(  0-C ,  8-H ) :   0.9527
B(  0-C ,  9-H ) :   0.9464 B(  1-C ,  2-N ) :   1.0817 B(  1-C ,  3-C ) :   0.9894
B(  1-C , 10-H ) :   0.9092 B(  2-N , 11-H ) :   0.9657 B(  2-N , 12-H ) :   0.9643
B(  3-C ,  4-N ) :   1.0963 B(  3-C ,  5-C ) :   1.0288 B(  3-C , 13-H ) :   0.9068
B(  4-N , 14-H ) :   0.9494 B(  4-N , 15-H ) :   0.9667 B(  4-N , 18-H ) :   0.1236
B(  5-C ,  6-O ) :   1.0986 B(  5-C , 16-H ) :   0.9307 B(  5-C , 17-H ) :   0.9110
B(  6-O , 18-H ) :   0.9455

FINAL SINGLE POINT ENERGY      -343.678020590610

DIPOLE MOMENT
-------------
                                X             Y             Z
Electronic contribution:      1.37173      -4.00793      -1.72307
Nuclear contribution   :     -2.23266       5.18455       1.58953
                        -----------------------------------------
Total Dipole Moment    :     -0.86093       1.17663      -0.13355
                        -----------------------------------------
Magnitude (a.u.)       :      1.46406
Magnitude (Debye)      :      3.72135

                             ****ORCA TERMINATED NORMALLY****
TOTAL RUN TIME: 0 days 0 hours 0 minutes 8 seconds 470 msec
