                         Program Version 3.0.3 - RELEASE   -
|  1> ! RI PBE def2-SVP def2-SVP/J NBO PAL2
|  2> % maxcore 2000
|  3> % output
|  4>     # printlevel mini
|  5>     print[ P_Basis ] 0
|  6>     print[ P_SCFInfo ] 1
|  7>     print[ P_SCFIterInfo ] 1
|  8>     print[ P_OrbEn ] 0
|  9>     print[ P_Cartesian ] 0
| 10> end
| 11> *xyz 0 1
| 12>  C        0.8430440000    -0.0521070000     0.3167540000
| 13>  C        2.3298180000     0.0306420000     0.0071540000
| 14>  N        3.0967370000    -1.1488650000     0.4011950000
| 15>  C        2.5640820000     0.2791330000    -1.4764000000
| 16>  N        3.9726340000     0.3614630000    -1.7553690000
| 17>  C        4.5069840000     1.2170060000    -2.6461210000
| 18>  O        3.8831000000     1.9922830000    -3.3377130000
| 19>  H        0.6775250000    -0.2145950000     1.3844120000
| 20>  H        0.3811410000    -0.8834660000    -0.2253010000
| 21>  H        0.3220390000     0.8654160000     0.0304180000
| 22>  H        2.7621010000     0.8775650000     0.5520470000
| 23>  H        2.6489350000    -1.9896650000     0.0507160000
| 24>  H        3.1321970000    -1.2347120000     1.4091370000
| 25>  H        2.0982260000     1.2114240000    -1.7989590000
| 26>  H        2.0987470000    -0.5310830000    -2.0567820000
| 27>  H        4.5670470000    -0.2438910000    -1.2094520000
| 28>  H        5.6104550000     1.1424510000    -2.6852470000
| 29> *
| 30>
| 31>                          ****END OF INPUT****
 Total Charge           Charge          ....    0
 Multiplicity           Mult            ....    1
 Number of Electrons    NEL             ....   56
 Basis Dimension        Dim             ....  148

MULLIKEN ATOMIC CHARGES
-----------------------
   0 C :    0.031858
   1 C :   -0.098810
   2 N :   -0.201580
   3 C :    0.157814
   4 N :   -0.125225
   5 C :    0.112031
   6 O :   -0.245384
   7 H :    0.016187
   8 H :    0.012872
   9 H :    0.023289
  10 H :    0.012205
  11 H :    0.090357
  12 H :    0.096851
  13 H :    0.027588
  14 H :    0.008251
  15 H :    0.106610
  16 H :   -0.024913
Sum of atomic charges:   -0.0000000

LOEWDIN ATOMIC CHARGES
----------------------
   0 C :   -0.073474
   1 C :   -0.011571
   2 N :   -0.092347
   3 C :    0.024919
   4 N :    0.003925
   5 C :    0.038851
   6 O :   -0.197671
   7 H :    0.024744
   8 H :    0.023425
   9 H :    0.031684
  10 H :    0.024960
  11 H :    0.052385
  12 H :    0.055937
  13 H :    0.031736
  14 H :    0.017995
  15 H :    0.062593
  16 H :   -0.018090

  Mayer bond orders larger than 0.1
B(  0-C ,  1-C ) :   1.0817 B(  0-C ,  7-H ) :   0.9589 B(  0-C ,  8-H ) :   0.9510
B(  0-C ,  9-H ) :   0.9483 B(  1-C ,  2-N ) :   1.0546 B(  1-C ,  3-C ) :   1.0563
B(  1-C , 10-H ) :   0.9125 B(  2-N , 11-H ) :   0.9683 B(  2-N , 12-H ) :   0.9687
B(  3-C ,  4-N ) :   1.0000 B(  3-C , 13-H ) :   0.9274 B(  3-C , 14-H ) :   0.9214
B(  4-N ,  5-C ) :   1.2425 B(  4-N ,  6-O ) :   0.1051 B(  4-N , 15-H ) :   0.9041
B(  5-C ,  6-O ) :   2.0088 B(  5-C , 16-H ) :   0.9245

FINAL SINGLE POINT ENERGY      -342.510136483725

DIPOLE MOMENT
-------------
                                X             Y             Z
Electronic contribution:      5.20076       3.17360      -5.52404
Nuclear contribution   :     -5.53905      -4.37212       6.96579
                        -----------------------------------------
Total Dipole Moment    :     -0.33829      -1.19852       1.44174
                        -----------------------------------------
Magnitude (a.u.)       :      1.90513
Magnitude (Debye)      :      4.84244

                             ****ORCA TERMINATED NORMALLY****
TOTAL RUN TIME: 0 days 0 hours 0 minutes 7 seconds 182 msec
