                         Program Version 3.0.3 - RELEASE   -
|  1> ! RI PBE def2-SVP def2-SVP/J NBO PAL2
|  2> % maxcore 2000
|  3> % output
|  4>     # printlevel mini
|  5>     print[ P_Basis ] 0
|  6>     print[ P_SCFInfo ] 1
|  7>     print[ P_SCFIterInfo ] 1
|  8>     print[ P_OrbEn ] 0
|  9>     print[ P_Cartesian ] 0
| 10> end
| 11> *xyz 0 1
| 12>  C        2.6448840000    -0.7516090000    -0.7758210000
| 13>  C        3.8860670000    -0.0218400000    -0.3071340000
| 14>  N        3.6596930000     0.6369900000     0.9550290000
| 15>  C        4.6315240000     1.2909970000     1.4627170000
| 16>  N        5.8845950000     1.4712390000     0.9889430000
| 17>  C        4.3614860000     1.9598930000     2.7692420000
| 18>  O        5.1872280000     2.6076620000     3.3573430000
| 19>  H        2.8201440000    -1.2494830000    -1.7322770000
| 20>  H        1.8148940000    -0.0527530000    -0.8957330000
| 21>  H        2.3460180000    -1.5036430000    -0.0431640000
| 22>  H        4.1932200000     0.7139440000    -1.0688570000
| 23>  H        4.7232500000    -0.7339700000    -0.2180240000
| 24>  H        6.1909830000     1.0740010000     0.1221930000
| 25>  H        6.5181820000     2.0262570000     1.5389560000
| 26>  H        3.3333320000     1.8009940000     3.1391970000
| 27> *
| 28>
| 29>                          ****END OF INPUT****
 Total Charge           Charge          ....    0
 Multiplicity           Mult            ....    1
 Number of Electrons    NEL             ....   54
 Basis Dimension        Dim             ....  138

MULLIKEN ATOMIC CHARGES
-----------------------
   0 C :    0.007117
   1 C :    0.012077
   2 N :   -0.155658
   3 C :   -0.165998
   4 N :   -0.029413
   5 C :    0.192828
   6 O :   -0.160249
   7 H :    0.009620
   8 H :    0.028044
   9 H :    0.028048
  10 H :    0.010792
  11 H :    0.010730
  12 H :    0.113771
  13 H :    0.111820
  14 H :   -0.013529
Sum of atomic charges:   -0.0000000

LOEWDIN ATOMIC CHARGES
----------------------
   0 C :   -0.070449
   1 C :   -0.009796
   2 N :   -0.129364
   3 C :   -0.049113
   4 N :    0.022718
   5 C :    0.088132
   6 O :   -0.108871
   7 H :    0.024843
   8 H :    0.029376
   9 H :    0.029021
  10 H :    0.014510
  11 H :    0.014451
  12 H :    0.071810
  13 H :    0.071960
  14 H :    0.000773

  Mayer bond orders larger than 0.1
B(  0-C ,  1-C ) :   1.1205 B(  0-C ,  7-H ) :   0.9524 B(  0-C ,  8-H ) :   0.9645
B(  0-C ,  9-H ) :   0.9650 B(  1-C ,  2-N ) :   1.0335 B(  1-C , 10-H ) :   0.9180
B(  1-C , 11-H ) :   0.9193 B(  2-N ,  3-C ) :   1.8245 B(  2-N ,  4-N ) :   0.1347
B(  3-C ,  4-N ) :   1.3068 B(  3-C ,  5-C ) :   0.9315 B(  4-N , 12-H ) :   0.9478
B(  4-N , 13-H ) :   0.9053 B(  5-C ,  6-O ) :   2.1439 B(  5-C , 14-H ) :   0.9216

FINAL SINGLE POINT ENERGY      -341.291111976560

DIPOLE MOMENT
-------------
                                X             Y             Z
Electronic contribution:      3.31249       5.48152       7.25983
Nuclear contribution   :     -2.65145      -5.75796      -8.14700
                        -----------------------------------------
Total Dipole Moment    :      0.66104      -0.27645      -0.88717
                        -----------------------------------------
Magnitude (a.u.)       :      1.14038
Magnitude (Debye)      :      2.89862

                             ****ORCA TERMINATED NORMALLY****
TOTAL RUN TIME: 0 days 0 hours 0 minutes 7 seconds 19 msec
