                         Program Version 3.0.3 - RELEASE   -
|  1> ! RI PBE def2-SVP def2-SVP/J NBO PAL2
|  2> % maxcore 2000
|  3> % output
|  4>     # printlevel mini
|  5>     print[ P_Basis ] 0
|  6>     print[ P_SCFInfo ] 1
|  7>     print[ P_SCFIterInfo ] 1
|  8>     print[ P_OrbEn ] 0
|  9>     print[ P_Cartesian ] 0
| 10> end
| 11> *xyz 0 1
| 12>  C        2.3619290000     0.1095960000     0.1588880000
| 13>  C        3.8094860000    -0.3197990000     0.0023230000
| 14>  N        4.5747900000     0.6723490000    -0.7090290000
| 15>  C        5.2064580000     0.3332580000    -1.7578860000
| 16>  N        6.0045760000     1.2318720000    -2.3900830000
| 17>  C        6.1752510000     1.2220670000    -3.8149700000
| 18>  O        5.8700970000     2.5248910000    -1.8992200000
| 19>  H        1.8029790000    -0.6210950000     0.7484540000
| 20>  H        1.8782560000     0.2086510000    -0.8156780000
| 21>  H        2.3036300000     1.0765510000     0.6627450000
| 22>  H        3.8566890000    -1.3005370000    -0.4967610000
| 23>  H        4.2514160000    -0.4515470000     0.9971670000
| 24>  H        5.2079830000    -0.6658530000    -2.2047030000
| 25>  H        6.2805740000     0.1863270000    -4.1410290000
| 26>  H        7.0864680000     1.7633670000    -4.0716300000
| 27>  H        5.3267980000     1.6865240000    -4.3319070000
| 28>  H        5.2600290000     2.3764700000    -1.1414910000
| 29> *
| 30>
| 31>                          ****END OF INPUT****
 Total Charge           Charge          ....    0
 Multiplicity           Mult            ....    1
 Number of Electrons    NEL             ....   56
 Basis Dimension        Dim             ....  148

MULLIKEN ATOMIC CHARGES
-----------------------
   0 C :   -0.032977
   1 C :    0.085911
   2 N :   -0.274344
   3 C :    0.090380
   4 N :   -0.097279
   5 C :    0.110749
   6 O :   -0.201772
   7 H :    0.021792
   8 H :    0.018349
   9 H :    0.027524
  10 H :   -0.013035
  11 H :    0.018731
  12 H :   -0.006512
  13 H :    0.029839
  14 H :    0.043791
  15 H :    0.027610
  16 H :    0.151242
Sum of atomic charges:   -0.0000000

LOEWDIN ATOMIC CHARGES
----------------------
   0 C :   -0.073819
   1 C :    0.009797
   2 N :   -0.163027
   3 C :    0.002914
   4 N :    0.059703
   5 C :    0.010735
   6 O :   -0.079458
   7 H :    0.027733
   8 H :    0.023816
   9 H :    0.028246
  10 H :    0.004417
  11 H :    0.022768
  12 H :    0.002058
  13 H :    0.031995
  14 H :    0.031038
  15 H :    0.018001
  16 H :    0.043083

  Mayer bond orders larger than 0.1
B(  0-C ,  1-C ) :   1.1190 B(  0-C ,  7-H ) :   0.9579 B(  0-C ,  8-H ) :   0.9638
B(  0-C ,  9-H ) :   0.9633 B(  1-C ,  2-N ) :   1.0387 B(  1-C , 10-H ) :   0.9181
B(  1-C , 11-H ) :   0.9318 B(  2-N ,  3-C ) :   1.7027 B(  2-N ,  4-N ) :   0.1052
B(  2-N , 16-H ) :   0.1565 B(  3-C ,  4-N ) :   1.1937 B(  3-C , 12-H ) :   0.9344
B(  4-N ,  5-C ) :   0.9989 B(  4-N ,  6-O ) :   0.9899 B(  5-C , 13-H ) :   0.9578
B(  5-C , 14-H ) :   0.9661 B(  5-C , 15-H ) :   0.9507 B(  6-O , 16-H ) :   0.9075

FINAL SINGLE POINT ENERGY      -342.431200025757

DIPOLE MOMENT
-------------
                                X             Y             Z
Electronic contribution:      4.83177       3.29163      -0.74030
Nuclear contribution   :     -5.00854      -4.01760       0.23226
                        -----------------------------------------
Total Dipole Moment    :     -0.17677      -0.72597      -0.50804
                        -----------------------------------------
Magnitude (a.u.)       :      0.90354
Magnitude (Debye)      :      2.29662

                             ****ORCA TERMINATED NORMALLY****
TOTAL RUN TIME: 0 days 0 hours 0 minutes 7 seconds 316 msec
