                         Program Version 3.0.3 - RELEASE   -
|  1> ! RI PBE def2-SVP def2-SVP/J NBO PAL2
|  2> % maxcore 2000
|  3> % output
|  4>     # printlevel mini
|  5>     print[ P_Basis ] 0
|  6>     print[ P_SCFInfo ] 1
|  7>     print[ P_SCFIterInfo ] 1
|  8>     print[ P_OrbEn ] 0
|  9>     print[ P_Cartesian ] 0
| 10> end
| 11> *xyz 0 1
| 12>  C        3.2515970000    -0.4253380000    -1.4047500000
| 13>  C        4.1745320000    -0.3716950000    -0.2059150000
| 14>  N        3.8710950000     0.7815640000     0.6239350000
| 15>  C        4.5564340000     0.9605840000     1.6627640000
| 16>  N        4.3261970000     2.0328680000     2.4983920000
| 17>  C        5.0272450000     2.2916660000     3.6401530000
| 18>  O        4.8211880000     3.2301490000     4.3639420000
| 19>  H        3.4778650000    -1.2917120000    -2.0304400000
| 20>  H        3.3575190000     0.4763940000    -2.0111570000
| 21>  H        2.2099990000    -0.4926150000    -1.0844020000
| 22>  H        5.2173190000    -0.3274780000    -0.5461420000
| 23>  H        4.0717450000    -1.2948920000     0.3791250000
| 24>  H        5.3745900000     0.3115460000     2.0002770000
| 25>  H        3.5839040000     2.6708700000     2.2434300000
| 26>  H        5.8154800000     1.5404790000     3.8319980000
| 27> *
| 28>
| 29>                          ****END OF INPUT****
 Total Charge           Charge          ....    0
 Multiplicity           Mult            ....    1
 Number of Electrons    NEL             ....   54
 Basis Dimension        Dim             ....  138

MULLIKEN ATOMIC CHARGES
-----------------------
   0 C :   -0.008174
   1 C :    0.045718
   2 N :   -0.189375
   3 C :    0.034951
   4 N :   -0.028161
   5 C :    0.125071
   6 O :   -0.194283
   7 H :    0.016158
   8 H :    0.029553
   9 H :    0.027952
  10 H :    0.013740
  11 H :    0.013595
  12 H :   -0.003130
  13 H :    0.127727
  14 H :   -0.011341
Sum of atomic charges:   -0.0000000

LOEWDIN ATOMIC CHARGES
----------------------
   0 C :   -0.073102
   1 C :    0.004329
   2 N :   -0.124191
   3 C :    0.038648
   4 N :    0.042706
   5 C :    0.062305
   6 O :   -0.151172
   7 H :    0.027181
   8 H :    0.028784
   9 H :    0.028345
  10 H :    0.019262
  11 H :    0.019336
  12 H :   -0.001442
  13 H :    0.090843
  14 H :   -0.011831

  Mayer bond orders larger than 0.1
B(  0-C ,  1-C ) :   1.1176 B(  0-C ,  7-H ) :   0.9544 B(  0-C ,  8-H ) :   0.9660
B(  0-C ,  9-H ) :   0.9652 B(  1-C ,  2-N ) :   0.9997 B(  1-C , 10-H ) :   0.9321
B(  1-C , 11-H ) :   0.9327 B(  2-N ,  3-C ) :   1.9042 B(  3-C ,  4-N ) :   1.1098
B(  3-C , 12-H ) :   0.9231 B(  4-N ,  5-C ) :   1.1377 B(  4-N , 13-H ) :   0.9089
B(  5-C ,  6-O ) :   2.0936 B(  5-C , 14-H ) :   0.9212

FINAL SINGLE POINT ENERGY      -341.303388121595

DIPOLE MOMENT
-------------
                                X             Y             Z
Electronic contribution:      1.41919       6.73443       8.80226
Nuclear contribution   :     -1.13940      -7.63431      -9.39608
                        -----------------------------------------
Total Dipole Moment    :      0.27979      -0.89988      -0.59381
                        -----------------------------------------
Magnitude (a.u.)       :      1.11386
Magnitude (Debye)      :      2.83121

                             ****ORCA TERMINATED NORMALLY****
TOTAL RUN TIME: 0 days 0 hours 0 minutes 6 seconds 707 msec
