                         Program Version 3.0.3 - RELEASE   -
|  1> ! RI PBE def2-SVP def2-SVP/J NBO PAL2
|  2> % maxcore 2000
|  3> % output
|  4>     # printlevel mini
|  5>     print[ P_Basis ] 0
|  6>     print[ P_SCFInfo ] 1
|  7>     print[ P_SCFIterInfo ] 1
|  8>     print[ P_OrbEn ] 0
|  9>     print[ P_Cartesian ] 0
| 10> end
| 11> *xyz 0 1
| 12>  C        3.3986680000    -1.0699000000     1.0871800000
| 13>  C        3.2078140000     0.2647680000     0.3887990000
| 14>  N        3.4211520000     1.3989510000     1.2716530000
| 15>  C        2.4164660000     1.8735990000     2.1035390000
| 16>  N        1.2335370000     1.4535070000     2.2395650000
| 17>  C        4.6554570000     2.0014240000     1.2988180000
| 18>  O        5.5986220000     1.6594350000     0.6339860000
| 19>  H        3.2109070000    -1.8871390000     0.3878790000
| 20>  H        2.7188500000    -1.1835860000     1.9338820000
| 21>  H        4.4225000000    -1.1647130000     1.4524690000
| 22>  H        2.2043180000     0.3523340000    -0.0358880000
| 23>  H        3.9233210000     0.3713400000    -0.4264560000
| 24>  H        2.7409390000     2.7284060000     2.6990050000
| 25>  H        1.0287610000     0.6519100000     1.6458840000
| 26>  H        4.6931970000     2.8487450000     2.0052850000
| 27> *
| 28>
| 29>                          ****END OF INPUT****
 Total Charge           Charge          ....    0
 Multiplicity           Mult            ....    1
 Number of Electrons    NEL             ....   54
 Basis Dimension        Dim             ....  138

MULLIKEN ATOMIC CHARGES
-----------------------
   0 C :   -0.024278
   1 C :    0.030329
   2 N :   -0.190657
   3 C :    0.013304
   4 N :   -0.103481
   5 C :    0.168325
   6 O :   -0.198187
   7 H :    0.040339
   8 H :    0.031816
   9 H :    0.042795
  10 H :    0.028068
  11 H :    0.047768
  12 H :    0.025139
  13 H :    0.086316
  14 H :    0.002404
Sum of atomic charges:   -0.0000000

LOEWDIN ATOMIC CHARGES
----------------------
   0 C :   -0.067997
   1 C :    0.024132
   2 N :   -0.010478
   3 C :    0.033874
   4 N :   -0.122132
   5 C :    0.070565
   6 O :   -0.148252
   7 H :    0.037604
   8 H :    0.027571
   9 H :    0.035987
  10 H :    0.023467
  11 H :    0.036904
  12 H :    0.019296
  13 H :    0.043906
  14 H :   -0.004447

  Mayer bond orders larger than 0.1
B(  0-C ,  1-C ) :   1.1223 B(  0-C ,  7-H ) :   0.9623 B(  0-C ,  8-H ) :   0.9641
B(  0-C ,  9-H ) :   0.9612 B(  1-C ,  2-N ) :   0.9522 B(  1-C , 10-H ) :   0.9347
B(  1-C , 11-H ) :   0.9220 B(  2-N ,  3-C ) :   1.0569 B(  2-N ,  5-C ) :   1.1026
B(  3-C ,  4-N ) :   2.0343 B(  3-C , 12-H ) :   0.9345 B(  4-N , 13-H ) :   0.9484
B(  5-C ,  6-O ) :   2.0497 B(  5-C , 14-H ) :   0.9231

FINAL SINGLE POINT ENERGY      -341.303351108365

DIPOLE MOMENT
-------------
                                X             Y             Z
Electronic contribution:      2.15405       4.98345       0.33724
Nuclear contribution   :     -2.38226      -5.39255      -0.50914
                        -----------------------------------------
Total Dipole Moment    :     -0.22821      -0.40910      -0.17190
                        -----------------------------------------
Magnitude (a.u.)       :      0.49899
Magnitude (Debye)      :      1.26834

                             ****ORCA TERMINATED NORMALLY****
TOTAL RUN TIME: 0 days 0 hours 0 minutes 6 seconds 613 msec
