                         Program Version 3.0.3 - RELEASE   -
|  1> ! RI PBE def2-SVP def2-SVP/J NBO PAL2
|  2> % maxcore 2000
|  3> % output
|  4>     # printlevel mini
|  5>     print[ P_Basis ] 0
|  6>     print[ P_SCFInfo ] 1
|  7>     print[ P_SCFIterInfo ] 1
|  8>     print[ P_OrbEn ] 0
|  9>     print[ P_Cartesian ] 0
| 10> end
| 11> *xyz 0 1
| 12>  C        3.1473430000    -1.4739190000     0.1674720000
| 13>  C        2.5185210000    -0.4238420000     1.0553050000
| 14>  N        3.2452340000     0.8403620000     1.0347070000
| 15>  C        2.5243680000     1.9052870000     1.7045980000
| 16>  N        4.5215030000     0.7066440000     1.5492310000
| 17>  C        5.6243260000     0.9307220000     0.7945340000
| 18>  O        6.7568700000     0.8353350000     1.2020930000
| 19>  H        2.5501160000    -2.3878060000     0.1871670000
| 20>  H        4.1556630000    -1.7268900000     0.4996320000
| 21>  H        3.2050860000    -1.1217920000    -0.8644680000
| 22>  H        2.4262930000    -0.8017830000     2.0895730000
| 23>  H        1.5045550000    -0.2037640000     0.7112820000
| 24>  H        1.5562380000     2.0427820000     1.2203300000
| 25>  H        3.0908610000     2.8326890000     1.6216390000
| 26>  H        2.3496150000     1.6940790000     2.7728600000
| 27>  H        4.6517040000     0.4514570000     2.5246010000
| 28>  H        5.3542240000     1.2100300000    -0.2393670000
| 29> *
| 30>
| 31>                          ****END OF INPUT****
 Total Charge           Charge          ....    0
 Multiplicity           Mult            ....    1
 Number of Electrons    NEL             ....   56
 Basis Dimension        Dim             ....  148

MULLIKEN ATOMIC CHARGES
-----------------------
   0 C :   -0.024039
   1 C :    0.076254
   2 N :   -0.255627
   3 C :    0.107431
   4 N :   -0.065353
   5 C :    0.147021
   6 O :   -0.226857
   7 H :    0.029320
   8 H :    0.035016
   9 H :    0.033993
  10 H :   -0.008504
  11 H :    0.014245
  12 H :    0.028609
  13 H :    0.035127
  14 H :   -0.001268
  15 H :    0.097679
  16 H :   -0.023048
Sum of atomic charges:   -0.0000000

LOEWDIN ATOMIC CHARGES
----------------------
   0 C :   -0.073991
   1 C :    0.008191
   2 N :   -0.055755
   3 C :   -0.001689
   4 N :    0.047368
   5 C :    0.044764
   6 O :   -0.183148
   7 H :    0.034102
   8 H :    0.028763
   9 H :    0.031291
  10 H :    0.000679
  11 H :    0.025928
  12 H :    0.027783
  13 H :    0.027162
  14 H :    0.002692
  15 H :    0.052610
  16 H :   -0.016749

  Mayer bond orders larger than 0.1
B(  0-C ,  1-C ) :   1.1228 B(  0-C ,  7-H ) :   0.9558 B(  0-C ,  8-H ) :   0.9591
B(  0-C ,  9-H ) :   0.9604 B(  1-C ,  2-N ) :   0.9926 B(  1-C , 10-H ) :   0.9263
B(  1-C , 11-H ) :   0.9348 B(  2-N ,  3-C ) :   1.0094 B(  2-N ,  4-N ) :   0.9669
B(  3-C , 12-H ) :   0.9636 B(  3-C , 13-H ) :   0.9708 B(  3-C , 14-H ) :   0.9456
B(  4-N ,  5-C ) :   1.1771 B(  4-N ,  6-O ) :   0.1071 B(  4-N , 15-H ) :   0.9015
B(  5-C ,  6-O ) :   2.0619 B(  5-C , 16-H ) :   0.9209

FINAL SINGLE POINT ENERGY      -342.470520169599

DIPOLE MOMENT
-------------
                                X             Y             Z
Electronic contribution:      7.45248       2.43974       0.54400
Nuclear contribution   :     -9.04397      -2.56258      -0.29500
                        -----------------------------------------
Total Dipole Moment    :     -1.59148      -0.12284       0.24900
                        -----------------------------------------
Magnitude (a.u.)       :      1.61552
Magnitude (Debye)      :      4.10633

                             ****ORCA TERMINATED NORMALLY****
TOTAL RUN TIME: 0 days 0 hours 0 minutes 7 seconds 981 msec
