                         Program Version 3.0.3 - RELEASE   -
|  1> ! RI PBE def2-SVP def2-SVP/J NBO PAL2
|  2> % maxcore 2000
|  3> % output
|  4>     # printlevel mini
|  5>     print[ P_Basis ] 0
|  6>     print[ P_SCFInfo ] 1
|  7>     print[ P_SCFIterInfo ] 1
|  8>     print[ P_OrbEn ] 0
|  9>     print[ P_Cartesian ] 0
| 10> end
| 11> *xyz 0 1
| 12>  C        1.1302660000    -0.1526640000     0.4985910000
| 13>  C        2.4888430000    -0.1221150000    -0.1682990000
| 14>  N        3.5074690000    -0.6119190000     0.7214570000
| 15>  C        4.8132320000    -0.7261120000     0.3685780000
| 16>  N        5.3752860000    -0.3483610000    -0.7139000000
| 17>  C        5.6850720000    -1.3295370000     1.4490440000
| 18>  O        5.0080320000    -2.2600470000     2.2724810000
| 19>  H        0.3641970000     0.2273570000    -0.1787740000
| 20>  H        1.1227430000     0.4649400000     1.3997240000
| 21>  H        0.8515950000    -1.1720300000     0.7790390000
| 22>  H        2.7306060000     0.9056540000    -0.4665100000
| 23>  H        2.4682010000    -0.7189120000    -1.0912500000
| 24>  H        3.2322540000    -1.0992350000     1.5593860000
| 25>  H        4.7174350000     0.0999410000    -1.3482030000
| 26>  H        6.0191890000    -0.5264390000     2.1113020000
| 27>  H        6.5678690000    -1.7567040000     0.9680460000
| 28>  H        4.9236220000    -3.0849270000     1.7874980000
| 29> *
| 30>
| 31>                          ****END OF INPUT****
 Total Charge           Charge          ....    0
 Multiplicity           Mult            ....    1
 Number of Electrons    NEL             ....   56
 Basis Dimension        Dim             ....  148

MULLIKEN ATOMIC CHARGES
-----------------------
   0 C :   -0.059576
   1 C :    0.069690
   2 N :   -0.109419
   3 C :   -0.258568
   4 N :   -0.123677
   5 C :    0.259041
   6 O :   -0.288488
   7 H :    0.034400
   8 H :    0.036629
   9 H :    0.029685
  10 H :    0.024547
  11 H :    0.018936
  12 H :    0.093367
  13 H :    0.065188
  14 H :    0.033706
  15 H :    0.017049
  16 H :    0.157490
Sum of atomic charges:   -0.0000000

LOEWDIN ATOMIC CHARGES
----------------------
   0 C :   -0.069512
   1 C :    0.014784
   2 N :   -0.016125
   3 C :   -0.029774
   4 N :   -0.185508
   5 C :    0.051706
   6 O :   -0.116985
   7 H :    0.036514
   8 H :    0.030444
   9 H :    0.027387
  10 H :    0.020068
  11 H :    0.015614
  12 H :    0.057572
  13 H :    0.033076
  14 H :    0.035400
  15 H :    0.021029
  16 H :    0.074309

  Mayer bond orders larger than 0.1
B(  0-C ,  1-C ) :   1.1242 B(  0-C ,  7-H ) :   0.9583 B(  0-C ,  8-H ) :   0.9643
B(  0-C ,  9-H ) :   0.9633 B(  1-C ,  2-N ) :   1.0132 B(  1-C , 10-H ) :   0.9311
B(  1-C , 11-H ) :   0.9314 B(  2-N ,  3-C ) :   1.2256 B(  2-N ,  4-N ) :   0.1140
B(  2-N , 12-H ) :   0.8955 B(  3-C ,  4-N ) :   1.9665 B(  3-C ,  5-C ) :   0.9633
B(  4-N , 13-H ) :   0.9400 B(  5-C ,  6-O ) :   1.0356 B(  5-C , 14-H ) :   0.9201
B(  5-C , 15-H ) :   0.9350 B(  6-O , 16-H ) :   0.9852

FINAL SINGLE POINT ENERGY      -342.483063301320

DIPOLE MOMENT
-------------
                                X             Y             Z
Electronic contribution:      5.35837      -1.80467       1.17754
Nuclear contribution   :     -6.44113       1.47860      -1.03467
                        -----------------------------------------
Total Dipole Moment    :     -1.08276      -0.32607       0.14287
                        -----------------------------------------
Magnitude (a.u.)       :      1.13978
Magnitude (Debye)      :      2.89710

                             ****ORCA TERMINATED NORMALLY****
TOTAL RUN TIME: 0 days 0 hours 0 minutes 7 seconds 622 msec
