                         Program Version 3.0.3 - RELEASE   -
|  1> ! RI PBE def2-SVP def2-SVP/J NBO PAL2
|  2> % maxcore 2000
|  3> % output
|  4>     # printlevel mini
|  5>     print[ P_Basis ] 0
|  6>     print[ P_SCFInfo ] 1
|  7>     print[ P_SCFIterInfo ] 1
|  8>     print[ P_OrbEn ] 0
|  9>     print[ P_Cartesian ] 0
| 10> end
| 11> *xyz 0 1
| 12>  C        1.3181220000    -0.0137740000     0.2340310000
| 13>  C        2.7766190000    -0.2870070000    -0.0899510000
| 14>  N        3.2947740000     0.6846340000    -1.0213990000
| 15>  C        4.2409250000     1.4227300000    -0.6382220000
| 16>  N        4.6994520000     2.4721410000    -1.4117500000
| 17>  O        6.0695070000     2.6994590000    -1.2543030000
| 18>  C        6.2900860000     4.0543520000    -0.9214530000
| 19>  H        0.9145010000    -0.7924540000     0.8857950000
| 20>  H        0.7240470000     0.0149470000    -0.6814640000
| 21>  H        1.2058240000     0.9487950000     0.7384710000
| 22>  H        2.8576750000    -1.2751730000    -0.5563500000
| 23>  H        3.3665580000    -0.3187510000     0.8405030000
| 24>  H        4.7458380000     1.3521600000     0.3331580000
| 25>  H        4.4823990000     2.3540690000    -2.3960170000
| 26>  H        7.3701590000     4.1595400000    -0.8116860000
| 27>  H        5.7943230000     4.3183470000     0.0173740000
| 28>  H        5.9369900000     4.7214880000    -1.7145280000
| 29> *
| 30>
| 31>                          ****END OF INPUT****
 Total Charge           Charge          ....    0
 Multiplicity           Mult            ....    1
 Number of Electrons    NEL             ....   56
 Basis Dimension        Dim             ....  148

MULLIKEN ATOMIC CHARGES
-----------------------
   0 C :   -0.035605
   1 C :    0.081038
   2 N :   -0.202594
   3 C :    0.048667
   4 N :    0.008992
   5 O :   -0.311293
   6 C :    0.158880
   7 H :    0.020372
   8 H :    0.031277
   9 H :    0.018249
  10 H :    0.016119
  11 H :   -0.014985
  12 H :   -0.010490
  13 H :    0.121772
  14 H :    0.036392
  15 H :    0.016373
  16 H :    0.016837
Sum of atomic charges:   -0.0000000

LOEWDIN ATOMIC CHARGES
----------------------
   0 C :   -0.072784
   1 C :    0.007686
   2 N :   -0.137877
   3 C :    0.010438
   4 N :    0.063844
   5 O :   -0.117011
   6 C :    0.043701
   7 H :    0.027016
   8 H :    0.029052
   9 H :    0.024193
  10 H :    0.022935
  11 H :    0.000962
  12 H :   -0.006800
  13 H :    0.062306
  14 H :    0.025255
  15 H :    0.008769
  16 H :    0.008314

  Mayer bond orders larger than 0.1
B(  0-C ,  1-C ) :   1.1123 B(  0-C ,  7-H ) :   0.9587 B(  0-C ,  8-H ) :   0.9632
B(  0-C ,  9-H ) :   0.9649 B(  1-C ,  2-N ) :   1.0293 B(  1-C , 10-H ) :   0.9336
B(  1-C , 11-H ) :   0.9143 B(  2-N ,  3-C ) :   1.8563 B(  3-C ,  4-N ) :   1.1340
B(  3-C , 12-H ) :   0.9243 B(  4-N ,  5-O ) :   0.9302 B(  4-N , 13-H ) :   0.9239
B(  5-O ,  6-C ) :   0.9816 B(  6-C , 14-H ) :   0.9708 B(  6-C , 15-H ) :   0.9666
B(  6-C , 16-H ) :   0.9677

FINAL SINGLE POINT ENERGY      -342.416347534284

DIPOLE MOMENT
-------------
                                X             Y             Z
Electronic contribution:      3.99568       1.08695      -3.49876
Nuclear contribution   :     -3.69061      -0.63169       3.69420
                        -----------------------------------------
Total Dipole Moment    :      0.30507       0.45526       0.19543
                        -----------------------------------------
Magnitude (a.u.)       :      0.58183
Magnitude (Debye)      :      1.47890

                             ****ORCA TERMINATED NORMALLY****
TOTAL RUN TIME: 0 days 0 hours 0 minutes 7 seconds 58 msec
