                         Program Version 3.0.3 - RELEASE   -
|  1> ! RI PBE def2-SVP def2-SVP/J NBO PAL2
|  2> % maxcore 2000
|  3> % output
|  4>     # printlevel mini
|  5>     print[ P_Basis ] 0
|  6>     print[ P_SCFInfo ] 1
|  7>     print[ P_SCFIterInfo ] 1
|  8>     print[ P_OrbEn ] 0
|  9>     print[ P_Cartesian ] 0
| 10> end
| 11> *xyz 0 1
| 12>  C        1.7122500000    -1.0116400000     0.5422760000
| 13>  C        2.7524830000    -0.4148920000    -0.3815940000
| 14>  N        3.4719300000     0.6386350000     0.2799750000
| 15>  C        4.4651700000     1.3493620000    -0.3168820000
| 16>  N        4.9301760000     1.2391780000    -1.4955600000
| 17>  O        4.9474440000     2.2631420000     0.5468450000
| 18>  C        5.9949990000     3.0802350000     0.0538100000
| 19>  H        1.1684240000    -1.8107250000     0.0367490000
| 20>  H        0.9864400000    -0.2569370000     0.8556220000
| 21>  H        2.1776750000    -1.4348490000     1.4360520000
| 22>  H        2.2643200000    -0.0270910000    -1.2855890000
| 23>  H        3.4489410000    -1.1985020000    -0.7083970000
| 24>  H        3.2442430000     0.8761010000     1.2289880000
| 25>  H        4.4608970000     0.5078250000    -2.0163320000
| 26>  H        6.8557220000     2.4754110000    -0.2365070000
| 27>  H        6.2564390000     3.7485090000     0.8729390000
| 28>  H        5.6658560000     3.6512270000    -0.8160030000
| 29> *
| 30>
| 31>                          ****END OF INPUT****
 Total Charge           Charge          ....    0
 Multiplicity           Mult            ....    1
 Number of Electrons    NEL             ....   56
 Basis Dimension        Dim             ....  148

MULLIKEN ATOMIC CHARGES
-----------------------
   0 C :   -0.065982
   1 C :    0.074333
   2 N :   -0.145435
   3 C :    0.015791
   4 N :   -0.182017
   5 O :   -0.281382
   6 C :    0.168812
   7 H :    0.034276
   8 H :    0.034874
   9 H :    0.034253
  10 H :    0.025168
  11 H :    0.021795
  12 H :    0.115139
  13 H :    0.072789
  14 H :    0.025220
  15 H :    0.024919
  16 H :    0.027445
Sum of atomic charges:   -0.0000000

LOEWDIN ATOMIC CHARGES
----------------------
   0 C :   -0.068483
   1 C :    0.017516
   2 N :   -0.029997
   3 C :    0.028792
   4 N :   -0.218892
   5 O :   -0.091819
   6 C :    0.065370
   7 H :    0.036717
   8 H :    0.029101
   9 H :    0.028874
  10 H :    0.017622
  11 H :    0.017206
  12 H :    0.070950
  13 H :    0.040689
  14 H :    0.018213
  15 H :    0.019395
  16 H :    0.018747

  Mayer bond orders larger than 0.1
B(  0-C ,  1-C ) :   1.1199 B(  0-C ,  7-H ) :   0.9608 B(  0-C ,  8-H ) :   0.9648
B(  0-C ,  9-H ) :   0.9653 B(  1-C ,  2-N ) :   1.0172 B(  1-C , 10-H ) :   0.9332
B(  1-C , 11-H ) :   0.9319 B(  2-N ,  3-C ) :   1.1732 B(  2-N , 12-H ) :   0.9175
B(  3-C ,  4-N ) :   1.8427 B(  3-C ,  5-O ) :   1.1738 B(  4-N , 13-H ) :   0.9365
B(  5-O ,  6-C ) :   0.9642 B(  6-C , 14-H ) :   0.9672 B(  6-C , 15-H ) :   0.9724
B(  6-C , 16-H ) :   0.9674

FINAL SINGLE POINT ENERGY      -342.489162428250

DIPOLE MOMENT
-------------
                                X             Y             Z
Electronic contribution:      2.94233       3.06753       0.18357
Nuclear contribution   :     -3.64353      -3.51532       0.34245
                        -----------------------------------------
Total Dipole Moment    :     -0.70120      -0.44779       0.52602
                        -----------------------------------------
Magnitude (a.u.)       :      0.98432
Magnitude (Debye)      :      2.50195

                             ****ORCA TERMINATED NORMALLY****
TOTAL RUN TIME: 0 days 0 hours 0 minutes 7 seconds 540 msec
