                         Program Version 3.0.3 - RELEASE   -
|  1> ! RI PBE def2-SVP def2-SVP/J NBO PAL2
|  2> % maxcore 2000
|  3> % output
|  4>     # printlevel mini
|  5>     print[ P_Basis ] 0
|  6>     print[ P_SCFInfo ] 1
|  7>     print[ P_SCFIterInfo ] 1
|  8>     print[ P_OrbEn ] 0
|  9>     print[ P_Cartesian ] 0
| 10> end
| 11> *xyz 0 1
| 12>  C        0.9861690000    -0.0647720000    -0.0129950000
| 13>  C        2.3153220000     0.0836640000     0.0365260000
| 14>  N        3.0248350000     0.7457610000    -0.9633910000
| 15>  C        4.3720050000     0.9570230000    -1.0199790000
| 16>  O        4.9088870000     1.5423260000    -1.9273460000
| 17>  C        3.0678080000    -0.4378900000     1.1313060000
| 18>  C        3.6766280000    -0.8867780000     2.0643180000
| 19>  H        0.4049990000     0.3270210000    -0.8389800000
| 20>  H        0.4693380000    -0.5835340000     0.7798650000
| 21>  H        2.4966880000     1.1165520000    -1.7399670000
| 22>  H        4.9103850000     0.5370040000    -0.1563610000
| 23>  H        4.2144460000    -1.2860750000     2.8921050000
| 24> *
| 25>
| 26>                          ****END OF INPUT****
 Total Charge           Charge          ....    0
 Multiplicity           Mult            ....    1
 Number of Electrons    NEL             ....   50
 Basis Dimension        Dim             ....  123

MULLIKEN ATOMIC CHARGES
-----------------------
   0 C :   -0.005875
   1 C :   -0.007324
   2 N :   -0.041607
   3 C :    0.121280
   4 O :   -0.205566
   5 C :    0.367071
   6 C :   -0.420152
   7 H :    0.018180
   8 H :    0.031647
   9 H :    0.115835
  10 H :    0.010770
  11 H :    0.015740
Sum of atomic charges:   -0.0000000

LOEWDIN ATOMIC CHARGES
----------------------
   0 C :   -0.073401
   1 C :   -0.007305
   2 N :    0.042530
   3 C :    0.063119
   4 O :   -0.160298
   5 C :   -0.022858
   6 C :   -0.036836
   7 H :    0.027401
   8 H :    0.038843
   9 H :    0.086792
  10 H :   -0.000220
  11 H :    0.042234

  Mayer bond orders larger than 0.1
B(  0-C ,  1-C ) :   1.8487 B(  0-C ,  6-C ) :   0.1064 B(  0-C ,  7-H ) :   0.9246
B(  0-C ,  8-H ) :   0.9275 B(  1-C ,  2-N ) :   1.1266 B(  1-C ,  5-C ) :   0.9487
B(  2-N ,  3-C ) :   1.1378 B(  2-N ,  9-H ) :   0.9057 B(  3-C ,  4-O ) :   2.0771
B(  3-C , 10-H ) :   0.9188 B(  5-C ,  6-C ) :   2.2852 B(  5-C , 11-H ) :  -0.1028
B(  6-C , 11-H ) :   1.0929

FINAL SINGLE POINT ENERGY      -322.806994733426

DIPOLE MOMENT
-------------
                                X             Y             Z
Electronic contribution:      2.59520       0.94773      -1.05370
Nuclear contribution   :     -3.37974      -1.40688       1.68568
                        -----------------------------------------
Total Dipole Moment    :     -0.78454      -0.45915       0.63198
                        -----------------------------------------
Magnitude (a.u.)       :      1.10712
Magnitude (Debye)      :      2.81408

                             ****ORCA TERMINATED NORMALLY****
TOTAL RUN TIME: 0 days 0 hours 0 minutes 5 seconds 866 msec
