                         Program Version 3.0.3 - RELEASE   -
|  1> ! RI PBE def2-SVP def2-SVP/J NBO PAL2
|  2> % maxcore 2000
|  3> % output
|  4>     # printlevel mini
|  5>     print[ P_Basis ] 0
|  6>     print[ P_SCFInfo ] 1
|  7>     print[ P_SCFIterInfo ] 1
|  8>     print[ P_OrbEn ] 0
|  9>     print[ P_Cartesian ] 0
| 10> end
| 11> *xyz 0 1
| 12>  C        0.9449170000     1.5320680000     1.3496600000
| 13>  C        2.1415790000     1.0522040000     1.0256380000
| 14>  N        3.3442710000     1.6024860000     1.4291440000
| 15>  C        4.5641930000     1.0811860000     1.0761900000
| 16>  O        4.6751410000     0.0940030000     0.3804760000
| 17>  C        5.7194670000     1.8360650000     1.6235980000
| 18>  C        6.9610040000     1.4493480000     1.3660080000
| 19>  H        0.0510220000     1.0414770000     0.9921290000
| 20>  H        0.8202810000     2.4129990000     1.9702010000
| 21>  H        2.2732360000     0.1732440000     0.4065770000
| 22>  H        3.3245300000     2.4247580000     2.0095630000
| 23>  H        5.5226330000     2.7102820000     2.2384260000
| 24>  H        7.1334020000     0.5736600000     0.7498330000
| 25>  H        7.8177330000     1.9855000000     1.7552560000
| 26> *
| 27>
| 28>                          ****END OF INPUT****
 Total Charge           Charge          ....    0
 Multiplicity           Mult            ....    1
 Number of Electrons    NEL             ....   52
 Basis Dimension        Dim             ....  133

MULLIKEN ATOMIC CHARGES
-----------------------
   0 C :   -0.065362
   1 C :    0.037274
   2 N :   -0.065859
   3 C :    0.088465
   4 O :   -0.196795
   5 C :   -0.087618
   6 C :    0.025902
   7 H :    0.034498
   8 H :    0.013134
   9 H :    0.032442
  10 H :    0.111135
  11 H :   -0.008028
  12 H :    0.048619
  13 H :    0.032193
Sum of atomic charges:    0.0000000

LOEWDIN ATOMIC CHARGES
----------------------
   0 C :   -0.107050
   1 C :    0.020013
   2 N :    0.042347
   3 C :    0.029370
   4 O :   -0.175355
   5 C :   -0.078622
   6 C :    0.010420
   7 H :    0.032908
   8 H :    0.019966
   9 H :    0.035387
  10 H :    0.080168
  11 H :    0.022888
  12 H :    0.036523
  13 H :    0.031038

  Mayer bond orders larger than 0.1
B(  0-C ,  1-C ) :   1.8836 B(  0-C ,  7-H ) :   0.9458 B(  0-C ,  8-H ) :   0.9509
B(  1-C ,  2-N ) :   1.1210 B(  1-C ,  9-H ) :   0.9538 B(  2-N ,  3-C ) :   1.1329
B(  2-N , 10-H ) :   0.9180 B(  3-C ,  4-O ) :   2.0739 B(  3-C ,  5-C ) :   0.9612
B(  5-C ,  6-C ) :   1.9752 B(  5-C , 11-H ) :   0.9409 B(  6-C , 12-H ) :   0.9336
B(  6-C , 13-H ) :   0.9382

FINAL SINGLE POINT ENERGY      -324.059908309648

DIPOLE MOMENT
-------------
                                X             Y             Z
Electronic contribution:      1.27400      -1.57474      -1.09975
Nuclear contribution   :     -1.29262       2.57052       1.79922
                        -----------------------------------------
Total Dipole Moment    :     -0.01862       0.99578       0.69947
                        -----------------------------------------
Magnitude (a.u.)       :      1.21704
Magnitude (Debye)      :      3.09346

                             ****ORCA TERMINATED NORMALLY****
TOTAL RUN TIME: 0 days 0 hours 0 minutes 6 seconds 459 msec
