                         Program Version 3.0.3 - RELEASE   -
|  1> ! RI PBE def2-SVP def2-SVP/J NBO PAL2
|  2> % maxcore 2000
|  3> % output
|  4>     # printlevel mini
|  5>     print[ P_Basis ] 0
|  6>     print[ P_SCFInfo ] 1
|  7>     print[ P_SCFIterInfo ] 1
|  8>     print[ P_OrbEn ] 0
|  9>     print[ P_Cartesian ] 0
| 10> end
| 11> *xyz 0 1
| 12>  C        0.8903700000    -0.0449100000    -0.0229430000
| 13>  C        2.2178110000    -0.0911750000     0.0031410000
| 14>  N        3.0438630000     0.8200920000    -0.6328840000
| 15>  C        4.4084720000     0.7454910000    -0.5875010000
| 16>  O        5.0232020000    -0.1123950000     0.0047340000
| 17>  C        5.0637850000     1.8098560000    -1.3289540000
| 18>  C        5.6356710000     2.6756090000    -1.9322570000
| 19>  H        0.3144960000    -0.7947780000     0.4999880000
| 20>  H        0.3456890000     0.7267550000    -0.5559080000
| 21>  H        2.7681910000    -0.8586560000     0.5331660000
| 22>  H        2.6321130000     1.5765820000    -1.1557460000
| 23>  H        6.1550360000     3.4386290000    -2.4642350000
| 24> *
| 25>
| 26>                          ****END OF INPUT****
 Total Charge           Charge          ....    0
 Multiplicity           Mult            ....    1
 Number of Electrons    NEL             ....   50
 Basis Dimension        Dim             ....  123

MULLIKEN ATOMIC CHARGES
-----------------------
   0 C :   -0.058817
   1 C :    0.037339
   2 N :   -0.066565
   3 C :    0.087449
   4 O :   -0.178580
   5 C :    0.359686
   6 C :   -0.416748
   7 H :    0.038557
   8 H :    0.019423
   9 H :    0.034268
  10 H :    0.123680
  11 H :    0.020308
Sum of atomic charges:   -0.0000000

LOEWDIN ATOMIC CHARGES
----------------------
   0 C :   -0.099937
   1 C :    0.019265
   2 N :    0.050704
   3 C :    0.017970
   4 O :   -0.145704
   5 C :   -0.047680
   6 C :   -0.021484
   7 H :    0.035003
   8 H :    0.022874
   9 H :    0.036865
  10 H :    0.089291
  11 H :    0.042832

  Mayer bond orders larger than 0.1
B(  0-C ,  1-C ) :   1.8956 B(  0-C ,  7-H ) :   0.9422 B(  0-C ,  8-H ) :   0.9480
B(  1-C ,  2-N ) :   1.1113 B(  1-C ,  9-H ) :   0.9550 B(  2-N ,  3-C ) :   1.1676
B(  2-N , 10-H ) :   0.9175 B(  3-C ,  4-O ) :   2.0636 B(  3-C ,  5-C ) :   0.8511
B(  5-C ,  6-C ) :   2.3525 B(  6-C , 11-H ) :   1.0867

FINAL SINGLE POINT ENERGY      -322.808193631258

DIPOLE MOMENT
-------------
                                X             Y             Z
Electronic contribution:      5.23496       0.76303      -0.55341
Nuclear contribution   :     -5.99070       0.12299      -0.05772
                        -----------------------------------------
Total Dipole Moment    :     -0.75574       0.88602      -0.61113
                        -----------------------------------------
Magnitude (a.u.)       :      1.31516
Magnitude (Debye)      :      3.34288

                             ****ORCA TERMINATED NORMALLY****
TOTAL RUN TIME: 0 days 0 hours 0 minutes 5 seconds 476 msec
