                         Program Version 3.0.3 - RELEASE   -
|  1> ! RI PBE def2-SVP def2-SVP/J NBO PAL2
|  2> % maxcore 2000
|  3> % output
|  4>     # printlevel mini
|  5>     print[ P_Basis ] 0
|  6>     print[ P_SCFInfo ] 1
|  7>     print[ P_SCFIterInfo ] 1
|  8>     print[ P_OrbEn ] 0
|  9>     print[ P_Cartesian ] 0
| 10> end
| 11> *xyz 0 1
| 12>  C        0.7514070000    -0.3487840000     0.0296510000
| 13>  C        2.2115490000     0.0830080000     0.1696480000
| 14>  N        3.0843540000    -0.5042710000    -0.8432970000
| 15>  C        2.3050180000     1.6072910000    -0.0313510000
| 16>  O        3.6267680000     2.0582880000    -0.0374020000
| 17>  C        2.7006750000    -0.2698480000     1.5457250000
| 18>  C        3.8289990000    -0.8927740000     1.8506880000
| 19>  H        0.3670460000    -0.0818540000    -0.9590450000
| 20>  H        0.1186330000     0.1355260000     0.7787830000
| 21>  H        0.6568120000    -1.4297870000     0.1562270000
| 22>  H        2.6657280000    -0.4038100000    -1.7610780000
| 23>  H        3.2118730000    -1.4950780000    -0.6759200000
| 24>  H        1.7696320000     2.1242090000     0.7702870000
| 25>  H        1.7962830000     1.8527190000    -0.9793020000
| 26>  H        4.1331440000     1.3438960000    -0.4509870000
| 27>  H        2.0347300000     0.0428730000     2.3473310000
| 28>  H        4.5399980000    -1.2005040000     1.0922550000
| 29>  H        4.0913510000    -1.0969810000     2.8819780000
| 30> *
| 31>
| 32>                          ****END OF INPUT****
 Total Charge           Charge          ....    0
 Multiplicity           Mult            ....    1
 Number of Electrons    NEL             ....   56
 Basis Dimension        Dim             ....  153

MULLIKEN ATOMIC CHARGES
-----------------------
   0 C :    0.066266
   1 C :   -0.280405
   2 N :   -0.151940
   3 C :    0.267747
   4 O :   -0.271950
   5 C :    0.017072
   6 C :   -0.032669
   7 H :    0.009744
   8 H :    0.014546
   9 H :    0.018592
  10 H :    0.093021
  11 H :    0.098597
  12 H :   -0.003381
  13 H :   -0.019299
  14 H :    0.142746
  15 H :   -0.004906
  16 H :    0.013876
  17 H :    0.022342
Sum of atomic charges:    0.0000000

LOEWDIN ATOMIC CHARGES
----------------------
   0 C :   -0.059172
   1 C :   -0.051694
   2 N :   -0.068957
   3 C :    0.062326
   4 O :   -0.119127
   5 C :   -0.020159
   6 C :   -0.065111
   7 H :    0.021488
   8 H :    0.027894
   9 H :    0.025968
  10 H :    0.056190
  11 H :    0.055030
  12 H :    0.016665
  13 H :   -0.003610
  14 H :    0.048247
  15 H :    0.028207
  16 H :    0.019395
  17 H :    0.026420

  Mayer bond orders larger than 0.1
B(  0-C ,  1-C ) :   1.0345 B(  0-C ,  7-H ) :   0.9464 B(  0-C ,  8-H ) :   0.9451
B(  0-C ,  9-H ) :   0.9554 B(  1-C ,  2-N ) :   1.0687 B(  1-C ,  3-C ) :   0.9905
B(  1-C ,  5-C ) :   0.9680 B(  2-N , 10-H ) :   0.9596 B(  2-N , 11-H ) :   0.9476
B(  3-C ,  4-O ) :   1.1227 B(  3-C , 12-H ) :   0.9288 B(  3-C , 13-H ) :   0.9135
B(  4-O , 14-H ) :   0.9515 B(  5-C ,  6-C ) :   2.0238 B(  5-C , 15-H ) :   0.9539
B(  6-C , 16-H ) :   0.9268 B(  6-C , 17-H ) :   0.9385

FINAL SINGLE POINT ENERGY      -326.435673572863

DIPOLE MOMENT
-------------
                                X             Y             Z
Electronic contribution:      2.97828       2.12903       0.09529
Nuclear contribution   :     -3.56345      -3.01071      -0.44017
                        -----------------------------------------
Total Dipole Moment    :     -0.58517      -0.88168      -0.34488
                        -----------------------------------------
Magnitude (a.u.)       :      1.11298
Magnitude (Debye)      :      2.82898

                             ****ORCA TERMINATED NORMALLY****
TOTAL RUN TIME: 0 days 0 hours 0 minutes 8 seconds 123 msec
