                         Program Version 3.0.3 - RELEASE   -
|  1> ! RI PBE def2-SVP def2-SVP/J NBO PAL2
|  2> % maxcore 2000
|  3> % output
|  4>     # printlevel mini
|  5>     print[ P_Basis ] 0
|  6>     print[ P_SCFInfo ] 1
|  7>     print[ P_SCFIterInfo ] 1
|  8>     print[ P_OrbEn ] 0
|  9>     print[ P_Cartesian ] 0
| 10> end
| 11> *xyz 0 1
| 12>  C        1.0054280000     0.1670760000    -0.0732660000
| 13>  C        2.5329740000     0.0913900000    -0.0356500000
| 14>  N        3.1706890000     1.3472690000     0.3840160000
| 15>  C        2.9763970000    -0.9695250000     0.9902000000
| 16>  O        4.3606800000    -0.9890660000     1.1513490000
| 17>  C        3.0378050000    -0.2552350000    -1.3647950000
| 18>  C        3.4199890000    -0.5362000000    -2.4668830000
| 19>  H        0.6229520000     0.4419850000     0.9138560000
| 20>  H        0.5719020000    -0.7949970000    -0.3545410000
| 21>  H        0.6764160000     0.9145860000    -0.7970170000
| 22>  H        2.6322850000     1.7754410000     1.1289350000
| 23>  H        3.2171220000     2.0036630000    -0.3842880000
| 24>  H        2.6519220000    -1.9608570000     0.6658890000
| 25>  H        2.4625590000    -0.7377370000     1.9384860000
| 26>  H        4.6307830000    -0.0600450000     1.0945100000
| 27>  H        3.7713960000    -0.7949470000    -3.4377010000
| 28> *
| 29>
| 30>                          ****END OF INPUT****
 Total Charge           Charge          ....    0
 Multiplicity           Mult            ....    1
 Number of Electrons    NEL             ....   54
 Basis Dimension        Dim             ....  143

MULLIKEN ATOMIC CHARGES
-----------------------
   0 C :    0.087393
   1 C :   -0.324348
   2 N :   -0.143321
   3 C :    0.279906
   4 O :   -0.269026
   5 C :    0.507526
   6 C :   -0.532388
   7 H :    0.012844
   8 H :    0.027140
   9 H :    0.023152
  10 H :    0.093903
  11 H :    0.104077
  12 H :    0.010126
  13 H :   -0.016413
  14 H :    0.141110
  15 H :   -0.001682
Sum of atomic charges:   -0.0000000

LOEWDIN ATOMIC CHARGES
----------------------
   0 C :   -0.049499
   1 C :   -0.055586
   2 N :   -0.065129
   3 C :    0.065179
   4 O :   -0.115407
   5 C :   -0.011213
   6 C :   -0.075826
   7 H :    0.023058
   8 H :    0.034290
   9 H :    0.028745
  10 H :    0.056576
  11 H :    0.060659
  12 H :    0.021806
  13 H :   -0.001782
  14 H :    0.047837
  15 H :    0.036292

  Mayer bond orders larger than 0.1
B(  0-C ,  1-C ) :   1.0402 B(  0-C ,  7-H ) :   0.9431 B(  0-C ,  8-H ) :   0.9498
B(  0-C ,  9-H ) :   0.9530 B(  1-C ,  2-N ) :   1.0584 B(  1-C ,  3-C ) :   0.9956
B(  1-C ,  5-C ) :   0.9056 B(  2-N , 10-H ) :   0.9586 B(  2-N , 11-H ) :   0.9542
B(  2-N , 14-H ) :   0.1055 B(  3-C ,  4-O ) :   1.1169 B(  3-C , 12-H ) :   0.9291
B(  3-C , 13-H ) :   0.9155 B(  4-O , 14-H ) :   0.9479 B(  5-C ,  6-C ) :   2.2800
B(  5-C , 15-H ) :  -0.1227 B(  6-C , 15-H ) :   1.1119

FINAL SINGLE POINT ENERGY      -325.189530314393

DIPOLE MOMENT
-------------
                                X             Y             Z
Electronic contribution:      4.04985      -1.12250      -1.82759
Nuclear contribution   :     -4.87309       1.94411       1.66730
                        -----------------------------------------
Total Dipole Moment    :     -0.82324       0.82161      -0.16029
                        -----------------------------------------
Magnitude (a.u.)       :      1.17408
Magnitude (Debye)      :      2.98427

                             ****ORCA TERMINATED NORMALLY****
TOTAL RUN TIME: 0 days 0 hours 0 minutes 7 seconds 711 msec
