                         Program Version 3.0.3 - RELEASE   -
|  1> ! RI PBE def2-SVP def2-SVP/J NBO PAL2
|  2> % maxcore 2000
|  3> % output
|  4>     # printlevel mini
|  5>     print[ P_Basis ] 0
|  6>     print[ P_SCFInfo ] 1
|  7>     print[ P_SCFIterInfo ] 1
|  8>     print[ P_OrbEn ] 0
|  9>     print[ P_Cartesian ] 0
| 10> end
| 11> *xyz 0 1
| 12>  C        1.1044750000    -0.6840620000    -0.3167310000
| 13>  C        2.5095230000    -0.1449690000    -0.1021310000
| 14>  N        3.2947600000     0.0288350000    -1.3182650000
| 15>  C        2.5577200000     1.1964090000     0.6579100000
| 16>  O        3.8989230000     1.5729870000     0.8117440000
| 17>  C        1.7250400000     2.2590100000    -0.0033860000
| 18>  C        2.2059590000     3.3879870000    -0.5032290000
| 19>  H        1.1421810000    -1.6928120000    -0.7352440000
| 20>  H        0.5405540000    -0.0570370000    -1.0119170000
| 21>  H        0.5470340000    -0.7341680000     0.6234670000
| 22>  H        3.0662440000    -0.8497870000     0.5249050000
| 23>  H        2.7822230000     0.5744530000    -2.0021510000
| 24>  H        3.5315850000    -0.8593060000    -1.7389730000
| 25>  H        2.1488770000     1.0219170000     1.6620470000
| 26>  H        4.3259780000     1.2721270000    -0.0070650000
| 27>  H        0.6555060000     2.0651550000    -0.0479520000
| 28>  H        3.2638500000     3.6155400000    -0.4397310000
| 29>  H        1.5561780000     4.1227300000    -0.9643960000
| 30> *
| 31>
| 32>                          ****END OF INPUT****
 Total Charge           Charge          ....    0
 Multiplicity           Mult            ....    1
 Number of Electrons    NEL             ....   56
 Basis Dimension        Dim             ....  153

MULLIKEN ATOMIC CHARGES
-----------------------
   0 C :    0.035757
   1 C :   -0.103433
   2 N :   -0.196346
   3 C :    0.196288
   4 O :   -0.259388
   5 C :   -0.100603
   6 C :   -0.025848
   7 H :    0.013201
   8 H :    0.019906
   9 H :    0.016961
  10 H :    0.017058
  11 H :    0.098519
  12 H :    0.100260
  13 H :    0.005753
  14 H :    0.142888
  15 H :   -0.001767
  16 H :    0.019889
  17 H :    0.020906
Sum of atomic charges:    0.0000000

LOEWDIN ATOMIC CHARGES
----------------------
   0 C :   -0.076818
   1 C :   -0.016993
   2 N :   -0.074151
   3 C :    0.038779
   4 O :   -0.106180
   5 C :   -0.057421
   6 C :   -0.060219
   7 H :    0.025388
   8 H :    0.023362
   9 H :    0.029284
  10 H :    0.025751
  11 H :    0.054508
  12 H :    0.057063
  13 H :    0.026622
  14 H :    0.044501
  15 H :    0.022501
  16 H :    0.020937
  17 H :    0.023084

  Mayer bond orders larger than 0.1
B(  0-C ,  1-C ) :   1.0798 B(  0-C ,  7-H ) :   0.9487 B(  0-C ,  8-H ) :   0.9472
B(  0-C ,  9-H ) :   0.9469 B(  1-C ,  2-N ) :   1.0642 B(  1-C ,  3-C ) :   1.0076
B(  1-C , 10-H ) :   0.9106 B(  2-N , 11-H ) :   0.9647 B(  2-N , 12-H ) :   0.9662
B(  2-N , 14-H ) :   0.1169 B(  3-C ,  4-O ) :   1.1209 B(  3-C ,  5-C ) :   0.9761
B(  3-C , 13-H ) :   0.8910 B(  4-O , 14-H ) :   0.9402 B(  5-C ,  6-C ) :   2.0076
B(  5-C , 15-H ) :   0.9407 B(  6-C , 16-H ) :   0.9326 B(  6-C , 17-H ) :   0.9424

FINAL SINGLE POINT ENERGY      -326.440083580041

DIPOLE MOMENT
-------------
                                X             Y             Z
Electronic contribution:      3.22293       2.11257       1.82255
Nuclear contribution   :     -3.74767      -2.89443      -2.56168
                        -----------------------------------------
Total Dipole Moment    :     -0.52474      -0.78186      -0.73913
                        -----------------------------------------
Magnitude (a.u.)       :      1.19707
Magnitude (Debye)      :      3.04271

                             ****ORCA TERMINATED NORMALLY****
TOTAL RUN TIME: 0 days 0 hours 0 minutes 7 seconds 917 msec
