                         Program Version 3.0.3 - RELEASE   -
|  1> ! RI PBE def2-SVP def2-SVP/J NBO PAL2
|  2> % maxcore 2000
|  3> % output
|  4>     # printlevel mini
|  5>     print[ P_Basis ] 0
|  6>     print[ P_SCFInfo ] 1
|  7>     print[ P_SCFIterInfo ] 1
|  8>     print[ P_OrbEn ] 0
|  9>     print[ P_Cartesian ] 0
| 10> end
| 11> *xyz 0 1
| 12>  C        0.9181710000     0.1114010000     0.1628220000
| 13>  C        2.4346710000     0.0624620000     0.1091650000
| 14>  N        3.0200580000    -1.2634020000     0.2597090000
| 15>  C        3.0153980000     0.6574660000    -1.1863830000
| 16>  O        4.4174110000     0.6255490000    -1.1295070000
| 17>  C        2.5010760000    -0.0465720000    -2.3692890000
| 18>  C        2.0831890000    -0.6418490000    -3.3251850000
| 19>  H        0.5580620000    -0.2610190000     1.1248050000
| 20>  H        0.4820910000    -0.5029860000    -0.6289600000
| 21>  H        0.5482290000     1.1331620000     0.0383170000
| 22>  H        2.8484430000     0.6819690000     0.9116260000
| 23>  H        2.5598320000    -1.9255150000    -0.3555770000
| 24>  H        2.9264090000    -1.6031230000     1.2072070000
| 25>  H        2.7174640000     1.7088940000    -1.2563050000
| 26>  H        4.6180130000    -0.2353460000    -0.7279330000
| 27>  H        1.7265830000    -1.1556910000    -4.1866120000
| 28> *
| 29>
| 30>                          ****END OF INPUT****
 Total Charge           Charge          ....    0
 Multiplicity           Mult            ....    1
 Number of Electrons    NEL             ....   54
 Basis Dimension        Dim             ....  143

MULLIKEN ATOMIC CHARGES
-----------------------
   0 C :    0.040426
   1 C :   -0.080287
   2 N :   -0.195741
   3 C :    0.202768
   4 O :   -0.258329
   5 C :    0.372533
   6 C :   -0.513467
   7 H :    0.009837
   8 H :    0.027083
   9 H :    0.016404
  10 H :    0.015874
  11 H :    0.099957
  12 H :    0.099525
  13 H :    0.022574
  14 H :    0.141927
  15 H :   -0.001086
Sum of atomic charges:   -0.0000000

LOEWDIN ATOMIC CHARGES
----------------------
   0 C :   -0.073071
   1 C :   -0.011670
   2 N :   -0.075732
   3 C :    0.031465
   4 O :   -0.099783
   5 C :   -0.031340
   6 C :   -0.086472
   7 H :    0.024140
   8 H :    0.028330
   9 H :    0.030036
  10 H :    0.027259
  11 H :    0.056904
  12 H :    0.057636
  13 H :    0.038645
  14 H :    0.048798
  15 H :    0.034854

  Mayer bond orders larger than 0.1
B(  0-C ,  1-C ) :   1.0654 B(  0-C ,  7-H ) :   0.9521 B(  0-C ,  8-H ) :   0.9500
B(  0-C ,  9-H ) :   0.9496 B(  1-C ,  2-N ) :   1.0635 B(  1-C ,  3-C ) :   1.0171
B(  1-C , 10-H ) :   0.9089 B(  2-N , 11-H ) :   0.9650 B(  2-N , 12-H ) :   0.9669
B(  2-N , 14-H ) :   0.1101 B(  3-C ,  4-O ) :   1.0943 B(  3-C ,  5-C ) :   0.9147
B(  3-C , 13-H ) :   0.8818 B(  4-O , 14-H ) :   0.9483 B(  5-C ,  6-C ) :   2.3338
B(  5-C , 15-H ) :  -0.1145 B(  6-C , 15-H ) :   1.1035

FINAL SINGLE POINT ENERGY      -325.194102224478

DIPOLE MOMENT
-------------
                                X             Y             Z
Electronic contribution:      3.81345       0.73794      -4.05249
Nuclear contribution   :     -4.61800      -1.32811       4.69373
                        -----------------------------------------
Total Dipole Moment    :     -0.80455      -0.59017       0.64124
                        -----------------------------------------
Magnitude (a.u.)       :      1.18608
Magnitude (Debye)      :      3.01479

                             ****ORCA TERMINATED NORMALLY****
TOTAL RUN TIME: 0 days 0 hours 0 minutes 7 seconds 650 msec
