                         Program Version 3.0.3 - RELEASE   -
|  1> ! RI PBE def2-SVP def2-SVP/J NBO PAL2
|  2> % maxcore 2000
|  3> % output
|  4>     # printlevel mini
|  5>     print[ P_Basis ] 0
|  6>     print[ P_SCFInfo ] 1
|  7>     print[ P_SCFIterInfo ] 1
|  8>     print[ P_OrbEn ] 0
|  9>     print[ P_Cartesian ] 0
| 10> end
| 11> *xyz 0 1
| 12>  C        0.5507670000     0.2163210000     0.0112100000
| 13>  C        2.0484110000     0.1624950000     0.2757380000
| 14>  N        2.4115370000    -0.2229080000     1.6333780000
| 15>  C        2.7583770000    -0.7969750000    -0.6610250000
| 16>  O        2.5196440000    -0.3998850000    -1.9951260000
| 17>  C        3.0837350000    -1.1440550000    -2.9617630000
| 18>  C        3.8479190000    -2.2241720000    -2.8270520000
| 19>  H        0.0677850000     0.9306320000     0.6828530000
| 20>  H        0.0979980000    -0.7664720000     0.1807110000
| 21>  H        0.3370500000     0.5132170000    -1.0173930000
| 22>  H        2.4748430000     1.1564990000     0.1001670000
| 23>  H        1.9323580000    -1.0788400000     1.8924900000
| 24>  H        2.1097080000     0.4850440000     2.2908070000
| 25>  H        2.3872040000    -1.8216350000    -0.5095110000
| 26>  H        3.8324880000    -0.7904290000    -0.4475700000
| 27>  H        2.8325190000    -0.7425050000    -3.9380280000
| 28>  H        4.1203430000    -2.6487310000    -1.8707880000
| 29>  H        4.2231940000    -2.7071030000    -3.7184070000
| 30> *
| 31>
| 32>                          ****END OF INPUT****
 Total Charge           Charge          ....    0
 Multiplicity           Mult            ....    1
 Number of Electrons    NEL             ....   56
 Basis Dimension        Dim             ....  153

MULLIKEN ATOMIC CHARGES
-----------------------
   0 C :    0.025689
   1 C :   -0.066660
   2 N :   -0.191152
   3 C :    0.175143
   4 O :   -0.260581
   5 C :    0.113607
   6 C :   -0.118188
   7 H :    0.011739
   8 H :    0.003491
   9 H :    0.026354
  10 H :    0.012042
  11 H :    0.084394
  12 H :    0.091689
  13 H :    0.004172
  14 H :    0.028683
  15 H :    0.007516
  16 H :    0.028759
  17 H :    0.023302
Sum of atomic charges:    0.0000000

LOEWDIN ATOMIC CHARGES
----------------------
   0 C :   -0.077448
   1 C :   -0.014463
   2 N :   -0.092208
   3 C :    0.067262
   4 O :   -0.063467
   5 C :    0.032473
   6 C :   -0.158005
   7 H :    0.022189
   8 H :    0.020752
   9 H :    0.029327
  10 H :    0.026525
  11 H :    0.048493
  12 H :    0.053785
  13 H :    0.010089
  14 H :    0.018340
  15 H :    0.021956
  16 H :    0.022941
  17 H :    0.031461

  Mayer bond orders larger than 0.1
B(  0-C ,  1-C ) :   1.0701 B(  0-C ,  7-H ) :   0.9611 B(  0-C ,  8-H ) :   0.9530
B(  0-C ,  9-H ) :   0.9447 B(  1-C ,  2-N ) :   1.0778 B(  1-C ,  3-C ) :   1.0377
B(  1-C , 10-H ) :   0.9065 B(  2-N , 11-H ) :   0.9690 B(  2-N , 12-H ) :   0.9677
B(  3-C ,  4-O ) :   0.9799 B(  3-C , 13-H ) :   0.9238 B(  3-C , 14-H ) :   0.9325
B(  4-O ,  5-C ) :   1.1547 B(  4-O ,  6-C ) :   0.1029 B(  5-C ,  6-C ) :   1.8617
B(  5-C , 15-H ) :   0.9658 B(  6-C , 16-H ) :   0.9522 B(  6-C , 17-H ) :   0.9361

FINAL SINGLE POINT ENERGY      -326.432305281350

DIPOLE MOMENT
-------------
                                X             Y             Z
Electronic contribution:      1.77814       0.66833      -2.74317
Nuclear contribution   :     -2.22280      -0.62348       3.16393
                        -----------------------------------------
Total Dipole Moment    :     -0.44467       0.04485       0.42077
                        -----------------------------------------
Magnitude (a.u.)       :      0.61383
Magnitude (Debye)      :      1.56023

                             ****ORCA TERMINATED NORMALLY****
TOTAL RUN TIME: 0 days 0 hours 0 minutes 7 seconds 480 msec
