                         Program Version 3.0.3 - RELEASE   -
|  1> ! RI PBE def2-SVP def2-SVP/J NBO PAL2
|  2> % maxcore 2000
|  3> % output
|  4>     # printlevel mini
|  5>     print[ P_Basis ] 0
|  6>     print[ P_SCFInfo ] 1
|  7>     print[ P_SCFIterInfo ] 1
|  8>     print[ P_OrbEn ] 0
|  9>     print[ P_Cartesian ] 0
| 10> end
| 11> *xyz 0 1
| 12>  C        1.1390980000    -0.0920000000    -0.0006440000
| 13>  C        2.4453680000     0.6931550000    -0.0631330000
| 14>  N        2.5732400000     1.3986190000    -1.3323530000
| 15>  C        2.9562070000     0.7830270000    -2.4689230000
| 16>  O        3.1901300000    -0.4002270000    -2.5721930000
| 17>  C        2.5491690000     1.6766630000     1.0607510000
| 18>  C        3.4946120000     1.6643780000     1.9875200000
| 19>  H        1.0844240000    -0.7894270000    -0.8372630000
| 20>  H        0.2802340000     0.5828130000    -0.0485090000
| 21>  H        1.0819800000    -0.6569790000     0.9318920000
| 22>  H        3.2805870000    -0.0108920000    -0.0058430000
| 23>  H        2.4524980000     2.3971100000    -1.3491970000
| 24>  H        3.0386100000     1.4850280000    -3.3207040000
| 25>  H        1.7596770000     2.4273320000     1.1091700000
| 26>  H        4.2892490000     0.9250140000     1.9748340000
| 27>  H        3.5064150000     2.3867850000     2.7953860000
| 28> *
| 29>
| 30>                          ****END OF INPUT****
 Total Charge           Charge          ....    0
 Multiplicity           Mult            ....    1
 Number of Electrons    NEL             ....   54
 Basis Dimension        Dim             ....  143

MULLIKEN ATOMIC CHARGES
-----------------------
   0 C :    0.029486
   1 C :    0.035458
   2 N :   -0.123852
   3 C :    0.128794
   4 O :   -0.241732
   5 C :   -0.073486
   6 C :   -0.028445
   7 H :    0.047684
   8 H :    0.009449
   9 H :    0.029084
  10 H :    0.024125
  11 H :    0.113127
  12 H :   -0.021367
  13 H :    0.006979
  14 H :    0.033336
  15 H :    0.031360
Sum of atomic charges:   -0.0000000

LOEWDIN ATOMIC CHARGES
----------------------
   0 C :   -0.059320
   1 C :    0.017738
   2 N :    0.006505
   3 C :    0.046443
   4 O :   -0.191336
   5 C :   -0.037259
   6 C :   -0.044738
   7 H :    0.036176
   8 H :    0.022716
   9 H :    0.032442
  10 H :    0.033079
  11 H :    0.072165
  12 H :   -0.015944
  13 H :    0.024522
  14 H :    0.028233
  15 H :    0.028577

  Mayer bond orders larger than 0.1
B(  0-C ,  1-C ) :   1.0693 B(  0-C ,  7-H ) :   0.9515 B(  0-C ,  8-H ) :   0.9539
B(  0-C ,  9-H ) :   0.9618 B(  1-C ,  2-N ) :   0.9388 B(  1-C ,  5-C ) :   1.0146
B(  1-C , 10-H ) :   0.9190 B(  2-N ,  3-C ) :   1.2357 B(  2-N ,  4-O ) :   0.1028
B(  2-N , 11-H ) :   0.9273 B(  3-C ,  4-O ) :   1.9918 B(  3-C , 12-H ) :   0.9244
B(  5-C ,  6-C ) :   2.0282 B(  5-C , 13-H ) :   0.9424 B(  6-C , 14-H ) :   0.9508
B(  6-C , 15-H ) :   0.9417

FINAL SINGLE POINT ENERGY      -325.263390039269

DIPOLE MOMENT
-------------
                                X             Y             Z
Electronic contribution:      2.23456      -0.33911      -4.89964
Nuclear contribution   :     -2.57732       1.48347       5.59778
                        -----------------------------------------
Total Dipole Moment    :     -0.34276       1.14436       0.69815
                        -----------------------------------------
Magnitude (a.u.)       :      1.38364
Magnitude (Debye)      :      3.51693

                             ****ORCA TERMINATED NORMALLY****
TOTAL RUN TIME: 0 days 0 hours 0 minutes 7 seconds 329 msec
