                         Program Version 3.0.3 - RELEASE   -
|  1> ! RI PBE def2-SVP def2-SVP/J NBO PAL2
|  2> % maxcore 2000
|  3> % output
|  4>     # printlevel mini
|  5>     print[ P_Basis ] 0
|  6>     print[ P_SCFInfo ] 1
|  7>     print[ P_SCFIterInfo ] 1
|  8>     print[ P_OrbEn ] 0
|  9>     print[ P_Cartesian ] 0
| 10> end
| 11> *xyz 0 1
| 12>  C        1.0443520000    -0.4130620000     0.4357580000
| 13>  C        2.4457890000     0.0676480000     0.0633650000
| 14>  N        2.4878010000     0.6531800000    -1.2665540000
| 15>  C        2.7122530000    -0.0951930000    -2.3669820000
| 16>  O        2.8799870000    -1.2932580000    -2.3647940000
| 17>  C        2.9676150000     1.0213250000     1.0357050000
| 18>  C        3.3668820000     1.8164430000     1.8407650000
| 19>  H        0.7078680000    -1.1445150000    -0.2999140000
| 20>  H        0.3444840000     0.4241780000     0.4573180000
| 21>  H        1.0547330000    -0.8814630000     1.4211790000
| 22>  H        3.1100650000    -0.8021810000     0.0275680000
| 23>  H        2.3684740000     1.6473570000    -1.3622480000
| 24>  H        2.7287830000     0.5113630000    -3.2914230000
| 25>  H        3.7317040000     2.5134860000     2.5579470000
| 26> *
| 27>
| 28>                          ****END OF INPUT****
 Total Charge           Charge          ....    0
 Multiplicity           Mult            ....    1
 Number of Electrons    NEL             ....   52
 Basis Dimension        Dim             ....  133

MULLIKEN ATOMIC CHARGES
-----------------------
   0 C :    0.030023
   1 C :    0.054327
   2 N :   -0.130819
   3 C :    0.140100
   4 O :   -0.237945
   5 C :    0.359511
   6 C :   -0.484782
   7 H :    0.044762
   8 H :    0.024900
   9 H :    0.037412
  10 H :    0.049943
  11 H :    0.122743
  12 H :   -0.016074
  13 H :    0.005901
Sum of atomic charges:   -0.0000000

LOEWDIN ATOMIC CHARGES
----------------------
   0 C :   -0.050242
   1 C :    0.011451
   2 N :    0.012578
   3 C :    0.051889
   4 O :   -0.185687
   5 C :   -0.027141
   6 C :   -0.071387
   7 H :    0.036420
   8 H :    0.028683
   9 H :    0.036817
  10 H :    0.052756
  11 H :    0.078202
  12 H :   -0.012272
  13 H :    0.037934

  Mayer bond orders larger than 0.1
B(  0-C ,  1-C ) :   1.0842 B(  0-C ,  7-H ) :   0.9552 B(  0-C ,  8-H ) :   0.9520
B(  0-C ,  9-H ) :   0.9590 B(  1-C ,  2-N ) :   0.9509 B(  1-C ,  5-C ) :   0.9994
B(  1-C , 10-H ) :   0.8727 B(  2-N ,  3-C ) :   1.2257 B(  2-N ,  4-O ) :   0.1029
B(  2-N , 11-H ) :   0.9254 B(  3-C ,  4-O ) :   1.9944 B(  3-C , 12-H ) :   0.9259
B(  5-C ,  6-C ) :   2.3488 B(  5-C , 13-H ) :  -0.1126 B(  6-C , 13-H ) :   1.1030

FINAL SINGLE POINT ENERGY      -324.019412524629

DIPOLE MOMENT
-------------
                                X             Y             Z
Electronic contribution:      3.10516       0.33706      -2.04355
Nuclear contribution   :     -3.42949       0.78726       2.48019
                        -----------------------------------------
Total Dipole Moment    :     -0.32432       1.12431       0.43663
                        -----------------------------------------
Magnitude (a.u.)       :      1.24897
Magnitude (Debye)      :      3.17462

                             ****ORCA TERMINATED NORMALLY****
TOTAL RUN TIME: 0 days 0 hours 0 minutes 6 seconds 540 msec
