                         Program Version 3.0.3 - RELEASE   -
|  1> ! RI PBE def2-SVP def2-SVP/J NBO PAL2
|  2> % maxcore 2000
|  3> % output
|  4>     # printlevel mini
|  5>     print[ P_Basis ] 0
|  6>     print[ P_SCFInfo ] 1
|  7>     print[ P_SCFIterInfo ] 1
|  8>     print[ P_OrbEn ] 0
|  9>     print[ P_Cartesian ] 0
| 10> end
| 11> *xyz 0 1
| 12>  C        2.5646870000     0.2927530000    -1.5541540000
| 13>  C        2.6746390000    -0.0158080000    -0.0704700000
| 14>  N        3.2339450000     1.0722840000     0.6962140000
| 15>  C        4.5471180000     1.1256800000     1.0382940000
| 16>  O        5.3370920000     0.2393150000     0.7706920000
| 17>  C        4.9333750000     2.3578290000     1.7804850000
| 18>  C        6.1832890000     2.5437840000     2.1783650000
| 19>  H        2.1375810000    -0.5583480000    -2.0899670000
| 20>  H        3.5503490000     0.5020230000    -1.9736470000
| 21>  H        1.9231660000     1.1594280000    -1.7346050000
| 22>  H        3.3303210000    -0.8728800000     0.0880080000
| 23>  H        1.6931650000    -0.2653500000     0.3434660000
| 24>  H        2.6562830000     1.8699510000     0.8976470000
| 25>  H        4.1653040000     3.0988450000     1.9871390000
| 26>  H        6.9314300000     1.7890960000     1.9610600000
| 27>  H        6.4847560000     3.4323960000     2.7194820000
| 28> *
| 29>
| 30>                          ****END OF INPUT****
 Total Charge           Charge          ....    0
 Multiplicity           Mult            ....    1
 Number of Electrons    NEL             ....   54
 Basis Dimension        Dim             ....  143

MULLIKEN ATOMIC CHARGES
-----------------------
   0 C :   -0.036602
   1 C :    0.074087
   2 N :   -0.140913
   3 C :    0.080481
   4 O :   -0.220029
   5 C :   -0.077858
   6 C :    0.014883
   7 H :    0.028621
   8 H :    0.040190
   9 H :    0.017429
  10 H :    0.038332
  11 H :    0.014704
  12 H :    0.105913
  13 H :   -0.012322
  14 H :    0.045796
  15 H :    0.027288
Sum of atomic charges:    0.0000000

LOEWDIN ATOMIC CHARGES
----------------------
   0 C :   -0.073559
   1 C :    0.019611
   2 N :    0.009595
   3 C :    0.021038
   4 O :   -0.198477
   5 C :   -0.075424
   6 C :   -0.000357
   7 H :    0.032121
   8 H :    0.033721
   9 H :    0.022023
  10 H :    0.033689
  11 H :    0.022457
  12 H :    0.069265
  13 H :    0.021014
  14 H :    0.034799
  15 H :    0.028483

  Mayer bond orders larger than 0.1
B(  0-C ,  1-C ) :   1.1242 B(  0-C ,  7-H ) :   0.9587 B(  0-C ,  8-H ) :   0.9647
B(  0-C ,  9-H ) :   0.9667 B(  1-C ,  2-N ) :   0.9915 B(  1-C , 10-H ) :   0.9234
B(  1-C , 11-H ) :   0.9434 B(  2-N ,  3-C ) :   1.2045 B(  2-N , 12-H ) :   0.9242
B(  3-C ,  4-O ) :   2.0447 B(  3-C ,  5-C ) :   0.9555 B(  5-C ,  6-C ) :   1.9871
B(  5-C , 13-H ) :   0.9386 B(  6-C , 14-H ) :   0.9315 B(  6-C , 15-H ) :   0.9379

FINAL SINGLE POINT ENERGY      -325.275071879768

DIPOLE MOMENT
-------------
                                X             Y             Z
Electronic contribution:      3.40812       0.17187       3.49645
Nuclear contribution   :     -4.48599       0.58863      -3.45516
                        -----------------------------------------
Total Dipole Moment    :     -1.07788       0.76051       0.04129
                        -----------------------------------------
Magnitude (a.u.)       :      1.31981
Magnitude (Debye)      :      3.35469

                             ****ORCA TERMINATED NORMALLY****
TOTAL RUN TIME: 0 days 0 hours 0 minutes 7 seconds 196 msec
