                         Program Version 3.0.3 - RELEASE   -
|  1> ! RI PBE def2-SVP def2-SVP/J NBO PAL2
|  2> % maxcore 2000
|  3> % output
|  4>     # printlevel mini
|  5>     print[ P_Basis ] 0
|  6>     print[ P_SCFInfo ] 1
|  7>     print[ P_SCFIterInfo ] 1
|  8>     print[ P_OrbEn ] 0
|  9>     print[ P_Cartesian ] 0
| 10> end
| 11> *xyz 0 1
| 12>  C        0.8578870000    -0.2284360000     0.3769230000
| 13>  C        2.3195350000     0.0469560000     0.0683160000
| 14>  N        2.5260490000     1.2859670000    -0.6473250000
| 15>  C        2.6348450000     1.3319970000    -1.9956520000
| 16>  O        2.6152570000     0.3589250000    -2.7210900000
| 17>  C        2.7930950000     2.6831860000    -2.5210210000
| 18>  C        2.9218950000     3.7816200000    -2.9874140000
| 19>  H        0.7558510000    -1.1716980000     0.9185740000
| 20>  H        0.2792990000    -0.2995950000    -0.5457330000
| 21>  H        0.4255270000     0.5630910000     0.9942140000
| 22>  H        2.7291860000    -0.7468590000    -0.5575360000
| 23>  H        2.9085290000     0.0820180000     0.9888760000
| 24>  H        2.5028380000     2.1596370000    -0.1493460000
| 25>  H        3.0376070000     4.7500800000    -3.4153860000
| 26> *
| 27>
| 28>                          ****END OF INPUT****
 Total Charge           Charge          ....    0
 Multiplicity           Mult            ....    1
 Number of Electrons    NEL             ....   52
 Basis Dimension        Dim             ....  133

MULLIKEN ATOMIC CHARGES
-----------------------
   0 C :   -0.036639
   1 C :    0.072771
   2 N :   -0.141400
   3 C :    0.075143
   4 O :   -0.198644
   5 C :    0.372777
   6 C :   -0.433004
   7 H :    0.030309
   8 H :    0.042670
   9 H :    0.021250
  10 H :    0.039415
  11 H :    0.022038
  12 H :    0.117776
  13 H :    0.015539
Sum of atomic charges:   -0.0000000

LOEWDIN ATOMIC CHARGES
----------------------
   0 C :   -0.073284
   1 C :    0.021356
   2 N :    0.017748
   3 C :    0.010432
   4 O :   -0.167613
   5 C :   -0.044171
   6 C :   -0.035865
   7 H :    0.033302
   8 H :    0.034987
   9 H :    0.023543
  10 H :    0.034683
  11 H :    0.025829
  12 H :    0.078541
  13 H :    0.040511

  Mayer bond orders larger than 0.1
B(  0-C ,  1-C ) :   1.1270 B(  0-C ,  7-H ) :   0.9588 B(  0-C ,  8-H ) :   0.9629
B(  0-C ,  9-H ) :   0.9665 B(  1-C ,  2-N ) :   0.9878 B(  1-C , 10-H ) :   0.9235
B(  1-C , 11-H ) :   0.9436 B(  2-N ,  3-C ) :   1.2391 B(  2-N ,  4-O ) :   0.1118
B(  2-N , 12-H ) :   0.9237 B(  3-C ,  4-O ) :   2.0413 B(  3-C ,  5-C ) :   0.8476
B(  5-C ,  6-C ) :   2.3601 B(  6-C , 13-H ) :   1.0869

FINAL SINGLE POINT ENERGY      -324.024230857874

DIPOLE MOMENT
-------------
                                X             Y             Z
Electronic contribution:      3.46648       3.90593      -6.52447
Nuclear contribution   :     -3.58373      -3.16141       7.73881
                        -----------------------------------------
Total Dipole Moment    :     -0.11724       0.74452       1.21434
                        -----------------------------------------
Magnitude (a.u.)       :      1.42923
Magnitude (Debye)      :      3.63280

                             ****ORCA TERMINATED NORMALLY****
TOTAL RUN TIME: 0 days 0 hours 0 minutes 6 seconds 60 msec
