                         Program Version 3.0.3 - RELEASE   -
|  1> ! RI PBE def2-SVP def2-SVP/J NBO PAL2
|  2> % maxcore 2000
|  3> % output
|  4>     # printlevel mini
|  5>     print[ P_Basis ] 0
|  6>     print[ P_SCFInfo ] 1
|  7>     print[ P_SCFIterInfo ] 1
|  8>     print[ P_OrbEn ] 0
|  9>     print[ P_Cartesian ] 0
| 10> end
| 11> *xyz 0 1
| 12>  C        0.7377970000     0.0005620000     0.0734130000
| 13>  C        2.0645190000    -0.0312140000    -0.0792400000
| 14>  N        2.7113900000     0.0657900000    -1.3027400000
| 15>  C        4.0632670000     0.0402460000    -1.5277790000
| 16>  O        4.5413530000     0.1308740000    -2.6273400000
| 17>  C        2.8997680000    -0.1738670000     1.0774720000
| 18>  N        3.5507750000    -0.2889940000     2.0193370000
| 19>  H        0.0763830000     0.1071560000    -0.7774760000
| 20>  H        0.3026100000    -0.0805030000     1.0579960000
| 21>  H        2.1365630000     0.1667010000    -2.1270420000
| 22>  H        4.6567840000    -0.0710490000    -0.6057910000
| 23> *
| 24>
| 25>                          ****END OF INPUT****
 Total Charge           Charge          ....    0
 Multiplicity           Mult            ....    1
 Number of Electrons    NEL             ....   50
 Basis Dimension        Dim             ....  118

MULLIKEN ATOMIC CHARGES
-----------------------
   0 C :    0.028661
   1 C :   -0.062452
   2 N :   -0.034845
   3 C :    0.125866
   4 O :   -0.190566
   5 C :   -0.163159
   6 N :    0.073853
   7 H :    0.029250
   8 H :    0.043813
   9 H :    0.123481
  10 H :    0.026097
Sum of atomic charges:   -0.0000000

LOEWDIN ATOMIC CHARGES
----------------------
   0 C :   -0.049042
   1 C :   -0.026539
   2 N :    0.042923
   3 C :    0.069039
   4 O :   -0.143464
   5 C :   -0.042282
   6 N :   -0.027951
   7 H :    0.034241
   8 H :    0.046032
   9 H :    0.091394
  10 H :    0.005649

  Mayer bond orders larger than 0.1
B(  0-C ,  1-C ) :   1.8614 B(  0-C ,  6-N ) :   0.1020 B(  0-C ,  7-H ) :   0.9242
B(  0-C ,  8-H ) :   0.9238 B(  1-C ,  2-N ) :   1.1411 B(  1-C ,  5-C ) :   1.0416
B(  2-N ,  3-C ) :   1.1185 B(  2-N ,  9-H ) :   0.9009 B(  3-C ,  4-O ) :   2.0940
B(  3-C , 10-H ) :   0.9165 B(  5-C ,  6-N ) :   2.9824

FINAL SINGLE POINT ENERGY      -338.880296380788

DIPOLE MOMENT
-------------
                                X             Y             Z
Electronic contribution:      2.93080      -0.14601       0.44114
Nuclear contribution   :     -4.37227       0.22879      -0.76474
                        -----------------------------------------
Total Dipole Moment    :     -1.44146       0.08278      -0.32360
                        -----------------------------------------
Magnitude (a.u.)       :      1.47966
Magnitude (Debye)      :      3.76099

                             ****ORCA TERMINATED NORMALLY****
TOTAL RUN TIME: 0 days 0 hours 0 minutes 5 seconds 596 msec
