                         Program Version 3.0.3 - RELEASE   -
|  1> ! RI PBE def2-SVP def2-SVP/J NBO PAL2
|  2> % maxcore 2000
|  3> % output
|  4>     # printlevel mini
|  5>     print[ P_Basis ] 0
|  6>     print[ P_SCFInfo ] 1
|  7>     print[ P_SCFIterInfo ] 1
|  8>     print[ P_OrbEn ] 0
|  9>     print[ P_Cartesian ] 0
| 10> end
| 11> *xyz 0 1
| 12>  C        1.0143480000    -0.0654750000     0.1244120000
| 13>  C        2.3403470000    -0.0521040000     0.0757780000
| 14>  N        3.0977670000     1.1061980000    -0.0509790000
| 15>  C        4.4551610000     1.0950110000    -0.0986350000
| 16>  O        5.1596080000     0.1191460000    -0.0400610000
| 17>  C        5.0220130000     2.4466850000    -0.2353800000
| 18>  N        5.4852540000     3.4931940000    -0.3421150000
| 19>  H        0.4886050000    -1.0041300000     0.2239860000
| 20>  H        0.4208710000     0.8402780000     0.0677500000
| 21>  H        2.9434460000    -0.9492600000     0.1313570000
| 22>  H        2.6274820000     1.9963690000    -0.1107110000
| 23> *
| 24>
| 25>                          ****END OF INPUT****
 Total Charge           Charge          ....    0
 Multiplicity           Mult            ....    1
 Number of Electrons    NEL             ....   50
 Basis Dimension        Dim             ....  118

MULLIKEN ATOMIC CHARGES
-----------------------
   0 C :   -0.045611
   1 C :    0.044761
   2 N :   -0.062812
   3 C :    0.052589
   4 O :   -0.147519
   5 C :   -0.165788
   6 N :    0.072766
   7 H :    0.046722
   8 H :    0.027665
   9 H :    0.041197
  10 H :    0.136029
Sum of atomic charges:   -0.0000000

LOEWDIN ATOMIC CHARGES
----------------------
   0 C :   -0.080481
   1 C :    0.021433
   2 N :    0.060376
   3 C :    0.003237
   4 O :   -0.123212
   5 C :   -0.067789
   6 N :   -0.015256
   7 H :    0.039145
   8 H :    0.026862
   9 H :    0.039959
  10 H :    0.095725

  Mayer bond orders larger than 0.1
B(  0-C ,  1-C ) :   1.8986 B(  0-C ,  7-H ) :   0.9420 B(  0-C ,  8-H ) :   0.9491
B(  1-C ,  2-N ) :   1.0939 B(  1-C ,  9-H ) :   0.9576 B(  2-N ,  3-C ) :   1.2136
B(  2-N ,  4-O ) :   0.1000 B(  2-N , 10-H ) :   0.9136 B(  3-C ,  4-O ) :   2.1025
B(  3-C ,  5-C ) :   0.9059 B(  5-C ,  6-N ) :   3.0463

FINAL SINGLE POINT ENERGY      -338.880156531008

DIPOLE MOMENT
-------------
                                X             Y             Z
Electronic contribution:      6.50308       3.14666      -0.50215
Nuclear contribution   :     -8.08770      -3.40480       0.58286
                        -----------------------------------------
Total Dipole Moment    :     -1.58462      -0.25815       0.08071
                        -----------------------------------------
Magnitude (a.u.)       :      1.60754
Magnitude (Debye)      :      4.08604

                             ****ORCA TERMINATED NORMALLY****
TOTAL RUN TIME: 0 days 0 hours 0 minutes 5 seconds 721 msec
