                         Program Version 3.0.3 - RELEASE   -
|  1> ! RI PBE def2-SVP def2-SVP/J NBO PAL2
|  2> % maxcore 2000
|  3> % output
|  4>     # printlevel mini
|  5>     print[ P_Basis ] 0
|  6>     print[ P_SCFInfo ] 1
|  7>     print[ P_SCFIterInfo ] 1
|  8>     print[ P_OrbEn ] 0
|  9>     print[ P_Cartesian ] 0
| 10> end
| 11> *xyz 0 1
| 12>  C        3.3641790000     1.1682370000    -1.0564880000
| 13>  C        2.7358140000     0.2614150000    -0.0034010000
| 14>  N        1.2784950000     0.2568310000    -0.0253570000
| 15>  C        3.1895270000    -1.1881100000    -0.1159130000
| 16>  O        2.7964700000    -1.6911640000    -1.3743270000
| 17>  C        4.6837860000    -1.3985640000     0.0677020000
| 18>  N        4.9759490000    -2.8091540000    -0.1591570000
| 19>  H        2.9539800000     2.1779780000    -0.9712110000
| 20>  H        3.1492560000     0.7922080000    -2.0587990000
| 21>  H        4.4491110000     1.2491470000    -0.9440750000
| 22>  H        3.0448690000     0.6088770000     0.9911570000
| 23>  H        0.9654710000    -0.2025490000    -0.8737900000
| 24>  H        0.9233310000     1.2049110000    -0.0514300000
| 25>  H        2.6627370000    -1.7401100000     0.6806980000
| 26>  H        3.3336570000    -2.4873050000    -1.4997170000
| 27>  H        4.9936970000    -1.0283930000     1.0552360000
| 28>  H        5.2237820000    -0.8240550000    -0.6891510000
| 29>  H        4.7104790000    -3.3701390000     0.6409850000
| 30>  H        5.9599100000    -2.9647500000    -0.3280620000
| 31> *
| 32>
| 33>                          ****END OF INPUT****
 Total Charge           Charge          ....    0
 Multiplicity           Mult            ....    1
 Number of Electrons    NEL             ....   58
 Basis Dimension        Dim             ....  158

MULLIKEN ATOMIC CHARGES
-----------------------
   0 C :    0.013934
   1 C :   -0.013684
   2 N :   -0.170872
   3 C :    0.072279
   4 O :   -0.270029
   5 C :    0.084390
   6 N :   -0.218994
   7 H :    0.002950
   8 H :    0.019573
   9 H :    0.010246
  10 H :   -0.015263
  11 H :    0.090518
  12 H :    0.075341
  13 H :   -0.020708
  14 H :    0.140361
  15 H :   -0.007393
  16 H :    0.008425
  17 H :    0.099435
  18 H :    0.099491
Sum of atomic charges:    0.0000000

LOEWDIN ATOMIC CHARGES
----------------------
   0 C :   -0.079906
   1 C :   -0.009244
   2 N :   -0.095335
   3 C :    0.033942
   4 O :   -0.120003
   5 C :   -0.006791
   6 N :   -0.093120
   7 H :    0.020668
   8 H :    0.024127
   9 H :    0.020287
  10 H :    0.017428
  11 H :    0.048987
  12 H :    0.046016
  13 H :    0.003409
  14 H :    0.048064
  15 H :    0.005450
  16 H :    0.021132
  17 H :    0.057025
  18 H :    0.057864

  Mayer bond orders larger than 0.1
B(  0-C ,  1-C ) :   1.0545 B(  0-C ,  7-H ) :   0.9529 B(  0-C ,  8-H ) :   0.9532
B(  0-C ,  9-H ) :   0.9445 B(  1-C ,  2-N ) :   1.1070 B(  1-C ,  3-C ) :   1.0217
B(  1-C , 10-H ) :   0.9025 B(  2-N , 11-H ) :   0.9591 B(  2-N , 12-H ) :   0.9661
B(  3-C ,  4-O ) :   1.0696 B(  3-C ,  5-C ) :   1.0424 B(  3-C , 13-H ) :   0.8905
B(  4-O , 14-H ) :   0.9414 B(  5-C ,  6-N ) :   1.0874 B(  5-C , 15-H ) :   0.9243
B(  5-C , 16-H ) :   0.9147 B(  6-N , 14-H ) :   0.1100 B(  6-N , 17-H ) :   0.9674
B(  6-N , 18-H ) :   0.9643

FINAL SINGLE POINT ENERGY      -343.678406301117

DIPOLE MOMENT
-------------
                                X             Y             Z
Electronic contribution:     -1.74155      -2.93332      -0.43746
Nuclear contribution   :      2.67802       2.81298       0.72696
                        -----------------------------------------
Total Dipole Moment    :      0.93647      -0.12034       0.28950
                        -----------------------------------------
Magnitude (a.u.)       :      0.98755
Magnitude (Debye)      :      2.51016

                             ****ORCA TERMINATED NORMALLY****
TOTAL RUN TIME: 0 days 0 hours 0 minutes 8 seconds 400 msec
