                         Program Version 3.0.3 - RELEASE   -
|  1> ! RI PBE def2-SVP def2-SVP/J NBO PAL2
|  2> % maxcore 2000
|  3> % output
|  4>     # printlevel mini
|  5>     print[ P_Basis ] 0
|  6>     print[ P_SCFInfo ] 1
|  7>     print[ P_SCFIterInfo ] 1
|  8>     print[ P_OrbEn ] 0
|  9>     print[ P_Cartesian ] 0
| 10> end
| 11> *xyz 0 1
| 12>  C        0.9421390000     0.2971410000    -0.5486940000
| 13>  C        2.3559480000     0.1276580000     0.0008170000
| 14>  N        2.3994420000     0.0626220000     1.4449060000
| 15>  C        2.8137370000     1.1176680000     2.1883950000
| 16>  O        3.1675870000     2.1796270000     1.7363930000
| 17>  C        3.0007420000    -1.0582280000    -0.5685850000
| 18>  N        3.4744480000    -2.0059660000    -1.0139450000
| 19>  H        0.5135920000     1.2159830000    -0.1477650000
| 20>  H        0.3101270000    -0.5457870000    -0.2639040000
| 21>  H        0.9615200000     0.3609550000    -1.6375980000
| 22>  H        2.9563700000     1.0021680000    -0.2693310000
| 23>  H        2.1203700000    -0.7857160000     1.9088800000
| 24>  H        2.7905690000     0.9003750000     3.2710210000
| 25> *
| 26>
| 27>                          ****END OF INPUT****
 Total Charge           Charge          ....    0
 Multiplicity           Mult            ....    1
 Number of Electrons    NEL             ....   52
 Basis Dimension        Dim             ....  128

MULLIKEN ATOMIC CHARGES
-----------------------
   0 C :    0.019449
   1 C :    0.044419
   2 N :   -0.135829
   3 C :    0.140882
   4 O :   -0.224304
   5 C :   -0.230292
   6 N :    0.055548
   7 H :    0.048357
   8 H :    0.039066
   9 H :    0.054627
  10 H :    0.061758
  11 H :    0.127550
  12 H :   -0.001233
Sum of atomic charges:    0.0000000

LOEWDIN ATOMIC CHARGES
----------------------
   0 C :   -0.047235
   1 C :   -0.001578
   2 N :    0.012487
   3 C :    0.058584
   4 O :   -0.171591
   5 C :   -0.048775
   6 N :   -0.053460
   7 H :    0.040279
   8 H :    0.033543
   9 H :    0.043205
  10 H :    0.059269
  11 H :    0.080769
  12 H :   -0.005498

  Mayer bond orders larger than 0.1
B(  0-C ,  1-C ) :   1.1046 B(  0-C ,  7-H ) :   0.9569 B(  0-C ,  8-H ) :   0.9522
B(  0-C ,  9-H ) :   0.9576 B(  1-C ,  2-N ) :   0.9673 B(  1-C ,  5-C ) :   1.0458
B(  1-C , 10-H ) :   0.8577 B(  2-N ,  3-C ) :   1.2005 B(  2-N , 11-H ) :   0.9243
B(  3-C ,  4-O ) :   2.0150 B(  3-C , 12-H ) :   0.9272 B(  5-C ,  6-N ) :   3.0702

FINAL SINGLE POINT ENERGY      -340.096742691662

DIPOLE MOMENT
-------------
                                X             Y             Z
Electronic contribution:      4.28114      -1.24368       0.71930
Nuclear contribution   :     -5.39828       1.13563      -0.14516
                        -----------------------------------------
Total Dipole Moment    :     -1.11714      -0.10806       0.57414
                        -----------------------------------------
Magnitude (a.u.)       :      1.26068
Magnitude (Debye)      :      3.20440

                             ****ORCA TERMINATED NORMALLY****
TOTAL RUN TIME: 0 days 0 hours 0 minutes 5 seconds 926 msec
