                         Program Version 3.0.3 - RELEASE   -
|  1> ! RI PBE def2-SVP def2-SVP/J NBO PAL2
|  2> % maxcore 2000
|  3> % output
|  4>     # printlevel mini
|  5>     print[ P_Basis ] 0
|  6>     print[ P_SCFInfo ] 1
|  7>     print[ P_SCFIterInfo ] 1
|  8>     print[ P_OrbEn ] 0
|  9>     print[ P_Cartesian ] 0
| 10> end
| 11> *xyz 0 1
| 12>  C        1.1871850000    -0.6869140000     0.2941270000
| 13>  C        2.3731850000     0.2103570000    -0.0171570000
| 14>  N        3.4263100000     0.1165400000     0.9628130000
| 15>  C        4.5395890000    -0.6157490000     0.7746610000
| 16>  O        4.8039400000    -1.2329150000    -0.2409370000
| 17>  C        5.4851050000    -0.6437190000     1.9690050000
| 18>  N        5.1751090000     0.3475780000     2.9871020000
| 19>  H        0.4137170000    -0.5773100000    -0.4700120000
| 20>  H        0.7426770000    -0.4367500000     1.2609950000
| 21>  H        1.4962320000    -1.7336150000     0.3200920000
| 22>  H        2.0513260000     1.2538780000    -0.0902200000
| 23>  H        2.8147890000    -0.0685930000    -0.9753740000
| 24>  H        3.3318520000     0.5288450000     1.8805770000
| 25>  H        6.5001480000    -0.5827330000     1.5613850000
| 26>  H        5.3869460000    -1.6430560000     2.4020050000
| 27>  H        5.6353230000     1.2273210000     2.7935630000
| 28>  H        5.4764850000     0.0436340000     3.9019750000
| 29> *
| 30>
| 31>                          ****END OF INPUT****
 Total Charge           Charge          ....    0
 Multiplicity           Mult            ....    1
 Number of Electrons    NEL             ....   56
 Basis Dimension        Dim             ....  148

MULLIKEN ATOMIC CHARGES
-----------------------
   0 C :   -0.045777
   1 C :    0.090495
   2 N :   -0.123711
   3 C :   -0.032082
   4 O :   -0.238887
   5 C :    0.088604
   6 N :   -0.221355
   7 H :    0.028430
   8 H :    0.015967
   9 H :    0.037611
  10 H :    0.011659
  11 H :    0.025732
  12 H :    0.100075
  13 H :    0.023318
  14 H :    0.035651
  15 H :    0.102544
  16 H :    0.101727
Sum of atomic charges:   -0.0000000

LOEWDIN ATOMIC CHARGES
----------------------
   0 C :   -0.075858
   1 C :    0.020900
   2 N :    0.007015
   3 C :    0.004740
   4 O :   -0.211088
   5 C :   -0.018760
   6 N :   -0.097026
   7 H :    0.030800
   8 H :    0.021932
   9 H :    0.031822
  10 H :    0.020191
  11 H :    0.029042
  12 H :    0.054837
  13 H :    0.022574
  14 H :    0.041307
  15 H :    0.058438
  16 H :    0.059135

  Mayer bond orders larger than 0.1
B(  0-C ,  1-C ) :   1.1221 B(  0-C ,  7-H ) :   0.9611 B(  0-C ,  8-H ) :   0.9659
B(  0-C ,  9-H ) :   0.9662 B(  1-C ,  2-N ) :   0.9969 B(  1-C , 10-H ) :   0.9447
B(  1-C , 11-H ) :   0.9230 B(  2-N ,  3-C ) :   1.2807 B(  2-N ,  4-O ) :   0.1036
B(  2-N , 12-H ) :   0.8820 B(  3-C ,  4-O ) :   2.0360 B(  3-C ,  5-C ) :   0.9367
B(  5-C ,  6-N ) :   1.0863 B(  5-C , 13-H ) :   0.9261 B(  5-C , 14-H ) :   0.9235
B(  6-N , 12-H ) :   0.1120 B(  6-N , 15-H ) :   0.9725 B(  6-N , 16-H ) :   0.9621

FINAL SINGLE POINT ENERGY      -342.516006803979

DIPOLE MOMENT
-------------
                                X             Y             Z
Electronic contribution:      4.39674      -0.66358      -1.30588
Nuclear contribution   :     -4.47300       1.44212       2.57403
                        -----------------------------------------
Total Dipole Moment    :     -0.07626       0.77854       1.26815
                        -----------------------------------------
Magnitude (a.u.)       :      1.49001
Magnitude (Debye)      :      3.78731

                             ****ORCA TERMINATED NORMALLY****
TOTAL RUN TIME: 0 days 0 hours 0 minutes 7 seconds 831 msec
