                         Program Version 3.0.3 - RELEASE   -
|  1> ! RI PBE def2-SVP def2-SVP/J NBO PAL2
|  2> % maxcore 2000
|  3> % output
|  4>     # printlevel mini
|  5>     print[ P_Basis ] 0
|  6>     print[ P_SCFInfo ] 1
|  7>     print[ P_SCFIterInfo ] 1
|  8>     print[ P_OrbEn ] 0
|  9>     print[ P_Cartesian ] 0
| 10> end
| 11> *xyz 0 1
| 12>  C        0.7581160000    -0.2514040000     0.5318880000
| 13>  C        2.1947790000     0.0088540000     0.1160920000
| 14>  N        2.3051040000     0.9769030000    -0.9565510000
| 15>  C        2.4579500000     0.6097050000    -2.2422990000
| 16>  O        2.5575010000    -0.5191930000    -2.6607870000
| 17>  C        2.5084360000     1.7650700000    -3.1605940000
| 18>  N        2.5457310000     2.6483800000    -3.8949950000
| 19>  H        0.7290370000    -0.9806210000     1.3442880000
| 20>  H        0.1806420000    -0.6486140000    -0.3046070000
| 21>  H        0.2729440000     0.6626050000     0.8827200000
| 22>  H        2.6615000000    -0.9088110000    -0.2430630000
| 23>  H        2.7843200000     0.3729710000     0.9612890000
| 24>  H        2.1922500000     1.9570450000    -0.7549920000
| 25> *
| 26>
| 27>                          ****END OF INPUT****
 Total Charge           Charge          ....    0
 Multiplicity           Mult            ....    1
 Number of Electrons    NEL             ....   52
 Basis Dimension        Dim             ....  128

MULLIKEN ATOMIC CHARGES
-----------------------
   0 C :   -0.042936
   1 C :    0.066492
   2 N :   -0.127033
   3 C :    0.039602
   4 O :   -0.165007
   5 C :   -0.158900
   6 N :    0.061038
   7 H :    0.042722
   8 H :    0.046177
   9 H :    0.026843
  10 H :    0.046330
  11 H :    0.034632
  12 H :    0.130040
Sum of atomic charges:   -0.0000000

LOEWDIN ATOMIC CHARGES
----------------------
   0 C :   -0.072790
   1 C :    0.024558
   2 N :    0.031697
   3 C :   -0.004117
   4 O :   -0.142689
   5 C :   -0.066868
   6 N :   -0.025222
   7 H :    0.038008
   8 H :    0.036751
   9 H :    0.026883
  10 H :    0.037709
  11 H :    0.030571
  12 H :    0.085509

  Mayer bond orders larger than 0.1
B(  0-C ,  1-C ) :   1.1339 B(  0-C ,  7-H ) :   0.9602 B(  0-C ,  8-H ) :   0.9614
B(  0-C ,  9-H ) :   0.9644 B(  1-C ,  2-N ) :   0.9752 B(  1-C , 10-H ) :   0.9221
B(  1-C , 11-H ) :   0.9450 B(  2-N ,  3-C ) :   1.2785 B(  2-N ,  4-O ) :   0.1262
B(  2-N , 12-H ) :   0.9180 B(  3-C ,  4-O ) :   2.0856 B(  3-C ,  5-C ) :   0.8999
B(  5-C ,  6-N ) :   3.0540

FINAL SINGLE POINT ENERGY      -340.098075150689

DIPOLE MOMENT
-------------
                                X             Y             Z
Electronic contribution:      3.61889       3.55618      -9.34802
Nuclear contribution   :     -3.93028      -3.51202      11.25617
                        -----------------------------------------
Total Dipole Moment    :     -0.31139       0.04416       1.90815
                        -----------------------------------------
Magnitude (a.u.)       :      1.93390
Magnitude (Debye)      :      4.91558

                             ****ORCA TERMINATED NORMALLY****
TOTAL RUN TIME: 0 days 0 hours 0 minutes 6 seconds 25 msec
