                         Program Version 3.0.3 - RELEASE   -
|  1> ! RI PBE def2-SVP def2-SVP/J NBO PAL2
|  2> % maxcore 2000
|  3> % output
|  4>     # printlevel mini
|  5>     print[ P_Basis ] 0
|  6>     print[ P_SCFInfo ] 1
|  7>     print[ P_SCFIterInfo ] 1
|  8>     print[ P_OrbEn ] 0
|  9>     print[ P_Cartesian ] 0
| 10> end
| 11> *xyz 0 1
| 12>  C        0.4586000000     1.4254720000    -0.1421290000
| 13>  C        1.2776140000     0.3676700000    -0.1206020000
| 14>  N        1.0547860000    -0.8761060000     0.4428070000
| 15>  C       -0.0569360000    -1.2967920000     1.1046560000
| 16>  O       -1.0441290000    -0.6343410000     1.3066030000
| 17>  C        2.6019600000     0.4726960000    -0.7604460000
| 18>  O        3.3943990000    -0.4361630000    -0.7822170000
| 19>  H       -0.5224080000     1.4129310000     0.3077230000
| 20>  H        0.8067650000     2.3256560000    -0.6346050000
| 21>  H        1.8286460000    -1.5188850000     0.3308310000
| 22>  H        0.0451830000    -2.3422380000     1.4472120000
| 23>  H        2.8194110000     1.4530090000    -1.2233240000
| 24> *
| 25>
| 26>                          ****END OF INPUT****
 Total Charge           Charge          ....    0
 Multiplicity           Mult            ....    1
 Number of Electrons    NEL             ....   52
 Basis Dimension        Dim             ....  123

MULLIKEN ATOMIC CHARGES
-----------------------
   0 C :   -0.007546
   1 C :   -0.065099
   2 N :   -0.028042
   3 C :    0.145053
   4 O :   -0.210606
   5 C :    0.153206
   6 O :   -0.170785
   7 H :    0.057458
   8 H :    0.024363
   9 H :    0.114053
  10 H :   -0.005948
  11 H :   -0.006107
Sum of atomic charges:   -0.0000000

LOEWDIN ATOMIC CHARGES
----------------------
   0 C :   -0.021493
   1 C :   -0.046914
   2 N :    0.040583
   3 C :    0.066139
   4 O :   -0.154251
   5 C :    0.086511
   6 O :   -0.111335
   7 H :    0.036073
   8 H :    0.031577
   9 H :    0.077609
  10 H :   -0.007301
  11 H :    0.002802

  Mayer bond orders larger than 0.1
B(  0-C ,  1-C ) :   1.8070 B(  0-C ,  7-H ) :   0.9217 B(  0-C ,  8-H ) :   0.9136
B(  1-C ,  2-N ) :   1.1429 B(  1-C ,  5-C ) :   1.0050 B(  2-N ,  3-C ) :   1.1719
B(  2-N ,  9-H ) :   0.8796 B(  3-C ,  4-O ) :   2.0293 B(  3-C , 10-H ) :   0.9249
B(  5-C ,  6-O ) :   2.0904 B(  5-C , 11-H ) :   0.9364

FINAL SINGLE POINT ENERGY      -359.943844047184

DIPOLE MOMENT
-------------
                                X             Y             Z
Electronic contribution:      0.83160      -1.87562       0.32161
Nuclear contribution   :     -0.47944       2.01062      -0.52964
                        -----------------------------------------
Total Dipole Moment    :      0.35215       0.13499      -0.20802
                        -----------------------------------------
Magnitude (a.u.)       :      0.43071
Magnitude (Debye)      :      1.09478

                             ****ORCA TERMINATED NORMALLY****
TOTAL RUN TIME: 0 days 0 hours 0 minutes 5 seconds 811 msec
