                         Program Version 3.0.3 - RELEASE   -
|  1> ! RI PBE def2-SVP def2-SVP/J NBO PAL2
|  2> % maxcore 2000
|  3> % output
|  4>     # printlevel mini
|  5>     print[ P_Basis ] 0
|  6>     print[ P_SCFInfo ] 1
|  7>     print[ P_SCFIterInfo ] 1
|  8>     print[ P_OrbEn ] 0
|  9>     print[ P_Cartesian ] 0
| 10> end
| 11> *xyz 0 1
| 12>  C        1.3644670000    -0.3054960000    -0.4789590000
| 13>  C        2.5769470000     0.2296230000    -0.4816230000
| 14>  N        3.1785700000     0.8623430000    -1.5851330000
| 15>  C        2.4239470000     1.5227650000    -2.5531090000
| 16>  O        2.8748880000     1.9914010000    -3.5603390000
| 17>  C        4.5731210000     0.9268050000    -1.6470610000
| 18>  O        5.2876980000     0.4238010000    -0.8258890000
| 19>  H        0.9770480000    -0.7330180000     0.4356220000
| 20>  H        0.7308830000    -0.3516090000    -1.3560550000
| 21>  H        3.2216820000     0.2060140000     0.3880680000
| 22>  H        1.3599420000     1.5830080000    -2.2758880000
| 23>  H        4.9193080000     1.4919620000    -2.5214530000
| 24> *
| 25>
| 26>                          ****END OF INPUT****
 Total Charge           Charge          ....    0
 Multiplicity           Mult            ....    1
 Number of Electrons    NEL             ....   52
 Basis Dimension        Dim             ....  123

MULLIKEN ATOMIC CHARGES
-----------------------
   0 C :   -0.051753
   1 C :    0.059011
   2 N :   -0.194521
   3 C :    0.185764
   4 O :   -0.176367
   5 C :    0.189572
   6 O :   -0.177158
   7 H :    0.045813
   8 H :    0.041640
   9 H :    0.038504
  10 H :    0.011054
  11 H :    0.028441
Sum of atomic charges:    0.0000000

LOEWDIN ATOMIC CHARGES
----------------------
   0 C :   -0.069354
   1 C :    0.022261
   2 N :   -0.014105
   3 C :    0.092508
   4 O :   -0.120824
   5 C :    0.100035
   6 O :   -0.117832
   7 H :    0.039850
   8 H :    0.028292
   9 H :    0.034534
  10 H :   -0.000031
  11 H :    0.004665

  Mayer bond orders larger than 0.1
B(  0-C ,  1-C ) :   1.9478 B(  0-C ,  7-H ) :   0.9405 B(  0-C ,  8-H ) :   0.9497
B(  1-C ,  2-N ) :   1.0025 B(  1-C ,  9-H ) :   0.9501 B(  2-N ,  3-C ) :   1.0397
B(  2-N ,  5-C ) :   1.0214 B(  3-C ,  4-O ) :   2.0909 B(  3-C , 10-H ) :   0.9242
B(  5-C ,  6-O ) :   2.0879 B(  5-C , 11-H ) :   0.9320

FINAL SINGLE POINT ENERGY      -359.939292513539

DIPOLE MOMENT
-------------
                                X             Y             Z
Electronic contribution:      3.57831       1.65645      -2.14456
Nuclear contribution   :     -4.50291      -1.78337       2.54469
                        -----------------------------------------
Total Dipole Moment    :     -0.92460      -0.12692       0.40013
                        -----------------------------------------
Magnitude (a.u.)       :      1.01543
Magnitude (Debye)      :      2.58102

                             ****ORCA TERMINATED NORMALLY****
TOTAL RUN TIME: 0 days 0 hours 0 minutes 5 seconds 769 msec
