                         Program Version 3.0.3 - RELEASE   -
|  1> ! RI PBE def2-SVP def2-SVP/J NBO PAL2
|  2> % maxcore 2000
|  3> % output
|  4>     # printlevel mini
|  5>     print[ P_Basis ] 0
|  6>     print[ P_SCFInfo ] 1
|  7>     print[ P_SCFIterInfo ] 1
|  8>     print[ P_OrbEn ] 0
|  9>     print[ P_Cartesian ] 0
| 10> end
| 11> *xyz 0 1
| 12>  C        1.0861000000     0.4036530000    -0.2499880000
| 13>  C        2.3083080000    -0.0234850000     0.0466530000
| 14>  N        3.1441820000    -0.6727290000    -0.8461350000
| 15>  C        4.3875820000    -1.1040220000    -0.5343270000
| 16>  O        4.9440940000    -0.9931910000     0.5364060000
| 17>  C        5.0875540000    -1.7845300000    -1.7033210000
| 18>  O        4.5818180000    -1.9193890000    -2.7823690000
| 19>  H        0.4913520000     0.9033630000     0.5011480000
| 20>  H        0.6488350000     0.2705810000    -1.2332670000
| 21>  H        2.7538580000     0.1046790000     1.0258060000
| 22>  H        2.8407410000    -0.8515670000    -1.7940320000
| 23>  H        6.1048650000    -2.1397530000    -1.4569750000
| 24> *
| 25>
| 26>                          ****END OF INPUT****
 Total Charge           Charge          ....    0
 Multiplicity           Mult            ....    1
 Number of Electrons    NEL             ....   52
 Basis Dimension        Dim             ....  123

MULLIKEN ATOMIC CHARGES
-----------------------
   0 C :   -0.062683
   1 C :    0.044362
   2 N :   -0.045618
   3 C :    0.008297
   4 O :   -0.180398
   5 C :    0.140353
   6 O :   -0.137679
   7 H :    0.044180
   8 H :    0.026197
   9 H :    0.031025
  10 H :    0.119969
  11 H :    0.011995
Sum of atomic charges:    0.0000000

LOEWDIN ATOMIC CHARGES
----------------------
   0 C :   -0.089343
   1 C :    0.022313
   2 N :    0.061883
   3 C :   -0.026514
   4 O :   -0.151451
   5 C :    0.081610
   6 O :   -0.083948
   7 H :    0.036503
   8 H :    0.025651
   9 H :    0.035634
  10 H :    0.081184
  11 H :    0.006478

  Mayer bond orders larger than 0.1
B(  0-C ,  1-C ) :   1.8872 B(  0-C ,  7-H ) :   0.9448 B(  0-C ,  8-H ) :   0.9519
B(  1-C ,  2-N ) :   1.1155 B(  1-C ,  9-H ) :   0.9554 B(  2-N ,  3-C ) :   1.1989
B(  2-N , 10-H ) :   0.8948 B(  3-C ,  4-O ) :   2.0467 B(  3-C ,  5-C ) :   0.8755
B(  5-C ,  6-O ) :   2.1544 B(  5-C , 11-H ) :   0.9159

FINAL SINGLE POINT ENERGY      -359.937187598558

DIPOLE MOMENT
-------------
                                X             Y             Z
Electronic contribution:      4.57645      -2.38571      -1.29150
Nuclear contribution   :     -5.15491       2.53758       1.00720
                        -----------------------------------------
Total Dipole Moment    :     -0.57846       0.15186      -0.28429
                        -----------------------------------------
Magnitude (a.u.)       :      0.66219
Magnitude (Debye)      :      1.68316

                             ****ORCA TERMINATED NORMALLY****
TOTAL RUN TIME: 0 days 0 hours 0 minutes 5 seconds 498 msec
