                         Program Version 3.0.3 - RELEASE   -
|  1> ! RI PBE def2-SVP def2-SVP/J NBO PAL2
|  2> % maxcore 2000
|  3> % output
|  4>     # printlevel mini
|  5>     print[ P_Basis ] 0
|  6>     print[ P_SCFInfo ] 1
|  7>     print[ P_SCFIterInfo ] 1
|  8>     print[ P_OrbEn ] 0
|  9>     print[ P_Cartesian ] 0
| 10> end
| 11> *xyz 0 1
| 12>  C        1.0403010000    -0.0139540000     0.3323180000
| 13>  C        2.5397430000     0.0691260000     0.0755190000
| 14>  N        3.2858850000    -1.0700200000     0.6121200000
| 15>  C        2.8241390000     0.1326130000    -1.4193550000
| 16>  O        2.4340970000    -1.0958510000    -2.0101130000
| 17>  C        3.1208590000     1.3222580000     0.7414170000
| 18>  O        4.5207640000     1.3357070000     0.6828530000
| 19>  H        0.6077700000    -0.8700450000    -0.1882960000
| 20>  H        0.5286250000     0.8893270000    -0.0134120000
| 21>  H        0.8407620000    -0.1211410000     1.4023960000
| 22>  H        3.1901840000    -1.8593140000    -0.0163930000
| 23>  H        2.9133660000    -1.3475640000     1.5125440000
| 24>  H        3.8929340000     0.3189780000    -1.5668360000
| 25>  H        2.2604270000     0.9696060000    -1.8514400000
| 26>  H        2.8100380000    -1.1462960000    -2.8907340000
| 27>  H        2.7667790000     1.3538660000     1.7846620000
| 28>  H        2.7500390000     2.2244810000     0.2447190000
| 29>  H        4.7673080000     0.4038040000     0.8019110000
| 30> *
| 31>
| 32>                          ****END OF INPUT****
 Total Charge           Charge          ....    0
 Multiplicity           Mult            ....    1
 Number of Electrons    NEL             ....   58
 Basis Dimension        Dim             ....  153

MULLIKEN ATOMIC CHARGES
-----------------------
   0 C :    0.074939
   1 C :   -0.354702
   2 N :   -0.159848
   3 C :    0.238150
   4 O :   -0.277013
   5 C :    0.270187
   6 O :   -0.279988
   7 H :    0.024386
   8 H :    0.008791
   9 H :    0.008784
  10 H :    0.094502
  11 H :    0.089957
  12 H :   -0.005824
  13 H :   -0.008482
  14 H :    0.162746
  15 H :   -0.020325
  16 H :   -0.004467
  17 H :    0.138208
Sum of atomic charges:   -0.0000000

LOEWDIN ATOMIC CHARGES
----------------------
   0 C :   -0.062647
   1 C :   -0.060489
   2 N :   -0.071013
   3 C :    0.064710
   4 O :   -0.122687
   5 C :    0.057480
   6 O :   -0.125618
   7 H :    0.027582
   8 H :    0.026690
   9 H :    0.020491
  10 H :    0.048486
  11 H :    0.053408
  12 H :    0.005308
  13 H :    0.007020
  14 H :    0.075646
  15 H :   -0.000825
  16 H :    0.015082
  17 H :    0.041376

  Mayer bond orders larger than 0.1
B(  0-C ,  1-C ) :   1.0469 B(  0-C ,  7-H ) :   0.9490 B(  0-C ,  8-H ) :   0.9491
B(  0-C ,  9-H ) :   0.9494 B(  1-C ,  2-N ) :   1.0552 B(  1-C ,  3-C ) :   1.0070
B(  1-C ,  5-C ) :   0.9947 B(  2-N , 10-H ) :   0.9456 B(  2-N , 11-H ) :   0.9617
B(  2-N , 17-H ) :   0.1213 B(  3-C ,  4-O ) :   1.0797 B(  3-C , 12-H ) :   0.9167
B(  3-C , 13-H ) :   0.9287 B(  4-O , 14-H ) :   0.9759 B(  5-C ,  6-O ) :   1.0972
B(  5-C , 15-H ) :   0.9160 B(  5-C , 16-H ) :   0.9299 B(  6-O , 17-H ) :   0.9404

FINAL SINGLE POINT ENERGY      -363.519802262336

DIPOLE MOMENT
-------------
                                X             Y             Z
Electronic contribution:      3.22555      -0.55828      -1.30280
Nuclear contribution   :     -3.71355      -0.00619       0.89516
                        -----------------------------------------
Total Dipole Moment    :     -0.48800      -0.56447      -0.40764
                        -----------------------------------------
Magnitude (a.u.)       :      0.85026
Magnitude (Debye)      :      2.16118

                             ****ORCA TERMINATED NORMALLY****
TOTAL RUN TIME: 0 days 0 hours 0 minutes 8 seconds 86 msec
