                         Program Version 3.0.3 - RELEASE   -
|  1> ! RI PBE def2-SVP def2-SVP/J NBO PAL2
|  2> % maxcore 2000
|  3> % output
|  4>     # printlevel mini
|  5>     print[ P_Basis ] 0
|  6>     print[ P_SCFInfo ] 1
|  7>     print[ P_SCFIterInfo ] 1
|  8>     print[ P_OrbEn ] 0
|  9>     print[ P_Cartesian ] 0
| 10> end
| 11> *xyz 0 1
| 12>  C        1.3480740000     0.7133360000     1.0833890000
| 13>  C        2.4902820000     0.0319940000     0.3363190000
| 14>  N        3.1766370000    -0.9927080000     1.1118820000
| 15>  C        2.0457100000    -0.6156390000    -0.9688990000
| 16>  O        1.1013280000    -1.6231580000    -0.6693340000
| 17>  C        1.4621630000     0.3495110000    -1.9812790000
| 18>  O        1.0363150000    -0.3471270000    -3.1412530000
| 19>  H        1.7103320000     1.1068030000     2.0366670000
| 20>  H        0.5466510000     0.0005120000     1.2873660000
| 21>  H        0.9266980000     1.5535980000     0.5244360000
| 22>  H        3.2376080000     0.7900100000     0.0681460000
| 23>  H        2.5462790000    -1.7740750000     1.2562990000
| 24>  H        3.4226760000    -0.6355120000     2.0270360000
| 25>  H        2.9456420000    -1.0762460000    -1.4108470000
| 26>  H        0.6787840000    -1.8588080000    -1.5028810000
| 27>  H        2.1885160000     1.1343250000    -2.2278150000
| 28>  H        0.5642500000     0.8240050000    -1.5810280000
| 29>  H        1.8158350000    -0.6462310000    -3.6178120000
| 30> *
| 31>
| 32>                          ****END OF INPUT****
 Total Charge           Charge          ....    0
 Multiplicity           Mult            ....    1
 Number of Electrons    NEL             ....   58
 Basis Dimension        Dim             ....  153

MULLIKEN ATOMIC CHARGES
-----------------------
   0 C :    0.031596
   1 C :   -0.048403
   2 N :   -0.166988
   3 C :    0.038544
   4 O :   -0.263789
   5 C :    0.201019
   6 O :   -0.288117
   7 H :    0.002056
   8 H :    0.022413
   9 H :    0.004971
  10 H :   -0.002552
  11 H :    0.090859
  12 H :    0.077548
  13 H :   -0.015876
  14 H :    0.146199
  15 H :    0.001829
  16 H :    0.010521
  17 H :    0.158170
Sum of atomic charges:   -0.0000000

LOEWDIN ATOMIC CHARGES
----------------------
   0 C :   -0.077425
   1 C :   -0.011607
   2 N :   -0.093873
   3 C :    0.019116
   4 O :   -0.113027
   5 C :    0.043096
   6 O :   -0.116303
   7 H :    0.021146
   8 H :    0.025650
   9 H :    0.020541
  10 H :    0.020866
  11 H :    0.049408
  12 H :    0.047404
  13 H :    0.004283
  14 H :    0.057919
  15 H :    0.010024
  16 H :    0.020923
  17 H :    0.071858

  Mayer bond orders larger than 0.1
B(  0-C ,  1-C ) :   1.0594 B(  0-C ,  7-H ) :   0.9519 B(  0-C ,  8-H ) :   0.9528
B(  0-C ,  9-H ) :   0.9417 B(  1-C ,  2-N ) :   1.1038 B(  1-C ,  3-C ) :   1.0116
B(  1-C , 10-H ) :   0.9056 B(  2-N , 11-H ) :   0.9617 B(  2-N , 12-H ) :   0.9640
B(  3-C ,  4-O ) :   1.0625 B(  3-C ,  5-C ) :   1.0366 B(  3-C , 13-H ) :   0.8896
B(  4-O , 14-H ) :   0.9552 B(  5-C ,  6-O ) :   1.0273 B(  5-C , 15-H ) :   0.9324
B(  5-C , 16-H ) :   0.9143 B(  6-O , 17-H ) :   0.9822

FINAL SINGLE POINT ENERGY      -363.515309579518

DIPOLE MOMENT
-------------
                                X             Y             Z
Electronic contribution:     -0.64148      -3.07462      -3.78836
Nuclear contribution   :      0.87521       3.38478       3.59641
                        -----------------------------------------
Total Dipole Moment    :      0.23373       0.31016      -0.19195
                        -----------------------------------------
Magnitude (a.u.)       :      0.43322
Magnitude (Debye)      :      1.10115

                             ****ORCA TERMINATED NORMALLY****
TOTAL RUN TIME: 0 days 0 hours 0 minutes 7 seconds 411 msec
