                         Program Version 3.0.3 - RELEASE   -
|  1> ! RI PBE def2-SVP def2-SVP/J NBO PAL2
|  2> % maxcore 2000
|  3> % output
|  4>     # printlevel mini
|  5>     print[ P_Basis ] 0
|  6>     print[ P_SCFInfo ] 1
|  7>     print[ P_SCFIterInfo ] 1
|  8>     print[ P_OrbEn ] 0
|  9>     print[ P_Cartesian ] 0
| 10> end
| 11> *xyz 0 1
| 12>  C        0.9481690000     0.3797830000    -1.5020730000
| 13>  C        2.3634160000     0.3969520000    -0.9348060000
| 14>  N        3.0637540000     1.6647150000    -1.0814310000
| 15>  C        2.3961510000    -0.0185420000     0.5219840000
| 16>  O        1.6797580000     0.9424690000     1.3187270000
| 17>  C        0.6477000000     0.5104710000     2.0405040000
| 18>  O        0.2391370000    -0.6112100000     2.1099880000
| 19>  H        0.9619560000     0.6329780000    -2.5648490000
| 20>  H        0.3175190000     1.1131130000    -0.9926680000
| 21>  H        0.4811160000    -0.6029960000    -1.3943770000
| 22>  H        2.9573230000    -0.3614660000    -1.4603600000
| 23>  H        2.5785670000     2.3856000000    -0.5588810000
| 24>  H        3.0659200000     1.9562150000    -2.0511840000
| 25>  H        3.4239800000    -0.0116610000     0.8872370000
| 26>  H        1.9507080000    -1.0022660000     0.6676890000
| 27>  H        0.2138350000     1.3639250000     2.5824980000
| 28> *
| 29>
| 30>                          ****END OF INPUT****
 Total Charge           Charge          ....    0
 Multiplicity           Mult            ....    1
 Number of Electrons    NEL             ....   56
 Basis Dimension        Dim             ....  143

MULLIKEN ATOMIC CHARGES
-----------------------
   0 C :   -0.003573
   1 C :   -0.054767
   2 N :   -0.189444
   3 C :    0.183647
   4 O :   -0.260392
   5 C :    0.206096
   6 O :   -0.202118
   7 H :    0.018984
   8 H :    0.019321
   9 H :    0.022728
  10 H :    0.015415
  11 H :    0.090930
  12 H :    0.085042
  13 H :    0.031054
  14 H :    0.031954
  15 H :    0.005124
Sum of atomic charges:    0.0000000

LOEWDIN ATOMIC CHARGES
----------------------
   0 C :   -0.080044
   1 C :   -0.016027
   2 N :   -0.096546
   3 C :    0.076300
   4 O :   -0.061464
   5 C :    0.069392
   6 O :   -0.141102
   7 H :    0.024938
   8 H :    0.022655
   9 H :    0.029884
  10 H :    0.031178
  11 H :    0.048515
  12 H :    0.050802
  13 H :    0.027316
  14 H :    0.018727
  15 H :   -0.004525

  Mayer bond orders larger than 0.1
B(  0-C ,  1-C ) :   1.0630 B(  0-C ,  7-H ) :   0.9601 B(  0-C ,  8-H ) :   0.9538
B(  0-C ,  9-H ) :   0.9479 B(  1-C ,  2-N ) :   1.0814 B(  1-C ,  3-C ) :   1.0724
B(  1-C , 10-H ) :   0.9075 B(  2-N , 11-H ) :   0.9662 B(  2-N , 12-H ) :   0.9690
B(  3-C ,  4-O ) :   0.9065 B(  3-C , 13-H ) :   0.9330 B(  3-C , 14-H ) :   0.9260
B(  4-O ,  5-C ) :   1.1932 B(  4-O ,  6-O ) :   0.1101 B(  5-C ,  6-O ) :   2.0538
B(  5-C , 15-H ) :   0.9329

FINAL SINGLE POINT ENERGY      -362.340253381353

DIPOLE MOMENT
-------------
                                X             Y             Z
Electronic contribution:     -1.25583      -0.59962       6.90424
Nuclear contribution   :      1.35910       1.08967      -7.52218
                        -----------------------------------------
Total Dipole Moment    :      0.10327       0.49005      -0.61795
                        -----------------------------------------
Magnitude (a.u.)       :      0.79541
Magnitude (Debye)      :      2.02176

                             ****ORCA TERMINATED NORMALLY****
TOTAL RUN TIME: 0 days 0 hours 0 minutes 7 seconds 614 msec
