                         Program Version 3.0.3 - RELEASE   -
|  1> ! RI PBE def2-SVP def2-SVP/J NBO PAL2
|  2> % maxcore 2000
|  3> % output
|  4>     # printlevel mini
|  5>     print[ P_Basis ] 0
|  6>     print[ P_SCFInfo ] 1
|  7>     print[ P_SCFIterInfo ] 1
|  8>     print[ P_OrbEn ] 0
|  9>     print[ P_Cartesian ] 0
| 10> end
| 11> *xyz 0 1
| 12>  C        1.0469180000     0.2071050000     0.0687550000
| 13>  C        2.5071160000    -0.0512140000    -0.3032140000
| 14>  N        2.7856020000    -1.4252990000    -0.6109400000
| 15>  C        2.8999940000    -2.3670800000     0.3471660000
| 16>  O        2.7090150000    -2.1745550000     1.5272920000
| 17>  C        2.8917570000     0.8017890000    -1.4802750000
| 18>  O        3.3160370000     0.3670650000    -2.5162540000
| 19>  H        0.7988940000    -0.3715960000     0.9577820000
| 20>  H        0.3839610000    -0.0903070000    -0.7463370000
| 21>  H        0.8842540000     1.2652880000     0.2870310000
| 22>  H        3.1306070000     0.2657570000     0.5454690000
| 23>  H        3.0676910000    -1.6255100000    -1.5595420000
| 24>  H        3.1850690000    -3.3541830000    -0.0605010000
| 25>  H        2.7324850000     1.8891310000    -1.3348330000
| 26> *
| 27>
| 28>                          ****END OF INPUT****
 Total Charge           Charge          ....    0
 Multiplicity           Mult            ....    1
 Number of Electrons    NEL             ....   54
 Basis Dimension        Dim             ....  133

MULLIKEN ATOMIC CHARGES
-----------------------
   0 C :    0.001829
   1 C :   -0.008395
   2 N :   -0.115912
   3 C :    0.142802
   4 O :   -0.241977
   5 C :    0.103773
   6 O :   -0.161716
   7 H :    0.058526
   8 H :    0.032683
   9 H :    0.030430
  10 H :    0.050633
  11 H :    0.117371
  12 H :   -0.018133
  13 H :    0.008085
Sum of atomic charges:   -0.0000000

LOEWDIN ATOMIC CHARGES
----------------------
   0 C :   -0.052273
   1 C :   -0.024838
   2 N :    0.007410
   3 C :    0.053784
   4 O :   -0.190061
   5 C :    0.099250
   6 O :   -0.101527
   7 H :    0.041470
   8 H :    0.030865
   9 H :    0.032395
  10 H :    0.048455
  11 H :    0.067420
  12 H :   -0.013045
  13 H :    0.000696

  Mayer bond orders larger than 0.1
B(  0-C ,  1-C ) :   1.0586 B(  0-C ,  7-H ) :   0.9498 B(  0-C ,  8-H ) :   0.9566
B(  0-C ,  9-H ) :   0.9560 B(  1-C ,  2-N ) :   1.0156 B(  1-C ,  5-C ) :   0.9325
B(  1-C , 10-H ) :   0.8837 B(  2-N ,  3-C ) :   1.2283 B(  2-N , 11-H ) :   0.9024
B(  3-C ,  4-O ) :   1.9936 B(  3-C , 12-H ) :   0.9282 B(  5-C ,  6-O ) :   2.1636
B(  5-C , 13-H ) :   0.9323

FINAL SINGLE POINT ENERGY      -361.150689554158

DIPOLE MOMENT
-------------
                                X             Y             Z
Electronic contribution:      3.46972      -1.94847      -1.46336
Nuclear contribution   :     -3.69594       2.49956       0.97968
                        -----------------------------------------
Total Dipole Moment    :     -0.22622       0.55109      -0.48368
                        -----------------------------------------
Magnitude (a.u.)       :      0.76734
Magnitude (Debye)      :      1.95043

                             ****ORCA TERMINATED NORMALLY****
TOTAL RUN TIME: 0 days 0 hours 0 minutes 6 seconds 199 msec
