                         Program Version 3.0.3 - RELEASE   -
|  1> ! RI PBE def2-SVP def2-SVP/J NBO PAL2
|  2> % maxcore 2000
|  3> % output
|  4>     # printlevel mini
|  5>     print[ P_Basis ] 0
|  6>     print[ P_SCFInfo ] 1
|  7>     print[ P_SCFIterInfo ] 1
|  8>     print[ P_OrbEn ] 0
|  9>     print[ P_Cartesian ] 0
| 10> end
| 11> *xyz 0 1
| 12>  C        1.0569850000    -0.1457620000     0.2416000000
| 13>  C        2.4679930000     0.1306750000    -0.2406340000
| 14>  N        2.4910060000     0.9631220000    -1.4372960000
| 15>  C        2.5396330000     2.3357510000    -1.3264970000
| 16>  O        2.5698590000     2.9310970000    -0.2838250000
| 17>  C        2.4489950000     0.3827520000    -2.6863820000
| 18>  O        2.3966290000    -0.8010500000    -2.8823610000
| 19>  H        1.0887370000    -0.7704480000     1.1364510000
| 20>  H        0.4816480000    -0.6747420000    -0.5201740000
| 21>  H        0.5428560000     0.7829900000     0.4951890000
| 22>  H        2.9795080000    -0.7976550000    -0.4952730000
| 23>  H        3.0408580000     0.6609170000     0.5201970000
| 24>  H        2.5515660000     2.8387140000    -2.3092110000
| 25>  H        2.4721360000     1.1287190000    -3.4999030000
| 26> *
| 27>
| 28>                          ****END OF INPUT****
 Total Charge           Charge          ....    0
 Multiplicity           Mult            ....    1
 Number of Electrons    NEL             ....   54
 Basis Dimension        Dim             ....  133

MULLIKEN ATOMIC CHARGES
-----------------------
   0 C :   -0.048107
   1 C :    0.069115
   2 N :   -0.205909
   3 C :    0.172341
   4 O :   -0.187362
   5 C :    0.171274
   6 O :   -0.185062
   7 H :    0.040444
   8 H :    0.043543
   9 H :    0.041082
  10 H :    0.041191
  11 H :    0.042113
  12 H :    0.000943
  13 H :    0.004393
Sum of atomic charges:   -0.0000000

LOEWDIN ATOMIC CHARGES
----------------------
   0 C :   -0.068103
   1 C :    0.032451
   2 N :   -0.007654
   3 C :    0.076569
   4 O :   -0.134869
   5 C :    0.076191
   6 O :   -0.133845
   7 H :    0.038324
   8 H :    0.032850
   9 H :    0.032552
  10 H :    0.032904
  11 H :    0.033306
  12 H :   -0.005706
  13 H :   -0.004969

  Mayer bond orders larger than 0.1
B(  0-C ,  1-C ) :   1.1317 B(  0-C ,  7-H ) :   0.9615 B(  0-C ,  8-H ) :   0.9644
B(  0-C ,  9-H ) :   0.9644 B(  1-C ,  2-N ) :   0.9344 B(  1-C , 10-H ) :   0.9320
B(  1-C , 11-H ) :   0.9320 B(  2-N ,  3-C ) :   1.0842 B(  2-N ,  5-C ) :   1.0829
B(  3-C ,  4-O ) :   2.0692 B(  3-C , 12-H ) :   0.9226 B(  5-C ,  6-O ) :   2.0695
B(  5-C , 13-H ) :   0.9230

FINAL SINGLE POINT ENERGY      -361.167458703148

DIPOLE MOMENT
-------------
                                X             Y             Z
Electronic contribution:      2.52572       2.49144      -3.73169
Nuclear contribution   :     -2.57983      -2.42588       3.63826
                        -----------------------------------------
Total Dipole Moment    :     -0.05411       0.06556      -0.09343
                        -----------------------------------------
Magnitude (a.u.)       :      0.12631
Magnitude (Debye)      :      0.32106

                             ****ORCA TERMINATED NORMALLY****
TOTAL RUN TIME: 0 days 0 hours 0 minutes 6 seconds 194 msec
