                         Program Version 3.0.3 - RELEASE   -
|  1> ! RI PBE def2-SVP def2-SVP/J NBO PAL2
|  2> % maxcore 2000
|  3> % output
|  4>     # printlevel mini
|  5>     print[ P_Basis ] 0
|  6>     print[ P_SCFInfo ] 1
|  7>     print[ P_SCFIterInfo ] 1
|  8>     print[ P_OrbEn ] 0
|  9>     print[ P_Cartesian ] 0
| 10> end
| 11> *xyz 0 1
| 12>  C        1.9531070000     1.1279300000    -0.3453310000
| 13>  C        2.6171580000    -0.1975420000    -0.0203280000
| 14>  N        3.4827740000    -0.1182200000     1.1314440000
| 15>  C        4.8051330000    -0.3691920000     1.0820470000
| 16>  O        5.4236590000    -0.6750710000     0.0803810000
| 17>  C        5.5186190000    -0.2698680000     2.4231540000
| 18>  O        4.7476010000     0.2841370000     3.4694330000
| 19>  H        1.2988270000     1.0231180000    -1.2138390000
| 20>  H        2.7011120000     1.8908410000    -0.5705790000
| 21>  H        1.3427060000     1.4841280000     0.4891270000
| 22>  H        3.2440890000    -0.5303820000    -0.8487730000
| 23>  H        1.8582460000    -0.9695820000     0.1473980000
| 24>  H        3.1024630000     0.0847770000     2.0427680000
| 25>  H        6.4525160000     0.2742730000     2.2562770000
| 26>  H        5.7871930000    -1.2872440000     2.7191280000
| 27>  H        4.8538990000     1.2378970000     3.4562830000
| 28> *
| 29>
| 30>                          ****END OF INPUT****
 Total Charge           Charge          ....    0
 Multiplicity           Mult            ....    1
 Number of Electrons    NEL             ....   56
 Basis Dimension        Dim             ....  143

MULLIKEN ATOMIC CHARGES
-----------------------
   0 C :   -0.051614
   1 C :    0.086517
   2 N :   -0.130587
   3 C :   -0.049226
   4 O :   -0.232398
   5 C :    0.184324
   6 O :   -0.282943
   7 H :    0.031566
   8 H :    0.032780
   9 H :    0.018902
  10 H :    0.034199
  11 H :    0.024323
  12 H :    0.097536
  13 H :    0.030233
  14 H :    0.043382
  15 H :    0.163006
Sum of atomic charges:   -0.0000000

LOEWDIN ATOMIC CHARGES
----------------------
   0 C :   -0.075757
   1 C :    0.021810
   2 N :    0.007005
   3 C :   -0.005627
   4 O :   -0.203732
   5 C :    0.029801
   6 O :   -0.113345
   7 H :    0.033074
   8 H :    0.030133
   9 H :    0.022438
  10 H :    0.031175
  11 H :    0.023133
  12 H :    0.058621
  13 H :    0.026341
  14 H :    0.040011
  15 H :    0.074920

  Mayer bond orders larger than 0.1
B(  0-C ,  1-C ) :   1.1263 B(  0-C ,  7-H ) :   0.9595 B(  0-C ,  8-H ) :   0.9653
B(  0-C ,  9-H ) :   0.9667 B(  1-C ,  2-N ) :   0.9829 B(  1-C , 10-H ) :   0.9223
B(  1-C , 11-H ) :   0.9440 B(  2-N ,  3-C ) :   1.2649 B(  2-N ,  4-O ) :   0.1070
B(  2-N , 12-H ) :   0.8978 B(  3-C ,  4-O ) :   2.0275 B(  3-C ,  5-C ) :   0.9319
B(  5-C ,  6-O ) :   1.0487 B(  5-C , 13-H ) :   0.9365 B(  5-C , 14-H ) :   0.9219
B(  6-O , 15-H ) :   0.9839

FINAL SINGLE POINT ENERGY      -362.353007962645

DIPOLE MOMENT
-------------
                                X             Y             Z
Electronic contribution:      5.01283      -2.35109       2.40521
Nuclear contribution   :     -5.72253       3.09992      -1.76333
                        -----------------------------------------
Total Dipole Moment    :     -0.70970       0.74882       0.64188
                        -----------------------------------------
Magnitude (a.u.)       :      1.21508
Magnitude (Debye)      :      3.08849

                             ****ORCA TERMINATED NORMALLY****
TOTAL RUN TIME: 0 days 0 hours 0 minutes 6 seconds 956 msec
