                         Program Version 3.0.3 - RELEASE   -
|  1> ! RI PBE def2-SVP def2-SVP/J NBO PAL2
|  2> % maxcore 2000
|  3> % output
|  4>     # printlevel mini
|  5>     print[ P_Basis ] 0
|  6>     print[ P_SCFInfo ] 1
|  7>     print[ P_SCFIterInfo ] 1
|  8>     print[ P_OrbEn ] 0
|  9>     print[ P_Cartesian ] 0
| 10> end
| 11> *xyz 0 1
| 12>  C        1.6140350000     0.1734300000     1.0981970000
| 13>  C        2.5218980000     0.1330250000    -0.1179970000
| 14>  N        1.7874340000     0.0824610000    -1.3601780000
| 15>  C        1.7625000000    -0.9873190000    -2.1663990000
| 16>  O        2.3490200000    -2.0403430000    -2.0090330000
| 17>  C        0.8843860000    -0.7904900000    -3.3995260000
| 18>  O        0.2636420000     0.2121560000    -3.6171380000
| 19>  H        2.2097990000     0.2206200000     2.0123920000
| 20>  H        0.9869740000    -0.7189220000     1.1432250000
| 21>  H        0.9611580000     1.0497980000     1.0788890000
| 22>  H        3.1541420000    -0.7557580000    -0.0983220000
| 23>  H        3.1807710000     1.0069770000    -0.1307370000
| 24>  H        1.2166660000     0.8634860000    -1.6497930000
| 25>  H        0.8766960000    -1.6690000000    -4.0714900000
| 26> *
| 27>
| 28>                          ****END OF INPUT****
 Total Charge           Charge          ....    0
 Multiplicity           Mult            ....    1
 Number of Electrons    NEL             ....   54
 Basis Dimension        Dim             ....  133

MULLIKEN ATOMIC CHARGES
-----------------------
   0 C :   -0.042601
   1 C :    0.074599
   2 N :   -0.120243
   3 C :   -0.004985
   4 O :   -0.199037
   5 C :    0.141062
   6 O :   -0.140185
   7 H :    0.032119
   8 H :    0.039598
   9 H :    0.025213
  10 H :    0.039329
  11 H :    0.032139
  12 H :    0.115159
  13 H :    0.007832
Sum of atomic charges:   -0.0000000

LOEWDIN ATOMIC CHARGES
----------------------
   0 C :   -0.070890
   1 C :    0.023656
   2 N :    0.030248
   3 C :   -0.035175
   4 O :   -0.172365
   5 C :    0.082284
   6 O :   -0.087084
   7 H :    0.034688
   8 H :    0.033031
   9 H :    0.025793
  10 H :    0.033558
  11 H :    0.027317
  12 H :    0.071375
  13 H :    0.003565

  Mayer bond orders larger than 0.1
B(  0-C ,  1-C ) :   1.1196 B(  0-C ,  7-H ) :   0.9603 B(  0-C ,  8-H ) :   0.9675
B(  0-C ,  9-H ) :   0.9676 B(  1-C ,  2-N ) :   0.9766 B(  1-C , 10-H ) :   0.9266
B(  1-C , 11-H ) :   0.9439 B(  2-N ,  3-C ) :   1.2743 B(  2-N ,  4-O ) :   0.1321
B(  2-N , 12-H ) :   0.9008 B(  3-C ,  4-O ) :   2.0236 B(  3-C ,  5-C ) :   0.8707
B(  5-C ,  6-O ) :   2.1589 B(  5-C , 13-H ) :   0.9145

FINAL SINGLE POINT ENERGY      -361.153346078654

DIPOLE MOMENT
-------------
                                X             Y             Z
Electronic contribution:     -1.35745      -2.21864      -8.49896
Nuclear contribution   :      1.34353       2.95961       9.13138
                        -----------------------------------------
Total Dipole Moment    :     -0.01392       0.74097       0.63242
                        -----------------------------------------
Magnitude (a.u.)       :      0.97426
Magnitude (Debye)      :      2.47637

                             ****ORCA TERMINATED NORMALLY****
TOTAL RUN TIME: 0 days 0 hours 0 minutes 6 seconds 516 msec
