                         Program Version 3.0.3 - RELEASE   -
|  1> ! RI PBE def2-SVP def2-SVP/J NBO PAL2
|  2> % maxcore 2000
|  3> % output
|  4>     # printlevel mini
|  5>     print[ P_Basis ] 0
|  6>     print[ P_SCFInfo ] 1
|  7>     print[ P_SCFIterInfo ] 1
|  8>     print[ P_OrbEn ] 0
|  9>     print[ P_Cartesian ] 0
| 10> end
| 11> *xyz 0 1
| 12>  C        2.4597010000     0.3863160000    -0.9934840000
| 13>  C        2.0429460000     0.1148290000     0.2334940000
| 14>  N        2.8566870000    -0.2742920000     1.3119320000
| 15>  C        2.2567440000    -0.5188950000     2.5256740000
| 16>  O        2.8073210000    -0.8578300000     3.5423620000
| 17>  N        4.1876660000    -0.3677010000     1.0255190000
| 18>  C        5.0401150000    -0.7089950000     1.9036700000
| 19>  H        1.7351870000     0.6766660000    -1.7414300000
| 20>  H        3.5034360000     0.3255320000    -1.2666080000
| 21>  H        0.9955530000     0.1770130000     0.5033140000
| 22>  H        1.1651780000    -0.3632400000     2.4621390000
| 23>  H        6.0651140000    -0.7447600000     1.5452830000
| 24>  H        4.8175600000    -0.9539340000     2.9349150000
| 25> *
| 26>
| 27>                          ****END OF INPUT****
 Total Charge           Charge          ....    0
 Multiplicity           Mult            ....    1
 Number of Electrons    NEL             ....   52
 Basis Dimension        Dim             ....  128

MULLIKEN ATOMIC CHARGES
-----------------------
   0 C :   -0.035248
   1 C :    0.052431
   2 N :   -0.117622
   3 C :    0.176661
   4 O :   -0.190746
   5 N :   -0.069435
   6 C :   -0.014698
   7 H :    0.030682
   8 H :    0.040048
   9 H :    0.014000
  10 H :   -0.004691
  11 H :    0.049576
  12 H :    0.069042
Sum of atomic charges:   -0.0000000

LOEWDIN ATOMIC CHARGES
----------------------
   0 C :   -0.081234
   1 C :    0.000461
   2 N :    0.049529
   3 C :    0.061607
   4 O :   -0.137046
   5 N :   -0.020511
   6 C :    0.005937
   7 H :    0.033729
   8 H :    0.030506
   9 H :    0.027424
  10 H :   -0.003601
  11 H :    0.023455
  12 H :    0.009745

  Mayer bond orders larger than 0.1
B(  0-C ,  1-C ) :   1.9561 B(  0-C ,  7-H ) :   0.9308 B(  0-C ,  8-H ) :   0.9344
B(  1-C ,  2-N ) :   1.0201 B(  1-C ,  9-H ) :   0.9480 B(  2-N ,  3-C ) :   1.0935
B(  2-N ,  5-N ) :   1.0389 B(  3-C ,  4-O ) :   2.0256 B(  3-C , 10-H ) :   0.9172
B(  5-N ,  6-C ) :   1.9246 B(  6-C , 11-H ) :   0.9419 B(  6-C , 12-H ) :   0.9169

FINAL SINGLE POINT ENERGY      -340.043804087990

DIPOLE MOMENT
-------------
                                X             Y             Z
Electronic contribution:      0.01909      -0.88487       3.33415
Nuclear contribution   :     -0.27558       1.01948      -3.72365
                        -----------------------------------------
Total Dipole Moment    :     -0.25649       0.13461      -0.38951
                        -----------------------------------------
Magnitude (a.u.)       :      0.48541
Magnitude (Debye)      :      1.23381

                             ****ORCA TERMINATED NORMALLY****
TOTAL RUN TIME: 0 days 0 hours 0 minutes 6 seconds 86 msec
