                         Program Version 3.0.3 - RELEASE   -
|  1> ! RI PBE def2-SVP def2-SVP/J NBO PAL2
|  2> % maxcore 2000
|  3> % output
|  4>     # printlevel mini
|  5>     print[ P_Basis ] 0
|  6>     print[ P_SCFInfo ] 1
|  7>     print[ P_SCFIterInfo ] 1
|  8>     print[ P_OrbEn ] 0
|  9>     print[ P_Cartesian ] 0
| 10> end
| 11> *xyz 0 1
| 12>  C        0.8094660000    -0.1459330000    -0.0146570000
| 13>  C        2.3179530000     0.0444000000    -0.0919220000
| 14>  N        2.7561650000     1.4331990000    -0.0426940000
| 15>  C        3.0439980000    -0.6868580000     1.0216780000
| 16>  O        2.7369950000    -2.0687290000     0.9233150000
| 17>  N        3.3087380000    -2.7498840000     1.9651290000
| 18>  C        3.1015990000    -3.9954500000     1.8931000000
| 19>  H        0.3145710000     0.3775960000    -0.8367420000
| 20>  H        0.4220550000     0.2588190000     0.9263170000
| 21>  H        0.5354340000    -1.2016120000    -0.0656310000
| 22>  H        2.6782940000    -0.3704140000    -1.0403680000
| 23>  H        2.3648110000     1.8926890000     0.7728360000
| 24>  H        2.4113240000     1.9373690000    -0.8499860000
| 25>  H        2.7233160000    -0.3111160000     2.0017910000
| 26>  H        4.1217830000    -0.5312480000     0.9263530000
| 27>  H        3.5197760000    -4.6021870000     2.6867890000
| 28>  H        2.5351120000    -4.4535620000     1.0833810000
| 29> *
| 30>
| 31>                          ****END OF INPUT****
 Total Charge           Charge          ....    0
 Multiplicity           Mult            ....    1
 Number of Electrons    NEL             ....   56
 Basis Dimension        Dim             ....  148

MULLIKEN ATOMIC CHARGES
-----------------------
   0 C :    0.030003
   1 C :   -0.083352
   2 N :   -0.188196
   3 C :    0.239756
   4 O :   -0.286331
   5 N :   -0.005313
   6 C :   -0.026795
   7 H :    0.009735
   8 H :    0.002079
   9 H :    0.023466
  10 H :    0.010949
  11 H :    0.084925
  12 H :    0.089347
  13 H :   -0.005034
  14 H :    0.019662
  15 H :    0.053897
  16 H :    0.031202
Sum of atomic charges:   -0.0000000

LOEWDIN ATOMIC CHARGES
----------------------
   0 C :   -0.077279
   1 C :   -0.016825
   2 N :   -0.091226
   3 C :    0.054690
   4 O :   -0.082338
   5 N :    0.012828
   6 C :   -0.050310
   7 H :    0.021775
   8 H :    0.020574
   9 H :    0.027148
  10 H :    0.025342
  11 H :    0.048548
  12 H :    0.052726
  13 H :    0.006991
  14 H :    0.014751
  15 H :    0.027138
  16 H :    0.005467

  Mayer bond orders larger than 0.1
B(  0-C ,  1-C ) :   1.0619 B(  0-C ,  7-H ) :   0.9600 B(  0-C ,  8-H ) :   0.9537
B(  0-C ,  9-H ) :   0.9463 B(  1-C ,  2-N ) :   1.0749 B(  1-C ,  3-C ) :   1.0420
B(  1-C , 10-H ) :   0.9078 B(  2-N , 11-H ) :   0.9695 B(  2-N , 12-H ) :   0.9675
B(  3-C ,  4-O ) :   0.9513 B(  3-C , 13-H ) :   0.9314 B(  3-C , 14-H ) :   0.9417
B(  4-O ,  5-N ) :   0.9743 B(  4-O ,  6-C ) :   0.1231 B(  5-N ,  6-C ) :   1.9414
B(  6-C , 15-H ) :   0.9525 B(  6-C , 16-H ) :   0.9318

FINAL SINGLE POINT ENERGY      -342.417273258312

DIPOLE MOMENT
-------------
                                X             Y             Z
Electronic contribution:      3.23237      -3.95920       1.98715
Nuclear contribution   :     -3.76124       4.08135      -2.18545
                        -----------------------------------------
Total Dipole Moment    :     -0.52887       0.12215      -0.19830
                        -----------------------------------------
Magnitude (a.u.)       :      0.57788
Magnitude (Debye)      :      1.46886

                             ****ORCA TERMINATED NORMALLY****
TOTAL RUN TIME: 0 days 0 hours 0 minutes 7 seconds 495 msec
