                         Program Version 3.0.3 - RELEASE   -
|  1> ! RI PBE def2-SVP def2-SVP/J NBO PAL2
|  2> % maxcore 2000
|  3> % output
|  4>     # printlevel mini
|  5>     print[ P_Basis ] 0
|  6>     print[ P_SCFInfo ] 1
|  7>     print[ P_SCFIterInfo ] 1
|  8>     print[ P_OrbEn ] 0
|  9>     print[ P_Cartesian ] 0
| 10> end
| 11> *xyz 0 1
| 12>  C        2.0450420000     1.8040430000     0.8591760000
| 13>  C        2.0057320000     0.3135790000     0.5656540000
| 14>  N        2.6178290000    -0.4923060000     1.6040780000
| 15>  C        1.8392140000    -1.1270960000     2.5400680000
| 16>  O        0.6366070000    -1.0593000000     2.5787470000
| 17>  N        3.9443290000    -0.6919640000     1.7369160000
| 18>  C        4.7643110000    -0.1585720000     0.9276310000
| 19>  H        1.5928760000     2.3579130000     0.0337550000
| 20>  H        3.0633450000     2.1723630000     0.9956030000
| 21>  H        1.4795870000     2.0246780000     1.7659020000
| 22>  H        2.4944210000     0.0765230000    -0.3841740000
| 23>  H        0.9725950000    -0.0287960000     0.5016110000
| 24>  H        2.4613930000    -1.7021970000     3.2433950000
| 25>  H        5.8133530000    -0.3765570000     1.0905160000
| 26>  H        4.4927460000     0.4897800000     0.0961220000
| 27> *
| 28>
| 29>                          ****END OF INPUT****
 Total Charge           Charge          ....    0
 Multiplicity           Mult            ....    1
 Number of Electrons    NEL             ....   54
 Basis Dimension        Dim             ....  138

MULLIKEN ATOMIC CHARGES
-----------------------
   0 C :   -0.021884
   1 C :    0.060188
   2 N :   -0.169954
   3 C :    0.189644
   4 O :   -0.212564
   5 N :   -0.053288
   6 C :   -0.050704
   7 H :    0.036742
   8 H :    0.028870
   9 H :    0.043036
  10 H :    0.028780
  11 H :    0.036406
  12 H :    0.003296
  13 H :    0.051666
  14 H :    0.029765
Sum of atomic charges:   -0.0000000

LOEWDIN ATOMIC CHARGES
----------------------
   0 C :   -0.068024
   1 C :    0.013564
   2 N :    0.030416
   3 C :    0.062792
   4 O :   -0.157396
   5 N :   -0.014172
   6 C :   -0.048573
   7 H :    0.036830
   8 H :    0.026448
   9 H :    0.036790
  10 H :    0.025755
  11 H :    0.035874
  12 H :   -0.005008
  13 H :    0.024998
  14 H :   -0.000295

  Mayer bond orders larger than 0.1
B(  0-C ,  1-C ) :   1.1238 B(  0-C ,  7-H ) :   0.9610 B(  0-C ,  8-H ) :   0.9644
B(  0-C ,  9-H ) :   0.9604 B(  1-C ,  2-N ) :   0.9467 B(  1-C , 10-H ) :   0.9283
B(  1-C , 11-H ) :   0.9144 B(  2-N ,  3-C ) :   1.0948 B(  2-N ,  5-N ) :   1.0636
B(  3-C ,  4-O ) :   2.0308 B(  3-C , 12-H ) :   0.9272 B(  5-N ,  6-C ) :   1.8940
B(  6-C , 13-H ) :   0.9530 B(  6-C , 14-H ) :   0.9172

FINAL SINGLE POINT ENERGY      -341.270340383140

DIPOLE MOMENT
-------------
                                X             Y             Z
Electronic contribution:     -1.29799      -5.44005       3.82685
Nuclear contribution   :      2.03055       6.07235      -4.65531
                        -----------------------------------------
Total Dipole Moment    :      0.73256       0.63229      -0.82846
                        -----------------------------------------
Magnitude (a.u.)       :      1.27389
Magnitude (Debye)      :      3.23797

                             ****ORCA TERMINATED NORMALLY****
TOTAL RUN TIME: 0 days 0 hours 0 minutes 7 seconds 71 msec
