                         Program Version 3.0.3 - RELEASE   -
|  1> ! RI PBE def2-SVP def2-SVP/J NBO PAL2
|  2> % maxcore 2000
|  3> % output
|  4>     # printlevel mini
|  5>     print[ P_Basis ] 0
|  6>     print[ P_SCFInfo ] 1
|  7>     print[ P_SCFIterInfo ] 1
|  8>     print[ P_OrbEn ] 0
|  9>     print[ P_Cartesian ] 0
| 10> end
| 11> *xyz 0 1
| 12>  C        0.9427350000     0.2208630000    -0.4345030000
| 13>  C        2.4042800000     0.0033150000    -0.1059390000
| 14>  N        3.2019450000     0.0472920000    -1.3094730000
| 15>  C        4.5556220000    -0.1235040000    -1.2613930000
| 16>  O        5.1506360000    -0.3190100000    -0.2153810000
| 17>  N        5.2021730000    -0.0614820000    -2.4628150000
| 18>  C        6.6310040000    -0.2281270000    -2.5289260000
| 19>  H        0.3411690000     0.1874770000     0.4749220000
| 20>  H        0.5681840000    -0.5531960000    -1.1102060000
| 21>  H        0.7821890000     1.1952240000    -0.9044760000
| 22>  H        2.5439740000    -0.9609820000     0.3923890000
| 23>  H        2.7554330000     0.7663760000     0.5955790000
| 24>  H        2.7366620000     0.2068730000    -2.1845550000
| 25>  H        4.6903310000     0.1003460000    -3.3093730000
| 26>  H        6.9359410000    -1.2052830000    -2.1468310000
| 27>  H        7.1483760000     0.5351260000    -1.9427600000
| 28>  H        6.9452270000    -0.1444870000    -3.5693600000
| 29> *
| 30>
| 31>                          ****END OF INPUT****
 Total Charge           Charge          ....    0
 Multiplicity           Mult            ....    1
 Number of Electrons    NEL             ....   56
 Basis Dimension        Dim             ....  148

MULLIKEN ATOMIC CHARGES
-----------------------
   0 C :   -0.074679
   1 C :    0.110802
   2 N :   -0.190106
   3 C :    0.099154
   4 O :   -0.265093
   5 N :   -0.193834
   6 C :    0.104323
   7 H :    0.035098
   8 H :    0.028778
   9 H :    0.026035
  10 H :    0.023725
  11 H :    0.026478
  12 H :    0.095578
  13 H :    0.098732
  14 H :    0.031385
  15 H :    0.034970
  16 H :    0.008653
Sum of atomic charges:   -0.0000000

LOEWDIN ATOMIC CHARGES
----------------------
   0 C :   -0.075089
   1 C :    0.028534
   2 N :   -0.039139
   3 C :    0.022611
   4 O :   -0.235903
   5 N :   -0.041794
   6 C :    0.014724
   7 H :    0.036972
   8 H :    0.025068
   9 H :    0.024819
  10 H :    0.023138
  11 H :    0.023513
  12 H :    0.059076
  13 H :    0.061230
  14 H :    0.024442
  15 H :    0.025096
  16 H :    0.022700

  Mayer bond orders larger than 0.1
B(  0-C ,  1-C ) :   1.1110 B(  0-C ,  7-H ) :   0.9598 B(  0-C ,  8-H ) :   0.9646
B(  0-C ,  9-H ) :   0.9634 B(  1-C ,  2-N ) :   1.0004 B(  1-C , 10-H ) :   0.9427
B(  1-C , 11-H ) :   0.9431 B(  2-N ,  3-C ) :   1.1496 B(  2-N , 12-H ) :   0.9316
B(  3-C ,  4-O ) :   1.9999 B(  3-C ,  5-N ) :   1.1523 B(  5-N ,  6-C ) :   1.0236
B(  5-N , 13-H ) :   0.9351 B(  6-C , 14-H ) :   0.9677 B(  6-C , 15-H ) :   0.9684
B(  6-C , 16-H ) :   0.9689

FINAL SINGLE POINT ENERGY      -342.521585878107

DIPOLE MOMENT
-------------
                                X             Y             Z
Electronic contribution:      3.61001      -0.47241       0.28989
Nuclear contribution   :     -4.42389       0.73237      -1.63363
                        -----------------------------------------
Total Dipole Moment    :     -0.81388       0.25996      -1.34375
                        -----------------------------------------
Magnitude (a.u.)       :      1.59237
Magnitude (Debye)      :      4.04748

                             ****ORCA TERMINATED NORMALLY****
TOTAL RUN TIME: 0 days 0 hours 0 minutes 7 seconds 230 msec
