                         Program Version 3.0.3 - RELEASE   -
|  1> ! RI PBE def2-SVP def2-SVP/J NBO PAL2
|  2> % maxcore 2000
|  3> % output
|  4>     # printlevel mini
|  5>     print[ P_Basis ] 0
|  6>     print[ P_SCFInfo ] 1
|  7>     print[ P_SCFIterInfo ] 1
|  8>     print[ P_OrbEn ] 0
|  9>     print[ P_Cartesian ] 0
| 10> end
| 11> *xyz 0 1
| 12>  C        1.9947500000     1.5470580000    -0.1452860000
| 13>  C        2.4778390000     0.1190680000     0.0419900000
| 14>  N        3.1095830000    -0.4337090000    -1.1318720000
| 15>  C        4.4483770000    -0.3828230000    -1.3144850000
| 16>  O        5.2578570000     0.0053230000    -0.5056870000
| 17>  O        4.7683130000    -0.8483750000    -2.5413240000
| 18>  C        6.1598040000    -0.8649240000    -2.8239170000
| 19>  H        1.5224450000     1.9143170000     0.7691570000
| 20>  H        1.2611850000     1.6156540000    -0.9529640000
| 21>  H        2.8319230000     2.2052560000    -0.3856290000
| 22>  H        1.6457960000    -0.5324770000     0.3243910000
| 23>  H        3.2150220000     0.0730720000     0.8445650000
| 24>  H        2.5502260000    -0.6955720000    -1.9249990000
| 25>  H        6.2508790000    -1.2437010000    -3.8401680000
| 26>  H        6.6900620000    -1.5180290000    -2.1290170000
| 27>  H        6.5830190000     0.1382710000    -2.7546530000
| 28> *
| 29>
| 30>                          ****END OF INPUT****
 Total Charge           Charge          ....    0
 Multiplicity           Mult            ....    1
 Number of Electrons    NEL             ....   56
 Basis Dimension        Dim             ....  143

MULLIKEN ATOMIC CHARGES
-----------------------
   0 C :   -0.043507
   1 C :    0.070577
   2 N :   -0.158346
   3 C :    0.153632
   4 O :   -0.246834
   5 O :   -0.290018
   6 C :    0.156102
   7 H :    0.025532
   8 H :    0.022031
   9 H :    0.038745
  10 H :    0.017966
  11 H :    0.038122
  12 H :    0.120719
  13 H :    0.028745
  14 H :    0.034464
  15 H :    0.032068
Sum of atomic charges:   -0.0000000

LOEWDIN ATOMIC CHARGES
----------------------
   0 C :   -0.077908
   1 C :    0.020850
   2 N :   -0.008227
   3 C :    0.024134
   4 O :   -0.206136
   5 O :   -0.099466
   6 C :    0.065341
   7 H :    0.031087
   8 H :    0.023238
   9 H :    0.032533
  10 H :    0.022911
  11 H :    0.034067
  12 H :    0.073969
  13 H :    0.022757
  14 H :    0.020770
  15 H :    0.020080

  Mayer bond orders larger than 0.1
B(  0-C ,  1-C ) :   1.1219 B(  0-C ,  7-H ) :   0.9574 B(  0-C ,  8-H ) :   0.9670
B(  0-C ,  9-H ) :   0.9643 B(  1-C ,  2-N ) :   1.0114 B(  1-C , 10-H ) :   0.9447
B(  1-C , 11-H ) :   0.9285 B(  2-N ,  3-C ) :   1.1945 B(  2-N , 12-H ) :   0.9251
B(  3-C ,  4-O ) :   1.9840 B(  3-C ,  5-O ) :   1.1502 B(  5-O ,  6-C ) :   0.9557
B(  6-C , 13-H ) :   0.9743 B(  6-C , 14-H ) :   0.9707 B(  6-C , 15-H ) :   0.9688

FINAL SINGLE POINT ENERGY      -362.365998178315

DIPOLE MOMENT
-------------
                                X             Y             Z
Electronic contribution:      2.96746      -3.00718      -1.38125
Nuclear contribution   :     -3.65731       2.85409       0.85416
                        -----------------------------------------
Total Dipole Moment    :     -0.68985      -0.15309      -0.52709
                        -----------------------------------------
Magnitude (a.u.)       :      0.88157
Magnitude (Debye)      :      2.24076

                             ****ORCA TERMINATED NORMALLY****
TOTAL RUN TIME: 0 days 0 hours 0 minutes 7 seconds 331 msec
