                         Program Version 3.0.3 - RELEASE   -
|  1> ! RI PBE def2-SVP def2-SVP/J NBO PAL2
|  2> % maxcore 2000
|  3> % output
|  4>     # printlevel mini
|  5>     print[ P_Basis ] 0
|  6>     print[ P_SCFInfo ] 1
|  7>     print[ P_SCFIterInfo ] 1
|  8>     print[ P_OrbEn ] 0
|  9>     print[ P_Cartesian ] 0
| 10> end
| 11> *xyz 0 1
| 12>  C        1.3170070000     0.9631930000    -0.2345190000
| 13>  C        2.5324610000     0.1942400000     0.1703340000
| 14>  N        2.8072040000    -0.1481900000     1.3691650000
| 15>  N        1.9075640000     0.1286570000     2.3455980000
| 16>  C        3.5120170000    -0.2365570000    -0.8501810000
| 17>  C        3.1238250000    -0.6363370000    -2.2039000000
| 18>  O        3.7162890000     0.6260160000    -1.9666870000
| 19>  H        1.2429200000     1.9042260000     0.3231940000
| 20>  H        0.4044600000     0.3923430000    -0.0329580000
| 21>  H        1.3523090000     1.2228780000    -1.2915360000
| 22>  H        1.3231540000     0.9454300000     2.2007930000
| 23>  H        2.3577280000     0.1338570000     3.2467320000
| 24>  H        4.4168330000    -0.6662650000    -0.4281800000
| 25>  H        2.0752830000    -0.6137870000    -2.4927570000
| 26>  H        3.7414370000    -1.3509950000    -2.7425790000
| 27> *
| 28>
| 29>                          ****END OF INPUT****
 Total Charge           Charge          ....    0
 Multiplicity           Mult            ....    1
 Number of Electrons    NEL             ....   54
 Basis Dimension        Dim             ....  138

MULLIKEN ATOMIC CHARGES
-----------------------
   0 C :    0.028370
   1 C :   -0.143541
   2 N :   -0.128233
   3 N :   -0.047386
   4 C :    0.072865
   5 C :    0.139758
   6 O :   -0.289511
   7 H :    0.032307
   8 H :    0.042514
   9 H :    0.028804
  10 H :    0.084774
  11 H :    0.116763
  12 H :    0.005771
  13 H :    0.020860
  14 H :    0.035882
Sum of atomic charges:   -0.0000000

LOEWDIN ATOMIC CHARGES
----------------------
   0 C :   -0.080962
   1 C :   -0.078598
   2 N :   -0.053232
   3 N :    0.008687
   4 C :    0.040412
   5 C :    0.054014
   6 O :   -0.153672
   7 H :    0.035819
   8 H :    0.039260
   9 H :    0.038511
  10 H :    0.040189
  11 H :    0.061226
  12 H :    0.021793
  13 H :    0.009584
  14 H :    0.016969

  Mayer bond orders larger than 0.1
B(  0-C ,  1-C ) :   1.0894 B(  0-C ,  7-H ) :   0.9269 B(  0-C ,  8-H ) :   0.9366
B(  0-C ,  9-H ) :   0.9256 B(  1-C ,  2-N ) :   1.8479 B(  1-C ,  3-N ) :   0.1067
B(  1-C ,  4-C ) :   1.0537 B(  2-N ,  3-N ) :   1.1189 B(  3-N , 10-H ) :   0.9373
B(  3-N , 11-H ) :   0.9638 B(  4-C ,  5-C ) :   1.0445 B(  4-C ,  6-O ) :   0.9475
B(  4-C , 12-H ) :   0.9347 B(  5-C ,  6-O ) :   0.9961 B(  5-C , 13-H ) :   0.9236
B(  5-C , 14-H ) :   0.9411

FINAL SINGLE POINT ENERGY      -341.224850778978

DIPOLE MOMENT
-------------
                                X             Y             Z
Electronic contribution:      3.58121      -0.59043       0.23137
Nuclear contribution   :     -4.24640       0.71611       0.21181
                        -----------------------------------------
Total Dipole Moment    :     -0.66519       0.12568       0.44317
                        -----------------------------------------
Magnitude (a.u.)       :      0.80912
Magnitude (Debye)      :      2.05662

                             ****ORCA TERMINATED NORMALLY****
TOTAL RUN TIME: 0 days 0 hours 0 minutes 7 seconds 151 msec
