                         Program Version 3.0.3 - RELEASE   -
|  1> ! RI PBE def2-SVP def2-SVP/J NBO PAL2
|  2> % maxcore 2000
|  3> % output
|  4>     # printlevel mini
|  5>     print[ P_Basis ] 0
|  6>     print[ P_SCFInfo ] 1
|  7>     print[ P_SCFIterInfo ] 1
|  8>     print[ P_OrbEn ] 0
|  9>     print[ P_Cartesian ] 0
| 10> end
| 11> *xyz 0 1
| 12>  C        0.9575460000     0.9802780000    -0.3931550000
| 13>  C        2.3982330000     0.6644810000    -0.2180380000
| 14>  N        3.1732140000     1.4276760000     0.4357710000
| 15>  N        4.4987610000     1.1349200000     0.5054860000
| 16>  C        5.1768870000     1.6767980000     1.6702070000
| 17>  C        5.0952380000     3.1904110000     1.7260580000
| 18>  O        3.8155290000     3.6623730000     2.0641760000
| 19>  H        0.7088660000     1.0982690000    -1.4528670000
| 20>  H        0.7035690000     1.9019810000     0.1302180000
| 21>  H        0.3295120000     0.1709110000    -0.0082460000
| 22>  H        2.7871110000    -0.2495570000    -0.6860950000
| 23>  H        4.7087870000     0.1549170000     0.3348870000
| 24>  H        6.2258560000     1.3794570000     1.5835060000
| 25>  H        4.7812590000     1.2643600000     2.6102490000
| 26>  H        5.4327220000     3.5962960000     0.7607840000
| 27>  H        5.7813110000     3.5510610000     2.4977490000
| 28>  H        3.1985900000     3.1692890000     1.5037100000
| 29> *
| 30>
| 31>                          ****END OF INPUT****
 Total Charge           Charge          ....    0
 Multiplicity           Mult            ....    1
 Number of Electrons    NEL             ....   56
 Basis Dimension        Dim             ....  148

MULLIKEN ATOMIC CHARGES
-----------------------
   0 C :    0.034087
   1 C :   -0.104487
   2 N :   -0.089666
   3 N :   -0.129218
   4 C :    0.066858
   5 C :    0.180529
   6 O :   -0.294482
   7 H :    0.038557
   8 H :    0.033150
   9 H :    0.038014
  10 H :   -0.013990
  11 H :    0.091989
  12 H :    0.006408
  13 H :    0.005071
  14 H :   -0.009240
  15 H :    0.007684
  16 H :    0.138737
Sum of atomic charges:   -0.0000000

LOEWDIN ATOMIC CHARGES
----------------------
   0 C :   -0.072647
   1 C :   -0.043533
   2 N :   -0.029837
   3 N :   -0.004414
   4 C :   -0.011693
   5 C :    0.049100
   6 O :   -0.133233
   7 H :    0.039238
   8 H :    0.038038
   9 H :    0.038905
  10 H :   -0.004875
  11 H :    0.044516
  12 H :    0.027426
  13 H :    0.009122
  14 H :    0.003381
  15 H :    0.020624
  16 H :    0.029880

  Mayer bond orders larger than 0.1
B(  0-C ,  1-C ) :   1.0874 B(  0-C ,  7-H ) :   0.9448 B(  0-C ,  8-H ) :   0.9586
B(  0-C ,  9-H ) :   0.9471 B(  1-C ,  2-N ) :   1.8450 B(  1-C ,  3-N ) :   0.1318
B(  1-C , 10-H ) :   0.9288 B(  2-N ,  3-N ) :   1.0786 B(  2-N , 16-H ) :   0.1112
B(  3-N ,  4-C ) :   1.0253 B(  3-N , 11-H ) :   0.9212 B(  4-C ,  5-C ) :   1.0880
B(  4-C , 12-H ) :   0.9238 B(  4-C , 13-H ) :   0.9206 B(  5-C ,  6-O ) :   1.0937
B(  5-C , 14-H ) :   0.9171 B(  5-C , 15-H ) :   0.9381 B(  6-O , 16-H ) :   0.9535

FINAL SINGLE POINT ENERGY      -342.449784883903

DIPOLE MOMENT
-------------
                                X             Y             Z
Electronic contribution:      1.32650       1.04583       0.65494
Nuclear contribution   :     -1.20136      -2.28244      -1.15274
                        -----------------------------------------
Total Dipole Moment    :      0.12515      -1.23660      -0.49780
                        -----------------------------------------
Magnitude (a.u.)       :      1.33890
Magnitude (Debye)      :      3.40322

                             ****ORCA TERMINATED NORMALLY****
TOTAL RUN TIME: 0 days 0 hours 0 minutes 7 seconds 773 msec
