                         Program Version 3.0.3 - RELEASE   -
|  1> ! RI PBE def2-SVP def2-SVP/J NBO PAL2
|  2> % maxcore 2000
|  3> % output
|  4>     # printlevel mini
|  5>     print[ P_Basis ] 0
|  6>     print[ P_SCFInfo ] 1
|  7>     print[ P_SCFIterInfo ] 1
|  8>     print[ P_OrbEn ] 0
|  9>     print[ P_Cartesian ] 0
| 10> end
| 11> *xyz 0 1
| 12>  C        1.0531330000     0.4826490000    -0.7958110000
| 13>  C        2.4980950000     0.2243080000    -0.5966590000
| 14>  N        3.2458570000    -0.1239480000    -1.5630040000
| 15>  N        4.5657330000    -0.3184890000    -1.1623650000
| 16>  C        5.3407400000    -0.5675420000    -2.1363780000
| 17>  C        6.7932790000    -0.8114890000    -1.9043960000
| 18>  O        7.2102210000    -2.0377200000    -2.4708470000
| 19>  H        0.8074960000     1.5096060000    -0.5076230000
| 20>  H        0.4580900000    -0.1731050000    -0.1524770000
| 21>  H        0.7719270000     0.3223620000    -1.8358900000
| 22>  H        2.9254330000     0.3401120000     0.4042440000
| 23>  H        4.9596820000    -0.6317480000    -3.1596670000
| 24>  H        7.0031400000    -0.7524590000    -0.8308280000
| 25>  H        7.3800430000    -0.0376910000    -2.4089540000
| 26>  H        6.7416400000    -2.7468340000    -2.0221440000
| 27> *
| 28>
| 29>                          ****END OF INPUT****
 Total Charge           Charge          ....    0
 Multiplicity           Mult            ....    1
 Number of Electrons    NEL             ....   54
 Basis Dimension        Dim             ....  138

MULLIKEN ATOMIC CHARGES
-----------------------
   0 C :    0.052963
   1 C :   -0.071518
   2 N :   -0.087917
   3 N :   -0.083270
   4 C :   -0.103817
   5 C :    0.272587
   6 O :   -0.293353
   7 H :    0.042777
   8 H :    0.044914
   9 H :    0.033788
  10 H :    0.000388
  11 H :    0.004413
  12 H :    0.005253
  13 H :    0.026164
  14 H :    0.156627
Sum of atomic charges:   -0.0000000

LOEWDIN ATOMIC CHARGES
----------------------
   0 C :   -0.073891
   1 C :    0.017989
   2 N :   -0.060928
   3 N :   -0.052565
   4 C :   -0.012232
   5 C :    0.044998
   6 O :   -0.114126
   7 H :    0.046023
   8 H :    0.046253
   9 H :    0.037801
  10 H :   -0.000786
  11 H :    0.002292
  12 H :    0.012728
  13 H :    0.034968
  14 H :    0.071476

  Mayer bond orders larger than 0.1
B(  0-C ,  1-C ) :   1.0674 B(  0-C ,  7-H ) :   0.9407 B(  0-C ,  8-H ) :   0.9409
B(  0-C ,  9-H ) :   0.9508 B(  1-C ,  2-N ) :   1.8795 B(  1-C ,  4-C ) :   0.1023
B(  1-C , 10-H ) :   0.9349 B(  2-N ,  3-N ) :   0.9718 B(  3-N ,  4-C ) :   1.8666
B(  4-C ,  5-C ) :   1.0169 B(  4-C , 11-H ) :   0.9400 B(  5-C ,  6-O ) :   1.0274
B(  5-C , 12-H ) :   0.9255 B(  5-C , 13-H ) :   0.9143 B(  6-O , 14-H ) :   0.9860

FINAL SINGLE POINT ENERGY      -341.234152609372

DIPOLE MOMENT
-------------
                                X             Y             Z
Electronic contribution:      3.60842      -1.54445      -1.15827
Nuclear contribution   :     -4.15549       1.62202       1.63615
                        -----------------------------------------
Total Dipole Moment    :     -0.54707       0.07757       0.47788
                        -----------------------------------------
Magnitude (a.u.)       :      0.73053
Magnitude (Debye)      :      1.85686

                             ****ORCA TERMINATED NORMALLY****
TOTAL RUN TIME: 0 days 0 hours 0 minutes 6 seconds 86 msec
