                         Program Version 3.0.3 - RELEASE   -
|  1> ! RI PBE def2-SVP def2-SVP/J NBO PAL2
|  2> % maxcore 2000
|  3> % output
|  4>     # printlevel mini
|  5>     print[ P_Basis ] 0
|  6>     print[ P_SCFInfo ] 1
|  7>     print[ P_SCFIterInfo ] 1
|  8>     print[ P_OrbEn ] 0
|  9>     print[ P_Cartesian ] 0
| 10> end
| 11> *xyz 0 1
| 12>  C        0.3707660000    -0.3050610000     0.0412510000
| 13>  C        1.6846130000     0.3188540000     0.3032580000
| 14>  N        2.7648060000    -0.2113070000    -0.1172140000
| 15>  N        3.8726030000     0.5372310000     0.2390010000
| 16>  C        4.9691500000     0.0356330000    -0.1696500000
| 17>  C        6.2130570000     0.7566260000     0.1571830000
| 18>  O        7.3018650000     0.3706120000    -0.1805120000
| 19>  H       -0.2727020000     0.3900560000    -0.5073590000
| 20>  H       -0.1389370000    -0.5187430000     0.9860960000
| 21>  H        0.4835070000    -1.2257130000    -0.5291720000
| 22>  H        1.7283960000     1.2542040000     0.8691680000
| 23>  H        5.0230350000    -0.8914420000    -0.7426840000
| 24>  H        6.0647220000     1.6858400000     0.7408250000
| 25> *
| 26>
| 27>                          ****END OF INPUT****
 Total Charge           Charge          ....    0
 Multiplicity           Mult            ....    1
 Number of Electrons    NEL             ....   52
 Basis Dimension        Dim             ....  128

MULLIKEN ATOMIC CHARGES
-----------------------
   0 C :    0.036174
   1 C :   -0.049934
   2 N :   -0.086891
   3 N :   -0.069841
   4 C :   -0.000606
   5 C :    0.156747
   6 O :   -0.155735
   7 H :    0.057738
   8 H :    0.054619
   9 H :    0.044329
  10 H :    0.012836
  11 H :    0.010535
  12 H :   -0.009971
Sum of atomic charges:    0.0000000

LOEWDIN ATOMIC CHARGES
----------------------
   0 C :   -0.073630
   1 C :    0.041640
   2 N :   -0.058148
   3 N :   -0.017590
   4 C :   -0.021872
   5 C :    0.067408
   6 O :   -0.095197
   7 H :    0.052561
   8 H :    0.052332
   9 H :    0.042021
  10 H :    0.005067
  11 H :    0.012367
  12 H :   -0.006960

  Mayer bond orders larger than 0.1
B(  0-C ,  1-C ) :   1.0826 B(  0-C ,  7-H ) :   0.9364 B(  0-C ,  8-H ) :   0.9351
B(  0-C ,  9-H ) :   0.9484 B(  1-C ,  2-N ) :   1.8368 B(  1-C ,  4-C ) :   0.1029
B(  1-C , 10-H ) :   0.9339 B(  2-N ,  3-N ) :   1.0039 B(  3-N ,  4-C ) :   1.7703
B(  4-C ,  5-C ) :   0.9833 B(  4-C , 11-H ) :   0.9415 B(  5-C ,  6-O ) :   2.1121
B(  5-C , 12-H ) :   0.9246

FINAL SINGLE POINT ENERGY      -340.039324405738

DIPOLE MOMENT
-------------
                                X             Y             Z
Electronic contribution:      8.20313       0.66857      -0.33764
Nuclear contribution   :     -9.77040      -0.54475       0.55517
                        -----------------------------------------
Total Dipole Moment    :     -1.56727       0.12383       0.21753
                        -----------------------------------------
Magnitude (a.u.)       :      1.58713
Magnitude (Debye)      :      4.03416

                             ****ORCA TERMINATED NORMALLY****
TOTAL RUN TIME: 0 days 0 hours 0 minutes 5 seconds 929 msec
