                         Program Version 3.0.3 - RELEASE   -
|  1> ! RI PBE def2-SVP def2-SVP/J NBO PAL2
|  2> % maxcore 2000
|  3> % output
|  4>     # printlevel mini
|  5>     print[ P_Basis ] 0
|  6>     print[ P_SCFInfo ] 1
|  7>     print[ P_SCFIterInfo ] 1
|  8>     print[ P_OrbEn ] 0
|  9>     print[ P_Cartesian ] 0
| 10> end
| 11> *xyz 0 1
| 12>  C        1.3898340000    -0.6994560000    -0.6641890000
| 13>  C        2.8340790000    -0.4222640000    -0.4500410000
| 14>  N        3.4246020000    -0.8842090000     0.5767250000
| 15>  N        4.7396270000    -0.6314130000     0.7704910000
| 16>  C        5.5438560000     0.1479910000    -0.1321710000
| 17>  C        5.2812520000    -1.1736110000     1.9064780000
| 18>  O        6.4340610000    -1.0530190000     2.2393010000
| 19>  H        0.8201710000     0.2333740000    -0.7199720000
| 20>  H        0.9950690000    -1.3085320000     0.1483010000
| 21>  H        1.2320210000    -1.2234900000    -1.6119730000
| 22>  H        3.3501500000     0.1821780000    -1.1986930000
| 23>  H        5.1545560000     1.1666650000    -0.2219790000
| 24>  H        5.5718280000    -0.3101440000    -1.1254730000
| 25>  H        6.5488700000     0.1775310000     0.2836820000
| 26>  H        4.5196150000    -1.7347020000     2.4701060000
| 27> *
| 28>
| 29>                          ****END OF INPUT****
 Total Charge           Charge          ....    0
 Multiplicity           Mult            ....    1
 Number of Electrons    NEL             ....   54
 Basis Dimension        Dim             ....  138

MULLIKEN ATOMIC CHARGES
-----------------------
   0 C :    0.057416
   1 C :   -0.153811
   2 N :   -0.031413
   3 N :   -0.181128
   4 C :    0.088088
   5 C :    0.180535
   6 O :   -0.215697
   7 H :    0.037757
   8 H :    0.038117
   9 H :    0.037056
  10 H :   -0.001267
  11 H :    0.046762
  12 H :    0.042269
  13 H :    0.054917
  14 H :    0.000401
Sum of atomic charges:   -0.0000000

LOEWDIN ATOMIC CHARGES
----------------------
   0 C :   -0.070322
   1 C :   -0.035670
   2 N :   -0.031848
   3 N :    0.025346
   4 C :    0.002933
   5 C :    0.058119
   6 O :   -0.162374
   7 H :    0.040898
   8 H :    0.039005
   9 H :    0.040594
  10 H :   -0.000132
  11 H :    0.030432
  12 H :    0.029323
  13 H :    0.039744
  14 H :   -0.006048

  Mayer bond orders larger than 0.1
B(  0-C ,  1-C ) :   1.0764 B(  0-C ,  7-H ) :   0.9426 B(  0-C ,  8-H ) :   0.9569
B(  0-C ,  9-H ) :   0.9433 B(  1-C ,  2-N ) :   1.8690 B(  1-C , 10-H ) :   0.9243
B(  2-N ,  3-N ) :   1.0421 B(  3-N ,  4-C ) :   0.9796 B(  3-N ,  5-C ) :   1.1044
B(  4-C , 11-H ) :   0.9538 B(  4-C , 12-H ) :   0.9531 B(  4-C , 13-H ) :   0.9366
B(  5-C ,  6-O ) :   2.0357 B(  5-C , 14-H ) :   0.9268

FINAL SINGLE POINT ENERGY      -341.279016420408

DIPOLE MOMENT
-------------
                                X             Y             Z
Electronic contribution:      4.69321      -1.86274       5.21741
Nuclear contribution   :     -5.48984       2.35097      -6.37421
                        -----------------------------------------
Total Dipole Moment    :     -0.79663       0.48823      -1.15680
                        -----------------------------------------
Magnitude (a.u.)       :      1.48700
Magnitude (Debye)      :      3.77966

                             ****ORCA TERMINATED NORMALLY****
TOTAL RUN TIME: 0 days 0 hours 0 minutes 6 seconds 856 msec
