                         Program Version 3.0.3 - RELEASE   -
|  1> ! RI PBE def2-SVP def2-SVP/J NBO PAL2
|  2> % maxcore 2000
|  3> % output
|  4>     # printlevel mini
|  5>     print[ P_Basis ] 0
|  6>     print[ P_SCFInfo ] 1
|  7>     print[ P_SCFIterInfo ] 1
|  8>     print[ P_OrbEn ] 0
|  9>     print[ P_Cartesian ] 0
| 10> end
| 11> *xyz 0 1
| 12>  C        0.7549110000    -2.0995380000     2.0473010000
| 13>  C        2.0631100000    -1.6035930000     1.5522700000
| 14>  N        3.1289900000    -1.7850490000     2.2178510000
| 15>  N        4.2808700000    -1.3086520000     1.7102380000
| 16>  C        5.4901610000    -1.4475210000     2.3431380000
| 17>  C        5.4761590000    -2.1715480000     3.6568740000
| 18>  O        6.4880630000    -0.9939890000     1.8260250000
| 19>  H        0.3082850000    -2.7980980000     1.3328120000
| 20>  H        0.0464940000    -1.2739930000     2.1680600000
| 21>  H        0.8790400000    -2.6032880000     3.0054200000
| 22>  H        2.0834210000    -1.0734800000     0.5913560000
| 23>  H        4.2971880000    -0.8183740000     0.8207840000
| 24>  H        4.8232920000    -1.6643000000     4.3691400000
| 25>  H        6.4951600000    -2.2037800000     4.0346800000
| 26>  H        5.0846650000    -3.1828880000     3.5350510000
| 27> *
| 28>
| 29>                          ****END OF INPUT****
 Total Charge           Charge          ....    0
 Multiplicity           Mult            ....    1
 Number of Electrons    NEL             ....   54
 Basis Dimension        Dim             ....  138

MULLIKEN ATOMIC CHARGES
-----------------------
   0 C :    0.029345
   1 C :   -0.115124
   2 N :   -0.026408
   3 N :   -0.041364
   4 C :   -0.014718
   5 C :    0.015558
   6 O :   -0.197096
   7 H :    0.044978
   8 H :    0.045274
   9 H :    0.036231
  10 H :   -0.008383
  11 H :    0.100966
  12 H :    0.046168
  13 H :    0.037684
  14 H :    0.046888
Sum of atomic charges:    0.0000000

LOEWDIN ATOMIC CHARGES
----------------------
   0 C :   -0.074235
   1 C :   -0.028594
   2 N :   -0.030409
   3 N :    0.057514
   4 C :    0.027787
   5 C :   -0.089303
   6 O :   -0.175811
   7 H :    0.042054
   8 H :    0.042595
   9 H :    0.039882
  10 H :   -0.003179
  11 H :    0.058429
  12 H :    0.046191
  13 H :    0.040411
  14 H :    0.046669

  Mayer bond orders larger than 0.1
B(  0-C ,  1-C ) :   1.0901 B(  0-C ,  7-H ) :   0.9447 B(  0-C ,  8-H ) :   0.9433
B(  0-C ,  9-H ) :   0.9545 B(  1-C ,  2-N ) :   1.8600 B(  1-C , 10-H ) :   0.9329
B(  2-N ,  3-N ) :   1.0458 B(  3-N ,  4-C ) :   1.1095 B(  3-N , 11-H ) :   0.8986
B(  4-C ,  5-C ) :   1.0605 B(  4-C ,  6-O ) :   2.1103 B(  5-C , 12-H ) :   0.9331
B(  5-C , 13-H ) :   0.9467 B(  5-C , 14-H ) :   0.9312

FINAL SINGLE POINT ENERGY      -341.290834683788

DIPOLE MOMENT
-------------
                                X             Y             Z
Electronic contribution:      5.84782       2.26861      -2.30738
Nuclear contribution   :     -7.22085      -2.42886       2.16334
                        -----------------------------------------
Total Dipole Moment    :     -1.37303      -0.16025      -0.14405
                        -----------------------------------------
Magnitude (a.u.)       :      1.38983
Magnitude (Debye)      :      3.53268

                             ****ORCA TERMINATED NORMALLY****
TOTAL RUN TIME: 0 days 0 hours 0 minutes 6 seconds 503 msec
