                         Program Version 3.0.3 - RELEASE   -
|  1> ! RI PBE def2-SVP def2-SVP/J NBO PAL2
|  2> % maxcore 2000
|  3> % output
|  4>     # printlevel mini
|  5>     print[ P_Basis ] 0
|  6>     print[ P_SCFInfo ] 1
|  7>     print[ P_SCFIterInfo ] 1
|  8>     print[ P_OrbEn ] 0
|  9>     print[ P_Cartesian ] 0
| 10> end
| 11> *xyz 0 1
| 12>  C        5.0874320000    -1.7283490000     3.0424290000
| 13>  C        5.1541650000    -0.7273700000     1.9458110000
| 14>  N        5.3947470000     0.4978040000     2.1906670000
| 15>  N        5.4476750000     1.3700930000     1.1828690000
| 16>  C        5.7155940000     2.7309660000     1.4593030000
| 17>  C        5.7348620000     3.5493990000     0.2089560000
| 18>  O        5.5463870000     3.1057980000    -0.8917600000
| 19>  H        5.8307740000    -2.5203320000     2.9030550000
| 20>  H        4.1077300000    -2.2165180000     3.0755130000
| 21>  H        5.2689860000    -1.2432030000     4.0016720000
| 22>  H        4.9902740000    -1.0727500000     0.9171050000
| 23>  H        5.3027270000     1.0935290000     0.2207320000
| 24>  H        6.6874370000     2.8856520000     1.9579320000
| 25>  H        4.9690110000     3.1889790000     2.1300240000
| 26>  H        5.9410100000     4.6276020000     0.3673910000
| 27> *
| 28>
| 29>                          ****END OF INPUT****
 Total Charge           Charge          ....    0
 Multiplicity           Mult            ....    1
 Number of Electrons    NEL             ....   54
 Basis Dimension        Dim             ....  138

MULLIKEN ATOMIC CHARGES
-----------------------
   0 C :    0.044581
   1 C :   -0.140295
   2 N :   -0.044992
   3 N :   -0.158394
   4 C :    0.165352
   5 C :    0.059470
   6 O :   -0.171782
   7 H :    0.031030
   8 H :    0.027898
   9 H :    0.023240
  10 H :   -0.023386
  11 H :    0.102140
  12 H :    0.038134
  13 H :    0.041880
  14 H :    0.005124
Sum of atomic charges:   -0.0000000

LOEWDIN ATOMIC CHARGES
----------------------
   0 C :   -0.074547
   1 C :   -0.066729
   2 N :   -0.038783
   3 N :    0.007944
   4 C :   -0.022413
   5 C :    0.088766
   6 O :   -0.110102
   7 H :    0.034097
   8 H :    0.033523
   9 H :    0.034202
  10 H :   -0.010669
  11 H :    0.042176
  12 H :    0.042156
  13 H :    0.042820
  14 H :   -0.002441

  Mayer bond orders larger than 0.1
B(  0-C ,  1-C ) :   1.0779 B(  0-C ,  7-H ) :   0.9484 B(  0-C ,  8-H ) :   0.9475
B(  0-C ,  9-H ) :   0.9567 B(  1-C ,  2-N ) :   1.8565 B(  1-C ,  3-N ) :   0.1438
B(  1-C , 10-H ) :   0.9358 B(  2-N ,  3-N ) :   1.0738 B(  3-N ,  4-C ) :   1.0503
B(  3-N , 11-H ) :   0.9122 B(  4-C ,  5-C ) :   0.9742 B(  4-C , 12-H ) :   0.8932
B(  4-C , 13-H ) :   0.8942 B(  5-C ,  6-O ) :   2.1440 B(  5-C , 14-H ) :   0.9247

FINAL SINGLE POINT ENERGY      -341.247139894332

DIPOLE MOMENT
-------------
                                X             Y             Z
Electronic contribution:      0.45468       5.23368      -4.66987
Nuclear contribution   :     -0.38964      -5.01494       4.93993
                        -----------------------------------------
Total Dipole Moment    :      0.06504       0.21874       0.27007
                        -----------------------------------------
Magnitude (a.u.)       :      0.35357
Magnitude (Debye)      :      0.89872

                             ****ORCA TERMINATED NORMALLY****
TOTAL RUN TIME: 0 days 0 hours 0 minutes 6 seconds 625 msec
