                         Program Version 3.0.3 - RELEASE   -
|  1> ! RI PBE def2-SVP def2-SVP/J NBO PAL2
|  2> % maxcore 2000
|  3> % output
|  4>     # printlevel mini
|  5>     print[ P_Basis ] 0
|  6>     print[ P_SCFInfo ] 1
|  7>     print[ P_SCFIterInfo ] 1
|  8>     print[ P_OrbEn ] 0
|  9>     print[ P_Cartesian ] 0
| 10> end
| 11> *xyz 0 1
| 12>  C        1.4865610000    -0.1700210000    -1.2778520000
| 13>  C        2.8430160000    -0.6052400000    -0.7968410000
| 14>  N        3.3062970000    -1.7966960000    -0.8832670000
| 15>  N        3.5819300000     0.3802350000    -0.2324680000
| 16>  C        4.8077840000     0.1606990000     0.5148570000
| 17>  C        6.0075500000    -0.3029150000    -0.3067660000
| 18>  O        6.0366660000    -1.6787520000    -0.5393080000
| 19>  H        1.0341240000    -0.9391480000    -1.9016090000
| 20>  H        1.5552750000     0.7513360000    -1.8613460000
| 21>  H        0.8263210000     0.0202950000    -0.4274090000
| 22>  H        2.6422090000    -2.4209800000    -1.3232670000
| 23>  H        3.1448290000     1.2785900000    -0.1435480000
| 24>  H        4.6328770000    -0.5746840000     1.3095540000
| 25>  H        5.0508290000     1.1148270000     0.9884870000
| 26>  H        6.9145260000    -0.0506700000     0.2541060000
| 27>  H        6.0327920000     0.2782230000    -1.2432210000
| 28>  H        5.1107140000    -1.9475120000    -0.7275920000
| 29> *
| 30>
| 31>                          ****END OF INPUT****
 Total Charge           Charge          ....    0
 Multiplicity           Mult            ....    1
 Number of Electrons    NEL             ....   56
 Basis Dimension        Dim             ....  148

MULLIKEN ATOMIC CHARGES
-----------------------
   0 C :    0.037946
   1 C :   -0.147685
   2 N :   -0.168428
   3 N :   -0.112648
   4 C :    0.050314
   5 C :    0.199796
   6 O :   -0.304643
   7 H :    0.026599
   8 H :    0.039830
   9 H :    0.053487
  10 H :    0.088243
  11 H :    0.104145
  12 H :    0.024832
  13 H :   -0.002735
  14 H :   -0.004971
  15 H :   -0.022157
  16 H :    0.138073
Sum of atomic charges:   -0.0000000

LOEWDIN ATOMIC CHARGES
----------------------
   0 C :   -0.079029
   1 C :    0.014359
   2 N :   -0.160493
   3 N :    0.002334
   4 C :    0.002702
   5 C :    0.043574
   6 O :   -0.145295
   7 H :    0.037537
   8 H :    0.039234
   9 H :    0.045257
  10 H :    0.048791
  11 H :    0.071869
  12 H :    0.024196
  13 H :    0.026197
  14 H :    0.015271
  15 H :   -0.003585
  16 H :    0.017082

  Mayer bond orders larger than 0.1
B(  0-C ,  1-C ) :   1.0534 B(  0-C ,  7-H ) :   0.9455 B(  0-C ,  8-H ) :   0.9433
B(  0-C ,  9-H ) :   0.9440 B(  1-C ,  2-N ) :   1.8097 B(  1-C ,  3-N ) :   1.2544
B(  2-N , 10-H ) :   0.9200 B(  2-N , 16-H ) :   0.1715 B(  3-N ,  4-C ) :   1.0127
B(  3-N , 11-H ) :   0.9340 B(  4-C ,  5-C ) :   1.0635 B(  4-C , 12-H ) :   0.9299
B(  4-C , 13-H ) :   0.9278 B(  5-C ,  6-O ) :   1.1302 B(  5-C , 14-H ) :   0.9340
B(  5-C , 15-H ) :   0.9151 B(  6-O , 16-H ) :   0.9165

FINAL SINGLE POINT ENERGY      -342.493372511521

DIPOLE MOMENT
-------------
                                X             Y             Z
Electronic contribution:      1.63102      -1.93297       0.06011
Nuclear contribution   :     -3.17986       3.17903      -0.00567
                        -----------------------------------------
Total Dipole Moment    :     -1.54885       1.24606       0.05444
                        -----------------------------------------
Magnitude (a.u.)       :      1.98861
Magnitude (Debye)      :      5.05464

                             ****ORCA TERMINATED NORMALLY****
TOTAL RUN TIME: 0 days 0 hours 0 minutes 7 seconds 773 msec
