                         Program Version 3.0.3 - RELEASE   -
|  1> ! RI PBE def2-SVP def2-SVP/J NBO PAL2
|  2> % maxcore 2000
|  3> % output
|  4>     # printlevel mini
|  5>     print[ P_Basis ] 0
|  6>     print[ P_SCFInfo ] 1
|  7>     print[ P_SCFIterInfo ] 1
|  8>     print[ P_OrbEn ] 0
|  9>     print[ P_Cartesian ] 0
| 10> end
| 11> *xyz 0 1
| 12>  C        1.5609690000     0.0575680000    -1.3126360000
| 13>  C        2.9841430000     0.3702240000    -0.9399300000
| 14>  N        3.7563300000     1.1724240000    -1.5488500000
| 15>  N        3.3943280000    -0.3315750000     0.1823040000
| 16>  C        4.5975680000    -0.3656290000     0.8792770000
| 17>  C        5.7332420000     0.4832520000     0.4098610000
| 18>  O        4.6654580000    -1.0899300000     1.8469810000
| 19>  H        1.2643930000     0.6210850000    -2.1956020000
| 20>  H        0.8833750000     0.3108190000    -0.4926490000
| 21>  H        1.4431810000    -1.0089840000    -1.5229980000
| 22>  H        3.2736730000     1.5851090000    -2.3402350000
| 23>  H        2.7155310000    -0.9477630000     0.6036270000
| 24>  H        5.4473610000     1.5356150000     0.3942400000
| 25>  H        5.9992800000     0.2367770000    -0.6186800000
| 26>  H        6.5720780000     0.3156070000     1.0819110000
| 27> *
| 28>
| 29>                          ****END OF INPUT****
 Total Charge           Charge          ....    0
 Multiplicity           Mult            ....    1
 Number of Electrons    NEL             ....   54
 Basis Dimension        Dim             ....  138

MULLIKEN ATOMIC CHARGES
-----------------------
   0 C :    0.032467
   1 C :   -0.159469
   2 N :   -0.111675
   3 N :   -0.036654
   4 C :   -0.032520
   5 C :    0.047725
   6 O :   -0.190752
   7 H :    0.023646
   8 H :    0.053174
   9 H :    0.050502
  10 H :    0.085990
  11 H :    0.109951
  12 H :    0.050703
  13 H :    0.045884
  14 H :    0.031028
Sum of atomic charges:   -0.0000000

LOEWDIN ATOMIC CHARGES
----------------------
   0 C :   -0.080098
   1 C :    0.013209
   2 N :   -0.143135
   3 N :    0.018283
   4 C :    0.056465
   5 C :   -0.085607
   6 O :   -0.169185
   7 H :    0.036931
   8 H :    0.044498
   9 H :    0.044015
  10 H :    0.049656
  11 H :    0.080323
  12 H :    0.048804
  13 H :    0.048472
  14 H :    0.037372

  Mayer bond orders larger than 0.1
B(  0-C ,  1-C ) :   1.0385 B(  0-C ,  7-H ) :   0.9464 B(  0-C ,  8-H ) :   0.9451
B(  0-C ,  9-H ) :   0.9456 B(  1-C ,  2-N ) :   1.9376 B(  1-C ,  3-N ) :   1.1202
B(  2-N , 10-H ) :   0.9184 B(  3-N ,  4-C ) :   1.0765 B(  3-N , 11-H ) :   0.9035
B(  4-C ,  5-C ) :   1.0754 B(  4-C ,  6-O ) :   2.1252 B(  5-C , 12-H ) :   0.9248
B(  5-C , 13-H ) :   0.9218 B(  5-C , 14-H ) :   0.9388

FINAL SINGLE POINT ENERGY      -341.321746813009

DIPOLE MOMENT
-------------
                                X             Y             Z
Electronic contribution:      1.53608      -1.97335       3.35779
Nuclear contribution   :     -2.68055       2.20523      -4.28243
                        -----------------------------------------
Total Dipole Moment    :     -1.14447       0.23189      -0.92465
                        -----------------------------------------
Magnitude (a.u.)       :      1.48948
Magnitude (Debye)      :      3.78595

                             ****ORCA TERMINATED NORMALLY****
TOTAL RUN TIME: 0 days 0 hours 0 minutes 6 seconds 605 msec
