                         Program Version 3.0.3 - RELEASE   -
|  1> ! RI PBE def2-SVP def2-SVP/J NBO PAL2
|  2> % maxcore 2000
|  3> % output
|  4>     # printlevel mini
|  5>     print[ P_Basis ] 0
|  6>     print[ P_SCFInfo ] 1
|  7>     print[ P_SCFIterInfo ] 1
|  8>     print[ P_OrbEn ] 0
|  9>     print[ P_Cartesian ] 0
| 10> end
| 11> *xyz 0 1
| 12>  C        1.2102110000     0.7508360000    -0.3687350000
| 13>  C        2.6365800000     0.5463670000    -0.7980630000
| 14>  N        3.1512460000     0.8854610000    -1.9176210000
| 15>  N        3.4158820000    -0.0642740000     0.1334770000
| 16>  C        4.7908710000    -0.3386970000    -0.0990420000
| 17>  C        5.4096610000    -1.0116730000     1.0820830000
| 18>  O        4.8133660000    -1.2806790000     2.0908870000
| 19>  H        0.6401030000     1.2427820000    -1.1549780000
| 20>  H        1.1639090000     1.3667240000     0.5332470000
| 21>  H        0.7354530000    -0.2071270000    -0.1408230000
| 22>  H        2.4546180000     1.3273710000    -2.5071520000
| 23>  H        3.0462900000    -0.3452410000     1.0260080000
| 24>  H        5.3665910000     0.5732570000    -0.3188690000
| 25>  H        4.9449560000    -0.9778890000    -0.9817280000
| 26>  H        6.4850630000    -1.2560280000     0.9697280000
| 27> *
| 28>
| 29>                          ****END OF INPUT****
 Total Charge           Charge          ....    0
 Multiplicity           Mult            ....    1
 Number of Electrons    NEL             ....   54
 Basis Dimension        Dim             ....  138

MULLIKEN ATOMIC CHARGES
-----------------------
   0 C :    0.050999
   1 C :   -0.174205
   2 N :   -0.155644
   3 N :   -0.140188
   4 C :    0.148813
   5 C :    0.066802
   6 O :   -0.175033
   7 H :    0.017512
   8 H :    0.042097
   9 H :    0.041771
  10 H :    0.076763
  11 H :    0.101549
  12 H :    0.046193
  13 H :    0.043901
  14 H :    0.008671
Sum of atomic charges:   -0.0000000

LOEWDIN ATOMIC CHARGES
----------------------
   0 C :   -0.081190
   1 C :   -0.001026
   2 N :   -0.193777
   3 N :   -0.005418
   4 C :   -0.011197
   5 C :    0.091064
   6 O :   -0.111874
   7 H :    0.034752
   8 H :    0.040178
   9 H :    0.040120
  10 H :    0.041615
  11 H :    0.061572
  12 H :    0.048445
  13 H :    0.047877
  14 H :   -0.001140

  Mayer bond orders larger than 0.1
B(  0-C ,  1-C ) :   1.0515 B(  0-C ,  7-H ) :   0.9444 B(  0-C ,  8-H ) :   0.9443
B(  0-C ,  9-H ) :   0.9449 B(  1-C ,  2-N ) :   1.8863 B(  1-C ,  3-N ) :   1.2036
B(  2-N , 10-H ) :   0.9242 B(  3-N ,  4-C ) :   1.0445 B(  3-N , 11-H ) :   0.9152
B(  4-C ,  5-C ) :   0.9743 B(  4-C , 12-H ) :   0.8975 B(  4-C , 13-H ) :   0.8980
B(  5-C ,  6-O ) :   2.1403 B(  5-C , 14-H ) :   0.9245

FINAL SINGLE POINT ENERGY      -341.289998616680

DIPOLE MOMENT
-------------
                                X             Y             Z
Electronic contribution:      3.59586      -2.13083       2.68636
Nuclear contribution   :     -3.87786       2.19621      -2.66956
                        -----------------------------------------
Total Dipole Moment    :     -0.28200       0.06538       0.01680
                        -----------------------------------------
Magnitude (a.u.)       :      0.28996
Magnitude (Debye)      :      0.73703

                             ****ORCA TERMINATED NORMALLY****
TOTAL RUN TIME: 0 days 0 hours 0 minutes 6 seconds 441 msec
