                         Program Version 3.0.3 - RELEASE   -
|  1> ! RI PBE def2-SVP def2-SVP/J NBO PAL2
|  2> % maxcore 2000
|  3> % output
|  4>     # printlevel mini
|  5>     print[ P_Basis ] 0
|  6>     print[ P_SCFInfo ] 1
|  7>     print[ P_SCFIterInfo ] 1
|  8>     print[ P_OrbEn ] 0
|  9>     print[ P_Cartesian ] 0
| 10> end
| 11> *xyz 0 1
| 12>  C        0.9502610000    -0.4790010000    -0.0990380000
| 13>  C        2.3629850000     0.0850370000    -0.0091440000
| 14>  N        2.3778250000     1.4877870000     0.2909670000
| 15>  N        2.0646990000     2.3056740000    -0.7272400000
| 16>  C        2.3923060000     3.5304620000    -0.6579590000
| 17>  C        3.1720500000    -0.6563820000     1.0174310000
| 18>  O        3.8319540000    -0.1310360000     1.8725890000
| 19>  H        0.4002150000     0.0590000000    -0.8710180000
| 20>  H        0.4266500000    -0.3523970000     0.8506570000
| 21>  H        0.9668480000    -1.5398790000    -0.3605560000
| 22>  H        2.8722950000    -0.1231370000    -0.9682670000
| 23>  H        3.1288380000     1.7708140000     0.9149970000
| 24>  H        2.0974600000     4.1790310000    -1.4736230000
| 25>  H        2.9455340000     3.9561310000     0.1845130000
| 26>  H        3.1275900000    -1.7614140000     0.9242910000
| 27> *
| 28>
| 29>                          ****END OF INPUT****
 Total Charge           Charge          ....    0
 Multiplicity           Mult            ....    1
 Number of Electrons    NEL             ....   54
 Basis Dimension        Dim             ....  138

MULLIKEN ATOMIC CHARGES
-----------------------
   0 C :    0.014529
   1 C :    0.013793
   2 N :   -0.117522
   3 N :   -0.078307
   4 C :   -0.061324
   5 C :    0.101710
   6 O :   -0.160797
   7 H :    0.045902
   8 H :    0.033042
   9 H :    0.024334
  10 H :    0.031394
  11 H :    0.098766
  12 H :    0.042512
  13 H :    0.009483
  14 H :    0.002487
Sum of atomic charges:   -0.0000000

LOEWDIN ATOMIC CHARGES
----------------------
   0 C :   -0.055123
   1 C :   -0.037700
   2 N :    0.013672
   3 N :   -0.026435
   4 C :   -0.075571
   5 C :    0.095975
   6 O :   -0.102947
   7 H :    0.037977
   8 H :    0.031975
   9 H :    0.028840
  10 H :    0.038190
  11 H :    0.041642
  12 H :    0.018672
  13 H :   -0.006927
  14 H :   -0.002239

  Mayer bond orders larger than 0.1
B(  0-C ,  1-C ) :   1.0661 B(  0-C ,  7-H ) :   0.9515 B(  0-C ,  8-H ) :   0.9555
B(  0-C ,  9-H ) :   0.9514 B(  1-C ,  2-N ) :   1.0413 B(  1-C ,  5-C ) :   0.9290
B(  1-C , 10-H ) :   0.8749 B(  2-N ,  3-N ) :   1.0984 B(  2-N ,  4-C ) :   0.1454
B(  2-N , 11-H ) :   0.8979 B(  3-N ,  4-C ) :   1.8885 B(  4-C , 12-H ) :   0.9570
B(  4-C , 13-H ) :   0.9307 B(  5-C ,  6-O ) :   2.1597 B(  5-C , 14-H ) :   0.9307

FINAL SINGLE POINT ENERGY      -341.243547857588

DIPOLE MOMENT
-------------
                                X             Y             Z
Electronic contribution:      3.39832       0.36538       2.41497
Nuclear contribution   :     -3.46412      -0.72459      -2.68469
                        -----------------------------------------
Total Dipole Moment    :     -0.06580      -0.35921      -0.26972
                        -----------------------------------------
Magnitude (a.u.)       :      0.45399
Magnitude (Debye)      :      1.15396

                             ****ORCA TERMINATED NORMALLY****
TOTAL RUN TIME: 0 days 0 hours 0 minutes 6 seconds 879 msec
