                         Program Version 3.0.3 - RELEASE   -
|  1> ! RI PBE def2-SVP def2-SVP/J NBO PAL2
|  2> % maxcore 2000
|  3> % output
|  4>     # printlevel mini
|  5>     print[ P_Basis ] 0
|  6>     print[ P_SCFInfo ] 1
|  7>     print[ P_SCFIterInfo ] 1
|  8>     print[ P_OrbEn ] 0
|  9>     print[ P_Cartesian ] 0
| 10> end
| 11> *xyz 0 1
| 12>  C        2.6518520000    -0.8244600000    -1.6291360000
| 13>  C        2.9729680000    -0.0016390000    -0.3943740000
| 14>  N        3.2124980000    -0.8096250000     0.7820870000
| 15>  N        2.0711930000    -1.4298680000     1.3029440000
| 16>  C        4.4261510000    -1.1548800000     1.2947760000
| 17>  C        5.6500700000    -0.5324150000     0.6683380000
| 18>  O        4.5115830000    -1.9363590000     2.2263420000
| 19>  H        2.4194800000    -0.1721730000    -2.4741890000
| 20>  H        1.7861900000    -1.4615630000    -1.4408360000
| 21>  H        3.4947870000    -1.4607220000    -1.9103410000
| 22>  H        2.1386590000     0.6680060000    -0.1673560000
| 23>  H        3.8468140000     0.6272120000    -0.5649280000
| 24>  H        1.9188490000    -1.0678650000     2.2406120000
| 25>  H        2.2945820000    -2.4124900000     1.4361920000
| 26>  H        5.6545670000     0.5526770000     0.7956430000
| 27>  H        5.7143170000    -0.7448120000    -0.4009760000
| 28>  H        6.5200500000    -0.9510140000     1.1687130000
| 29> *
| 30>
| 31>                          ****END OF INPUT****
 Total Charge           Charge          ....    0
 Multiplicity           Mult            ....    1
 Number of Electrons    NEL             ....   56
 Basis Dimension        Dim             ....  148

MULLIKEN ATOMIC CHARGES
-----------------------
   0 C :   -0.030956
   1 C :    0.104323
   2 N :   -0.242801
   3 N :   -0.050394
   4 C :    0.011284
   5 C :   -0.012774
   6 O :   -0.233341
   7 H :    0.026100
   8 H :    0.037673
   9 H :    0.021120
  10 H :    0.019223
  11 H :    0.016948
  12 H :    0.104343
  13 H :    0.102686
  14 H :    0.051601
  15 H :    0.041484
  16 H :    0.033481
Sum of atomic charges:   -0.0000000

LOEWDIN ATOMIC CHARGES
----------------------
   0 C :   -0.075888
   1 C :    0.019445
   2 N :   -0.000919
   3 N :   -0.023105
   4 C :    0.010214
   5 C :   -0.091886
   6 O :   -0.207781
   7 H :    0.031218
   8 H :    0.030631
   9 H :    0.024681
  10 H :    0.026205
  11 H :    0.025396
  12 H :    0.056113
  13 H :    0.052569
  14 H :    0.041809
  15 H :    0.038417
  16 H :    0.042878

  Mayer bond orders larger than 0.1
B(  0-C ,  1-C ) :   1.1229 B(  0-C ,  7-H ) :   0.9576 B(  0-C ,  8-H ) :   0.9592
B(  0-C ,  9-H ) :   0.9592 B(  1-C ,  2-N ) :   0.9864 B(  1-C , 10-H ) :   0.9328
B(  1-C , 11-H ) :   0.9261 B(  2-N ,  3-N ) :   1.0366 B(  2-N ,  4-C ) :   1.1509
B(  3-N , 12-H ) :   0.9652 B(  3-N , 13-H ) :   0.9602 B(  4-C ,  5-C ) :   1.0321
B(  4-C ,  6-O ) :   2.0622 B(  5-C , 14-H ) :   0.9418 B(  5-C , 15-H ) :   0.9398
B(  5-C , 16-H ) :   0.9411

FINAL SINGLE POINT ENERGY      -342.485029081525

DIPOLE MOMENT
-------------
                                X             Y             Z
Electronic contribution:      0.32944      -2.38826       6.26538
Nuclear contribution   :     -0.48639       3.05299      -6.97326
                        -----------------------------------------
Total Dipole Moment    :     -0.15695       0.66474      -0.70788
                        -----------------------------------------
Magnitude (a.u.)       :      0.98367
Magnitude (Debye)      :      2.50028

                             ****ORCA TERMINATED NORMALLY****
TOTAL RUN TIME: 0 days 0 hours 0 minutes 7 seconds 770 msec
