                         Program Version 3.0.3 - RELEASE   -
|  1> ! RI PBE def2-SVP def2-SVP/J NBO PAL2
|  2> % maxcore 2000
|  3> % output
|  4>     # printlevel mini
|  5>     print[ P_Basis ] 0
|  6>     print[ P_SCFInfo ] 1
|  7>     print[ P_SCFIterInfo ] 1
|  8>     print[ P_OrbEn ] 0
|  9>     print[ P_Cartesian ] 0
| 10> end
| 11> *xyz 0 1
| 12>  C        2.6846880000     1.4974490000     0.6638680000
| 13>  C        2.6221130000     0.0648280000     0.1695600000
| 14>  N        3.0354980000    -0.0699970000    -1.2120760000
| 15>  N        2.1750610000     0.4437190000    -2.1794710000
| 16>  C        1.4646910000    -0.5774310000    -2.9271290000
| 17>  C        4.2477300000    -0.5669970000    -1.5544890000
| 18>  O        5.0899740000    -0.9710090000    -0.7854400000
| 19>  H        2.3238160000     1.5594360000     1.6930010000
| 20>  H        2.0610800000     2.1453300000     0.0447590000
| 21>  H        3.7109090000     1.8699880000     0.6399650000
| 22>  H        1.6044060000    -0.3266630000     0.2590240000
| 23>  H        3.2859840000    -0.5780350000     0.7488480000
| 24>  H        2.6805390000     1.0733720000    -2.7887780000
| 25>  H        0.8264140000    -1.1430540000    -2.2458020000
| 26>  H        2.1210240000    -1.2849020000    -3.4512120000
| 27>  H        0.8216540000    -0.0840320000    -3.6587000000
| 28>  H        4.3955170000    -0.5511000000    -2.6529380000
| 29> *
| 30>
| 31>                          ****END OF INPUT****
 Total Charge           Charge          ....    0
 Multiplicity           Mult            ....    1
 Number of Electrons    NEL             ....   56
 Basis Dimension        Dim             ....  148

MULLIKEN ATOMIC CHARGES
-----------------------
   0 C :   -0.038458
   1 C :    0.116310
   2 N :   -0.209974
   3 N :   -0.150299
   4 C :    0.067503
   5 C :    0.143302
   6 O :   -0.231891
   7 H :    0.026090
   8 H :    0.026872
   9 H :    0.030713
  10 H :    0.013213
  11 H :    0.033425
  12 H :    0.114811
  13 H :    0.034678
  14 H :    0.018347
  15 H :    0.030361
  16 H :   -0.025003
Sum of atomic charges:    0.0000000

LOEWDIN ATOMIC CHARGES
----------------------
   0 C :   -0.073695
   1 C :    0.023251
   2 N :    0.009041
   3 N :   -0.030619
   4 C :   -0.009576
   5 C :    0.031440
   6 O :   -0.184021
   7 H :    0.031898
   8 H :    0.024754
   9 H :    0.029742
  10 H :    0.022202
  11 H :    0.030653
  12 H :    0.054497
  13 H :    0.026677
  14 H :    0.005318
  15 H :    0.028563
  16 H :   -0.020122

  Mayer bond orders larger than 0.1
B(  0-C ,  1-C ) :   1.1292 B(  0-C ,  7-H ) :   0.9607 B(  0-C ,  8-H ) :   0.9619
B(  0-C ,  9-H ) :   0.9640 B(  1-C ,  2-N ) :   0.9535 B(  1-C , 10-H ) :   0.9378
B(  1-C , 11-H ) :   0.9229 B(  2-N ,  3-N ) :   0.9865 B(  2-N ,  5-C ) :   1.1664
B(  2-N ,  6-O ) :   0.1117 B(  3-N ,  4-C ) :   1.0414 B(  3-N , 12-H ) :   0.9489
B(  4-C , 13-H ) :   0.9696 B(  4-C , 14-H ) :   0.9547 B(  4-C , 15-H ) :   0.9673
B(  5-C ,  6-O ) :   2.0112 B(  5-C , 16-H ) :   0.9170

FINAL SINGLE POINT ENERGY      -342.470116124125

DIPOLE MOMENT
-------------
                                X             Y             Z
Electronic contribution:      5.12581      -2.28724      -0.55974
Nuclear contribution   :     -6.16431       2.73996      -0.10805
                        -----------------------------------------
Total Dipole Moment    :     -1.03850       0.45271      -0.66779
                        -----------------------------------------
Magnitude (a.u.)       :      1.31506
Magnitude (Debye)      :      3.34261

                             ****ORCA TERMINATED NORMALLY****
TOTAL RUN TIME: 0 days 0 hours 0 minutes 7 seconds 478 msec
