                         Program Version 3.0.3 - RELEASE   -
|  1> ! RI PBE def2-SVP def2-SVP/J NBO PAL2
|  2> % maxcore 2000
|  3> % output
|  4>     # printlevel mini
|  5>     print[ P_Basis ] 0
|  6>     print[ P_SCFInfo ] 1
|  7>     print[ P_SCFIterInfo ] 1
|  8>     print[ P_OrbEn ] 0
|  9>     print[ P_Cartesian ] 0
| 10> end
| 11> *xyz 0 1
| 12>  C        1.3232740000    -1.3578130000     1.4115290000
| 13>  C        1.4808150000    -0.2021280000     0.4476010000
| 14>  N        2.6111100000    -0.4323630000    -0.4294860000
| 15>  N        2.7553080000     0.4874110000    -1.4112340000
| 16>  C        3.8908180000     0.7120950000    -1.9254080000
| 17>  C        3.9870010000     1.6725190000    -3.0661070000
| 18>  O        2.7537840000     2.2375600000    -3.3948980000
| 19>  H        0.4628870000    -1.1949420000     2.0628160000
| 20>  H        2.2031960000    -1.4655960000     2.0529460000
| 21>  H        1.1791350000    -2.2967550000     0.8734690000
| 22>  H        1.5808980000     0.7432870000     1.0013890000
| 23>  H        0.5968620000    -0.1081420000    -0.1870830000
| 24>  H        3.4713170000    -0.6336420000     0.0749610000
| 25>  H        4.8062080000     0.2182530000    -1.5805990000
| 26>  H        4.4103990000     1.1465850000    -3.9365060000
| 27>  H        4.7057020000     2.4644140000    -2.8065800000
| 28>  H        2.1078770000     1.8162570000    -2.8095090000
| 29> *
| 30>
| 31>                          ****END OF INPUT****
 Total Charge           Charge          ....    0
 Multiplicity           Mult            ....    1
 Number of Electrons    NEL             ....   56
 Basis Dimension        Dim             ....  148

MULLIKEN ATOMIC CHARGES
-----------------------
   0 C :   -0.048091
   1 C :    0.098102
   2 N :   -0.141321
   3 N :   -0.107749
   4 C :   -0.110215
   5 C :    0.230474
   6 O :   -0.279240
   7 H :    0.032533
   8 H :    0.022111
   9 H :    0.033142
  10 H :    0.007103
  11 H :    0.021997
  12 H :    0.088894
  13 H :   -0.012133
  14 H :    0.010127
  15 H :    0.011584
  16 H :    0.142681
Sum of atomic charges:   -0.0000000

LOEWDIN ATOMIC CHARGES
----------------------
   0 C :   -0.072951
   1 C :    0.009400
   2 N :   -0.004384
   3 N :   -0.044730
   4 C :   -0.062074
   5 C :    0.046063
   6 O :   -0.123965
   7 H :    0.035430
   8 H :    0.024567
   9 H :    0.030370
  10 H :    0.007938
  11 H :    0.027062
  12 H :    0.044246
  13 H :   -0.001893
  14 H :    0.018319
  15 H :    0.019521
  16 H :    0.047078

  Mayer bond orders larger than 0.1
B(  0-C ,  1-C ) :   1.1156 B(  0-C ,  7-H ) :   0.9606 B(  0-C ,  8-H ) :   0.9647
B(  0-C ,  9-H ) :   0.9642 B(  1-C ,  2-N ) :   0.9995 B(  1-C , 10-H ) :   0.9366
B(  1-C , 11-H ) :   0.9360 B(  2-N ,  3-N ) :   1.0899 B(  2-N ,  4-C ) :   0.1304
B(  2-N , 12-H ) :   0.9220 B(  3-N ,  4-C ) :   1.8328 B(  3-N , 16-H ) :   0.1019
B(  4-C ,  5-C ) :   1.0292 B(  4-C , 13-H ) :   0.9289 B(  5-C ,  6-O ) :   1.1426
B(  5-C , 14-H ) :   0.9090 B(  5-C , 15-H ) :   0.9138 B(  6-O , 16-H ) :   0.9533

FINAL SINGLE POINT ENERGY      -342.445214023227

DIPOLE MOMENT
-------------
                                X             Y             Z
Electronic contribution:      1.54546       3.00285      -5.23325
Nuclear contribution   :     -1.15198      -3.66424       6.34066
                        -----------------------------------------
Total Dipole Moment    :      0.39348      -0.66140       1.10742
                        -----------------------------------------
Magnitude (a.u.)       :      1.34857
Magnitude (Debye)      :      3.42779

                             ****ORCA TERMINATED NORMALLY****
TOTAL RUN TIME: 0 days 0 hours 0 minutes 7 seconds 356 msec
