                         Program Version 3.0.3 - RELEASE   -
|  1> ! RI PBE def2-SVP def2-SVP/J NBO PAL2
|  2> % maxcore 2000
|  3> % output
|  4>     # printlevel mini
|  5>     print[ P_Basis ] 0
|  6>     print[ P_SCFInfo ] 1
|  7>     print[ P_SCFIterInfo ] 1
|  8>     print[ P_OrbEn ] 0
|  9>     print[ P_Cartesian ] 0
| 10> end
| 11> *xyz 0 1
| 12>  C        1.5132890000     1.0895610000     0.0211470000
| 13>  C        2.3271580000     0.1075730000     0.8345790000
| 14>  N        3.0401620000    -0.7918040000    -0.0424740000
| 15>  N        3.8047000000    -1.7206170000     0.4501680000
| 16>  C        4.4427650000    -2.5250030000    -0.3281350000
| 17>  C        5.2782750000    -3.5381760000     0.2871820000
| 18>  O        5.9270210000    -4.3517410000    -0.3297370000
| 19>  H        0.9750570000     1.7684420000     0.6832280000
| 20>  H        0.7758560000     0.5753230000    -0.6006020000
| 21>  H        2.1524870000     1.6935230000    -0.6280660000
| 22>  H        1.6761110000    -0.4732400000     1.4961180000
| 23>  H        3.0446960000     0.6383800000     1.4687840000
| 24>  H        2.9388310000    -0.6918440000    -1.0466160000
| 25>  H        4.3830300000    -2.4782430000    -1.4193600000
| 26>  H        5.2753820000    -3.5074440000     1.3961750000
| 27> *
| 28>
| 29>                          ****END OF INPUT****
 Total Charge           Charge          ....    0
 Multiplicity           Mult            ....    1
 Number of Electrons    NEL             ....   54
 Basis Dimension        Dim             ....  138

MULLIKEN ATOMIC CHARGES
-----------------------
   0 C :   -0.086568
   1 C :    0.129908
   2 N :   -0.129719
   3 N :   -0.023601
   4 C :   -0.074482
   5 C :    0.132681
   6 O :   -0.193830
   7 H :    0.045163
   8 H :    0.037287
   9 H :    0.039827
  10 H :    0.033359
  11 H :    0.033446
  12 H :    0.104885
  13 H :   -0.017670
  14 H :   -0.030688
Sum of atomic charges:   -0.0000000

LOEWDIN ATOMIC CHARGES
----------------------
   0 C :   -0.074311
   1 C :    0.020626
   2 N :    0.056911
   3 N :    0.003576
   4 C :   -0.104669
   5 C :    0.043133
   6 O :   -0.141764
   7 H :    0.042606
   8 H :    0.030314
   9 H :    0.030980
  10 H :    0.028041
  11 H :    0.027969
  12 H :    0.051346
  13 H :    0.000036
  14 H :   -0.014794

  Mayer bond orders larger than 0.1
B(  0-C ,  1-C ) :   1.1104 B(  0-C ,  7-H ) :   0.9602 B(  0-C ,  8-H ) :   0.9657
B(  0-C ,  9-H ) :   0.9655 B(  1-C ,  2-N ) :   0.9769 B(  1-C , 10-H ) :   0.9377
B(  1-C , 11-H ) :   0.9379 B(  2-N ,  3-N ) :   1.1957 B(  2-N ,  4-C ) :   0.1416
B(  2-N , 12-H ) :   0.9179 B(  3-N ,  4-C ) :   1.6466 B(  4-C ,  5-C ) :   1.0732
B(  4-C , 13-H ) :   0.9308 B(  5-C ,  6-O ) :   2.0692 B(  5-C , 14-H ) :   0.9254

FINAL SINGLE POINT ENERGY      -341.257979347369

DIPOLE MOMENT
-------------
                                X             Y             Z
Electronic contribution:      6.70039      -8.25865      -0.54081
Nuclear contribution   :     -8.17165      10.06807       0.39239
                        -----------------------------------------
Total Dipole Moment    :     -1.47127       1.80942      -0.14841
                        -----------------------------------------
Magnitude (a.u.)       :      2.33681
Magnitude (Debye)      :      5.93969

                             ****ORCA TERMINATED NORMALLY****
TOTAL RUN TIME: 0 days 0 hours 0 minutes 7 seconds 81 msec
