                         Program Version 3.0.3 - RELEASE   -
|  1> ! RI PBE def2-SVP def2-SVP/J NBO PAL2
|  2> % maxcore 2000
|  3> % output
|  4>     # printlevel mini
|  5>     print[ P_Basis ] 0
|  6>     print[ P_SCFInfo ] 1
|  7>     print[ P_SCFIterInfo ] 1
|  8>     print[ P_OrbEn ] 0
|  9>     print[ P_Cartesian ] 0
| 10> end
| 11> *xyz 0 1
| 12>  C        1.4393110000    -0.6793790000     0.2526630000
| 13>  C        2.7831350000    -0.2354380000     0.7864870000
| 14>  N        3.5886530000     0.3092110000    -0.3082380000
| 15>  N        4.8045890000     0.8246930000     0.1480930000
| 16>  C        5.9526780000    -0.0281330000     0.0072640000
| 17>  C        4.8794640000     2.1350370000     0.4626300000
| 18>  O        3.9350380000     2.8971110000     0.4454750000
| 19>  H        0.8372030000    -1.1185560000     1.0500210000
| 20>  H        1.5607260000    -1.4207580000    -0.5396180000
| 21>  H        0.8801770000     0.1671160000    -0.1556520000
| 22>  H        3.3215820000    -1.0912530000     1.2046010000
| 23>  H        2.6540140000     0.5007160000     1.5905250000
| 24>  H        3.0911750000     1.1062050000    -0.7001490000
| 25>  H        5.8273910000    -0.9461660000     0.5869150000
| 26>  H        6.8322660000     0.4966510000     0.3827810000
| 27>  H        6.1105540000    -0.2974730000    -1.0404350000
| 28>  H        5.9059620000     2.4487270000     0.7237160000
| 29> *
| 30>
| 31>                          ****END OF INPUT****
 Total Charge           Charge          ....    0
 Multiplicity           Mult            ....    1
 Number of Electrons    NEL             ....   56
 Basis Dimension        Dim             ....  148

MULLIKEN ATOMIC CHARGES
-----------------------
   0 C :   -0.057449
   1 C :    0.073412
   2 N :   -0.147101
   3 N :   -0.199421
   4 C :    0.125606
   5 C :    0.151702
   6 O :   -0.252041
   7 H :    0.032411
   8 H :    0.034795
   9 H :    0.034239
  10 H :    0.010486
  11 H :    0.021121
  12 H :    0.101025
  13 H :    0.032206
  14 H :    0.026859
  15 H :    0.035494
  16 H :   -0.023345
Sum of atomic charges:   -0.0000000

LOEWDIN ATOMIC CHARGES
----------------------
   0 C :   -0.074096
   1 C :    0.005996
   2 N :   -0.035626
   3 N :    0.015119
   4 C :    0.018676
   5 C :    0.030376
   6 O :   -0.198063
   7 H :    0.034790
   8 H :    0.030149
   9 H :    0.029929
  10 H :    0.017353
  11 H :    0.011229
  12 H :    0.048804
  13 H :    0.024072
  14 H :    0.029055
  15 H :    0.025396
  16 H :   -0.013156

  Mayer bond orders larger than 0.1
B(  0-C ,  1-C ) :   1.1286 B(  0-C ,  7-H ) :   0.9583 B(  0-C ,  8-H ) :   0.9622
B(  0-C ,  9-H ) :   0.9646 B(  1-C ,  2-N ) :   0.9945 B(  1-C , 10-H ) :   0.9388
B(  1-C , 11-H ) :   0.9336 B(  2-N ,  3-N ) :   1.0074 B(  2-N , 12-H ) :   0.9308
B(  3-N ,  4-C ) :   0.9969 B(  3-N ,  5-C ) :   1.1968 B(  3-N ,  6-O ) :   0.1053
B(  4-C , 13-H ) :   0.9620 B(  4-C , 14-H ) :   0.9544 B(  4-C , 15-H ) :   0.9609
B(  5-C ,  6-O ) :   1.9748 B(  5-C , 16-H ) :   0.9202

FINAL SINGLE POINT ENERGY      -342.472693778137

DIPOLE MOMENT
-------------
                                X             Y             Z
Electronic contribution:      2.40550       6.16658      -0.43254
Nuclear contribution   :     -1.88270      -7.13273       0.50921
                        -----------------------------------------
Total Dipole Moment    :      0.52280      -0.96614       0.07667
                        -----------------------------------------
Magnitude (a.u.)       :      1.10119
Magnitude (Debye)      :      2.79902

                             ****ORCA TERMINATED NORMALLY****
TOTAL RUN TIME: 0 days 0 hours 0 minutes 7 seconds 391 msec
