                         Program Version 3.0.3 - RELEASE   -
|  1> ! RI PBE def2-SVP def2-SVP/J NBO PAL2
|  2> % maxcore 2000
|  3> % output
|  4>     # printlevel mini
|  5>     print[ P_Basis ] 0
|  6>     print[ P_SCFInfo ] 1
|  7>     print[ P_SCFIterInfo ] 1
|  8>     print[ P_OrbEn ] 0
|  9>     print[ P_Cartesian ] 0
| 10> end
| 11> *xyz 0 1
| 12>  C        0.7828260000     0.0618560000    -0.0661230000
| 13>  C        2.2700020000     0.0887990000    -0.3406640000
| 14>  N        2.9483120000    -0.8554210000     0.5470700000
| 15>  N        4.3012460000    -0.9741930000     0.2455210000
| 16>  C        4.7429520000    -1.9167140000    -0.6292250000
| 17>  C        6.2390260000    -2.0481360000    -0.7333790000
| 18>  O        3.9745130000    -2.6034500000    -1.2744250000
| 19>  H        0.2644320000     0.7865140000    -0.6964330000
| 20>  H        0.5744570000     0.2998090000     0.9791100000
| 21>  H        0.3614330000    -0.9241450000    -0.2817900000
| 22>  H        2.6748790000     1.0843130000    -0.1368370000
| 23>  H        2.4692920000    -0.1413080000    -1.3954270000
| 24>  H        2.5467500000    -1.7781480000     0.3972050000
| 25>  H        4.9333530000    -0.5880880000     0.9263650000
| 26>  H        6.7828410000    -1.3261160000    -0.1222760000
| 27>  H        6.5249960000    -1.9193470000    -1.7779190000
| 28>  H        6.5246920000    -3.0586550000    -0.4364630000
| 29> *
| 30>
| 31>                          ****END OF INPUT****
 Total Charge           Charge          ....    0
 Multiplicity           Mult            ....    1
 Number of Electrons    NEL             ....   56
 Basis Dimension        Dim             ....  148

MULLIKEN ATOMIC CHARGES
-----------------------
   0 C :   -0.041784
   1 C :    0.078355
   2 N :   -0.162310
   3 N :   -0.080594
   4 C :   -0.018487
   5 C :    0.016195
   6 O :   -0.231349
   7 H :    0.028515
   8 H :    0.026624
   9 H :    0.027947
  10 H :    0.005847
  11 H :    0.018159
  12 H :    0.101538
  13 H :    0.121375
  14 H :    0.006836
  15 H :    0.052240
  16 H :    0.050894
Sum of atomic charges:   -0.0000000

LOEWDIN ATOMIC CHARGES
----------------------
   0 C :   -0.071076
   1 C :    0.004271
   2 N :   -0.046477
   3 N :    0.040492
   4 C :    0.008868
   5 C :   -0.085972
   6 O :   -0.203276
   7 H :    0.033463
   8 H :    0.027968
   9 H :    0.027841
  10 H :    0.015645
  11 H :    0.009801
  12 H :    0.046562
  13 H :    0.068130
  14 H :    0.024462
  15 H :    0.050367
  16 H :    0.048932

  Mayer bond orders larger than 0.1
B(  0-C ,  1-C ) :   1.1247 B(  0-C ,  7-H ) :   0.9605 B(  0-C ,  8-H ) :   0.9627
B(  0-C ,  9-H ) :   0.9655 B(  1-C ,  2-N ) :   0.9955 B(  1-C , 10-H ) :   0.9425
B(  1-C , 11-H ) :   0.9346 B(  2-N ,  3-N ) :   1.0325 B(  2-N , 12-H ) :   0.9389
B(  3-N ,  4-C ) :   1.1847 B(  3-N , 13-H ) :   0.9297 B(  4-C ,  5-C ) :   1.0220
B(  4-C ,  6-O ) :   2.0413 B(  5-C , 14-H ) :   0.9492 B(  5-C , 15-H ) :   0.9456
B(  5-C , 16-H ) :   0.9432

FINAL SINGLE POINT ENERGY      -342.485415328604

DIPOLE MOMENT
-------------
                                X             Y             Z
Electronic contribution:      2.72992      -3.34321      -0.14700
Nuclear contribution   :     -2.18651       3.97297       0.64754
                        -----------------------------------------
Total Dipole Moment    :      0.54341       0.62976       0.50055
                        -----------------------------------------
Magnitude (a.u.)       :      0.97079
Magnitude (Debye)      :      2.46756

                             ****ORCA TERMINATED NORMALLY****
TOTAL RUN TIME: 0 days 0 hours 0 minutes 7 seconds 738 msec
