                         Program Version 3.0.3 - RELEASE   -
|  1> ! RI PBE def2-SVP def2-SVP/J NBO PAL2
|  2> % maxcore 2000
|  3> % output
|  4>     # printlevel mini
|  5>     print[ P_Basis ] 0
|  6>     print[ P_SCFInfo ] 1
|  7>     print[ P_SCFIterInfo ] 1
|  8>     print[ P_OrbEn ] 0
|  9>     print[ P_Cartesian ] 0
| 10> end
| 11> *xyz 0 1
| 12>  C        1.7167010000    -0.7575030000    -1.0174480000
| 13>  C        2.0635890000     0.4996620000    -0.2490030000
| 14>  N        3.0039850000     0.1961900000     0.7871720000
| 15>  N        3.4401590000     1.1875390000     1.5817220000
| 16>  C        4.2708170000     0.9436230000     2.5018570000
| 17>  O        4.7469550000     1.8908050000     3.3310950000
| 18>  C        4.2567680000     3.1976610000     3.1112350000
| 19>  H        0.9998710000    -0.5338360000    -1.8086970000
| 20>  H        1.2689680000    -1.5094530000    -0.3617640000
| 21>  H        2.6052940000    -1.1930110000    -1.4827670000
| 22>  H        1.1506700000     0.9357910000     0.1794440000
| 23>  H        2.4802570000     1.2501320000    -0.9347850000
| 24>  H        3.3338270000    -0.7475610000     0.9151870000
| 25>  H        4.6939400000    -0.0357400000     2.7326440000
| 26>  H        4.7371820000     3.8285650000     3.8570980000
| 27>  H        3.1697320000     3.2321180000     3.2266810000
| 28>  H        4.5040660000     3.5437080000     2.1036400000
| 29> *
| 30>
| 31>                          ****END OF INPUT****
 Total Charge           Charge          ....    0
 Multiplicity           Mult            ....    1
 Number of Electrons    NEL             ....   56
 Basis Dimension        Dim             ....  148

MULLIKEN ATOMIC CHARGES
-----------------------
   0 C :   -0.089116
   1 C :    0.139741
   2 N :   -0.176849
   3 N :   -0.105499
   4 C :    0.104298
   5 O :   -0.277022
   6 C :    0.155427
   7 H :    0.036391
   8 H :    0.029817
   9 H :    0.028317
  10 H :    0.005601
  11 H :    0.008939
  12 H :    0.089729
  13 H :   -0.017343
  14 H :    0.030370
  15 H :    0.020388
  16 H :    0.016808
Sum of atomic charges:   -0.0000000

LOEWDIN ATOMIC CHARGES
----------------------
   0 C :   -0.076502
   1 C :    0.015360
   2 N :   -0.012373
   3 N :   -0.086009
   4 C :   -0.013435
   5 O :   -0.080379
   6 C :    0.058778
   7 H :    0.036625
   8 H :    0.026190
   9 H :    0.026028
  10 H :    0.012579
  11 H :    0.013050
  12 H :    0.040474
  13 H :   -0.010194
  14 H :    0.021489
  15 H :    0.014417
  16 H :    0.013901

  Mayer bond orders larger than 0.1
B(  0-C ,  1-C ) :   1.1129 B(  0-C ,  7-H ) :   0.9619 B(  0-C ,  8-H ) :   0.9648
B(  0-C ,  9-H ) :   0.9632 B(  1-C ,  2-N ) :   1.0260 B(  1-C , 10-H ) :   0.9311
B(  1-C , 11-H ) :   0.9335 B(  2-N ,  3-N ) :   1.0538 B(  2-N ,  4-C ) :   0.1331
B(  2-N , 12-H ) :   0.9367 B(  3-N ,  4-C ) :   1.7248 B(  4-C ,  5-O ) :   1.1407
B(  4-C , 13-H ) :   0.9507 B(  5-O ,  6-C ) :   0.9783 B(  6-C , 14-H ) :   0.9736
B(  6-C , 15-H ) :   0.9635 B(  6-C , 16-H ) :   0.9623

FINAL SINGLE POINT ENERGY      -342.439172659079

DIPOLE MOMENT
-------------
                                X             Y             Z
Electronic contribution:      4.16773       1.04505       5.26001
Nuclear contribution   :     -4.35252      -1.41806      -5.58805
                        -----------------------------------------
Total Dipole Moment    :     -0.18480      -0.37301      -0.32804
                        -----------------------------------------
Magnitude (a.u.)       :      0.53000
Magnitude (Debye)      :      1.34714

                             ****ORCA TERMINATED NORMALLY****
TOTAL RUN TIME: 0 days 0 hours 0 minutes 7 seconds 108 msec
