                         Program Version 3.0.3 - RELEASE   -
|  1> ! RI PBE def2-SVP def2-SVP/J NBO PAL2
|  2> % maxcore 2000
|  3> % output
|  4>     # printlevel mini
|  5>     print[ P_Basis ] 0
|  6>     print[ P_SCFInfo ] 1
|  7>     print[ P_SCFIterInfo ] 1
|  8>     print[ P_OrbEn ] 0
|  9>     print[ P_Cartesian ] 0
| 10> end
| 11> *xyz 0 1
| 12>  C        3.0265080000    -1.5790770000    -0.2534090000
| 13>  C        2.5891480000    -0.1842380000     0.0689510000
| 14>  N        1.3979710000     0.2870800000    -0.0078980000
| 15>  N        3.5362680000     0.6990930000     0.4908470000
| 16>  O        3.0686390000     1.9577120000     0.7687020000
| 17>  C        4.8811310000     0.4966570000     0.6722860000
| 18>  C        5.7449900000     1.4194440000     1.0909650000
| 19>  H        2.1626530000    -2.1593590000    -0.5731970000
| 20>  H        3.4672600000    -2.0700060000     0.6169330000
| 21>  H        3.7647110000    -1.5895130000    -1.0582190000
| 22>  H        0.7265260000    -0.3986660000    -0.3241470000
| 23>  H        2.1088740000     1.8319250000     0.5616340000
| 24>  H        5.1943940000    -0.5118360000     0.4386730000
| 25>  H        5.4323790000     2.4269370000     1.3244110000
| 26>  H        6.7868660000     1.1556570000     1.2008580000
| 27> *
| 28>
| 29>                          ****END OF INPUT****
 Total Charge           Charge          ....    0
 Multiplicity           Mult            ....    1
 Number of Electrons    NEL             ....   54
 Basis Dimension        Dim             ....  138

MULLIKEN ATOMIC CHARGES
-----------------------
   0 C :    0.041733
   1 C :   -0.097140
   2 N :   -0.193518
   3 N :   -0.018980
   4 O :   -0.161647
   5 C :    0.036801
   6 C :   -0.060520
   7 H :    0.022683
   8 H :    0.059901
   9 H :    0.059696
  10 H :    0.092118
  11 H :    0.159808
  12 H :   -0.001353
  13 H :    0.038681
  14 H :    0.021739
Sum of atomic charges:   -0.0000000

LOEWDIN ATOMIC CHARGES
----------------------
   0 C :   -0.074560
   1 C :   -0.002428
   2 N :   -0.173481
   3 N :    0.117033
   4 O :   -0.055594
   5 C :   -0.017910
   6 C :   -0.115241
   7 H :    0.041259
   8 H :    0.046972
   9 H :    0.046768
  10 H :    0.050973
  11 H :    0.048041
  12 H :    0.029909
  13 H :    0.029907
  14 H :    0.028351

  Mayer bond orders larger than 0.1
B(  0-C ,  1-C ) :   1.0915 B(  0-C ,  7-H ) :   0.9320 B(  0-C ,  8-H ) :   0.9355
B(  0-C ,  9-H ) :   0.9367 B(  1-C ,  2-N ) :   1.7699 B(  1-C ,  3-N ) :   1.1396
B(  2-N , 10-H ) :   0.9266 B(  2-N , 11-H ) :   0.1737 B(  3-N ,  4-O ) :   1.0229
B(  3-N ,  5-C ) :   1.1111 B(  4-O , 11-H ) :   0.8869 B(  5-C ,  6-C ) :   1.8659
B(  5-C , 12-H ) :   0.9451 B(  6-C , 13-H ) :   0.9373 B(  6-C , 14-H ) :   0.9362

FINAL SINGLE POINT ENERGY      -341.229741579737

DIPOLE MOMENT
-------------
                                X             Y             Z
Electronic contribution:     -2.11675       3.39445       0.59996
Nuclear contribution   :      2.06992      -4.63262      -0.96041
                        -----------------------------------------
Total Dipole Moment    :     -0.04683      -1.23817      -0.36045
                        -----------------------------------------
Magnitude (a.u.)       :      1.29042
Magnitude (Debye)      :      3.27998

                             ****ORCA TERMINATED NORMALLY****
TOTAL RUN TIME: 0 days 0 hours 0 minutes 6 seconds 995 msec
