                         Program Version 3.0.3 - RELEASE   -
|  1> ! RI PBE def2-SVP def2-SVP/J NBO PAL2
|  2> % maxcore 2000
|  3> % output
|  4>     # printlevel mini
|  5>     print[ P_Basis ] 0
|  6>     print[ P_SCFInfo ] 1
|  7>     print[ P_SCFIterInfo ] 1
|  8>     print[ P_OrbEn ] 0
|  9>     print[ P_Cartesian ] 0
| 10> end
| 11> *xyz 0 1
| 12>  C        0.6606600000     0.4160140000     1.3964390000
| 13>  C        2.1079660000     0.4415440000     1.0682410000
| 14>  N        2.9156600000     1.0776220000     1.8074380000
| 15>  O        4.2156230000     0.9872630000     1.3340440000
| 16>  C        5.0721520000     1.7083230000     2.1660920000
| 17>  C        5.6039710000     1.0486130000     3.3917240000
| 18>  C        6.4772300000     1.2302940000     2.1787430000
| 19>  H        0.3164140000    -0.6118030000     1.5454650000
| 20>  H        0.0713100000     0.8336300000     0.5745610000
| 21>  H        0.4657680000     0.9909110000     2.3013960000
| 22>  H        2.4735940000    -0.0900960000     0.1866820000
| 23>  H        4.8707400000     2.7748420000     2.1886580000
| 24>  H        5.2446390000     0.0484210000     3.5970530000
| 25>  H        5.7856240000     1.6614840000     4.2656330000
| 26>  H        6.6913660000     0.3481190000     1.5888170000
| 27>  H        7.2689740000     1.9679270000     2.2036930000
| 28> *
| 29>
| 30>                          ****END OF INPUT****
 Total Charge           Charge          ....    0
 Multiplicity           Mult            ....    1
 Number of Electrons    NEL             ....   54
 Basis Dimension        Dim             ....  143

MULLIKEN ATOMIC CHARGES
-----------------------
   0 C :    0.033806
   1 C :   -0.089370
   2 N :    0.009067
   3 O :   -0.248810
   4 C :    0.080916
   5 C :   -0.040129
   6 C :   -0.055122
   7 H :    0.039936
   8 H :    0.042642
   9 H :    0.033823
  10 H :    0.005144
  11 H :    0.022824
  12 H :    0.036237
  13 H :    0.038064
  14 H :    0.047168
  15 H :    0.043804
Sum of atomic charges:   -0.0000000

LOEWDIN ATOMIC CHARGES
----------------------
   0 C :   -0.070718
   1 C :   -0.032832
   2 N :   -0.004046
   3 O :   -0.072135
   4 C :    0.025296
   5 C :   -0.055741
   6 C :   -0.052084
   7 H :    0.040618
   8 H :    0.041300
   9 H :    0.037983
  10 H :    0.003934
  11 H :    0.012788
  12 H :    0.032061
  13 H :    0.029070
  14 H :    0.033653
  15 H :    0.030854

  Mayer bond orders larger than 0.1
B(  0-C ,  1-C ) :   1.0762 B(  0-C ,  7-H ) :   0.9462 B(  0-C ,  8-H ) :   0.9461
B(  0-C ,  9-H ) :   0.9531 B(  1-C ,  2-N ) :   1.9084 B(  1-C ,  3-O ) :   0.1004
B(  1-C , 10-H ) :   0.9388 B(  2-N ,  3-O ) :   0.9315 B(  3-O ,  4-C ) :   1.0279
B(  4-C ,  5-C ) :   1.0113 B(  4-C ,  6-C ) :   0.9953 B(  4-C , 11-H ) :   0.9449
B(  5-C ,  6-C ) :   1.0306 B(  5-C , 12-H ) :   0.9397 B(  5-C , 13-H ) :   0.9468
B(  6-C , 14-H ) :   0.9466 B(  6-C , 15-H ) :   0.9462

FINAL SINGLE POINT ENERGY      -325.181687438097

DIPOLE MOMENT
-------------
                                X             Y             Z
Electronic contribution:      1.15551       0.71304      -1.38646
Nuclear contribution   :     -1.31632      -0.83338       1.30781
                        -----------------------------------------
Total Dipole Moment    :     -0.16082      -0.12034      -0.07865
                        -----------------------------------------
Magnitude (a.u.)       :      0.21571
Magnitude (Debye)      :      0.54828

                             ****ORCA TERMINATED NORMALLY****
TOTAL RUN TIME: 0 days 0 hours 0 minutes 7 seconds 27 msec
