                         Program Version 3.0.3 - RELEASE   -
|  1> ! RI PBE def2-SVP def2-SVP/J NBO PAL2
|  2> % maxcore 2000
|  3> % output
|  4>     # printlevel mini
|  5>     print[ P_Basis ] 0
|  6>     print[ P_SCFInfo ] 1
|  7>     print[ P_SCFIterInfo ] 1
|  8>     print[ P_OrbEn ] 0
|  9>     print[ P_Cartesian ] 0
| 10> end
| 11> *xyz 0 1
| 12>  C        0.8803220000    -0.1224320000    -0.0329190000
| 13>  C        2.3703950000    -0.0347480000     0.0544250000
| 14>  N        3.0757010000    -0.8119430000     0.7747250000
| 15>  O        2.2893410000    -1.7207040000     1.4746480000
| 16>  C        3.0679920000     1.0293290000    -0.7009140000
| 17>  C        3.5343060000     2.2675610000     0.0301760000
| 18>  C        4.5257080000     1.2942690000    -0.5190630000
| 19>  H        0.4330490000     0.0170390000     0.9544930000
| 20>  H        0.5758000000    -1.1150200000    -0.3734420000
| 21>  H        0.4823700000     0.6304920000    -0.7123220000
| 22>  H        2.9433920000    -2.2402650000     1.9487930000
| 23>  H        2.6563720000     1.2037250000    -1.6900890000
| 24>  H        3.3900540000     2.2816630000     1.1034490000
| 25>  H        3.4116730000     3.2245240000    -0.4620830000
| 26>  H        5.0506200000     0.6588010000     0.1811050000
| 27>  H        5.0912050000     1.5819070000    -1.3963810000
| 28> *
| 29>
| 30>                          ****END OF INPUT****
 Total Charge           Charge          ....    0
 Multiplicity           Mult            ....    1
 Number of Electrons    NEL             ....   54
 Basis Dimension        Dim             ....  143

MULLIKEN ATOMIC CHARGES
-----------------------
   0 C :    0.103778
   1 C :   -0.184039
   2 N :   -0.041209
   3 O :   -0.185761
   4 C :   -0.085784
   5 C :   -0.029809
   6 C :   -0.003322
   7 H :    0.039425
   8 H :    0.038886
   9 H :    0.012170
  10 H :    0.169466
  11 H :    0.021990
  12 H :    0.040133
  13 H :    0.031780
  14 H :    0.042698
  15 H :    0.029598
Sum of atomic charges:   -0.0000000

LOEWDIN ATOMIC CHARGES
----------------------
   0 C :   -0.070272
   1 C :   -0.052706
   2 N :   -0.035681
   3 O :   -0.058224
   4 C :   -0.048385
   5 C :   -0.031146
   6 C :   -0.036519
   7 H :    0.044549
   8 H :    0.043984
   9 H :    0.030852
  10 H :    0.071432
  11 H :    0.030927
  12 H :    0.028529
  13 H :    0.025083
  14 H :    0.029376
  15 H :    0.028201

  Mayer bond orders larger than 0.1
B(  0-C ,  1-C ) :   1.0698 B(  0-C ,  7-H ) :   0.9332 B(  0-C ,  8-H ) :   0.9315
B(  0-C ,  9-H ) :   0.9468 B(  1-C ,  2-N ) :   1.9287 B(  1-C ,  4-C ) :   1.0660
B(  2-N ,  3-O ) :   0.9937 B(  3-O , 10-H ) :   0.9774 B(  4-C ,  5-C ) :   0.9703
B(  4-C ,  6-C ) :   1.0001 B(  4-C , 11-H ) :   0.9235 B(  5-C ,  6-C ) :   1.0653
B(  5-C , 12-H ) :   0.9459 B(  5-C , 13-H ) :   0.9480 B(  6-C , 14-H ) :   0.9300
B(  6-C , 15-H ) :   0.9379

FINAL SINGLE POINT ENERGY      -325.197092173974

DIPOLE MOMENT
-------------
                                X             Y             Z
Electronic contribution:      0.88813      -3.99856       2.05811
Nuclear contribution   :     -1.01968       4.06418      -2.09714
                        -----------------------------------------
Total Dipole Moment    :     -0.13155       0.06561      -0.03902
                        -----------------------------------------
Magnitude (a.u.)       :      0.15210
Magnitude (Debye)      :      0.38661

                             ****ORCA TERMINATED NORMALLY****
TOTAL RUN TIME: 0 days 0 hours 0 minutes 7 seconds 297 msec
