                         Program Version 3.0.3 - RELEASE   -
|  1> ! RI PBE def2-SVP def2-SVP/J NBO PAL2
|  2> % maxcore 2000
|  3> % output
|  4>     # printlevel mini
|  5>     print[ P_Basis ] 0
|  6>     print[ P_SCFInfo ] 1
|  7>     print[ P_SCFIterInfo ] 1
|  8>     print[ P_OrbEn ] 0
|  9>     print[ P_Cartesian ] 0
| 10> end
| 11> *xyz 0 1
| 12>  C        0.9212400000     0.1099290000    -0.2517920000
| 13>  C        2.3989550000    -0.0176670000    -0.0887560000
| 14>  N        3.1076950000    -0.8973840000    -0.6740470000
| 15>  O        2.3437530000    -1.7494430000    -1.4567430000
| 16>  C        3.1130220000     0.9121900000     0.8169760000
| 17>  C        3.6853700000     0.3861900000     2.0839110000
| 18>  N        4.5467370000     0.8051170000     0.9918520000
| 19>  H        0.4248630000    -0.8093860000     0.0684940000
| 20>  H        0.6641340000     0.2531220000    -1.3040850000
| 21>  H        0.5326840000     0.9449630000     0.3304490000
| 22>  H        3.0033510000    -2.3269290000    -1.8498770000
| 23>  H        2.7258270000     1.9280170000     0.8133070000
| 24>  H        3.5609570000    -0.6760750000     2.2701500000
| 25>  H        3.7075840000     1.0184440000     2.9653670000
| 26>  H        4.8646180000    -0.0074680000     0.4696910000
| 27> *
| 28>
| 29>                          ****END OF INPUT****
 Total Charge           Charge          ....    0
 Multiplicity           Mult            ....    1
 Number of Electrons    NEL             ....   54
 Basis Dimension        Dim             ....  138

MULLIKEN ATOMIC CHARGES
-----------------------
   0 C :    0.101232
   1 C :   -0.159183
   2 N :   -0.072354
   3 O :   -0.179940
   4 C :   -0.049672
   5 C :    0.052874
   6 N :   -0.173362
   7 H :    0.043928
   8 H :    0.042550
   9 H :    0.016601
  10 H :    0.173019
  11 H :    0.026410
  12 H :    0.032055
  13 H :    0.038081
  14 H :    0.107762
Sum of atomic charges:   -0.0000000

LOEWDIN ATOMIC CHARGES
----------------------
   0 C :   -0.068928
   1 C :   -0.059763
   2 N :   -0.042682
   3 O :   -0.052626
   4 C :   -0.014911
   5 C :    0.015439
   6 N :   -0.085335
   7 H :    0.046991
   8 H :    0.045850
   9 H :    0.033341
  10 H :    0.074169
  11 H :    0.026236
  12 H :    0.016142
  13 H :    0.020327
  14 H :    0.045750

  Mayer bond orders larger than 0.1
B(  0-C ,  1-C ) :   1.0730 B(  0-C ,  7-H ) :   0.9329 B(  0-C ,  8-H ) :   0.9291
B(  0-C ,  9-H ) :   0.9476 B(  1-C ,  2-N ) :   1.8791 B(  1-C ,  4-C ) :   1.0260
B(  2-N ,  3-O ) :   1.0054 B(  3-O , 10-H ) :   0.9762 B(  4-C ,  5-C ) :   1.0267
B(  4-C ,  6-N ) :   1.0384 B(  4-C , 11-H ) :   0.9179 B(  5-C ,  6-N ) :   1.0063
B(  5-C , 12-H ) :   0.9371 B(  5-C , 13-H ) :   0.9438 B(  6-N , 14-H ) :   0.9326

FINAL SINGLE POINT ENERGY      -341.209700387325

DIPOLE MOMENT
-------------
                                X             Y             Z
Electronic contribution:      2.61948      -1.68597      -2.40237
Nuclear contribution   :     -3.14852       1.19980       2.33074
                        -----------------------------------------
Total Dipole Moment    :     -0.52904      -0.48617      -0.07163
                        -----------------------------------------
Magnitude (a.u.)       :      0.72207
Magnitude (Debye)      :      1.83535

                             ****ORCA TERMINATED NORMALLY****
TOTAL RUN TIME: 0 days 0 hours 0 minutes 6 seconds 485 msec
