                         Program Version 3.0.3 - RELEASE   -
|  1> ! RI PBE def2-SVP def2-SVP/J NBO PAL2
|  2> % maxcore 2000
|  3> % output
|  4>     # printlevel mini
|  5>     print[ P_Basis ] 0
|  6>     print[ P_SCFInfo ] 1
|  7>     print[ P_SCFIterInfo ] 1
|  8>     print[ P_OrbEn ] 0
|  9>     print[ P_Cartesian ] 0
| 10> end
| 11> *xyz 0 1
| 12>  C        0.9690840000    -0.0883600000    -0.0299810000
| 13>  C        2.4582570000    -0.0107070000     0.0510320000
| 14>  N        3.1710490000    -0.6919150000     0.8523650000
| 15>  O        2.3919810000    -1.5089810000     1.6561560000
| 16>  C        3.1538240000     0.9337870000    -0.8593130000
| 17>  C        3.8164850000     2.1437700000    -0.3579890000
| 18>  O        4.5550860000     1.0285960000    -0.8130460000
| 19>  H        0.5231780000     0.1639150000     0.9348950000
| 20>  H        0.6528270000    -1.1077290000    -0.2644650000
| 21>  H        0.5784080000     0.5897260000    -0.7891220000
| 22>  H        3.0492570000    -1.9711620000     2.1832920000
| 23>  H        2.7278580000     0.9759740000    -1.8624710000
| 24>  H        3.8457360000     2.3084470000     0.7161270000
| 25>  H        3.8654700000     3.0303290000    -0.9860600000
| 26> *
| 27>
| 28>                          ****END OF INPUT****
 Total Charge           Charge          ....    0
 Multiplicity           Mult            ....    1
 Number of Electrons    NEL             ....   54
 Basis Dimension        Dim             ....  133

MULLIKEN ATOMIC CHARGES
-----------------------
   0 C :    0.095238
   1 C :   -0.197912
   2 N :   -0.030421
   3 O :   -0.183579
   4 C :    0.060683
   5 C :    0.147152
   6 O :   -0.259986
   7 H :    0.044457
   8 H :    0.045276
   9 H :    0.014805
  10 H :    0.174187
  11 H :    0.025425
  12 H :    0.032347
  13 H :    0.032328
Sum of atomic charges:    0.0000000

LOEWDIN ATOMIC CHARGES
----------------------
   0 C :   -0.070324
   1 C :   -0.080052
   2 N :   -0.018911
   3 O :   -0.052370
   4 C :    0.031412
   5 C :    0.066428
   6 O :   -0.127413
   7 H :    0.046286
   8 H :    0.046438
   9 H :    0.031435
  10 H :    0.074818
  11 H :    0.020365
  12 H :    0.017083
  13 H :    0.014805

  Mayer bond orders larger than 0.1
B(  0-C ,  1-C ) :   1.0604 B(  0-C ,  7-H ) :   0.9349 B(  0-C ,  8-H ) :   0.9314
B(  0-C ,  9-H ) :   0.9476 B(  1-C ,  2-N ) :   1.9077 B(  1-C ,  4-C ) :   1.0085
B(  2-N ,  3-O ) :   1.0085 B(  3-O , 10-H ) :   0.9760 B(  4-C ,  5-C ) :   1.0777
B(  4-C ,  6-O ) :   1.0254 B(  4-C , 11-H ) :   0.9226 B(  5-C ,  6-O ) :   1.0016
B(  5-C , 12-H ) :   0.9300 B(  5-C , 13-H ) :   0.9411

FINAL SINGLE POINT ENERGY      -361.043708983267

DIPOLE MOMENT
-------------
                                X             Y             Z
Electronic contribution:      4.18413      -2.02403       0.91119
Nuclear contribution   :     -4.89655       2.26796      -0.76421
                        -----------------------------------------
Total Dipole Moment    :     -0.71242       0.24393       0.14697
                        -----------------------------------------
Magnitude (a.u.)       :      0.76723
Magnitude (Debye)      :      1.95015

                             ****ORCA TERMINATED NORMALLY****
TOTAL RUN TIME: 0 days 0 hours 0 minutes 6 seconds 289 msec
