                         Program Version 3.0.3 - RELEASE   -
|  1> ! RI PBE def2-SVP def2-SVP/J NBO PAL2
|  2> % maxcore 2000
|  3> % output
|  4>     # printlevel mini
|  5>     print[ P_Basis ] 0
|  6>     print[ P_SCFInfo ] 1
|  7>     print[ P_SCFIterInfo ] 1
|  8>     print[ P_OrbEn ] 0
|  9>     print[ P_Cartesian ] 0
| 10> end
| 11> *xyz 0 1
| 12>  C        3.2375750000     2.6596040000    -0.0807230000
| 13>  C        3.5861260000     1.2519960000     0.2373940000
| 14>  N        4.3966220000     0.9928710000     1.1759660000
| 15>  O        4.5849820000    -0.3605950000     1.3388490000
| 16>  C        5.5460660000    -0.6045940000     2.3683350000
| 17>  C        5.4077570000    -2.0685190000     2.7168650000
| 18>  C        6.9403560000    -0.2361950000     1.9064620000
| 19>  H        3.4963920000     2.8978830000    -1.1168650000
| 20>  H        3.7674770000     3.3422240000     0.5833300000
| 21>  H        2.1610590000     2.8250870000     0.0248950000
| 22>  H        3.1388280000     0.4397760000    -0.3401020000
| 23>  H        5.2699600000     0.0133120000     3.2309310000
| 24>  H        5.6389670000    -2.6920550000     1.8496870000
| 25>  H        4.3919910000    -2.2960950000     3.0444850000
| 26>  H        6.0993650000    -2.3298960000     3.5200890000
| 27>  H        7.2301780000    -0.8455670000     1.0462530000
| 28>  H        7.6644850000    -0.4028320000     2.7077440000
| 29>  H        6.9805130000     0.8155060000     1.6195940000
| 30> *
| 31>
| 32>                          ****END OF INPUT****
 Total Charge           Charge          ....    0
 Multiplicity           Mult            ....    1
 Number of Electrons    NEL             ....   56
 Basis Dimension        Dim             ....  153

MULLIKEN ATOMIC CHARGES
-----------------------
   0 C :    0.029956
   1 C :   -0.090612
   2 N :    0.010751
   3 O :   -0.285459
   4 C :    0.071633
   5 C :    0.002913
   6 C :    0.004641
   7 H :    0.038424
   8 H :    0.031562
   9 H :    0.041912
  10 H :    0.003683
  11 H :    0.001771
  12 H :    0.025031
  13 H :    0.027540
  14 H :    0.023072
  15 H :    0.014588
  16 H :    0.019491
  17 H :    0.029103
Sum of atomic charges:   -0.0000000

LOEWDIN ATOMIC CHARGES
----------------------
   0 C :   -0.072009
   1 C :   -0.036468
   2 N :   -0.005806
   3 O :   -0.087707
   4 C :    0.038106
   5 C :   -0.068084
   6 C :   -0.076370
   7 H :    0.039746
   8 H :    0.037137
   9 H :    0.040282
  10 H :    0.003409
  11 H :    0.011126
  12 H :    0.028989
  13 H :    0.030106
  14 H :    0.032623
  15 H :    0.025880
  16 H :    0.030087
  17 H :    0.028953

  Mayer bond orders larger than 0.1
B(  0-C ,  1-C ) :   1.0785 B(  0-C ,  7-H ) :   0.9461 B(  0-C ,  8-H ) :   0.9531
B(  0-C ,  9-H ) :   0.9469 B(  1-C ,  2-N ) :   1.9016 B(  1-C ,  3-O ) :   0.1107
B(  1-C , 10-H ) :   0.9386 B(  2-N ,  3-O ) :   0.9548 B(  3-O ,  4-C ) :   0.9389
B(  4-C ,  5-C ) :   1.0858 B(  4-C ,  6-C ) :   1.1006 B(  4-C , 11-H ) :   0.9193
B(  5-C , 12-H ) :   0.9561 B(  5-C , 13-H ) :   0.9569 B(  5-C , 14-H ) :   0.9602
B(  6-C , 15-H ) :   0.9511 B(  6-C , 16-H ) :   0.9552 B(  6-C , 17-H ) :   0.9477

FINAL SINGLE POINT ENERGY      -326.416059351993

DIPOLE MOMENT
-------------
                                X             Y             Z
Electronic contribution:     -2.63580       0.61982      -0.97518
Nuclear contribution   :      2.58056      -0.58650       0.87963
                        -----------------------------------------
Total Dipole Moment    :     -0.05525       0.03332      -0.09556
                        -----------------------------------------
Magnitude (a.u.)       :      0.11530
Magnitude (Debye)      :      0.29306

                             ****ORCA TERMINATED NORMALLY****
TOTAL RUN TIME: 0 days 0 hours 0 minutes 7 seconds 765 msec
