                         Program Version 3.0.3 - RELEASE   -
|  1> ! RI PBE def2-SVP def2-SVP/J NBO PAL2
|  2> % maxcore 2000
|  3> % output
|  4>     # printlevel mini
|  5>     print[ P_Basis ] 0
|  6>     print[ P_SCFInfo ] 1
|  7>     print[ P_SCFIterInfo ] 1
|  8>     print[ P_OrbEn ] 0
|  9>     print[ P_Cartesian ] 0
| 10> end
| 11> *xyz 0 1
| 12>  C        0.9814980000    -2.4133150000    -1.2443110000
| 13>  C        2.2893830000    -2.1118260000    -0.6106770000
| 14>  N        3.3673620000    -2.4232250000    -1.1983990000
| 15>  O        4.4770700000    -2.0568160000    -0.4647040000
| 16>  C        5.6504390000    -2.4947890000    -1.1335750000
| 17>  C        6.8221130000    -1.8673930000    -0.4652020000
| 18>  C        7.8686680000    -2.5444890000    -0.0177700000
| 19>  H        0.3801100000    -3.0608960000    -0.5992280000
| 20>  H        1.1287400000    -2.9063350000    -2.2048940000
| 21>  H        0.4065440000    -1.4953550000    -1.3993330000
| 22>  H        2.3194900000    -1.6190910000     0.3637070000
| 23>  H        5.5924560000    -2.1839200000    -2.1839160000
| 24>  H        5.7192440000    -3.5880990000    -1.1044980000
| 25>  H        6.7923200000    -0.7840510000    -0.3774170000
| 26>  H        7.9128900000    -3.6270420000    -0.0865260000
| 27>  H        8.7211730000    -2.0443790000     0.4266630000
| 28> *
| 29>
| 30>                          ****END OF INPUT****
 Total Charge           Charge          ....    0
 Multiplicity           Mult            ....    1
 Number of Electrons    NEL             ....   54
 Basis Dimension        Dim             ....  143

MULLIKEN ATOMIC CHARGES
-----------------------
   0 C :    0.021447
   1 C :   -0.086134
   2 N :    0.002484
   3 O :   -0.294478
   4 C :    0.267212
   5 C :   -0.101493
   6 C :   -0.034903
   7 H :    0.045033
   8 H :    0.034014
   9 H :    0.043216
  10 H :    0.006488
  11 H :    0.018341
  12 H :    0.005080
  13 H :    0.018015
  14 H :    0.026159
  15 H :    0.029520
Sum of atomic charges:    0.0000000

LOEWDIN ATOMIC CHARGES
----------------------
   0 C :   -0.073068
   1 C :   -0.032564
   2 N :   -0.007654
   3 O :   -0.093564
   4 C :    0.054351
   5 C :   -0.041285
   6 C :   -0.047861
   7 H :    0.041364
   8 H :    0.038101
   9 H :    0.041367
  10 H :    0.005105
  11 H :    0.020147
  12 H :    0.013823
  13 H :    0.030213
  14 H :    0.024358
  15 H :    0.027167

  Mayer bond orders larger than 0.1
B(  0-C ,  1-C ) :   1.0834 B(  0-C ,  7-H ) :   0.9463 B(  0-C ,  8-H ) :   0.9514
B(  0-C ,  9-H ) :   0.9450 B(  1-C ,  2-N ) :   1.9031 B(  1-C ,  3-O ) :   0.1073
B(  1-C , 10-H ) :   0.9376 B(  2-N ,  3-O ) :   0.9502 B(  3-O ,  4-C ) :   0.9291
B(  4-C ,  5-C ) :   1.0489 B(  4-C , 11-H ) :   0.9166 B(  4-C , 12-H ) :   0.9383
B(  5-C ,  6-C ) :   2.0090 B(  5-C , 13-H ) :   0.9563 B(  6-C , 14-H ) :   0.9490
B(  6-C , 15-H ) :   0.9471

FINAL SINGLE POINT ENERGY      -325.183107918478

DIPOLE MOMENT
-------------
                                X             Y             Z
Electronic contribution:      0.88250       0.81049       0.53923
Nuclear contribution   :     -1.06238      -0.77091      -0.49128
                        -----------------------------------------
Total Dipole Moment    :     -0.17988       0.03958       0.04794
                        -----------------------------------------
Magnitude (a.u.)       :      0.19033
Magnitude (Debye)      :      0.48377

                             ****ORCA TERMINATED NORMALLY****
TOTAL RUN TIME: 0 days 0 hours 0 minutes 6 seconds 875 msec
