                         Program Version 3.0.3 - RELEASE   -
|  1> ! RI PBE def2-SVP def2-SVP/J NBO PAL2
|  2> % maxcore 2000
|  3> % output
|  4>     # printlevel mini
|  5>     print[ P_Basis ] 0
|  6>     print[ P_SCFInfo ] 1
|  7>     print[ P_SCFIterInfo ] 1
|  8>     print[ P_OrbEn ] 0
|  9>     print[ P_Cartesian ] 0
| 10> end
| 11> *xyz 0 1
| 12>  C       -0.4189600000    -0.4411220000     0.9778860000
| 13>  C        0.5217780000     0.2195500000     0.0397130000
| 14>  N        1.7706600000     0.1488940000     0.2370110000
| 15>  O        2.4798200000     0.8237300000    -0.7399980000
| 16>  C        3.8620190000     0.6990990000    -0.4493460000
| 17>  C        4.6212550000     1.4003170000    -1.4679700000
| 18>  C        5.2749930000     1.9715210000    -2.2949890000
| 19>  H       -1.0329890000    -1.1778760000     0.4514420000
| 20>  H       -1.1042810000     0.2913080000     1.4147060000
| 21>  H        0.1268980000    -0.9396040000     1.7784370000
| 22>  H        0.1340850000     0.7670620000    -0.8220410000
| 23>  H        4.1456410000    -0.3595110000    -0.4290160000
| 24>  H        4.0758520000     1.1223990000     0.5389180000
| 25>  H        5.8508380000     2.4800330000    -3.0316730000
| 26> *
| 27>
| 28>                          ****END OF INPUT****
 Total Charge           Charge          ....    0
 Multiplicity           Mult            ....    1
 Number of Electrons    NEL             ....   52
 Basis Dimension        Dim             ....  133

MULLIKEN ATOMIC CHARGES
-----------------------
   0 C :    0.035283
   1 C :   -0.090229
   2 N :    0.001790
   3 O :   -0.285345
   4 C :    0.286898
   5 C :    0.282686
   6 C :   -0.434708
   7 H :    0.042353
   8 H :    0.042405
   9 H :    0.034028
  10 H :    0.013757
  11 H :    0.033074
  12 H :    0.030511
  13 H :    0.007498
Sum of atomic charges:   -0.0000000

LOEWDIN ATOMIC CHARGES
----------------------
   0 C :   -0.069235
   1 C :   -0.027933
   2 N :   -0.007927
   3 O :   -0.087213
   4 C :    0.050771
   5 C :   -0.032352
   6 C :   -0.058780
   7 H :    0.041774
   8 H :    0.042140
   9 H :    0.037934
  10 H :    0.007869
  11 H :    0.033115
  12 H :    0.032570
  13 H :    0.037268

  Mayer bond orders larger than 0.1
B(  0-C ,  1-C ) :   1.0752 B(  0-C ,  7-H ) :   0.9466 B(  0-C ,  8-H ) :   0.9453
B(  0-C ,  9-H ) :   0.9551 B(  1-C ,  2-N ) :   1.9038 B(  1-C ,  3-O ) :   0.1055
B(  1-C , 10-H ) :   0.9394 B(  2-N ,  3-O ) :   0.9479 B(  3-O ,  4-C ) :   0.9645
B(  4-C ,  5-C ) :   1.0093 B(  4-C , 11-H ) :   0.9148 B(  4-C , 12-H ) :   0.9157
B(  5-C ,  6-C ) :   2.4127 B(  6-C , 13-H ) :   1.0886

FINAL SINGLE POINT ENERGY      -323.936031385653

DIPOLE MOMENT
-------------
                                X             Y             Z
Electronic contribution:      4.71423       2.17080      -2.97456
Nuclear contribution   :     -5.01176      -2.25905       3.08471
                        -----------------------------------------
Total Dipole Moment    :     -0.29753      -0.08826       0.11016
                        -----------------------------------------
Magnitude (a.u.)       :      0.32931
Magnitude (Debye)      :      0.83705

                             ****ORCA TERMINATED NORMALLY****
TOTAL RUN TIME: 0 days 0 hours 0 minutes 6 seconds 523 msec
