                         Program Version 3.0.3 - RELEASE   -
|  1> ! RI PBE def2-SVP def2-SVP/J NBO PAL2
|  2> % maxcore 2000
|  3> % output
|  4>     # printlevel mini
|  5>     print[ P_Basis ] 0
|  6>     print[ P_SCFInfo ] 1
|  7>     print[ P_SCFIterInfo ] 1
|  8>     print[ P_OrbEn ] 0
|  9>     print[ P_Cartesian ] 0
| 10> end
| 11> *xyz 0 1
| 12>  C        1.4613580000    -0.7193520000     0.2620410000
| 13>  C        2.9226010000    -0.5518320000     0.0628280000
| 14>  N        3.5322920000    -1.2569780000    -0.7949490000
| 15>  O        4.8783460000    -0.9657110000    -0.8385440000
| 16>  C        5.5060130000    -1.7589460000    -1.8282340000
| 17>  C        6.9795490000    -1.4204240000    -1.8124370000
| 18>  N        7.6674310000    -2.2323770000    -2.8027330000
| 19>  H        1.2418110000    -1.0066410000     1.2948030000
| 20>  H        1.0715800000    -1.4839480000    -0.4094930000
| 21>  H        0.9352900000     0.2215110000     0.0743140000
| 22>  H        3.4707790000     0.1818910000     0.6582490000
| 23>  H        5.0785130000    -1.5526000000    -2.8141320000
| 24>  H        5.3495390000    -2.8216630000    -1.6041540000
| 25>  H        7.3586480000    -1.5341850000    -0.7859090000
| 26>  H        7.1010300000    -0.3677950000    -2.0823140000
| 27>  H        7.7013130000    -3.2009980000    -2.5091510000
| 28>  H        8.6241070000    -1.9247500000    -2.9141850000
| 29> *
| 30>
| 31>                          ****END OF INPUT****
 Total Charge           Charge          ....    0
 Multiplicity           Mult            ....    1
 Number of Electrons    NEL             ....   56
 Basis Dimension        Dim             ....  148

MULLIKEN ATOMIC CHARGES
-----------------------
   0 C :    0.034528
   1 C :   -0.092721
   2 N :    0.007834
   3 O :   -0.294649
   4 C :    0.197528
   5 C :    0.041705
   6 N :   -0.225697
   7 H :    0.037979
   8 H :    0.035465
   9 H :    0.039194
  10 H :    0.002830
  11 H :    0.010772
  12 H :    0.001450
  13 H :    0.003056
  14 H :    0.017417
  15 H :    0.091051
  16 H :    0.092258
Sum of atomic charges:   -0.0000000

LOEWDIN ATOMIC CHARGES
----------------------
   0 C :   -0.070969
   1 C :   -0.035460
   2 N :   -0.005327
   3 O :   -0.091892
   4 C :    0.047442
   5 C :   -0.004795
   6 N :   -0.108453
   7 H :    0.039794
   8 H :    0.037918
   9 H :    0.040211
  10 H :    0.003101
  11 H :    0.011124
  12 H :    0.006173
  13 H :    0.001383
  14 H :    0.024028
  15 H :    0.051177
  16 H :    0.054546

  Mayer bond orders larger than 0.1
B(  0-C ,  1-C ) :   1.0748 B(  0-C ,  7-H ) :   0.9460 B(  0-C ,  8-H ) :   0.9548
B(  0-C ,  9-H ) :   0.9464 B(  1-C ,  2-N ) :   1.9044 B(  1-C ,  3-O ) :   0.1086
B(  1-C , 10-H ) :   0.9394 B(  2-N ,  3-O ) :   0.9520 B(  3-O ,  4-C ) :   0.9550
B(  4-C ,  5-C ) :   1.0718 B(  4-C , 11-H ) :   0.9382 B(  4-C , 12-H ) :   0.9434
B(  5-C ,  6-N ) :   1.0741 B(  5-C , 13-H ) :   0.9305 B(  5-C , 14-H ) :   0.9344
B(  6-N , 15-H ) :   0.9701 B(  6-N , 16-H ) :   0.9673

FINAL SINGLE POINT ENERGY      -342.421480306679

DIPOLE MOMENT
-------------
                                X             Y             Z
Electronic contribution:     -0.06650       0.59021       0.29965
Nuclear contribution   :      0.35188      -0.58780       0.13690
                        -----------------------------------------
Total Dipole Moment    :      0.28539       0.00241       0.43655
                        -----------------------------------------
Magnitude (a.u.)       :      0.52156
Magnitude (Debye)      :      1.32571

                             ****ORCA TERMINATED NORMALLY****
TOTAL RUN TIME: 0 days 0 hours 0 minutes 7 seconds 11 msec
