                         Program Version 3.0.3 - RELEASE   -
|  1> ! RI PBE def2-SVP def2-SVP/J NBO PAL2
|  2> % maxcore 2000
|  3> % output
|  4>     # printlevel mini
|  5>     print[ P_Basis ] 0
|  6>     print[ P_SCFInfo ] 1
|  7>     print[ P_SCFIterInfo ] 1
|  8>     print[ P_OrbEn ] 0
|  9>     print[ P_Cartesian ] 0
| 10> end
| 11> *xyz 0 1
| 12>  C        0.2703760000     0.3153270000     0.2438820000
| 13>  C        1.6609840000    -0.1201750000    -0.0310340000
| 14>  N        2.6330670000     0.4780890000     0.5164650000
| 15>  O        3.8478290000    -0.0778090000     0.1321830000
| 16>  C        4.8711270000     0.6398920000     0.7815130000
| 17>  C        6.1516050000     0.0681650000     0.3846550000
| 18>  N        7.1776770000    -0.3572580000     0.0936260000
| 19>  H       -0.2285720000     0.6072670000    -0.6847170000
| 20>  H        0.2607180000     1.1575710000     0.9348380000
| 21>  H       -0.3093430000    -0.5072420000     0.6725400000
| 22>  H        1.8446350000    -0.9578520000    -0.7067810000
| 23>  H        4.7696160000     0.5718400000     1.8704170000
| 24>  H        4.8481910000     1.6987770000     0.5007320000
| 25> *
| 26>
| 27>                          ****END OF INPUT****
 Total Charge           Charge          ....    0
 Multiplicity           Mult            ....    1
 Number of Electrons    NEL             ....   52
 Basis Dimension        Dim             ....  128

MULLIKEN ATOMIC CHARGES
-----------------------
   0 C :    0.022204
   1 C :   -0.080377
   2 N :   -0.001252
   3 O :   -0.284064
   4 C :    0.267258
   5 C :   -0.246679
   6 N :    0.048403
   7 H :    0.050118
   8 H :    0.040774
   9 H :    0.052172
  10 H :    0.023950
  11 H :    0.055614
  12 H :    0.051879
Sum of atomic charges:   -0.0000000

LOEWDIN ATOMIC CHARGES
----------------------
   0 C :   -0.070510
   1 C :   -0.016633
   2 N :   -0.008156
   3 O :   -0.083701
   4 C :    0.038127
   5 C :   -0.050399
   6 N :   -0.039084
   7 H :    0.045989
   8 H :    0.040577
   9 H :    0.046192
  10 H :    0.012542
  11 H :    0.042735
  12 H :    0.042322

  Mayer bond orders larger than 0.1
B(  0-C ,  1-C ) :   1.0827 B(  0-C ,  7-H ) :   0.9431 B(  0-C ,  8-H ) :   0.9535
B(  0-C ,  9-H ) :   0.9436 B(  1-C ,  2-N ) :   1.9012 B(  1-C , 10-H ) :   0.9409
B(  2-N ,  3-O ) :   0.9377 B(  3-O ,  4-C ) :   0.9992 B(  4-C ,  5-C ) :   1.0717
B(  4-C , 11-H ) :   0.9152 B(  4-C , 12-H ) :   0.9128 B(  5-C ,  6-N ) :   3.0566

FINAL SINGLE POINT ENERGY      -340.012537927881

DIPOLE MOMENT
-------------
                                X             Y             Z
Electronic contribution:      8.91890      -1.20817      -0.47182
Nuclear contribution   :    -10.48308       1.61051       0.71289
                        -----------------------------------------
Total Dipole Moment    :     -1.56418       0.40234       0.24107
                        -----------------------------------------
Magnitude (a.u.)       :      1.63299
Magnitude (Debye)      :      4.15073

                             ****ORCA TERMINATED NORMALLY****
TOTAL RUN TIME: 0 days 0 hours 0 minutes 5 seconds 602 msec
