                         Program Version 3.0.3 - RELEASE   -
|  1> ! RI PBE def2-SVP def2-SVP/J NBO PAL2
|  2> % maxcore 2000
|  3> % output
|  4>     # printlevel mini
|  5>     print[ P_Basis ] 0
|  6>     print[ P_SCFInfo ] 1
|  7>     print[ P_SCFIterInfo ] 1
|  8>     print[ P_OrbEn ] 0
|  9>     print[ P_Cartesian ] 0
| 10> end
| 11> *xyz 0 1
| 12>  C        2.3263140000     0.7258390000     1.4976440000
| 13>  C        2.7503020000     0.0258810000     0.2182030000
| 14>  N        3.2882700000     0.9100350000    -0.8044700000
| 15>  O        2.2980720000     1.8165570000    -1.2095170000
| 16>  C        4.5311380000     1.5307330000    -0.6157280000
| 17>  C        5.5917820000     0.6423720000    -0.0371910000
| 18>  N        4.8187940000     2.7153450000    -0.9640800000
| 19>  H        1.8983610000     0.0056720000     2.1987560000
| 20>  H        1.5737950000     1.4871520000     1.2881750000
| 21>  H        3.1750360000     1.2113680000     1.9854290000
| 22>  H        1.9005240000    -0.4939880000    -0.2308670000
| 23>  H        3.5096380000    -0.7313910000     0.4191360000
| 24>  H        2.1230660000     1.5769730000    -2.1255590000
| 25>  H        5.6343260000    -0.3206240000    -0.5509810000
| 26>  H        5.4176380000     0.4504360000     1.0247580000
| 27>  H        6.5453730000     1.1540570000    -0.1435900000
| 28>  H        3.9834600000     3.1871750000    -1.3073200000
| 29> *
| 30>
| 31>                          ****END OF INPUT****
 Total Charge           Charge          ....    0
 Multiplicity           Mult            ....    1
 Number of Electrons    NEL             ....   56
 Basis Dimension        Dim             ....  148

MULLIKEN ATOMIC CHARGES
-----------------------
   0 C :   -0.042976
   1 C :    0.084200
   2 N :   -0.149383
   3 O :   -0.195959
   4 C :   -0.160063
   5 C :    0.035984
   6 N :   -0.087667
   7 H :    0.028093
   8 H :    0.045327
   9 H :    0.034960
  10 H :    0.009937
  11 H :    0.026538
  12 H :    0.185966
  13 H :    0.038303
  14 H :    0.038001
  15 H :    0.034991
  16 H :    0.073749
Sum of atomic charges:   -0.0000000

LOEWDIN ATOMIC CHARGES
----------------------
   0 C :   -0.081377
   1 C :    0.006967
   2 N :    0.004943
   3 O :   -0.060468
   4 C :   -0.017967
   5 C :   -0.070964
   6 N :   -0.152752
   7 H :    0.032593
   8 H :    0.032562
   9 H :    0.029892
  10 H :    0.022188
  11 H :    0.029448
  12 H :    0.078370
  13 H :    0.034695
  14 H :    0.036852
  15 H :    0.044676
  16 H :    0.030341

  Mayer bond orders larger than 0.1
B(  0-C ,  1-C ) :   1.1119 B(  0-C ,  7-H ) :   0.9571 B(  0-C ,  8-H ) :   0.9585
B(  0-C ,  9-H ) :   0.9559 B(  1-C ,  2-N ) :   0.9923 B(  1-C , 10-H ) :   0.9383
B(  1-C , 11-H ) :   0.9295 B(  2-N ,  3-O ) :   0.9498 B(  2-N ,  4-C ) :   1.0338
B(  3-O , 12-H ) :   0.9707 B(  4-C ,  5-C ) :   1.0507 B(  4-C ,  6-N ) :   2.0836
B(  5-C , 13-H ) :   0.9473 B(  5-C , 14-H ) :   0.9395 B(  5-C , 15-H ) :   0.9384
B(  6-N , 16-H ) :   0.9178

FINAL SINGLE POINT ENERGY      -342.435237783220

DIPOLE MOMENT
-------------
                                X             Y             Z
Electronic contribution:     -0.42503       3.18469      -5.06003
Nuclear contribution   :     -0.35233      -4.18044       5.02283
                        -----------------------------------------
Total Dipole Moment    :     -0.77736      -0.99575      -0.03721
                        -----------------------------------------
Magnitude (a.u.)       :      1.26380
Magnitude (Debye)      :      3.21232

                             ****ORCA TERMINATED NORMALLY****
TOTAL RUN TIME: 0 days 0 hours 0 minutes 7 seconds 700 msec
