                         Program Version 3.0.3 - RELEASE   -
|  1> ! RI PBE def2-SVP def2-SVP/J NBO PAL2
|  2> % maxcore 2000
|  3> % output
|  4>     # printlevel mini
|  5>     print[ P_Basis ] 0
|  6>     print[ P_SCFInfo ] 1
|  7>     print[ P_SCFIterInfo ] 1
|  8>     print[ P_OrbEn ] 0
|  9>     print[ P_Cartesian ] 0
| 10> end
| 11> *xyz 0 1
| 12>  C        3.2637560000     1.4115470000    -0.5703940000
| 13>  C        2.8322980000     0.0367340000    -0.0916030000
| 14>  N        3.2316090000    -0.2808600000     1.2671870000
| 15>  O        2.6702900000     0.5949100000     2.1927250000
| 16>  C        1.6757900000    -0.0788130000     2.9425510000
| 17>  C        4.5564190000    -0.5796340000     1.5301290000
| 18>  N        5.2301710000    -0.3505190000     2.5747350000
| 19>  H        2.9048380000     1.5881350000    -1.5868800000
| 20>  H        4.3523850000     1.5034810000    -0.5718020000
| 21>  H        2.8565150000     2.1902080000     0.0758530000
| 22>  H        3.2561890000    -0.7481380000    -0.7242810000
| 23>  H        1.7454730000    -0.0686230000    -0.1481470000
| 24>  H        1.2849630000     0.6579210000     3.6453320000
| 25>  H        2.1006890000    -0.9244070000     3.4902230000
| 26>  H        0.8650230000    -0.4329950000     2.2982780000
| 27>  H        5.0053860000    -1.1350960000     0.7035590000
| 28>  H        4.6776060000     0.1987590000     3.2333240000
| 29> *
| 30>
| 31>                          ****END OF INPUT****
 Total Charge           Charge          ....    0
 Multiplicity           Mult            ....    1
 Number of Electrons    NEL             ....   56
 Basis Dimension        Dim             ....  148

MULLIKEN ATOMIC CHARGES
-----------------------
   0 C :   -0.034106
   1 C :    0.070569
   2 N :   -0.118688
   3 O :   -0.283996
   4 C :    0.151802
   5 C :    0.004313
   6 N :   -0.127531
   7 H :    0.025562
   8 H :    0.036983
   9 H :    0.041020
  10 H :    0.031219
  11 H :    0.023216
  12 H :    0.039338
  13 H :    0.030145
  14 H :    0.020121
  15 H :    0.007511
  16 H :    0.082521
Sum of atomic charges:   -0.0000000

LOEWDIN ATOMIC CHARGES
----------------------
   0 C :   -0.078995
   1 C :    0.008975
   2 N :    0.022625
   3 O :   -0.101920
   4 C :    0.049618
   5 C :   -0.004994
   6 N :   -0.150641
   7 H :    0.032021
   8 H :    0.031718
   9 H :    0.031572
  10 H :    0.032200
  11 H :    0.024166
  12 H :    0.026423
  13 H :    0.013628
  14 H :    0.009547
  15 H :    0.015362
  16 H :    0.038694

  Mayer bond orders larger than 0.1
B(  0-C ,  1-C ) :   1.1075 B(  0-C ,  7-H ) :   0.9568 B(  0-C ,  8-H ) :   0.9605
B(  0-C ,  9-H ) :   0.9606 B(  1-C ,  2-N ) :   0.9951 B(  1-C , 10-H ) :   0.9315
B(  1-C , 11-H ) :   0.9411 B(  2-N ,  3-O ) :   0.9242 B(  2-N ,  5-C ) :   1.0732
B(  2-N ,  6-N ) :   0.1035 B(  3-O ,  4-C ) :   0.9645 B(  4-C , 12-H ) :   0.9718
B(  4-C , 13-H ) :   0.9695 B(  4-C , 14-H ) :   0.9674 B(  5-C ,  6-N ) :   2.0305
B(  5-C , 15-H ) :   0.9325 B(  6-N , 16-H ) :   0.9334

FINAL SINGLE POINT ENERGY      -342.418574055277

DIPOLE MOMENT
-------------
                                X             Y             Z
Electronic contribution:      2.59495      -1.40923       3.00536
Nuclear contribution   :     -3.84852       1.46108      -3.54556
                        -----------------------------------------
Total Dipole Moment    :     -1.25357       0.05185      -0.54019
                        -----------------------------------------
Magnitude (a.u.)       :      1.36600
Magnitude (Debye)      :      3.47209

                             ****ORCA TERMINATED NORMALLY****
TOTAL RUN TIME: 0 days 0 hours 0 minutes 7 seconds 714 msec
