                         Program Version 3.0.3 - RELEASE   -
|  1> ! RI PBE def2-SVP def2-SVP/J NBO PAL2
|  2> % maxcore 2000
|  3> % output
|  4>     # printlevel mini
|  5>     print[ P_Basis ] 0
|  6>     print[ P_SCFInfo ] 1
|  7>     print[ P_SCFIterInfo ] 1
|  8>     print[ P_OrbEn ] 0
|  9>     print[ P_Cartesian ] 0
| 10> end
| 11> *xyz 0 1
| 12>  C        2.2431410000     1.0887830000    -4.1478650000
| 13>  C        3.1682240000     1.5288550000    -3.0753180000
| 14>  N        4.3252970000     1.0229870000    -2.9754790000
| 15>  O        5.0360660000     1.5456050000    -1.9148880000
| 16>  C        6.3538380000     1.0099130000    -1.8900000000
| 17>  C        6.3989700000    -0.4867380000    -1.6807310000
| 18>  O        6.0678370000    -1.2215470000    -2.8322370000
| 19>  H        1.3242140000     0.6788710000    -3.7183410000
| 20>  H        2.7106940000     0.3300850000    -4.7749920000
| 21>  H        1.9513130000     1.9369910000    -4.7740790000
| 22>  H        2.8515690000     2.2951480000    -2.3648580000
| 23>  H        6.8273000000     1.5227900000    -1.0498260000
| 24>  H        6.8797360000     1.2775080000    -2.8136050000
| 25>  H        5.7447700000    -0.7444300000    -0.8339600000
| 26>  H        7.4204980000    -0.7657750000    -1.4033430000
| 27>  H        5.3079330000    -0.7724250000    -3.2268680000
| 28> *
| 29>
| 30>                          ****END OF INPUT****
 Total Charge           Charge          ....    0
 Multiplicity           Mult            ....    1
 Number of Electrons    NEL             ....   56
 Basis Dimension        Dim             ....  143

MULLIKEN ATOMIC CHARGES
-----------------------
   0 C :    0.028666
   1 C :   -0.075321
   2 N :   -0.018259
   3 O :   -0.274717
   4 C :    0.140728
   5 C :    0.165322
   6 O :   -0.292558
   7 H :    0.046333
   8 H :    0.038853
   9 H :    0.046390
  10 H :    0.016508
  11 H :    0.018894
  12 H :    0.016377
  13 H :   -0.002882
  14 H :    0.006154
  15 H :    0.139515
Sum of atomic charges:   -0.0000000

LOEWDIN ATOMIC CHARGES
----------------------
   0 C :   -0.069138
   1 C :   -0.022366
   2 N :   -0.001546
   3 O :   -0.086083
   4 C :    0.029265
   5 C :    0.037531
   6 O :   -0.130644
   7 H :    0.044196
   8 H :    0.039135
   9 H :    0.044366
  10 H :    0.010403
  11 H :    0.028916
  12 H :    0.014005
  13 H :    0.006070
  14 H :    0.023576
  15 H :    0.032316

  Mayer bond orders larger than 0.1
B(  0-C ,  1-C ) :   1.0813 B(  0-C ,  7-H ) :   0.9437 B(  0-C ,  8-H ) :   0.9568
B(  0-C ,  9-H ) :   0.9439 B(  1-C ,  2-N ) :   1.8723 B(  1-C ,  3-O ) :   0.1094
B(  1-C , 10-H ) :   0.9403 B(  2-N ,  3-O ) :   0.9544 B(  2-N , 15-H ) :   0.1030
B(  3-O ,  4-C ) :   0.9640 B(  4-C ,  5-C ) :   1.0911 B(  4-C , 11-H ) :   0.9304
B(  4-C , 12-H ) :   0.9318 B(  5-C ,  6-O ) :   1.0897 B(  5-C , 13-H ) :   0.9161
B(  5-C , 14-H ) :   0.9304 B(  6-O , 15-H ) :   0.9573

FINAL SINGLE POINT ENERGY      -362.269166872034

DIPOLE MOMENT
-------------
                                X             Y             Z
Electronic contribution:      1.64299       0.46494       1.15532
Nuclear contribution   :     -2.25528       0.22975      -1.10382
                        -----------------------------------------
Total Dipole Moment    :     -0.61230       0.69469       0.05150
                        -----------------------------------------
Magnitude (a.u.)       :      0.92744
Magnitude (Debye)      :      2.35737

                             ****ORCA TERMINATED NORMALLY****
TOTAL RUN TIME: 0 days 0 hours 0 minutes 7 seconds 81 msec
