                         Program Version 3.0.3 - RELEASE   -
|  1> ! RI PBE def2-SVP def2-SVP/J NBO PAL2
|  2> % maxcore 2000
|  3> % output
|  4>     # printlevel mini
|  5>     print[ P_Basis ] 0
|  6>     print[ P_SCFInfo ] 1
|  7>     print[ P_SCFIterInfo ] 1
|  8>     print[ P_OrbEn ] 0
|  9>     print[ P_Cartesian ] 0
| 10> end
| 11> *xyz 0 1
| 12>  C        0.1910470000     0.5733040000    -2.0035760000
| 13>  C        0.4481830000     0.4384070000    -0.5491840000
| 14>  N        1.6303970000     0.2518230000    -0.1378910000
| 15>  O        1.6368010000     0.1544880000     1.2576820000
| 16>  C        2.8801440000    -0.0480150000     1.7856900000
| 17>  C        2.7575860000    -0.1358840000     3.2775080000
| 18>  O        3.8845000000    -0.1387320000     1.1527050000
| 19>  H       -0.5064010000    -0.1994820000    -2.3394840000
| 20>  H        1.1202980000     0.4878170000    -2.5653680000
| 21>  H       -0.2737500000     1.5396840000    -2.2193070000
| 22>  H       -0.3847190000     0.5011990000     0.1545390000
| 23>  H        2.3248400000     0.7844080000     3.6741780000
| 24>  H        3.7439860000    -0.2975060000     3.7046400000
| 25>  H        2.0922970000    -0.9564330000     3.5525680000
| 26> *
| 27>
| 28>                          ****END OF INPUT****
 Total Charge           Charge          ....    0
 Multiplicity           Mult            ....    1
 Number of Electrons    NEL             ....   54
 Basis Dimension        Dim             ....  133

MULLIKEN ATOMIC CHARGES
-----------------------
   0 C :    0.030163
   1 C :   -0.076150
   2 N :    0.032764
   3 O :   -0.231008
   4 C :    0.076440
   5 C :    0.005343
   6 O :   -0.147567
   7 H :    0.049026
   8 H :    0.048822
   9 H :    0.046475
  10 H :    0.013275
  11 H :    0.051395
  12 H :    0.047994
  13 H :    0.053030
Sum of atomic charges:   -0.0000000

LOEWDIN ATOMIC CHARGES
----------------------
   0 C :   -0.067451
   1 C :   -0.009027
   2 N :    0.012332
   3 O :   -0.047422
   4 C :    0.029451
   5 C :   -0.086358
   6 O :   -0.116487
   7 H :    0.045682
   8 H :    0.043888
   9 H :    0.045368
  10 H :    0.007418
  11 H :    0.048983
  12 H :    0.044448
  13 H :    0.049176

  Mayer bond orders larger than 0.1
B(  0-C ,  1-C ) :   1.0748 B(  0-C ,  7-H ) :   0.9443 B(  0-C ,  8-H ) :   0.9538
B(  0-C ,  9-H ) :   0.9437 B(  1-C ,  2-N ) :   1.9220 B(  1-C , 10-H ) :   0.9369
B(  2-N ,  3-O ) :   0.9054 B(  3-O ,  4-C ) :   1.0492 B(  4-C ,  5-C ) :   1.0377
B(  4-C ,  6-O ) :   2.1748 B(  5-C , 11-H ) :   0.9437 B(  5-C , 12-H ) :   0.9582
B(  5-C , 13-H ) :   0.9443

FINAL SINGLE POINT ENERGY      -361.103329048551

DIPOLE MOMENT
-------------
                                X             Y             Z
Electronic contribution:      3.72229      -0.57119       1.09842
Nuclear contribution   :     -5.01186       0.72784      -0.87024
                        -----------------------------------------
Total Dipole Moment    :     -1.28957       0.15665       0.22819
                        -----------------------------------------
Magnitude (a.u.)       :      1.31894
Magnitude (Debye)      :      3.35248

                             ****ORCA TERMINATED NORMALLY****
TOTAL RUN TIME: 0 days 0 hours 0 minutes 5 seconds 736 msec
