                         Program Version 3.0.3 - RELEASE   -
|  1> ! RI PBE def2-SVP def2-SVP/J NBO PAL2
|  2> % maxcore 2000
|  3> % output
|  4>     # printlevel mini
|  5>     print[ P_Basis ] 0
|  6>     print[ P_SCFInfo ] 1
|  7>     print[ P_SCFIterInfo ] 1
|  8>     print[ P_OrbEn ] 0
|  9>     print[ P_Cartesian ] 0
| 10> end
| 11> *xyz 0 1
| 12>  C        0.5859400000     0.1186040000    -0.0833960000
| 13>  C        2.0102690000    -0.1022380000     0.2671670000
| 14>  N        2.9058150000     0.6610260000    -0.2004060000
| 15>  O        4.1721870000     0.2962930000     0.2351180000
| 16>  C        5.1056640000     1.2133780000    -0.2777960000
| 17>  C        5.2493050000     1.1291930000    -1.7791920000
| 18>  O        5.9017930000     1.9047030000    -2.4181680000
| 19>  H        0.1701890000    -0.7658730000    -0.5749770000
| 20>  H        0.4836060000     0.9764980000    -0.7471780000
| 21>  H       -0.0084990000     0.2911690000     0.8185940000
| 22>  H        2.2857320000    -0.9253200000     0.9300060000
| 23>  H        6.0658620000     0.9487610000     0.1748070000
| 24>  H        4.8630860000     2.2426720000     0.0052300000
| 25>  H        4.7193500000     0.2745240000    -2.2505900000
| 26> *
| 27>
| 28>                          ****END OF INPUT****
 Total Charge           Charge          ....    0
 Multiplicity           Mult            ....    1
 Number of Electrons    NEL             ....   54
 Basis Dimension        Dim             ....  133

MULLIKEN ATOMIC CHARGES
-----------------------
   0 C :    0.030500
   1 C :   -0.087525
   2 N :   -0.007962
   3 O :   -0.275443
   4 C :    0.200986
   5 C :    0.061604
   6 O :   -0.164493
   7 H :    0.045681
   8 H :    0.039548
   9 H :    0.046296
  10 H :    0.014951
  11 H :    0.052854
  12 H :    0.040446
  13 H :    0.002557
Sum of atomic charges:    0.0000000

LOEWDIN ATOMIC CHARGES
----------------------
   0 C :   -0.069537
   1 C :   -0.025264
   2 N :   -0.008337
   3 O :   -0.084220
   4 C :    0.005780
   5 C :    0.079232
   6 O :   -0.101658
   7 H :    0.043568
   8 H :    0.039997
   9 H :    0.044004
  10 H :    0.008565
  11 H :    0.046448
  12 H :    0.031569
  13 H :   -0.010146

  Mayer bond orders larger than 0.1
B(  0-C ,  1-C ) :   1.0790 B(  0-C ,  7-H ) :   0.9448 B(  0-C ,  8-H ) :   0.9538
B(  0-C ,  9-H ) :   0.9439 B(  1-C ,  2-N ) :   1.9051 B(  1-C , 10-H ) :   0.9409
B(  2-N ,  3-O ) :   0.9328 B(  3-O ,  4-C ) :   0.9857 B(  4-C ,  5-C ) :   0.9348
B(  4-C , 11-H ) :   0.9228 B(  4-C , 12-H ) :   0.9222 B(  5-C ,  6-O ) :   2.1680
B(  5-C , 13-H ) :   0.9252

FINAL SINGLE POINT ENERGY      -361.063993238390

DIPOLE MOMENT
-------------
                                X             Y             Z
Electronic contribution:      6.24361       1.46659      -1.75407
Nuclear contribution   :     -6.96818      -2.06408       2.46568
                        -----------------------------------------
Total Dipole Moment    :     -0.72456      -0.59749       0.71161
                        -----------------------------------------
Magnitude (a.u.)       :      1.17829
Magnitude (Debye)      :      2.99498

                             ****ORCA TERMINATED NORMALLY****
TOTAL RUN TIME: 0 days 0 hours 0 minutes 5 seconds 882 msec
