                         Program Version 3.0.3 - RELEASE   -
|  1> ! RI PBE def2-SVP def2-SVP/J NBO PAL2
|  2> % maxcore 2000
|  3> % output
|  4>     # printlevel mini
|  5>     print[ P_Basis ] 0
|  6>     print[ P_SCFInfo ] 1
|  7>     print[ P_SCFIterInfo ] 1
|  8>     print[ P_OrbEn ] 0
|  9>     print[ P_Cartesian ] 0
| 10> end
| 11> *xyz 0 1
| 12>  C        2.5447480000    -1.4148290000     0.2490840000
| 13>  C        2.9599640000     0.0297930000     0.4695970000
| 14>  N        3.3271770000     0.7030530000    -0.7416570000
| 15>  O        2.2680100000     0.9027140000    -1.6041370000
| 16>  C        4.5166050000     1.1179540000    -1.2039390000
| 17>  C        5.7245360000     0.9294930000    -0.3297540000
| 18>  O        4.5681050000     1.6418700000    -2.3165020000
| 19>  H        2.2359000000    -1.8639870000     1.1953980000
| 20>  H        3.3701730000    -2.0021640000    -0.1587740000
| 21>  H        1.7074310000    -1.4697990000    -0.4470670000
| 22>  H        3.8148540000     0.0923080000     1.1431810000
| 23>  H        2.1421130000     0.5941040000     0.9303680000
| 24>  H        2.7414090000     1.3268220000    -2.3548380000
| 25>  H        5.6495850000     1.5229950000     0.5842240000
| 26>  H        6.5910760000     1.2639560000    -0.8954940000
| 27>  H        5.8650140000    -0.1155840000    -0.0469700000
| 28> *
| 29>
| 30>                          ****END OF INPUT****
 Total Charge           Charge          ....    0
 Multiplicity           Mult            ....    1
 Number of Electrons    NEL             ....   56
 Basis Dimension        Dim             ....  143

MULLIKEN ATOMIC CHARGES
-----------------------
   0 C :   -0.032768
   1 C :    0.084337
   2 N :   -0.099149
   3 O :   -0.176537
   4 C :    0.042120
   5 C :   -0.008584
   6 O :   -0.279214
   7 H :    0.028934
   8 H :    0.028400
   9 H :    0.051649
  10 H :    0.027037
  11 H :    0.031421
  12 H :    0.161720
  13 H :    0.053458
  14 H :    0.042914
  15 H :    0.044262
Sum of atomic charges:    0.0000000

LOEWDIN ATOMIC CHARGES
----------------------
   0 C :   -0.072650
   1 C :    0.017725
   2 N :    0.076169
   3 O :   -0.069767
   4 C :   -0.000167
   5 C :   -0.083672
   6 O :   -0.217761
   7 H :    0.033126
   8 H :    0.028925
   9 H :    0.035996
  10 H :    0.033662
  11 H :    0.030502
  12 H :    0.056197
  13 H :    0.043866
  14 H :    0.048297
  15 H :    0.039550

  Mayer bond orders larger than 0.1
B(  0-C ,  1-C ) :   1.1139 B(  0-C ,  7-H ) :   0.9570 B(  0-C ,  8-H ) :   0.9608
B(  0-C ,  9-H ) :   0.9626 B(  1-C ,  2-N ) :   0.9988 B(  1-C , 10-H ) :   0.9281
B(  1-C , 11-H ) :   0.9254 B(  2-N ,  3-O ) :   0.9992 B(  2-N ,  4-C ) :   1.2060
B(  2-N ,  6-O ) :   0.1061 B(  3-O , 12-H ) :   0.9064 B(  4-C ,  5-C ) :   1.0647
B(  4-C ,  6-O ) :   1.9010 B(  5-C , 13-H ) :   0.9418 B(  5-C , 14-H ) :   0.9392
B(  5-C , 15-H ) :   0.9435 B(  6-O , 12-H ) :   0.1443

FINAL SINGLE POINT ENERGY      -362.307908849373

DIPOLE MOMENT
-------------
                                X             Y             Z
Electronic contribution:     -0.79188       4.73122      -5.52184
Nuclear contribution   :      0.92591      -5.32671       6.71159
                        -----------------------------------------
Total Dipole Moment    :      0.13403      -0.59548       1.18975
                        -----------------------------------------
Magnitude (a.u.)       :      1.33719
Magnitude (Debye)      :      3.39886

                             ****ORCA TERMINATED NORMALLY****
TOTAL RUN TIME: 0 days 0 hours 0 minutes 7 seconds 398 msec
