                         Program Version 3.0.3 - RELEASE   -
|  1> ! RI PBE def2-SVP def2-SVP/J NBO PAL2
|  2> % maxcore 2000
|  3> % output
|  4>     # printlevel mini
|  5>     print[ P_Basis ] 0
|  6>     print[ P_SCFInfo ] 1
|  7>     print[ P_SCFIterInfo ] 1
|  8>     print[ P_OrbEn ] 0
|  9>     print[ P_Cartesian ] 0
| 10> end
| 11> *xyz 0 1
| 12>  C        2.5791630000     1.2035480000    -0.2963490000
| 13>  C        4.0270720000     0.9451470000    -0.6594680000
| 14>  N        4.8391390000     0.5109990000     0.4547930000
| 15>  O        4.5956400000    -0.7845250000     0.8861370000
| 16>  C        3.9867260000    -0.7918950000     2.1670670000
| 17>  C        6.1181620000     0.9445320000     0.6346590000
| 18>  O        6.5839440000     1.9429120000     0.1403360000
| 19>  H        2.0394690000     1.5656160000    -1.1740260000
| 20>  H        2.4991680000     1.9585860000     0.4883740000
| 21>  H        2.0820190000     0.2921510000     0.0414560000
| 22>  H        4.5117370000     1.8541160000    -1.0195170000
| 23>  H        4.0941150000     0.1922490000    -1.4536290000
| 24>  H        3.8086050000    -1.8424170000     2.3983850000
| 25>  H        3.0389130000    -0.2479860000     2.1627130000
| 26>  H        4.6496100000    -0.3596280000     2.9224310000
| 27>  H        6.6707290000     0.2801850000     1.3225380000
| 28> *
| 29>
| 30>                          ****END OF INPUT****
 Total Charge           Charge          ....    0
 Multiplicity           Mult            ....    1
 Number of Electrons    NEL             ....   56
 Basis Dimension        Dim             ....  143

MULLIKEN ATOMIC CHARGES
-----------------------
   0 C :   -0.054007
   1 C :    0.106121
   2 N :   -0.122746
   3 O :   -0.278435
   4 C :    0.149654
   5 C :    0.175012
   6 O :   -0.224970
   7 H :    0.032817
   8 H :    0.034546
   9 H :    0.039162
  10 H :    0.033392
  11 H :    0.032268
  12 H :    0.041532
  13 H :    0.021171
  14 H :    0.024964
  15 H :   -0.010483
Sum of atomic charges:   -0.0000000

LOEWDIN ATOMIC CHARGES
----------------------
   0 C :   -0.075147
   1 C :    0.017464
   2 N :    0.043160
   3 O :   -0.099243
   4 C :    0.050542
   5 C :    0.042771
   6 O :   -0.171955
   7 H :    0.036331
   8 H :    0.030065
   9 H :    0.027451
  10 H :    0.035200
  11 H :    0.026137
  12 H :    0.028996
  13 H :    0.009792
  14 H :    0.010347
  15 H :   -0.011913

  Mayer bond orders larger than 0.1
B(  0-C ,  1-C ) :   1.1283 B(  0-C ,  7-H ) :   0.9553 B(  0-C ,  8-H ) :   0.9628
B(  0-C ,  9-H ) :   0.9601 B(  1-C ,  2-N ) :   0.9579 B(  1-C , 10-H ) :   0.9159
B(  1-C , 11-H ) :   0.9380 B(  2-N ,  3-O ) :   0.9120 B(  2-N ,  5-C ) :   1.1384
B(  2-N ,  6-O ) :   0.1119 B(  3-O ,  4-C ) :   0.9706 B(  4-C , 12-H ) :   0.9709
B(  4-C , 13-H ) :   0.9614 B(  4-C , 14-H ) :   0.9680 B(  5-C ,  6-O ) :   2.0259
B(  5-C , 15-H ) :   0.9215

FINAL SINGLE POINT ENERGY      -362.283887144644

DIPOLE MOMENT
-------------
                                X             Y             Z
Electronic contribution:      6.95265       0.56411      -0.74876
Nuclear contribution   :     -8.02820      -1.20653       1.18627
                        -----------------------------------------
Total Dipole Moment    :     -1.07555      -0.64242       0.43751
                        -----------------------------------------
Magnitude (a.u.)       :      1.32700
Magnitude (Debye)      :      3.37298

                             ****ORCA TERMINATED NORMALLY****
TOTAL RUN TIME: 0 days 0 hours 0 minutes 7 seconds 86 msec
