                         Program Version 3.0.3 - RELEASE   -
|  1> ! RI PBE def2-SVP def2-SVP/J NBO PAL2
|  2> % maxcore 2000
|  3> % output
|  4>     # printlevel mini
|  5>     print[ P_Basis ] 0
|  6>     print[ P_SCFInfo ] 1
|  7>     print[ P_SCFIterInfo ] 1
|  8>     print[ P_OrbEn ] 0
|  9>     print[ P_Cartesian ] 0
| 10> end
| 11> *xyz 0 1
| 12>  C        2.1923430000     0.7542630000     2.2400190000
| 13>  C        3.0317100000     0.6790320000     0.9759640000
| 14>  N        3.7344110000    -0.5683380000     0.7962710000
| 15>  O        2.8693150000    -1.6474200000     0.6599020000
| 16>  C        4.8585550000    -0.8697310000     1.4937680000
| 17>  N        5.1098260000    -2.0762320000     1.8048490000
| 18>  C        6.3555260000    -2.3863560000     2.4485310000
| 19>  H        1.6557270000     1.7048710000     2.2798080000
| 20>  H        2.8161830000     0.6766330000     3.1337220000
| 21>  H        1.4607850000    -0.0539610000     2.2600580000
| 22>  H        3.7953700000     1.4617610000     0.9617500000
| 23>  H        2.4065420000     0.8262730000     0.0916120000
| 24>  H        3.3952470000    -2.3645180000     1.0817710000
| 25>  H        5.5033250000    -0.0104970000     1.7048060000
| 26>  H        6.9656050000    -1.4981640000     2.6671320000
| 27>  H        6.9492400000    -3.0587520000     1.8211780000
| 28>  H        6.1696000000    -2.9118640000     3.3896600000
| 29> *
| 30>
| 31>                          ****END OF INPUT****
 Total Charge           Charge          ....    0
 Multiplicity           Mult            ....    1
 Number of Electrons    NEL             ....   56
 Basis Dimension        Dim             ....  148

MULLIKEN ATOMIC CHARGES
-----------------------
   0 C :   -0.037456
   1 C :    0.084167
   2 N :   -0.093512
   3 O :   -0.195607
   4 C :    0.100114
   5 N :   -0.287749
   6 C :    0.075813
   7 H :    0.025993
   8 H :    0.022569
   9 H :    0.049321
  10 H :    0.023207
  11 H :    0.030915
  12 H :    0.152856
  13 H :   -0.011958
  14 H :   -0.001989
  15 H :    0.033199
  16 H :    0.030116
Sum of atomic charges:    0.0000000

LOEWDIN ATOMIC CHARGES
----------------------
   0 C :   -0.078015
   1 C :    0.013148
   2 N :    0.065084
   3 O :   -0.078124
   4 C :    0.002098
   5 N :   -0.172201
   6 C :   -0.005702
   7 H :    0.032125
   8 H :    0.026725
   9 H :    0.033566
  10 H :    0.030280
  11 H :    0.029668
  12 H :    0.044468
  13 H :    0.000814
  14 H :    0.006032
  15 H :    0.024989
  16 H :    0.025044

  Mayer bond orders larger than 0.1
B(  0-C ,  1-C ) :   1.0973 B(  0-C ,  7-H ) :   0.9589 B(  0-C ,  8-H ) :   0.9617
B(  0-C ,  9-H ) :   0.9619 B(  1-C ,  2-N ) :   0.9969 B(  1-C , 10-H ) :   0.9341
B(  1-C , 11-H ) :   0.9390 B(  2-N ,  3-O ) :   0.9949 B(  2-N ,  4-C ) :   1.1953
B(  2-N ,  5-N ) :   0.1073 B(  3-O , 12-H ) :   0.9043 B(  4-C ,  5-N ) :   1.7088
B(  4-C , 13-H ) :   0.9317 B(  5-N ,  6-C ) :   1.0567 B(  5-N , 12-H ) :   0.1580
B(  6-C , 14-H ) :   0.9465 B(  6-C , 15-H ) :   0.9629 B(  6-C , 16-H ) :   0.9649

FINAL SINGLE POINT ENERGY      -342.431930133024

DIPOLE MOMENT
-------------
                                X             Y             Z
Electronic contribution:     -0.69142      -2.66897      -3.74955
Nuclear contribution   :      1.02500       3.39761       4.16885
                        -----------------------------------------
Total Dipole Moment    :      0.33358       0.72864       0.41930
                        -----------------------------------------
Magnitude (a.u.)       :      0.90443
Magnitude (Debye)      :      2.29888

                             ****ORCA TERMINATED NORMALLY****
TOTAL RUN TIME: 0 days 0 hours 0 minutes 7 seconds 395 msec
