                         Program Version 3.0.3 - RELEASE   -
|  1> ! RI PBE def2-SVP def2-SVP/J NBO PAL2
|  2> % maxcore 2000
|  3> % output
|  4>     # printlevel mini
|  5>     print[ P_Basis ] 0
|  6>     print[ P_SCFInfo ] 1
|  7>     print[ P_SCFIterInfo ] 1
|  8>     print[ P_OrbEn ] 0
|  9>     print[ P_Cartesian ] 0
| 10> end
| 11> *xyz 0 1
| 12>  C        1.3566070000     0.2474580000    -0.3990450000
| 13>  C        2.5732700000    -0.3595100000     0.2113390000
| 14>  N        3.0218590000    -0.0693480000     1.3628590000
| 15>  O        2.2428740000     0.8887410000     1.9985890000
| 16>  N        3.2538110000    -1.3259650000    -0.5774680000
| 17>  C        4.7130390000    -1.3834490000    -0.4649240000
| 18>  C        3.8871610000    -2.4452640000     0.1235190000
| 19>  H        1.4680690000     1.3324590000    -0.4692910000
| 20>  H        0.4837610000     0.0659390000     0.2332370000
| 21>  H        1.1902420000    -0.1720380000    -1.3884080000
| 22>  H        2.6940930000     1.0042280000     2.8387890000
| 23>  H        5.1729460000    -0.6817760000     0.2219990000
| 24>  H        5.2291370000    -1.5477610000    -1.4046840000
| 25>  H        3.7948810000    -2.4534810000     1.2038650000
| 26>  H        3.7866600000    -3.4023440000    -0.3768840000
| 27> *
| 28>
| 29>                          ****END OF INPUT****
 Total Charge           Charge          ....    0
 Multiplicity           Mult            ....    1
 Number of Electrons    NEL             ....   54
 Basis Dimension        Dim             ....  138

MULLIKEN ATOMIC CHARGES
-----------------------
   0 C :    0.113158
   1 C :   -0.132887
   2 N :   -0.057151
   3 O :   -0.181145
   4 N :   -0.250604
   5 C :    0.037335
   6 C :    0.037921
   7 H :    0.041098
   8 H :    0.037224
   9 H :    0.017847
  10 H :    0.172288
  11 H :    0.044068
  12 H :    0.039265
  13 H :    0.045358
  14 H :    0.036225
Sum of atomic charges:   -0.0000000

LOEWDIN ATOMIC CHARGES
----------------------
   0 C :   -0.075429
   1 C :   -0.030932
   2 N :   -0.051422
   3 O :   -0.052511
   4 N :   -0.105645
   5 C :    0.019836
   6 C :    0.020095
   7 H :    0.045334
   8 H :    0.044383
   9 H :    0.035022
  10 H :    0.073300
  11 H :    0.017994
  12 H :    0.021201
  13 H :    0.018106
  14 H :    0.020667

  Mayer bond orders larger than 0.1
B(  0-C ,  1-C ) :   1.0839 B(  0-C ,  7-H ) :   0.9311 B(  0-C ,  8-H ) :   0.9315
B(  0-C ,  9-H ) :   0.9346 B(  1-C ,  2-N ) :   1.8208 B(  1-C ,  4-N ) :   1.1430
B(  2-N ,  3-O ) :   0.9974 B(  3-O , 10-H ) :   0.9755 B(  4-N ,  5-C ) :   0.9352
B(  4-N ,  6-C ) :   0.9333 B(  5-C ,  6-C ) :   1.0905 B(  5-C , 11-H ) :   0.9373
B(  5-C , 12-H ) :   0.9501 B(  6-C , 13-H ) :   0.9380 B(  6-C , 14-H ) :   0.9498

FINAL SINGLE POINT ENERGY      -341.199726787566

DIPOLE MOMENT
-------------
                                X             Y             Z
Electronic contribution:      0.19708       1.15174       2.34409
Nuclear contribution   :     -0.02328      -1.08245      -1.98037
                        -----------------------------------------
Total Dipole Moment    :      0.17380       0.06929       0.36372
                        -----------------------------------------
Magnitude (a.u.)       :      0.40902
Magnitude (Debye)      :      1.03965

                             ****ORCA TERMINATED NORMALLY****
TOTAL RUN TIME: 0 days 0 hours 0 minutes 6 seconds 910 msec
