                         Program Version 3.0.3 - RELEASE   -
|  1> ! RI PBE def2-SVP def2-SVP/J NBO PAL2
|  2> % maxcore 2000
|  3> % output
|  4>     # printlevel mini
|  5>     print[ P_Basis ] 0
|  6>     print[ P_SCFInfo ] 1
|  7>     print[ P_SCFIterInfo ] 1
|  8>     print[ P_OrbEn ] 0
|  9>     print[ P_Cartesian ] 0
| 10> end
| 11> *xyz 0 1
| 12>  C        1.0474320000     0.0442030000     0.7381690000
| 13>  C        2.4592310000     0.0879590000     0.2661300000
| 14>  N        2.7182560000     0.7945870000    -0.8986690000
| 15>  O        1.6230140000     1.0237130000    -1.7328320000
| 16>  N        3.3934990000    -0.4676170000     0.9334960000
| 17>  C        4.7145060000    -0.3079230000     0.5357150000
| 18>  C        5.5962070000    -1.3024290000     0.4477220000
| 19>  H        0.6521260000     1.0536930000     0.8767040000
| 20>  H        1.0211170000    -0.4907580000     1.6842040000
| 21>  H        0.4066260000    -0.4515510000     0.0064380000
| 22>  H        3.4812250000     0.4142930000    -1.4454080000
| 23>  H        1.5445500000     1.9824640000    -1.7670090000
| 24>  H        5.0413290000     0.7168410000     0.3372620000
| 25>  H        5.3066200000    -2.3267130000     0.6511170000
| 26>  H        6.6242600000    -1.1036730000     0.1747600000
| 27> *
| 28>
| 29>                          ****END OF INPUT****
 Total Charge           Charge          ....    0
 Multiplicity           Mult            ....    1
 Number of Electrons    NEL             ....   54
 Basis Dimension        Dim             ....  138

MULLIKEN ATOMIC CHARGES
-----------------------
   0 C :    0.102594
   1 C :   -0.119875
   2 N :   -0.043370
   3 O :   -0.213073
   4 N :   -0.105744
   5 C :   -0.040194
   6 C :   -0.034904
   7 H :    0.025318
   8 H :    0.031394
   9 H :    0.044400
  10 H :    0.139554
  11 H :    0.184263
  12 H :   -0.004692
  13 H :    0.017292
  14 H :    0.017037
Sum of atomic charges:   -0.0000000

LOEWDIN ATOMIC CHARGES
----------------------
   0 C :   -0.067832
   1 C :    0.007120
   2 N :    0.051796
   3 O :   -0.071075
   4 N :   -0.116462
   5 C :   -0.027590
   6 C :   -0.100939
   7 H :    0.038336
   8 H :    0.042095
   9 H :    0.044049
  10 H :    0.067214
  11 H :    0.077677
  12 H :    0.008581
  13 H :    0.023599
  14 H :    0.023430

  Mayer bond orders larger than 0.1
B(  0-C ,  1-C ) :   1.0854 B(  0-C ,  7-H ) :   0.9381 B(  0-C ,  8-H ) :   0.9375
B(  0-C ,  9-H ) :   0.9261 B(  1-C ,  2-N ) :   1.1250 B(  1-C ,  4-N ) :   1.8608
B(  2-N ,  3-O ) :   0.9861 B(  2-N , 10-H ) :   0.9171 B(  3-O , 11-H ) :   0.9740
B(  4-N ,  5-C ) :   1.1423 B(  5-C ,  6-C ) :   1.8990 B(  5-C , 12-H ) :   0.9289
B(  6-C , 13-H ) :   0.9466 B(  6-C , 14-H ) :   0.9407

FINAL SINGLE POINT ENERGY      -341.215964091157

DIPOLE MOMENT
-------------
                                X             Y             Z
Electronic contribution:     -0.37589       1.29025      -1.43814
Nuclear contribution   :     -0.05517      -0.40118       0.67414
                        -----------------------------------------
Total Dipole Moment    :     -0.43106       0.88907      -0.76400
                        -----------------------------------------
Magnitude (a.u.)       :      1.24898
Magnitude (Debye)      :      3.17466

                             ****ORCA TERMINATED NORMALLY****
TOTAL RUN TIME: 0 days 0 hours 0 minutes 6 seconds 869 msec
