                         Program Version 3.0.3 - RELEASE   -
|  1> ! RI PBE def2-SVP def2-SVP/J NBO PAL2
|  2> % maxcore 2000
|  3> % output
|  4>     # printlevel mini
|  5>     print[ P_Basis ] 0
|  6>     print[ P_SCFInfo ] 1
|  7>     print[ P_SCFIterInfo ] 1
|  8>     print[ P_OrbEn ] 0
|  9>     print[ P_Cartesian ] 0
| 10> end
| 11> *xyz 0 1
| 12>  C        1.0473870000    -0.1519790000    -0.2026400000
| 13>  C        2.5477140000    -0.1146930000    -0.0626400000
| 14>  O        3.1198590000    -0.0077870000    -1.3490350000
| 15>  C        4.5037960000     0.0203300000    -1.3196500000
| 16>  C        5.1784120000     0.7159710000    -2.4513110000
| 17>  C        5.2268140000     1.3197500000    -1.0808830000
| 18>  N        6.4802770000     1.4204510000    -0.3952740000
| 19>  H        0.5763190000    -0.2374700000     0.7790260000
| 20>  H        0.7387810000    -1.0051090000    -0.8098100000
| 21>  H        0.6833400000     0.7587270000    -0.6822240000
| 22>  H        2.9125360000    -1.0280860000     0.4311190000
| 23>  H        2.8610160000     0.7377920000     0.5568000000
| 24>  H        4.9749570000    -0.8824800000    -0.9262090000
| 25>  H        4.5394260000     1.1872360000    -3.1871110000
| 26>  H        6.0857590000     0.2765150000    -2.8507270000
| 27>  H        4.5768340000     2.1790640000    -0.9396010000
| 28>  H        7.1727680000     0.8050080000    -0.7994240000
| 29>  H        6.3891140000     1.1848610000     0.5851940000
| 30> *
| 31>
| 32>                          ****END OF INPUT****
 Total Charge           Charge          ....    0
 Multiplicity           Mult            ....    1
 Number of Electrons    NEL             ....   56
 Basis Dimension        Dim             ....  153

MULLIKEN ATOMIC CHARGES
-----------------------
   0 C :   -0.015185
   1 C :    0.141539
   2 O :   -0.305299
   3 C :    0.090225
   4 C :    0.004192
   5 C :   -0.118756
   6 N :   -0.118031
   7 H :    0.017731
   8 H :    0.032363
   9 H :    0.029472
  10 H :   -0.008231
  11 H :   -0.000755
  12 H :   -0.016300
  13 H :    0.044407
  14 H :    0.023656
  15 H :    0.025746
  16 H :    0.078623
  17 H :    0.094601
Sum of atomic charges:    0.0000000

LOEWDIN ATOMIC CHARGES
----------------------
   0 C :   -0.073516
   1 C :    0.060052
   2 O :   -0.127813
   3 C :    0.012761
   4 C :   -0.050505
   5 C :   -0.027429
   6 N :   -0.084370
   7 H :    0.031627
   8 H :    0.030436
   9 H :    0.030077
  10 H :    0.003597
  11 H :    0.004226
  12 H :   -0.000620
  13 H :    0.035983
  14 H :    0.026803
  15 H :    0.022591
  16 H :    0.050997
  17 H :    0.055103

  Mayer bond orders larger than 0.1
B(  0-C ,  1-C ) :   1.1160 B(  0-C ,  7-H ) :   0.9529 B(  0-C ,  8-H ) :   0.9659
B(  0-C ,  9-H ) :   0.9634 B(  1-C ,  2-O ) :   0.9890 B(  1-C , 10-H ) :   0.9309
B(  1-C , 11-H ) :   0.9329 B(  2-O ,  3-C ) :   1.0810 B(  3-C ,  4-C ) :   0.9867
B(  3-C ,  5-C ) :   0.9083 B(  3-C , 12-H ) :   0.9211 B(  4-C ,  5-C ) :   0.9994
B(  4-C , 13-H ) :   0.9357 B(  4-C , 14-H ) :   0.9318 B(  5-C ,  6-N ) :   1.1553
B(  5-C , 15-H ) :   0.9283 B(  6-N , 16-H ) :   0.9624 B(  6-N , 17-H ) :   0.9704

FINAL SINGLE POINT ENERGY      -326.418566114994

DIPOLE MOMENT
-------------
                                X             Y             Z
Electronic contribution:      2.46479       0.47464      -1.99746
Nuclear contribution   :     -2.35341      -0.89008       2.48347
                        -----------------------------------------
Total Dipole Moment    :      0.11138      -0.41544       0.48600
                        -----------------------------------------
Magnitude (a.u.)       :      0.64899
Magnitude (Debye)      :      1.64961

                             ****ORCA TERMINATED NORMALLY****
TOTAL RUN TIME: 0 days 0 hours 0 minutes 7 seconds 713 msec
