                         Program Version 3.0.3 - RELEASE   -
|  1> ! RI PBE def2-SVP def2-SVP/J NBO PAL2
|  2> % maxcore 2000
|  3> % output
|  4>     # printlevel mini
|  5>     print[ P_Basis ] 0
|  6>     print[ P_SCFInfo ] 1
|  7>     print[ P_SCFIterInfo ] 1
|  8>     print[ P_OrbEn ] 0
|  9>     print[ P_Cartesian ] 0
| 10> end
| 11> *xyz 0 1
| 12>  C        3.6016790000    -0.6521750000     0.8110510000
| 13>  C        2.5029460000     0.0319870000     0.0184700000
| 14>  O        1.5540110000     0.6376710000     0.8792420000
| 15>  C        3.0664040000     1.0078560000    -0.9922260000
| 16>  C        2.2106640000     2.0914420000    -1.5802450000
| 17>  C        3.3301380000     2.4531510000    -0.6635410000
| 18>  N        4.4565610000     3.1857230000    -1.1673070000
| 19>  H        3.1760340000    -1.3682420000     1.5167170000
| 20>  H        4.1853650000     0.0854220000     1.3725210000
| 21>  H        4.2899790000    -1.1847770000     0.1503740000
| 22>  H        1.9295500000    -0.7294020000    -0.5229170000
| 23>  H        2.0321400000     1.1499520000     1.5373120000
| 24>  H        3.7873600000     0.5606770000    -1.6719270000
| 25>  H        1.2013550000     2.1887440000    -1.2001720000
| 26>  H        2.3285980000     2.3192940000    -2.6340310000
| 27>  H        3.0226020000     2.7892130000     0.3229540000
| 28>  H        4.5253860000     3.0954260000    -2.1725330000
| 29>  H        5.3240190000     2.8442370000    -0.7715420000
| 30> *
| 31>
| 32>                          ****END OF INPUT****
 Total Charge           Charge          ....    0
 Multiplicity           Mult            ....    1
 Number of Electrons    NEL             ....   56
 Basis Dimension        Dim             ....  153

MULLIKEN ATOMIC CHARGES
-----------------------
   0 C :   -0.005773
   1 C :    0.167312
   2 O :   -0.277261
   3 C :   -0.123480
   4 C :    0.035772
   5 C :   -0.094810
   6 N :   -0.123732
   7 H :    0.030743
   8 H :    0.008696
   9 H :    0.016630
  10 H :    0.001121
  11 H :    0.151214
  12 H :   -0.001295
  13 H :    0.029666
  14 H :    0.021481
  15 H :   -0.004582
  16 H :    0.078274
  17 H :    0.090025
Sum of atomic charges:    0.0000000

LOEWDIN ATOMIC CHARGES
----------------------
   0 C :   -0.078823
   1 C :    0.051059
   2 O :   -0.105152
   3 C :   -0.083474
   4 C :   -0.044333
   5 C :   -0.007989
   6 N :   -0.086772
   7 H :    0.028690
   8 H :    0.022287
   9 H :    0.030992
  10 H :    0.022888
  11 H :    0.062247
  12 H :    0.021055
  13 H :    0.029044
  14 H :    0.023889
  15 H :    0.009961
  16 H :    0.051163
  17 H :    0.053267

  Mayer bond orders larger than 0.1
B(  0-C ,  1-C ) :   1.0997 B(  0-C ,  7-H ) :   0.9571 B(  0-C ,  8-H ) :   0.9529
B(  0-C ,  9-H ) :   0.9489 B(  1-C ,  2-O ) :   1.0430 B(  1-C ,  3-C ) :   0.9910
B(  1-C , 10-H ) :   0.8998 B(  2-O , 11-H ) :   0.9826 B(  3-C ,  4-C ) :   0.9834
B(  3-C ,  5-C ) :   0.9078 B(  3-C , 12-H ) :   0.9281 B(  4-C ,  5-C ) :   1.0114
B(  4-C , 13-H ) :   0.9258 B(  4-C , 14-H ) :   0.9355 B(  5-C ,  6-N ) :   1.1535
B(  5-C , 15-H ) :   0.9324 B(  6-N , 16-H ) :   0.9617 B(  6-N , 17-H ) :   0.9714

FINAL SINGLE POINT ENERGY      -326.429980335573

DIPOLE MOMENT
-------------
                                X             Y             Z
Electronic contribution:     -2.23562       1.45886       0.14360
Nuclear contribution   :      2.96015      -1.82049      -0.20685
                        -----------------------------------------
Total Dipole Moment    :      0.72452      -0.36163      -0.06325
                        -----------------------------------------
Magnitude (a.u.)       :      0.81223
Magnitude (Debye)      :      2.06452

                             ****ORCA TERMINATED NORMALLY****
TOTAL RUN TIME: 0 days 0 hours 0 minutes 7 seconds 989 msec
