                         Program Version 3.0.3 - RELEASE   -
|  1> ! RI PBE def2-SVP def2-SVP/J NBO PAL2
|  2> % maxcore 2000
|  3> % output
|  4>     # printlevel mini
|  5>     print[ P_Basis ] 0
|  6>     print[ P_SCFInfo ] 1
|  7>     print[ P_SCFIterInfo ] 1
|  8>     print[ P_OrbEn ] 0
|  9>     print[ P_Cartesian ] 0
| 10> end
| 11> *xyz 0 1
| 12>  C        1.9242840000    -0.4671450000    -1.0134170000
| 13>  C        2.5513710000     0.2275820000     0.1636570000
| 14>  O        2.3061140000    -0.0844600000     1.3041220000
| 15>  C        3.5321440000     1.3338100000    -0.1557560000
| 16>  C        2.8337390000     2.6775920000    -0.4856850000
| 17>  C        3.2536490000     3.1080830000     0.9288100000
| 18>  N        4.1682700000     1.9527420000     1.0025810000
| 19>  H        1.0250510000    -0.9966600000    -0.7029960000
| 20>  H        2.6397590000    -1.1950190000    -1.4090720000
| 21>  H        1.6975010000     0.2321600000    -1.8212750000
| 22>  H        4.2288360000     0.9669900000    -0.9210180000
| 23>  H        1.7646770000     2.6400060000    -0.6960580000
| 24>  H        3.3380180000     3.2272230000    -1.2793830000
| 25>  H        2.4256680000     3.0667640000     1.6442470000
| 26>  H        3.7507780000     4.0769290000     1.0176700000
| 27>  H        4.0553320000     1.3916040000     1.8403740000
| 28> *
| 29>
| 30>                          ****END OF INPUT****
 Total Charge           Charge          ....    0
 Multiplicity           Mult            ....    1
 Number of Electrons    NEL             ....   54
 Basis Dimension        Dim             ....  143

MULLIKEN ATOMIC CHARGES
-----------------------
   0 C :    0.029226
   1 C :   -0.021813
   2 O :   -0.166747
   3 C :   -0.056082
   4 C :   -0.024039
   5 C :    0.122313
   6 N :   -0.213526
   7 H :    0.039967
   8 H :    0.054679
   9 H :    0.033741
  10 H :    0.021437
  11 H :    0.024690
  12 H :    0.029901
  13 H :    0.020088
  14 H :    0.012587
  15 H :    0.093579
Sum of atomic charges:   -0.0000000

LOEWDIN ATOMIC CHARGES
----------------------
   0 C :   -0.086765
   1 C :    0.044970
   2 O :   -0.124012
   3 C :   -0.020985
   4 C :   -0.025541
   5 C :    0.032470
   6 N :   -0.097068
   7 H :    0.041542
   8 H :    0.054823
   9 H :    0.038988
  10 H :    0.023022
  11 H :    0.021498
  12 H :    0.030750
  13 H :    0.012624
  14 H :    0.012249
  15 H :    0.041433

  Mayer bond orders larger than 0.1
B(  0-C ,  1-C ) :   1.0288 B(  0-C ,  7-H ) :   0.9423 B(  0-C ,  8-H ) :   0.9336
B(  0-C ,  9-H ) :   0.9458 B(  1-C ,  2-O ) :   2.1826 B(  1-C ,  3-C ) :   0.8782
B(  3-C ,  4-C ) :   1.0734 B(  3-C ,  6-N ) :   1.1428 B(  3-C , 10-H ) :   0.8977
B(  4-C ,  5-C ) :   1.1141 B(  4-C , 11-H ) :   0.9383 B(  4-C , 12-H ) :   0.9221
B(  5-C ,  6-N ) :   1.0561 B(  5-C , 13-H ) :   0.9334 B(  5-C , 14-H ) :   0.9356
B(  6-N , 15-H ) :   0.9332

FINAL SINGLE POINT ENERGY      -325.240850635198

DIPOLE MOMENT
-------------
                                X             Y             Z
Electronic contribution:      1.00948      -2.00969       3.50147
Nuclear contribution   :     -1.29287       2.16115      -4.36217
                        -----------------------------------------
Total Dipole Moment    :     -0.28339       0.15147      -0.86070
                        -----------------------------------------
Magnitude (a.u.)       :      0.91872
Magnitude (Debye)      :      2.33521

                             ****ORCA TERMINATED NORMALLY****
TOTAL RUN TIME: 0 days 0 hours 0 minutes 7 seconds 702 msec
