                         Program Version 3.0.3 - RELEASE   -
|  1> ! RI PBE def2-SVP def2-SVP/J NBO PAL2
|  2> % maxcore 2000
|  3> % output
|  4>     # printlevel mini
|  5>     print[ P_Basis ] 0
|  6>     print[ P_SCFInfo ] 1
|  7>     print[ P_SCFIterInfo ] 1
|  8>     print[ P_OrbEn ] 0
|  9>     print[ P_Cartesian ] 0
| 10> end
| 11> *xyz 0 1
| 12>  C        1.4567170000    -0.9407360000     0.2175510000
| 13>  C        2.7639040000    -0.2124520000    -0.0363600000
| 14>  O        3.8576150000    -0.9047700000     0.5452740000
| 15>  C        3.0489430000    -0.0461060000    -1.5183450000
| 16>  C        4.4260860000     0.5505420000    -1.8656140000
| 17>  C        4.8127720000    -0.8556830000    -2.3489830000
| 18>  N        3.3996320000    -1.2716220000    -2.2609950000
| 19>  H        1.2686640000    -1.0445060000     1.2904130000
| 20>  H        1.4772580000    -1.9429210000    -0.2183030000
| 21>  H        0.6160660000    -0.3938640000    -0.2155770000
| 22>  H        2.6971530000     0.8022380000     0.3888500000
| 23>  H        3.6611380000    -1.0574440000     1.4723150000
| 24>  H        2.1916560000     0.4820070000    -1.9538740000
| 25>  H        4.9958610000     0.9412320000    -1.0233790000
| 26>  H        4.3866380000     1.2962790000    -2.6593950000
| 27>  H        5.4753870000    -1.3743070000    -1.6502800000
| 28>  H        5.2272070000    -0.9281420000    -3.3583630000
| 29>  H        3.2550950000    -2.1255550000    -1.7367160000
| 30> *
| 31>
| 32>                          ****END OF INPUT****
 Total Charge           Charge          ....    0
 Multiplicity           Mult            ....    1
 Number of Electrons    NEL             ....   56
 Basis Dimension        Dim             ....  153

MULLIKEN ATOMIC CHARGES
-----------------------
   0 C :    0.018459
   1 C :    0.072563
   2 O :   -0.257208
   3 C :   -0.022861
   4 C :   -0.010092
   5 C :    0.136932
   6 N :   -0.251694
   7 H :    0.013857
   8 H :    0.014266
   9 H :    0.018975
  10 H :   -0.007693
  11 H :    0.153247
  12 H :   -0.007617
  13 H :    0.011985
  14 H :    0.017658
  15 H :    0.010206
  16 H :    0.000202
  17 H :    0.088816
Sum of atomic charges:   -0.0000000

LOEWDIN ATOMIC CHARGES
----------------------
   0 C :   -0.076841
   1 C :    0.029881
   2 O :   -0.114557
   3 C :    0.008514
   4 C :   -0.040159
   5 C :    0.030285
   6 N :   -0.108997
   7 H :    0.022777
   8 H :    0.026391
   9 H :    0.032590
  10 H :    0.008127
  11 H :    0.068870
  12 H :    0.011264
  13 H :    0.022151
  14 H :    0.025136
  15 H :    0.009005
  16 H :    0.006744
  17 H :    0.038820

  Mayer bond orders larger than 0.1
B(  0-C ,  1-C ) :   1.0932 B(  0-C ,  7-H ) :   0.9541 B(  0-C ,  8-H ) :   0.9500
B(  0-C ,  9-H ) :   0.9459 B(  1-C ,  2-O ) :   1.0777 B(  1-C ,  3-C ) :   0.9943
B(  1-C , 10-H ) :   0.9035 B(  2-O , 11-H ) :   0.9790 B(  3-C ,  4-C ) :   1.0953
B(  3-C ,  6-N ) :   1.1044 B(  3-C , 12-H ) :   0.9072 B(  4-C ,  5-C ) :   1.1321
B(  4-C , 13-H ) :   0.9264 B(  4-C , 14-H ) :   0.9175 B(  5-C ,  6-N ) :   1.0614
B(  5-C , 15-H ) :   0.9290 B(  5-C , 16-H ) :   0.9310 B(  6-N , 17-H ) :   0.9439

FINAL SINGLE POINT ENERGY      -326.427733688395

DIPOLE MOMENT
-------------
                                X             Y             Z
Electronic contribution:      1.67117      -0.57206      -0.21658
Nuclear contribution   :     -1.93133       0.66372       1.08712
                        -----------------------------------------
Total Dipole Moment    :     -0.26016       0.09166       0.87054
                        -----------------------------------------
Magnitude (a.u.)       :      0.91320
Magnitude (Debye)      :      2.32116

                             ****ORCA TERMINATED NORMALLY****
TOTAL RUN TIME: 0 days 0 hours 0 minutes 7 seconds 758 msec
