                         Program Version 3.0.3 - RELEASE   -
|  1> ! RI PBE def2-SVP def2-SVP/J NBO PAL2
|  2> % maxcore 2000
|  3> % output
|  4>     # printlevel mini
|  5>     print[ P_Basis ] 0
|  6>     print[ P_SCFInfo ] 1
|  7>     print[ P_SCFIterInfo ] 1
|  8>     print[ P_OrbEn ] 0
|  9>     print[ P_Cartesian ] 0
| 10> end
| 11> *xyz 0 1
| 12>  C        1.7469960000     0.1847220000     1.0786720000
| 13>  C        2.6149510000    -0.1746790000    -0.1107960000
| 14>  O        2.0854480000    -1.2898190000    -0.8054430000
| 15>  C        2.8272170000     0.9536450000    -1.1118660000
| 16>  C        4.0003740000     0.7513710000    -2.0309250000
| 17>  C        2.3498640000     2.3266780000    -0.8585930000
| 18>  N        1.5652570000     1.4168350000    -1.6937520000
| 19>  H        1.5687620000    -0.7123250000     1.6733380000
| 20>  H        0.7814410000     0.5760380000     0.7465760000
| 21>  H        2.2273370000     0.9305260000     1.7164020000
| 22>  H        3.5963480000    -0.5014840000     0.2488260000
| 23>  H        1.2942340000    -0.9641190000    -1.2518570000
| 24>  H        3.9270960000    -0.2178700000    -2.5302520000
| 25>  H        4.9407210000     0.7722090000    -1.4735230000
| 26>  H        4.0451880000     1.5346050000    -2.7924090000
| 27>  H        2.8858900000     3.1368840000    -1.3442810000
| 28>  H        1.8877440000     2.5921800000     0.0850090000
| 29>  H        1.6906430000     1.6404020000    -2.6751060000
| 30> *
| 31>
| 32>                          ****END OF INPUT****
 Total Charge           Charge          ....    0
 Multiplicity           Mult            ....    1
 Number of Electrons    NEL             ....   56
 Basis Dimension        Dim             ....  153

MULLIKEN ATOMIC CHARGES
-----------------------
   0 C :    0.018338
   1 C :    0.195626
   2 O :   -0.285564
   3 C :   -0.344649
   4 C :    0.123678
   5 C :    0.105266
   6 N :   -0.198661
   7 H :    0.024932
   8 H :    0.020009
   9 H :    0.010119
  10 H :   -0.011196
  11 H :    0.150776
  12 H :    0.028388
  13 H :    0.022807
  14 H :   -0.001773
  15 H :    0.016866
  16 H :    0.020414
  17 H :    0.104623
Sum of atomic charges:   -0.0000000

LOEWDIN ATOMIC CHARGES
----------------------
   0 C :   -0.078364
   1 C :    0.050618
   2 O :   -0.113237
   3 C :   -0.049692
   4 C :   -0.056441
   5 C :    0.009704
   6 N :   -0.102751
   7 H :    0.031142
   8 H :    0.027196
   9 H :    0.025696
  10 H :    0.020714
  11 H :    0.060719
  12 H :    0.032176
  13 H :    0.033351
  14 H :    0.023176
  15 H :    0.014612
  16 H :    0.018702
  17 H :    0.052681

  Mayer bond orders larger than 0.1
B(  0-C ,  1-C ) :   1.1082 B(  0-C ,  7-H ) :   0.9479 B(  0-C ,  8-H ) :   0.9363
B(  0-C ,  9-H ) :   0.9412 B(  1-C ,  2-O ) :   1.0281 B(  1-C ,  3-C ) :   0.9649
B(  1-C , 10-H ) :   0.9094 B(  2-O , 11-H ) :   0.9719 B(  3-C ,  4-C ) :   1.0821
B(  3-C ,  5-C ) :   1.0584 B(  3-C ,  6-N ) :   0.9248 B(  4-C , 12-H ) :   0.9453
B(  4-C , 13-H ) :   0.9483 B(  4-C , 14-H ) :   0.9360 B(  5-C ,  6-N ) :   1.0148
B(  5-C , 15-H ) :   0.9373 B(  5-C , 16-H ) :   0.9082 B(  6-N , 17-H ) :   0.9403

FINAL SINGLE POINT ENERGY      -326.432542095022

DIPOLE MOMENT
-------------
                                X             Y             Z
Electronic contribution:     -1.54898      -1.71782      -1.35887
Nuclear contribution   :      1.85255       2.44516       1.10138
                        -----------------------------------------
Total Dipole Moment    :      0.30358       0.72734      -0.25748
                        -----------------------------------------
Magnitude (a.u.)       :      0.82915
Magnitude (Debye)      :      2.10752

                             ****ORCA TERMINATED NORMALLY****
TOTAL RUN TIME: 0 days 0 hours 0 minutes 8 seconds 125 msec
