                         Program Version 3.0.3 - RELEASE   -
|  1> ! RI PBE def2-SVP def2-SVP/J NBO PAL2
|  2> % maxcore 2000
|  3> % output
|  4>     # printlevel mini
|  5>     print[ P_Basis ] 0
|  6>     print[ P_SCFInfo ] 1
|  7>     print[ P_SCFIterInfo ] 1
|  8>     print[ P_OrbEn ] 0
|  9>     print[ P_Cartesian ] 0
| 10> end
| 11> *xyz 0 1
| 12>  C        2.7945460000     1.4478740000     0.4757930000
| 13>  C        2.4011010000     0.0739360000    -0.0420820000
| 14>  O        2.8851340000    -0.1391350000    -1.3467990000
| 15>  C        2.9013910000    -1.0186850000     0.8803130000
| 16>  C        3.0522560000    -2.4176580000     0.4280650000
| 17>  N        4.2082240000    -1.5463890000     0.5479520000
| 18>  C        5.1180020000    -1.8151530000     1.6377850000
| 19>  H        2.4558480000     2.2188780000    -0.2179540000
| 20>  H        3.8819130000     1.5233150000     0.5665170000
| 21>  H        2.3517260000     1.6445860000     1.4564510000
| 22>  H        1.3081470000     0.0098510000    -0.1001790000
| 23>  H        3.7850780000    -0.4801840000    -1.2295010000
| 24>  H        2.6866280000    -0.8734230000     1.9381140000
| 25>  H        2.7719390000    -2.6899900000    -0.5834910000
| 26>  H        2.9372350000    -3.1982070000     1.1761880000
| 27>  H        5.8434800000    -2.5709970000     1.3284660000
| 28>  H        4.6053490000    -2.1774620000     2.5418070000
| 29>  H        5.6627110000    -0.9034250000     1.8928450000
| 30> *
| 31>
| 32>                          ****END OF INPUT****
 Total Charge           Charge          ....    0
 Multiplicity           Mult            ....    1
 Number of Electrons    NEL             ....   56
 Basis Dimension        Dim             ....  153

MULLIKEN ATOMIC CHARGES
-----------------------
   0 C :    0.020108
   1 C :    0.155504
   2 O :   -0.276081
   3 C :   -0.099076
   4 C :    0.099012
   5 N :   -0.317987
   6 C :    0.096270
   7 H :    0.026774
   8 H :    0.009913
   9 H :    0.004109
  10 H :    0.010839
  11 H :    0.148154
  12 H :    0.008804
  13 H :    0.028492
  14 H :    0.024038
  15 H :    0.032118
  16 H :   -0.000113
  17 H :    0.029121
Sum of atomic charges:    0.0000000

LOEWDIN ATOMIC CHARGES
----------------------
   0 C :   -0.076567
   1 C :    0.039113
   2 O :   -0.112585
   3 C :   -0.014363
   4 C :    0.009035
   5 N :   -0.107603
   6 C :    0.003244
   7 H :    0.030303
   8 H :    0.024303
   9 H :    0.023628
  10 H :    0.022350
  11 H :    0.050004
  12 H :    0.014490
  13 H :    0.021196
  14 H :    0.015437
  15 H :    0.026407
  16 H :    0.005801
  17 H :    0.025807

  Mayer bond orders larger than 0.1
B(  0-C ,  1-C ) :   1.0796 B(  0-C ,  7-H ) :   0.9545 B(  0-C ,  8-H ) :   0.9565
B(  0-C ,  9-H ) :   0.9456 B(  1-C ,  2-O ) :   1.0820 B(  1-C ,  3-C ) :   0.9829
B(  1-C , 10-H ) :   0.9115 B(  2-O , 11-H ) :   0.9486 B(  3-C ,  4-C ) :   1.0381
B(  3-C ,  5-N ) :   0.9342 B(  3-C , 12-H ) :   0.9304 B(  4-C ,  5-N ) :   0.9541
B(  4-C , 13-H ) :   0.9284 B(  4-C , 14-H ) :   0.9341 B(  5-N ,  6-C ) :   1.0254
B(  6-C , 15-H ) :   0.9704 B(  6-C , 16-H ) :   0.9409 B(  6-C , 17-H ) :   0.9701

FINAL SINGLE POINT ENERGY      -326.426861387660

DIPOLE MOMENT
-------------
                                X             Y             Z
Electronic contribution:     -1.11257      -1.07725      -3.65409
Nuclear contribution   :      1.32459       0.74977       4.57471
                        -----------------------------------------
Total Dipole Moment    :      0.21202      -0.32748       0.92062
                        -----------------------------------------
Magnitude (a.u.)       :      0.99987
Magnitude (Debye)      :      2.54147

                             ****ORCA TERMINATED NORMALLY****
TOTAL RUN TIME: 0 days 0 hours 0 minutes 7 seconds 987 msec
