                         Program Version 3.0.3 - RELEASE   -
|  1> ! RI PBE def2-SVP def2-SVP/J NBO PAL2
|  2> % maxcore 2000
|  3> % output
|  4>     # printlevel mini
|  5>     print[ P_Basis ] 0
|  6>     print[ P_SCFInfo ] 1
|  7>     print[ P_SCFIterInfo ] 1
|  8>     print[ P_OrbEn ] 0
|  9>     print[ P_Cartesian ] 0
| 10> end
| 11> *xyz 0 1
| 12>  C        1.0125130000    -1.9518690000    -0.5012590000
| 13>  C        2.3917180000    -1.7974050000    -1.0895030000
| 14>  O        3.2285140000    -1.1872040000    -0.1331780000
| 15>  C        4.5214750000    -0.9726950000    -0.5967480000
| 16>  C        5.4704430000    -0.3407760000     0.4207170000
| 17>  N        6.5266430000    -1.2464970000    -0.0638750000
| 18>  C        5.5152740000    -2.1533120000    -0.6316500000
| 19>  H        0.3412040000    -2.4187270000    -1.2252490000
| 20>  H        0.6018030000    -0.9787040000    -0.2255340000
| 21>  H        1.0435530000    -2.5764540000     0.3935500000
| 22>  H        2.3587450000    -1.1801520000    -2.0003840000
| 23>  H        2.7991040000    -2.7781550000    -1.3768630000
| 24>  H        4.5098460000    -0.4278540000    -1.5501540000
| 25>  H        5.1162050000    -0.5548830000     1.4370210000
| 26>  H        5.6936540000     0.7246790000     0.3277910000
| 27>  H        7.1192580000    -1.6467360000     0.6510620000
| 28>  H        5.1781880000    -2.9447120000     0.0515050000
| 29>  H        5.7817610000    -2.5906630000    -1.5973590000
| 30> *
| 31>
| 32>                          ****END OF INPUT****
 Total Charge           Charge          ....    0
 Multiplicity           Mult            ....    1
 Number of Electrons    NEL             ....   56
 Basis Dimension        Dim             ....  153

MULLIKEN ATOMIC CHARGES
-----------------------
   0 C :   -0.026481
   1 C :    0.142472
   2 O :   -0.309621
   3 C :   -0.030327
   4 C :    0.158018
   5 N :   -0.287423
   6 C :    0.151840
   7 H :    0.023974
   8 H :    0.032004
   9 H :    0.032869
  10 H :   -0.003748
  11 H :   -0.004087
  12 H :   -0.001957
  13 H :    0.005204
  14 H :    0.017041
  15 H :    0.097054
  16 H :   -0.004553
  17 H :    0.007720
Sum of atomic charges:    0.0000000

LOEWDIN ATOMIC CHARGES
----------------------
   0 C :   -0.075576
   1 C :    0.059968
   2 O :   -0.133404
   3 C :    0.039259
   4 C :    0.021750
   5 N :   -0.114134
   6 C :    0.007889
   7 H :    0.033144
   8 H :    0.030629
   9 H :    0.030775
  10 H :    0.005243
  11 H :    0.004342
  12 H :    0.007803
  13 H :    0.009664
  14 H :    0.012033
  15 H :    0.047174
  16 H :    0.005832
  17 H :    0.007611

  Mayer bond orders larger than 0.1
B(  0-C ,  1-C ) :   1.1224 B(  0-C ,  7-H ) :   0.9526 B(  0-C ,  8-H ) :   0.9627
B(  0-C ,  9-H ) :   0.9628 B(  1-C ,  2-O ) :   0.9972 B(  1-C , 10-H ) :   0.9282
B(  1-C , 11-H ) :   0.9315 B(  2-O ,  3-C ) :   1.0757 B(  3-C ,  4-C ) :   1.0548
B(  3-C ,  6-C ) :   1.0562 B(  3-C , 12-H ) :   0.8919 B(  4-C ,  5-N ) :   1.0323
B(  4-C , 13-H ) :   0.9170 B(  4-C , 14-H ) :   0.9366 B(  5-N ,  6-C ) :   1.0511
B(  5-N , 15-H ) :   0.9435 B(  6-C , 16-H ) :   0.9089 B(  6-C , 17-H ) :   0.9369

FINAL SINGLE POINT ENERGY      -326.417409531218

DIPOLE MOMENT
-------------
                                X             Y             Z
Electronic contribution:      3.70652       1.61517       0.98882
Nuclear contribution   :     -3.90377      -1.94574      -1.01947
                        -----------------------------------------
Total Dipole Moment    :     -0.19725      -0.33057      -0.03064
                        -----------------------------------------
Magnitude (a.u.)       :      0.38616
Magnitude (Debye)      :      0.98155

                             ****ORCA TERMINATED NORMALLY****
TOTAL RUN TIME: 0 days 0 hours 0 minutes 7 seconds 778 msec
