                         Program Version 3.0.3 - RELEASE   -
|  1> ! RI PBE def2-SVP def2-SVP/J NBO PAL2
|  2> % maxcore 2000
|  3> % output
|  4>     # printlevel mini
|  5>     print[ P_Basis ] 0
|  6>     print[ P_SCFInfo ] 1
|  7>     print[ P_SCFIterInfo ] 1
|  8>     print[ P_OrbEn ] 0
|  9>     print[ P_Cartesian ] 0
| 10> end
| 11> *xyz 0 1
| 12>  C        1.1000910000    -0.0895430000     1.6660630000
| 13>  C        2.3721310000    -0.4601840000     1.6883220000
| 14>  O        3.1990830000    -0.3020110000     0.6304830000
| 15>  C        4.5651530000    -0.4815380000     0.8843330000
| 16>  C        5.4453960000    -0.5346950000    -0.3622340000
| 17>  N        6.4424160000     0.2690650000     0.3669110000
| 18>  C        5.4039320000     0.7392650000     1.2994760000
| 19>  H        0.4757690000    -0.2759130000     2.5280560000
| 20>  H        0.6639660000     0.3869900000     0.7973280000
| 21>  H        2.8201130000    -0.9355140000     2.5598420000
| 22>  H        4.7227770000    -1.3383810000     1.5473790000
| 23>  H        4.9502240000    -0.0073990000    -1.1873370000
| 24>  H        5.7944210000    -1.5103000000    -0.7078020000
| 25>  H        6.9013260000     0.9893040000    -0.1745530000
| 26>  H        4.8963110000     1.6622080000     0.9911680000
| 27>  H        5.7211800000     0.8247760000     2.3417650000
| 28> *
| 29>
| 30>                          ****END OF INPUT****
 Total Charge           Charge          ....    0
 Multiplicity           Mult            ....    1
 Number of Electrons    NEL             ....   54
 Basis Dimension        Dim             ....  143

MULLIKEN ATOMIC CHARGES
-----------------------
   0 C :   -0.079356
   1 C :    0.096081
   2 O :   -0.231938
   3 C :   -0.042813
   4 C :    0.165644
   5 N :   -0.289486
   6 C :    0.167203
   7 H :    0.025904
   8 H :    0.027243
   9 H :   -0.001805
  10 H :    0.019027
  11 H :    0.008816
  12 H :    0.016548
  13 H :    0.100600
  14 H :    0.002426
  15 H :    0.015905
Sum of atomic charges:    0.0000000

LOEWDIN ATOMIC CHARGES
----------------------
   0 C :   -0.128727
   1 C :    0.031834
   2 O :   -0.062225
   3 C :    0.046829
   4 C :    0.025109
   5 N :   -0.113663
   6 C :    0.016343
   7 H :    0.031311
   8 H :    0.028540
   9 H :    0.011738
  10 H :    0.016226
  11 H :    0.011916
  12 H :    0.013291
  13 H :    0.049474
  14 H :    0.010351
  15 H :    0.011653

  Mayer bond orders larger than 0.1
B(  0-C ,  1-C ) :   1.9320 B(  0-C ,  7-H ) :   0.9359 B(  0-C ,  8-H ) :   0.9467
B(  1-C ,  2-O ) :   1.0993 B(  1-C ,  9-H ) :   0.9397 B(  2-O ,  3-C ) :   1.0237
B(  3-C ,  4-C ) :   1.0575 B(  3-C ,  6-C ) :   1.0572 B(  3-C , 10-H ) :   0.8977
B(  4-C ,  5-N ) :   1.0341 B(  4-C , 11-H ) :   0.9162 B(  4-C , 12-H ) :   0.9376
B(  5-N ,  6-C ) :   1.0438 B(  5-N , 13-H ) :   0.9418 B(  6-C , 14-H ) :   0.9114
B(  6-C , 15-H ) :   0.9383

FINAL SINGLE POINT ENERGY      -325.198966871885

DIPOLE MOMENT
-------------
                                X             Y             Z
Electronic contribution:      0.14322      -0.60347      -0.78119
Nuclear contribution   :      0.12259       0.76152       0.81330
                        -----------------------------------------
Total Dipole Moment    :      0.26581       0.15805       0.03210
                        -----------------------------------------
Magnitude (a.u.)       :      0.31091
Magnitude (Debye)      :      0.79027

                             ****ORCA TERMINATED NORMALLY****
TOTAL RUN TIME: 0 days 0 hours 0 minutes 7 seconds 489 msec
