                         Program Version 3.0.3 - RELEASE   -
|  1> ! RI PBE def2-SVP def2-SVP/J NBO PAL2
|  2> % maxcore 2000
|  3> % output
|  4>     # printlevel mini
|  5>     print[ P_Basis ] 0
|  6>     print[ P_SCFInfo ] 1
|  7>     print[ P_SCFIterInfo ] 1
|  8>     print[ P_OrbEn ] 0
|  9>     print[ P_Cartesian ] 0
| 10> end
| 11> *xyz 0 1
| 12>  C        2.9226510000    -0.7834900000    -1.1361330000
| 13>  C        2.2675380000     0.2725420000    -0.2918000000
| 14>  O        1.0750160000     0.2924390000    -0.1023230000
| 15>  C        3.1656600000     1.3194720000     0.3175230000
| 16>  C        2.7420800000     2.7937830000     0.1360090000
| 17>  N        3.0510730000     3.0416580000     1.5522520000
| 18>  C        2.9892330000     1.5981660000     1.8265070000
| 19>  H        2.1807590000    -1.4804090000    -1.5215040000
| 20>  H        3.6697100000    -1.3211570000    -0.5439450000
| 21>  H        3.4619810000    -0.3141920000    -1.9648220000
| 22>  H        4.2113270000     1.1602870000     0.0520260000
| 23>  H        1.6765680000     2.8562800000    -0.1124330000
| 24>  H        3.3238270000     3.3902300000    -0.5711710000
| 25>  H        2.3701740000     3.6022890000     2.0483210000
| 26>  H        2.0099030000     1.2437720000     2.1674710000
| 27>  H        3.7716110000     1.2241190000     2.4915230000
| 28> *
| 29>
| 30>                          ****END OF INPUT****
 Total Charge           Charge          ....    0
 Multiplicity           Mult            ....    1
 Number of Electrons    NEL             ....   54
 Basis Dimension        Dim             ....  143

MULLIKEN ATOMIC CHARGES
-----------------------
   0 C :    0.022514
   1 C :   -0.010190
   2 O :   -0.161954
   3 C :   -0.233403
   4 C :    0.193158
   5 N :   -0.282889
   6 C :    0.195146
   7 H :    0.034192
   8 H :    0.047906
   9 H :    0.045258
  10 H :    0.003812
  11 H :    0.007519
  12 H :    0.015994
  13 H :    0.097005
  14 H :    0.008159
  15 H :    0.017773
Sum of atomic charges:   -0.0000000

LOEWDIN ATOMIC CHARGES
----------------------
   0 C :   -0.086240
   1 C :    0.055519
   2 O :   -0.123308
   3 C :   -0.073434
   4 C :    0.047256
   5 N :   -0.114965
   6 C :    0.047397
   7 H :    0.036922
   8 H :    0.047545
   9 H :    0.047040
  10 H :    0.026555
  11 H :    0.008945
  12 H :    0.011907
  13 H :    0.047694
  14 H :    0.009008
  15 H :    0.012159

  Mayer bond orders larger than 0.1
B(  0-C ,  1-C ) :   1.0472 B(  0-C ,  7-H ) :   0.9450 B(  0-C ,  8-H ) :   0.9387
B(  0-C ,  9-H ) :   0.9384 B(  1-C ,  2-O ) :   2.1755 B(  1-C ,  3-C ) :   0.9034
B(  3-C ,  4-C ) :   1.0551 B(  3-C ,  6-C ) :   1.0536 B(  3-C , 10-H ) :   0.9019
B(  4-C ,  5-N ) :   1.0563 B(  4-C , 11-H ) :   0.9216 B(  4-C , 12-H ) :   0.9356
B(  5-N ,  6-C ) :   1.0543 B(  5-N , 13-H ) :   0.9444 B(  6-C , 14-H ) :   0.9226
B(  6-C , 15-H ) :   0.9361

FINAL SINGLE POINT ENERGY      -325.236303501400

DIPOLE MOMENT
-------------
                                X             Y             Z
Electronic contribution:     -2.67330       0.39001       0.67393
Nuclear contribution   :      3.20012      -0.52000      -0.84039
                        -----------------------------------------
Total Dipole Moment    :      0.52682      -0.12999      -0.16646
                        -----------------------------------------
Magnitude (a.u.)       :      0.56758
Magnitude (Debye)      :      1.44267

                             ****ORCA TERMINATED NORMALLY****
TOTAL RUN TIME: 0 days 0 hours 0 minutes 7 seconds 643 msec
