                         Program Version 3.0.3 - RELEASE   -
|  1> ! RI PBE def2-SVP def2-SVP/J NBO PAL2
|  2> % maxcore 2000
|  3> % output
|  4>     # printlevel mini
|  5>     print[ P_Basis ] 0
|  6>     print[ P_SCFInfo ] 1
|  7>     print[ P_SCFIterInfo ] 1
|  8>     print[ P_OrbEn ] 0
|  9>     print[ P_Cartesian ] 0
| 10> end
| 11> *xyz 0 1
| 12>  C        3.3014810000    -0.6520240000    -1.0721050000
| 13>  C        2.4731960000    -0.0495510000     0.0480530000
| 14>  O        1.0986400000    -0.3591480000    -0.1105380000
| 15>  C        3.0039270000    -0.4422430000     1.4143110000
| 16>  C        2.2062360000    -0.0502560000     2.6684600000
| 17>  N        2.5119220000    -1.3743400000     3.2395640000
| 18>  C        2.8527020000    -1.8942190000     1.9082000000
| 19>  H        2.9058660000    -0.3509770000    -2.0436420000
| 20>  H        3.2840850000    -1.7461790000    -1.0182990000
| 21>  H        4.3447530000    -0.3340910000    -1.0072140000
| 22>  H        2.5126610000     1.0431590000    -0.0259630000
| 23>  H        1.0159870000    -1.3128810000    -0.2018450000
| 24>  H        4.0447470000    -0.1190460000     1.4981230000
| 25>  H        1.1480040000     0.1029160000     2.4267940000
| 26>  H        2.5719900000     0.7945210000     3.2582500000
| 27>  H        1.7409560000    -1.8369650000     3.7032960000
| 28>  H        2.0242590000    -2.4194900000     1.4086670000
| 29>  H        3.7357700000    -2.5382870000     1.8790880000
| 30> *
| 31>
| 32>                          ****END OF INPUT****
 Total Charge           Charge          ....    0
 Multiplicity           Mult            ....    1
 Number of Electrons    NEL             ....   56
 Basis Dimension        Dim             ....  153

MULLIKEN ATOMIC CHARGES
-----------------------
   0 C :    0.011433
   1 C :    0.111026
   2 O :   -0.268967
   3 C :   -0.229774
   4 C :    0.194077
   5 N :   -0.278470
   6 C :    0.163109
   7 H :    0.027442
   8 H :    0.014217
   9 H :    0.015826
  10 H :    0.009047
  11 H :    0.144649
  12 H :    0.009851
  13 H :   -0.003473
  14 H :    0.005976
  15 H :    0.093033
  16 H :   -0.031786
  17 H :    0.012783
Sum of atomic charges:   -0.0000000

LOEWDIN ATOMIC CHARGES
----------------------
   0 C :   -0.076094
   1 C :    0.039511
   2 O :   -0.106379
   3 C :   -0.056664
   4 C :    0.030014
   5 N :   -0.112184
   6 C :    0.025281
   7 H :    0.029214
   8 H :    0.023939
   9 H :    0.031379
  10 H :    0.025782
  11 H :    0.056299
  12 H :    0.029801
  13 H :    0.004629
  14 H :    0.008431
  15 H :    0.045503
  16 H :   -0.008295
  17 H :    0.009834

  Mayer bond orders larger than 0.1
B(  0-C ,  1-C ) :   1.0939 B(  0-C ,  7-H ) :   0.9560 B(  0-C ,  8-H ) :   0.9537
B(  0-C ,  9-H ) :   0.9465 B(  1-C ,  2-O ) :   1.0350 B(  1-C ,  3-C ) :   0.9962
B(  1-C , 10-H ) :   0.9042 B(  2-O , 11-H ) :   0.9805 B(  3-C ,  4-C ) :   1.0639
B(  3-C ,  6-C ) :   1.0651 B(  3-C , 12-H ) :   0.8886 B(  4-C ,  5-N ) :   1.0524
B(  4-C , 13-H ) :   0.9174 B(  4-C , 14-H ) :   0.9344 B(  5-N ,  6-C ) :   1.0597
B(  5-N , 15-H ) :   0.9419 B(  6-C , 16-H ) :   0.9113 B(  6-C , 17-H ) :   0.9340

FINAL SINGLE POINT ENERGY      -326.426612160229

DIPOLE MOMENT
-------------
                                X             Y             Z
Electronic contribution:     -2.08214       0.56809       1.98679
Nuclear contribution   :      2.13946      -0.94567      -2.29162
                        -----------------------------------------
Total Dipole Moment    :      0.05732      -0.37758      -0.30483
                        -----------------------------------------
Magnitude (a.u.)       :      0.48864
Magnitude (Debye)      :      1.24203

                             ****ORCA TERMINATED NORMALLY****
TOTAL RUN TIME: 0 days 0 hours 0 minutes 8 seconds 54 msec
