                         Program Version 3.0.3 - RELEASE   -
|  1> ! RI PBE def2-SVP def2-SVP/J NBO PAL2
|  2> % maxcore 2000
|  3> % output
|  4>     # printlevel mini
|  5>     print[ P_Basis ] 0
|  6>     print[ P_SCFInfo ] 1
|  7>     print[ P_SCFIterInfo ] 1
|  8>     print[ P_OrbEn ] 0
|  9>     print[ P_Cartesian ] 0
| 10> end
| 11> *xyz 0 1
| 12>  C        2.6854160000     1.3558450000     0.3549740000
| 13>  C        2.4010430000    -0.1031920000     0.0588300000
| 14>  O        2.8257250000    -0.4669830000    -1.2429630000
| 15>  C        2.9811120000    -1.0145460000     1.1193610000
| 16>  N        3.1545100000    -2.4323340000     0.8398540000
| 17>  C        4.3361270000    -1.5858860000     1.0113810000
| 18>  C        5.1929370000    -1.8510620000     2.2121600000
| 19>  H        2.2125500000     1.9983900000    -0.3901530000
| 20>  H        3.7639460000     1.5463560000     0.3482830000
| 21>  H        2.3076740000     1.6361100000     1.3409100000
| 22>  H        1.3161200000    -0.2605470000     0.0454890000
| 23>  H        3.6949650000    -0.0851020000    -1.3936950000
| 24>  H        2.6012820000    -0.8077750000     2.1187090000
| 25>  H        2.9952610000    -2.5762350000    -0.1543940000
| 26>  H        4.8831210000    -1.3492150000     0.1002600000
| 27>  H        4.5703150000    -2.0961810000     3.0745340000
| 28>  H        5.8040220000    -0.9791960000     2.4616070000
| 29>  H        5.8638820000    -2.6953280000     2.0328430000
| 30> *
| 31>
| 32>                          ****END OF INPUT****
 Total Charge           Charge          ....    0
 Multiplicity           Mult            ....    1
 Number of Electrons    NEL             ....   56
 Basis Dimension        Dim             ....  153

MULLIKEN ATOMIC CHARGES
-----------------------
   0 C :    0.007471
   1 C :    0.132472
   2 O :   -0.276623
   3 C :   -0.049411
   4 N :   -0.154059
   5 C :   -0.150664
   6 C :    0.103358
   7 H :    0.032520
   8 H :    0.010129
   9 H :    0.021925
  10 H :    0.017529
  11 H :    0.155445
  12 H :    0.004611
  13 H :    0.098722
  14 H :   -0.006231
  15 H :    0.012076
  16 H :    0.017480
  17 H :    0.023251
Sum of atomic charges:    0.0000000

LOEWDIN ATOMIC CHARGES
----------------------
   0 C :   -0.074140
   1 C :    0.036053
   2 O :   -0.102009
   3 C :   -0.026436
   4 N :   -0.098418
   5 C :   -0.014198
   6 C :   -0.062328
   7 H :    0.030135
   8 H :    0.023414
   9 H :    0.034779
  10 H :    0.027701
  11 H :    0.065427
  12 H :    0.019002
  13 H :    0.046913
  14 H :    0.003110
  15 H :    0.032158
  16 H :    0.027851
  17 H :    0.030983

  Mayer bond orders larger than 0.1
B(  0-C ,  1-C ) :   1.1014 B(  0-C ,  7-H ) :   0.9527 B(  0-C ,  8-H ) :   0.9527
B(  0-C ,  9-H ) :   0.9477 B(  1-C ,  2-O ) :   1.0290 B(  1-C ,  3-C ) :   0.9778
B(  1-C , 10-H ) :   0.9000 B(  2-O , 11-H ) :   0.9799 B(  3-C ,  4-N ) :   1.0000
B(  3-C ,  5-C ) :   1.0028 B(  3-C , 12-H ) :   0.9189 B(  4-N ,  5-C ) :   0.9960
B(  4-N , 13-H ) :   0.9292 B(  5-C ,  6-C ) :   1.0758 B(  5-C , 14-H ) :   0.9278
B(  6-C , 15-H ) :   0.9432 B(  6-C , 16-H ) :   0.9590 B(  6-C , 17-H ) :   0.9520

FINAL SINGLE POINT ENERGY      -326.433100385398

DIPOLE MOMENT
-------------
                                X             Y             Z
Electronic contribution:     -2.30891      -2.57573      -3.06515
Nuclear contribution   :      2.73065       3.41994       2.98023
                        -----------------------------------------
Total Dipole Moment    :      0.42174       0.84420      -0.08491
                        -----------------------------------------
Magnitude (a.u.)       :      0.94750
Magnitude (Debye)      :      2.40835

                             ****ORCA TERMINATED NORMALLY****
TOTAL RUN TIME: 0 days 0 hours 0 minutes 7 seconds 943 msec
