                         Program Version 3.0.3 - RELEASE   -
|  1> ! RI PBE def2-SVP def2-SVP/J NBO PAL2
|  2> % maxcore 2000
|  3> % output
|  4>     # printlevel mini
|  5>     print[ P_Basis ] 0
|  6>     print[ P_SCFInfo ] 1
|  7>     print[ P_SCFIterInfo ] 1
|  8>     print[ P_OrbEn ] 0
|  9>     print[ P_Cartesian ] 0
| 10> end
| 11> *xyz 0 1
| 12>  C        3.2444040000     0.6907330000    -1.2701590000
| 13>  C        2.4949100000    -0.0066850000    -0.1520910000
| 14>  O        2.4982940000    -1.4171710000    -0.3463020000
| 15>  C        2.9432180000     0.3001800000     1.2664790000
| 16>  N        2.1218950000    -0.2677990000     2.3015650000
| 17>  C        4.4111700000     0.3401680000     1.5879520000
| 18>  C        3.5912730000     1.5976060000     1.6257470000
| 19>  H        2.8479900000     0.3525840000    -2.2288250000
| 20>  H        4.3129900000     0.4573720000    -1.2498220000
| 21>  H        3.1304840000     1.7751820000    -1.2197060000
| 22>  H        1.4356450000     0.2676290000    -0.2231950000
| 23>  H        3.4096740000    -1.7152350000    -0.2591590000
| 24>  H        1.9576350000    -1.2472750000     2.0954000000
| 25>  H        1.2148570000     0.1860660000     2.3142040000
| 26>  H        5.1333210000     0.2375740000     0.7868080000
| 27>  H        4.7032950000    -0.0963470000     2.5336990000
| 28>  H        3.7611890000     2.3336600000     0.8510110000
| 29>  H        3.3442760000     2.0014790000     2.5991950000
| 30> *
| 31>
| 32>                          ****END OF INPUT****
 Total Charge           Charge          ....    0
 Multiplicity           Mult            ....    1
 Number of Electrons    NEL             ....   56
 Basis Dimension        Dim             ....  153

MULLIKEN ATOMIC CHARGES
-----------------------
   0 C :   -0.008759
   1 C :    0.190538
   2 O :   -0.279153
   3 C :   -0.246633
   4 N :   -0.117199
   5 C :   -0.023073
   6 C :    0.007037
   7 H :    0.023327
   8 H :    0.010958
   9 H :    0.028856
  10 H :   -0.014160
  11 H :    0.147560
  12 H :    0.085144
  13 H :    0.085318
  14 H :    0.029112
  15 H :    0.029076
  16 H :    0.026554
  17 H :    0.025497
Sum of atomic charges:    0.0000000

LOEWDIN ATOMIC CHARGES
----------------------
   0 C :   -0.080067
   1 C :    0.040366
   2 O :   -0.114347
   3 C :   -0.049437
   4 N :   -0.076287
   5 C :   -0.049597
   6 C :   -0.040761
   7 H :    0.032224
   8 H :    0.022964
   9 H :    0.031007
  10 H :    0.019012
  11 H :    0.064261
  12 H :    0.048151
  13 H :    0.052171
  14 H :    0.018093
  15 H :    0.029310
  16 H :    0.023397
  17 H :    0.029539

  Mayer bond orders larger than 0.1
B(  0-C ,  1-C ) :   1.0908 B(  0-C ,  7-H ) :   0.9447 B(  0-C ,  8-H ) :   0.9455
B(  0-C ,  9-H ) :   0.9434 B(  1-C ,  2-O ) :   1.0063 B(  1-C ,  3-C ) :   0.9712
B(  1-C , 10-H ) :   0.8939 B(  2-O , 11-H ) :   0.9800 B(  3-C ,  4-N ) :   1.1541
B(  3-C ,  5-C ) :   0.9507 B(  3-C ,  6-C ) :   0.9792 B(  4-N , 12-H ) :   0.9593
B(  4-N , 13-H ) :   0.9660 B(  5-C ,  6-C ) :   1.0380 B(  5-C , 14-H ) :   0.9489
B(  5-C , 15-H ) :   0.9302 B(  6-C , 16-H ) :   0.9371 B(  6-C , 17-H ) :   0.9292

FINAL SINGLE POINT ENERGY      -326.435430169284

DIPOLE MOMENT
-------------
                                X             Y             Z
Electronic contribution:     -1.72184      -2.69231       1.20349
Nuclear contribution   :      1.87694       2.89316      -1.46592
                        -----------------------------------------
Total Dipole Moment    :      0.15510       0.20085      -0.26243
                        -----------------------------------------
Magnitude (a.u.)       :      0.36506
Magnitude (Debye)      :      0.92790

                             ****ORCA TERMINATED NORMALLY****
TOTAL RUN TIME: 0 days 0 hours 0 minutes 8 seconds 141 msec
