                         Program Version 3.0.3 - RELEASE   -
|  1> ! RI PBE def2-SVP def2-SVP/J NBO PAL2
|  2> % maxcore 2000
|  3> % output
|  4>     # printlevel mini
|  5>     print[ P_Basis ] 0
|  6>     print[ P_SCFInfo ] 1
|  7>     print[ P_SCFIterInfo ] 1
|  8>     print[ P_OrbEn ] 0
|  9>     print[ P_Cartesian ] 0
| 10> end
| 11> *xyz 0 1
| 12>  C        1.4419710000     0.5519630000    -0.7129000000
| 13>  C        2.7508790000     0.3149450000    -0.0039890000
| 14>  O        3.3367160000     1.5573960000     0.3026860000
| 15>  C        4.5599460000     1.4373130000     0.9769360000
| 16>  C        5.0948400000     2.8004360000     1.3133320000
| 17>  C        4.8595610000     3.9525880000     0.4278500000
| 18>  N        4.1881880000     3.8598280000     1.7269000000
| 19>  H        0.9693820000    -0.4005830000    -0.9616640000
| 20>  H        1.5999300000     1.1101330000    -1.6376360000
| 21>  H        0.7578670000     1.1206760000    -0.0801520000
| 22>  H        3.4334760000    -0.2717490000    -0.6372890000
| 23>  H        2.5925110000    -0.2600090000     0.9210970000
| 24>  H        5.2919660000     0.8946220000     0.3580070000
| 25>  H        4.4228970000     0.8571820000     1.9040510000
| 26>  H        6.0221040000     2.7639480000     1.8800470000
| 27>  H        4.2655550000     3.7818110000    -0.4630690000
| 28>  H        5.6057000000     4.7359840000     0.3507900000
| 29>  H        3.2354450000     3.5426970000     1.5721960000
| 30> *
| 31>
| 32>                          ****END OF INPUT****
 Total Charge           Charge          ....    0
 Multiplicity           Mult            ....    1
 Number of Electrons    NEL             ....   56
 Basis Dimension        Dim             ....  153

MULLIKEN ATOMIC CHARGES
-----------------------
   0 C :   -0.025298
   1 C :    0.124537
   2 O :   -0.356971
   3 C :    0.241050
   4 C :   -0.122002
   5 C :    0.037835
   6 N :   -0.201566
   7 H :    0.023238
   8 H :    0.034400
   9 H :    0.036140
  10 H :    0.003839
  11 H :    0.002295
  12 H :    0.004004
  13 H :    0.003870
  14 H :    0.023730
  15 H :    0.030486
  16 H :    0.033879
  17 H :    0.106535
Sum of atomic charges:    0.0000000

LOEWDIN ATOMIC CHARGES
----------------------
   0 C :   -0.074780
   1 C :    0.058844
   2 O :   -0.145293
   3 C :    0.055499
   4 C :   -0.024976
   5 C :   -0.000591
   6 N :   -0.104723
   7 H :    0.034332
   8 H :    0.031422
   9 H :    0.031354
  10 H :    0.006846
  11 H :    0.006458
  12 H :    0.011348
  13 H :    0.009924
  14 H :    0.024113
  15 H :    0.014400
  16 H :    0.018738
  17 H :    0.047085

  Mayer bond orders larger than 0.1
B(  0-C ,  1-C ) :   1.1219 B(  0-C ,  7-H ) :   0.9512 B(  0-C ,  8-H ) :   0.9625
B(  0-C ,  9-H ) :   0.9643 B(  1-C ,  2-O ) :   0.9932 B(  1-C , 10-H ) :   0.9338
B(  1-C , 11-H ) :   0.9319 B(  2-O ,  3-C ) :   1.0084 B(  3-C ,  4-C ) :   1.0398
B(  3-C , 12-H ) :   0.9208 B(  3-C , 13-H ) :   0.9194 B(  4-C ,  5-C ) :   1.0618
B(  4-C ,  6-N ) :   1.0154 B(  4-C , 14-H ) :   0.9212 B(  5-C ,  6-N ) :   0.9964
B(  5-C , 15-H ) :   0.9394 B(  5-C , 16-H ) :   0.9436 B(  6-N , 17-H ) :   0.9452

FINAL SINGLE POINT ENERGY      -326.415030173564

DIPOLE MOMENT
-------------
                                X             Y             Z
Electronic contribution:      2.35201       3.30669       2.29070
Nuclear contribution   :     -2.45244      -4.22309      -2.73330
                        -----------------------------------------
Total Dipole Moment    :     -0.10043      -0.91640      -0.44261
                        -----------------------------------------
Magnitude (a.u.)       :      1.02263
Magnitude (Debye)      :      2.59933

                             ****ORCA TERMINATED NORMALLY****
TOTAL RUN TIME: 0 days 0 hours 0 minutes 7 seconds 562 msec
