                         Program Version 3.0.3 - RELEASE   -
|  1> ! RI PBE def2-SVP def2-SVP/J NBO PAL2
|  2> % maxcore 2000
|  3> % output
|  4>     # printlevel mini
|  5>     print[ P_Basis ] 0
|  6>     print[ P_SCFInfo ] 1
|  7>     print[ P_SCFIterInfo ] 1
|  8>     print[ P_OrbEn ] 0
|  9>     print[ P_Cartesian ] 0
| 10> end
| 11> *xyz 0 1
| 12>  C        2.8998360000     0.1054070000    -0.7473140000
| 13>  C        2.5579300000     0.6360690000     0.4220820000
| 14>  O        3.2402550000     0.5961880000     1.5822730000
| 15>  C        4.4684160000    -0.0986630000     1.5798190000
| 16>  C        5.0682730000    -0.0539060000     2.9550570000
| 17>  C        4.8680090000     1.0984960000     3.8484350000
| 18>  N        4.2317110000    -0.1892620000     4.1359370000
| 19>  H        2.2312330000     0.2315630000    -1.5872690000
| 20>  H        3.8136780000    -0.4487960000    -0.9103760000
| 21>  H        1.6330590000     1.1878230000     0.5518540000
| 22>  H        5.1544800000     0.3553820000     0.8527670000
| 23>  H        4.2965470000    -1.1401420000     1.2759020000
| 24>  H        6.0081040000    -0.5975750000     3.0150210000
| 25>  H        4.2411510000     1.9069550000     3.4886870000
| 26>  H        5.6522480000     1.3880920000     4.5392520000
| 27>  H        3.2562620000    -0.1411190000     3.8566840000
| 28> *
| 29>
| 30>                          ****END OF INPUT****
 Total Charge           Charge          ....    0
 Multiplicity           Mult            ....    1
 Number of Electrons    NEL             ....   54
 Basis Dimension        Dim             ....  143

MULLIKEN ATOMIC CHARGES
-----------------------
   0 C :   -0.115389
   1 C :    0.107767
   2 O :   -0.270910
   3 C :    0.211068
   4 C :   -0.129134
   5 C :    0.046361
   6 N :   -0.198725
   7 H :    0.030265
   8 H :    0.030026
   9 H :    0.015990
  10 H :    0.030338
  11 H :    0.032188
  12 H :    0.029198
  13 H :    0.035962
  14 H :    0.035951
  15 H :    0.109044
Sum of atomic charges:    0.0000000

LOEWDIN ATOMIC CHARGES
----------------------
   0 C :   -0.150972
   1 C :    0.033029
   2 O :   -0.064587
   3 C :    0.065093
   4 C :   -0.024056
   5 C :    0.002150
   6 N :   -0.101685
   7 H :    0.034545
   8 H :    0.023869
   9 H :    0.024961
  10 H :    0.022773
  11 H :    0.021596
  12 H :    0.027100
  13 H :    0.016194
  14 H :    0.020498
  15 H :    0.049490

  Mayer bond orders larger than 0.1
B(  0-C ,  1-C ) :   1.8700 B(  0-C ,  7-H ) :   0.9369 B(  0-C ,  8-H ) :   0.9512
B(  1-C ,  2-O ) :   1.1461 B(  1-C ,  9-H ) :   0.9638 B(  2-O ,  3-C ) :   0.9666
B(  3-C ,  4-C ) :   1.0397 B(  3-C , 10-H ) :   0.9243 B(  3-C , 11-H ) :   0.9254
B(  4-C ,  5-C ) :   1.0607 B(  4-C ,  6-N ) :   1.0171 B(  4-C , 12-H ) :   0.9215
B(  5-C ,  6-N ) :   0.9930 B(  5-C , 13-H ) :   0.9400 B(  5-C , 14-H ) :   0.9434
B(  6-N , 15-H ) :   0.9466

FINAL SINGLE POINT ENERGY      -325.198714140374

DIPOLE MOMENT
-------------
                                X             Y             Z
Electronic contribution:     -1.07921       0.15907       1.87989
Nuclear contribution   :      1.13613       0.02598      -2.47279
                        -----------------------------------------
Total Dipole Moment    :      0.05691       0.18504      -0.59290
                        -----------------------------------------
Magnitude (a.u.)       :      0.62371
Magnitude (Debye)      :      1.58534

                             ****ORCA TERMINATED NORMALLY****
TOTAL RUN TIME: 0 days 0 hours 0 minutes 7 seconds 50 msec
