                         Program Version 3.0.3 - RELEASE   -
|  1> ! RI PBE def2-SVP def2-SVP/J NBO PAL2
|  2> % maxcore 2000
|  3> % output
|  4>     # printlevel mini
|  5>     print[ P_Basis ] 0
|  6>     print[ P_SCFInfo ] 1
|  7>     print[ P_SCFIterInfo ] 1
|  8>     print[ P_OrbEn ] 0
|  9>     print[ P_Cartesian ] 0
| 10> end
| 11> *xyz 0 1
| 12>  C        1.1417520000    -0.1521220000     0.4548770000
| 13>  C        2.5783150000     0.2957430000     0.5112380000
| 14>  O        2.9837720000     1.0343340000     1.3725070000
| 15>  C        3.4830400000    -0.2329890000    -0.5835550000
| 16>  C        4.9380800000     0.0472390000    -0.3609360000
| 17>  C        5.8062440000    -0.9714850000     0.2530070000
| 18>  N        5.9404910000    -0.6421290000    -1.1660960000
| 19>  H        0.5404100000     0.4336600000     1.1477760000
| 20>  H        1.0833580000    -1.2085730000     0.7353900000
| 21>  H        0.7415610000    -0.0689450000    -0.5586710000
| 22>  H        3.1426620000     0.2252160000    -1.5232390000
| 23>  H        3.3044320000    -1.3092380000    -0.7027550000
| 24>  H        5.1715640000     1.0895120000    -0.1718240000
| 25>  H        5.3536100000    -1.9206150000     0.5258930000
| 26>  H        6.6401560000    -0.6701160000     0.8765610000
| 27>  H        5.5025440000    -1.3611020000    -1.7333850000
| 28> *
| 29>
| 30>                          ****END OF INPUT****
 Total Charge           Charge          ....    0
 Multiplicity           Mult            ....    1
 Number of Electrons    NEL             ....   54
 Basis Dimension        Dim             ....  143

MULLIKEN ATOMIC CHARGES
-----------------------
   0 C :    0.021358
   1 C :   -0.064932
   2 O :   -0.155873
   3 C :    0.084949
   4 C :   -0.114786
   5 C :    0.039003
   6 N :   -0.181801
   7 H :    0.041680
   8 H :    0.048984
   9 H :    0.037482
  10 H :    0.040456
  11 H :    0.003699
  12 H :    0.034308
  13 H :    0.022187
  14 H :    0.041761
  15 H :    0.101524
Sum of atomic charges:   -0.0000000

LOEWDIN ATOMIC CHARGES
----------------------
   0 C :   -0.089104
   1 C :    0.059201
   2 O :   -0.115775
   3 C :   -0.079109
   4 C :   -0.003892
   5 C :    0.004328
   6 N :   -0.101799
   7 H :    0.040698
   8 H :    0.050050
   9 H :    0.040972
  10 H :    0.048243
  11 H :    0.035079
  12 H :    0.026371
  13 H :    0.012005
  14 H :    0.023996
  15 H :    0.048735

  Mayer bond orders larger than 0.1
B(  0-C ,  1-C ) :   1.0381 B(  0-C ,  7-H ) :   0.9458 B(  0-C ,  8-H ) :   0.9369
B(  0-C ,  9-H ) :   0.9486 B(  1-C ,  2-O ) :   2.2001 B(  1-C ,  3-C ) :   0.9246
B(  3-C ,  4-C ) :   1.0554 B(  3-C , 10-H ) :   0.8913 B(  3-C , 11-H ) :   0.9016
B(  4-C ,  5-C ) :   1.0561 B(  4-C ,  6-N ) :   0.9939 B(  4-C , 12-H ) :   0.9323
B(  5-C ,  6-N ) :   1.0115 B(  5-C , 13-H ) :   0.9400 B(  5-C , 14-H ) :   0.9448
B(  6-N , 15-H ) :   0.9484

FINAL SINGLE POINT ENERGY      -325.233758605033

DIPOLE MOMENT
-------------
                                X             Y             Z
Electronic contribution:      1.79203       2.80749       1.47638
Nuclear contribution   :     -2.68326      -3.67554      -1.94462
                        -----------------------------------------
Total Dipole Moment    :     -0.89123      -0.86805      -0.46824
                        -----------------------------------------
Magnitude (a.u.)       :      1.32930
Magnitude (Debye)      :      3.37882

                             ****ORCA TERMINATED NORMALLY****
TOTAL RUN TIME: 0 days 0 hours 0 minutes 7 seconds 240 msec
