                         Program Version 3.0.3 - RELEASE   -
|  1> ! RI PBE def2-SVP def2-SVP/J NBO PAL2
|  2> % maxcore 2000
|  3> % output
|  4>     # printlevel mini
|  5>     print[ P_Basis ] 0
|  6>     print[ P_SCFInfo ] 1
|  7>     print[ P_SCFIterInfo ] 1
|  8>     print[ P_OrbEn ] 0
|  9>     print[ P_Cartesian ] 0
| 10> end
| 11> *xyz 0 1
| 12>  C        2.9496250000     1.5619130000     0.1272310000
| 13>  C        2.5527820000     0.0987650000     0.0486180000
| 14>  O        2.9577060000    -0.4773210000    -1.1820470000
| 15>  C        3.0465640000    -0.7308690000     1.2358670000
| 16>  C        4.5416270000    -0.8590270000     1.3033710000
| 17>  C        5.1766370000    -2.0847810000     1.8179130000
| 18>  N        5.2320710000    -1.7762080000     0.3911690000
| 19>  H        2.5388370000     2.1047240000    -0.7256320000
| 20>  H        4.0370520000     1.6806050000     0.1097590000
| 21>  H        2.5757050000     2.0240570000     1.0443890000
| 22>  H        1.4599470000     0.0368610000     0.0329220000
| 23>  H        3.9138900000    -0.3874560000    -1.2526230000
| 24>  H        2.6086850000    -1.7326430000     1.1602440000
| 25>  H        2.6704480000    -0.2863160000     2.1644840000
| 26>  H        5.0862460000     0.0701400000     1.4517020000
| 27>  H        4.5232140000    -2.8872440000     2.1471280000
| 28>  H        6.1262800000    -2.0281450000     2.3384810000
| 29>  H        4.5415020000    -2.3341640000    -0.1022850000
| 30> *
| 31>
| 32>                          ****END OF INPUT****
 Total Charge           Charge          ....    0
 Multiplicity           Mult            ....    1
 Number of Electrons    NEL             ....   56
 Basis Dimension        Dim             ....  153

MULLIKEN ATOMIC CHARGES
-----------------------
   0 C :   -0.006780
   1 C :    0.045615
   2 O :   -0.280990
   3 C :    0.133030
   4 C :   -0.151483
   5 C :    0.035026
   6 N :   -0.212595
   7 H :    0.033366
   8 H :    0.021382
   9 H :    0.015295
  10 H :    0.012471
  11 H :    0.158839
  12 H :   -0.011337
  13 H :    0.010678
  14 H :    0.025672
  15 H :    0.030203
  16 H :    0.035052
  17 H :    0.106556
Sum of atomic charges:   -0.0000000

LOEWDIN ATOMIC CHARGES
----------------------
   0 C :   -0.079973
   1 C :    0.041205
   2 O :   -0.111878
   3 C :   -0.058702
   4 C :   -0.015428
   5 C :    0.003388
   6 N :   -0.112772
   7 H :    0.032156
   8 H :    0.024050
   9 H :    0.029633
  10 H :    0.023947
  11 H :    0.062823
  12 H :    0.026470
  13 H :    0.032379
  14 H :    0.019308
  15 H :    0.015533
  16 H :    0.021590
  17 H :    0.046272

  Mayer bond orders larger than 0.1
B(  0-C ,  1-C ) :   1.0864 B(  0-C ,  7-H ) :   0.9542 B(  0-C ,  8-H ) :   0.9540
B(  0-C ,  9-H ) :   0.9492 B(  1-C ,  2-O ) :   1.0493 B(  1-C ,  3-C ) :   1.0326
B(  1-C , 10-H ) :   0.9143 B(  2-O , 11-H ) :   0.9755 B(  3-C ,  4-C ) :   1.0539
B(  3-C , 12-H ) :   0.8913 B(  3-C , 13-H ) :   0.9084 B(  4-C ,  5-C ) :   1.0533
B(  4-C ,  6-N ) :   0.9657 B(  4-C , 14-H ) :   0.9359 B(  5-C ,  6-N ) :   1.0122
B(  5-C , 15-H ) :   0.9424 B(  5-C , 16-H ) :   0.9398 B(  6-N , 17-H ) :   0.9366

FINAL SINGLE POINT ENERGY      -326.425942885904

DIPOLE MOMENT
-------------
                                X             Y             Z
Electronic contribution:      1.00648      -2.50520      -2.14113
Nuclear contribution   :     -1.21274       2.65706       2.78081
                        -----------------------------------------
Total Dipole Moment    :     -0.20626       0.15187       0.63969
                        -----------------------------------------
Magnitude (a.u.)       :      0.68906
Magnitude (Debye)      :      1.75145

                             ****ORCA TERMINATED NORMALLY****
TOTAL RUN TIME: 0 days 0 hours 0 minutes 8 seconds 11 msec
