                         Program Version 3.0.3 - RELEASE   -
|  1> ! RI PBE def2-SVP def2-SVP/J NBO PAL2
|  2> % maxcore 2000
|  3> % output
|  4>     # printlevel mini
|  5>     print[ P_Basis ] 0
|  6>     print[ P_SCFInfo ] 1
|  7>     print[ P_SCFIterInfo ] 1
|  8>     print[ P_OrbEn ] 0
|  9>     print[ P_Cartesian ] 0
| 10> end
| 11> *xyz 0 1
| 12>  C        1.0967740000     0.1083540000    -0.0711580000
| 13>  C        2.6035990000     0.0536540000    -0.0756220000
| 14>  O        3.1075960000     1.2964550000     0.3422360000
| 15>  C        4.5127530000     1.3351020000     0.3737340000
| 16>  C        4.9725100000     2.7021480000     0.8235000000
| 17>  C        4.6174250000     3.8122540000    -0.1478890000
| 18>  N        5.1325130000     5.0875540000     0.3342050000
| 19>  H        0.6805980000    -0.8487190000    -0.3932020000
| 20>  H        0.7381730000     0.8860630000    -0.7483320000
| 21>  H        0.7231510000     0.3278580000     0.9308900000
| 22>  H        2.9783920000    -0.1839890000    -1.0837500000
| 23>  H        2.9629630000    -0.7419240000     0.5963220000
| 24>  H        4.9170470000     1.1063400000    -0.6263750000
| 25>  H        4.8934780000     0.5627090000     1.0598230000
| 26>  H        6.0578820000     2.6854820000     0.9620640000
| 27>  H        4.5296400000     2.9138590000     1.8038530000
| 28>  H        3.5320270000     3.8048800000    -0.3174370000
| 29>  H        5.0910580000     3.6030940000    -1.1137000000
| 30>  H        4.6794930000     5.3357560000     1.2063310000
| 31>  H        4.9171280000     5.8274700000    -0.3224040000
| 32> *
| 33>
| 34>                          ****END OF INPUT****
 Total Charge           Charge          ....    0
 Multiplicity           Mult            ....    1
 Number of Electrons    NEL             ....   58
 Basis Dimension        Dim             ....  163

MULLIKEN ATOMIC CHARGES
-----------------------
   0 C :   -0.013101
   1 C :    0.139115
   2 O :   -0.351845
   3 C :    0.172844
   4 C :   -0.024298
   5 C :    0.059874
   6 N :   -0.214119
   7 H :    0.016595
   8 H :    0.030213
   9 H :    0.027055
  10 H :   -0.011803
  11 H :   -0.007325
  12 H :   -0.015675
  13 H :   -0.005533
  14 H :    0.017214
  15 H :    0.008117
  16 H :    0.005763
  17 H :   -0.006287
  18 H :    0.086471
  19 H :    0.086723
Sum of atomic charges:   -0.0000000

LOEWDIN ATOMIC CHARGES
----------------------
   0 C :   -0.072935
   1 C :    0.057094
   2 O :   -0.150925
   3 C :    0.062467
   4 C :   -0.059075
   5 C :    0.004939
   6 N :   -0.117162
   7 H :    0.031226
   8 H :    0.029530
   9 H :    0.029001
  10 H :    0.001784
  11 H :    0.002547
  12 H :    0.001601
  13 H :    0.004767
  14 H :    0.032003
  15 H :    0.024108
  16 H :    0.001466
  17 H :    0.016907
  18 H :    0.048965
  19 H :    0.051694

  Mayer bond orders larger than 0.1
B(  0-C ,  1-C ) :   1.1144 B(  0-C ,  7-H ) :   0.9531 B(  0-C ,  8-H ) :   0.9654
B(  0-C ,  9-H ) :   0.9647 B(  1-C ,  2-O ) :   1.0099 B(  1-C , 10-H ) :   0.9289
B(  1-C , 11-H ) :   0.9299 B(  2-O ,  3-C ) :   1.0063 B(  3-C ,  4-C ) :   1.0857
B(  3-C , 12-H ) :   0.9193 B(  3-C , 13-H ) :   0.9262 B(  4-C ,  5-C ) :   1.0993
B(  4-C , 14-H ) :   0.9188 B(  4-C , 15-H ) :   0.9264 B(  5-C ,  6-N ) :   1.0879
B(  5-C , 16-H ) :   0.9345 B(  5-C , 17-H ) :   0.9297 B(  6-N , 18-H ) :   0.9693
B(  6-N , 19-H ) :   0.9654

FINAL SINGLE POINT ENERGY      -327.643571428201

DIPOLE MOMENT
-------------
                                X             Y             Z
Electronic contribution:      1.11911       1.36926       0.74534
Nuclear contribution   :     -1.40883      -1.54395      -0.87954
                        -----------------------------------------
Total Dipole Moment    :     -0.28972      -0.17469      -0.13420
                        -----------------------------------------
Magnitude (a.u.)       :      0.36395
Magnitude (Debye)      :      0.92510

                             ****ORCA TERMINATED NORMALLY****
TOTAL RUN TIME: 0 days 0 hours 0 minutes 8 seconds 7 msec
