                         Program Version 3.0.3 - RELEASE   -
|  1> ! RI PBE def2-SVP def2-SVP/J NBO PAL2
|  2> % maxcore 2000
|  3> % output
|  4>     # printlevel mini
|  5>     print[ P_Basis ] 0
|  6>     print[ P_SCFInfo ] 1
|  7>     print[ P_SCFIterInfo ] 1
|  8>     print[ P_OrbEn ] 0
|  9>     print[ P_Cartesian ] 0
| 10> end
| 11> *xyz 0 1
| 12>  C        1.3970920000     0.9864100000    -0.0702630000
| 13>  C        2.6672280000     0.6951100000    -0.2804110000
| 14>  O        3.3998390000     0.0088130000     0.6474220000
| 15>  C        4.6803900000    -0.2554070000     0.3757070000
| 16>  C        5.4485800000    -0.9220890000     1.2424000000
| 17>  C        6.8029740000    -1.1969530000     0.9454180000
| 18>  N        7.9098550000    -1.4300980000     0.7199590000
| 19>  H        0.8464560000     1.5301820000    -0.8240860000
| 20>  H        0.8910580000     0.6938430000     0.8405190000
| 21>  H        3.2094360000     0.9711200000    -1.1803740000
| 22>  H        5.0605110000     0.0978040000    -0.5797170000
| 23>  H        5.0493710000    -1.2652250000     2.1894260000
| 24> *
| 25>
| 26>                          ****END OF INPUT****
 Total Charge           Charge          ....    0
 Multiplicity           Mult            ....    1
 Number of Electrons    NEL             ....   50
 Basis Dimension        Dim             ....  123

MULLIKEN ATOMIC CHARGES
-----------------------
   0 C :   -0.057634
   1 C :    0.095413
   2 O :   -0.175204
   3 C :    0.153872
   4 C :   -0.111651
   5 C :   -0.123507
   6 N :    0.026060
   7 H :    0.046146
   8 H :    0.046519
   9 H :    0.018955
  10 H :    0.027320
  11 H :    0.053711
Sum of atomic charges:   -0.0000000

LOEWDIN ATOMIC CHARGES
----------------------
   0 C :   -0.087409
   1 C :    0.043115
   2 O :    0.011085
   3 C :    0.080250
   4 C :   -0.116235
   5 C :   -0.049061
   6 N :   -0.067408
   7 H :    0.041570
   8 H :    0.038316
   9 H :    0.021250
  10 H :    0.027537
  11 H :    0.056991

  Mayer bond orders larger than 0.1
B(  0-C ,  1-C ) :   1.9477 B(  0-C ,  7-H ) :   0.9347 B(  0-C ,  8-H ) :   0.9479
B(  1-C ,  2-O ) :   1.0430 B(  1-C ,  9-H ) :   0.9463 B(  2-O ,  3-C ) :   1.1432
B(  3-C ,  4-C ) :   1.7233 B(  3-C , 10-H ) :   0.9522 B(  4-C ,  5-C ) :   1.1296
B(  4-C , 11-H ) :   0.9458 B(  5-C ,  6-N ) :   2.9508

FINAL SINGLE POINT ENERGY      -322.814184826324

DIPOLE MOMENT
-------------
                                X             Y             Z
Electronic contribution:      5.55364      -2.51163       1.57983
Nuclear contribution   :     -7.20819       3.19101      -1.91988
                        -----------------------------------------
Total Dipole Moment    :     -1.65455       0.67938      -0.34004
                        -----------------------------------------
Magnitude (a.u.)       :      1.82063
Magnitude (Debye)      :      4.62769

                             ****ORCA TERMINATED NORMALLY****
TOTAL RUN TIME: 0 days 0 hours 0 minutes 5 seconds 669 msec
