                         Program Version 3.0.3 - RELEASE   -
|  1> ! RI PBE def2-SVP def2-SVP/J NBO PAL2
|  2> % maxcore 2000
|  3> % output
|  4>     # printlevel mini
|  5>     print[ P_Basis ] 0
|  6>     print[ P_SCFInfo ] 1
|  7>     print[ P_SCFIterInfo ] 1
|  8>     print[ P_OrbEn ] 0
|  9>     print[ P_Cartesian ] 0
| 10> end
| 11> *xyz 0 1
| 12>  C        1.0464280000    -0.6532490000    -0.0267110000
| 13>  C        2.2866970000    -0.3207930000    -0.3330640000
| 14>  O        3.1604420000     0.1207710000     0.6226450000
| 15>  C        4.4717580000    -0.1782830000     0.4603330000
| 16>  C        4.9894240000    -1.1314580000    -0.3130600000
| 17>  C        5.3102820000     0.6633070000     1.2639180000
| 18>  N        5.9968980000     1.3260000000     1.9061400000
| 19>  H        0.3559880000    -0.9198560000    -0.8144850000
| 20>  H        0.6962320000    -0.6482440000     0.9974830000
| 21>  H        2.6830340000    -0.3145390000    -1.3446910000
| 22>  H        4.3652190000    -1.8016520000    -0.8878080000
| 23>  H        6.0616170000    -1.2544030000    -0.3562010000
| 24> *
| 25>
| 26>                          ****END OF INPUT****
 Total Charge           Charge          ....    0
 Multiplicity           Mult            ....    1
 Number of Electrons    NEL             ....   50
 Basis Dimension        Dim             ....  123

MULLIKEN ATOMIC CHARGES
-----------------------
   0 C :   -0.042519
   1 C :    0.084063
   2 O :   -0.194721
   3 C :   -0.008594
   4 C :   -0.028549
   5 C :   -0.084942
   6 N :    0.064816
   7 H :    0.044331
   8 H :    0.044092
   9 H :    0.025560
  10 H :    0.046659
  11 H :    0.049804
Sum of atomic charges:    0.0000000

LOEWDIN ATOMIC CHARGES
----------------------
   0 C :   -0.080764
   1 C :    0.041388
   2 O :   -0.006559
   3 C :   -0.005160
   4 C :   -0.067929
   5 C :   -0.035158
   6 N :   -0.030306
   7 H :    0.040095
   8 H :    0.037601
   9 H :    0.021634
  10 H :    0.037441
  11 H :    0.047715

  Mayer bond orders larger than 0.1
B(  0-C ,  1-C ) :   1.9570 B(  0-C ,  7-H ) :   0.9374 B(  0-C ,  8-H ) :   0.9509
B(  1-C ,  2-O ) :   1.0370 B(  1-C ,  9-H ) :   0.9388 B(  2-O ,  3-C ) :   1.1628
B(  3-C ,  4-C ) :   1.8411 B(  3-C ,  5-C ) :   1.0492 B(  4-C ,  6-N ) :   0.1004
B(  4-C , 10-H ) :   0.9289 B(  4-C , 11-H ) :   0.9242 B(  5-C ,  6-N ) :   3.0130

FINAL SINGLE POINT ENERGY      -322.803481550102

DIPOLE MOMENT
-------------
                                X             Y             Z
Electronic contribution:      4.02639       3.49809       3.50969
Nuclear contribution   :     -4.77932      -4.42928      -4.55888
                        -----------------------------------------
Total Dipole Moment    :     -0.75293      -0.93119      -1.04918
                        -----------------------------------------
Magnitude (a.u.)       :      1.59211
Magnitude (Debye)      :      4.04683

                             ****ORCA TERMINATED NORMALLY****
TOTAL RUN TIME: 0 days 0 hours 0 minutes 5 seconds 961 msec
