                         Program Version 3.0.3 - RELEASE   -
|  1> ! RI PBE def2-SVP def2-SVP/J NBO PAL2
|  2> % maxcore 2000
|  3> % output
|  4>     # printlevel mini
|  5>     print[ P_Basis ] 0
|  6>     print[ P_SCFInfo ] 1
|  7>     print[ P_SCFIterInfo ] 1
|  8>     print[ P_OrbEn ] 0
|  9>     print[ P_Cartesian ] 0
| 10> end
| 11> *xyz 0 1
| 12>  C        2.8060010000    -0.3262670000    -0.7289020000
| 13>  C        2.5378580000     0.9727990000    -0.6629470000
| 14>  O        3.4147620000     1.9974320000    -0.6054470000
| 15>  C        4.7797880000     1.6598810000    -0.6160520000
| 16>  C        5.5502670000     2.9687270000    -0.5444080000
| 17>  C        6.9852330000     2.7435870000    -0.5490930000
| 18>  N        8.1173260000     2.5460290000    -0.5538350000
| 19>  H        1.9808050000    -1.0232270000    -0.7691670000
| 20>  H        3.8077130000    -0.7337440000    -0.7449610000
| 21>  H        1.5225160000     1.3527470000    -0.6483620000
| 22>  H        5.0323450000     1.1129160000    -1.5318020000
| 23>  H        5.0233950000     1.0211320000     0.2408070000
| 24>  H        5.2766640000     3.5105710000     0.3647530000
| 25>  H        5.2852390000     3.6018250000    -1.3952750000
| 26> *
| 27>
| 28>                          ****END OF INPUT****
 Total Charge           Charge          ....    0
 Multiplicity           Mult            ....    1
 Number of Electrons    NEL             ....   52
 Basis Dimension        Dim             ....  133

MULLIKEN ATOMIC CHARGES
-----------------------
   0 C :   -0.115996
   1 C :    0.110944
   2 O :   -0.261057
   3 C :    0.106551
   4 C :    0.076950
   5 C :   -0.283122
   6 N :    0.053463
   7 H :    0.034459
   8 H :    0.033606
   9 H :    0.018631
  10 H :    0.045631
  11 H :    0.045724
  12 H :    0.066636
  13 H :    0.067579
Sum of atomic charges:   -0.0000000

LOEWDIN ATOMIC CHARGES
----------------------
   0 C :   -0.147507
   1 C :    0.035695
   2 O :   -0.067669
   3 C :    0.080055
   4 C :   -0.061689
   5 C :   -0.044564
   6 N :   -0.058014
   7 H :    0.036508
   8 H :    0.025348
   9 H :    0.026042
  10 H :    0.024233
  11 H :    0.024343
  12 H :    0.063448
  13 H :    0.063769

  Mayer bond orders larger than 0.1
B(  0-C ,  1-C ) :   1.8714 B(  0-C ,  7-H ) :   0.9364 B(  0-C ,  8-H ) :   0.9540
B(  1-C ,  2-O ) :   1.1321 B(  1-C ,  9-H ) :   0.9665 B(  2-O ,  3-C ) :   1.0028
B(  3-C ,  4-C ) :   1.0703 B(  3-C , 10-H ) :   0.9352 B(  3-C , 11-H ) :   0.9350
B(  4-C ,  5-C ) :   1.0797 B(  4-C , 12-H ) :   0.8915 B(  4-C , 13-H ) :   0.8906
B(  5-C ,  6-N ) :   3.0582

FINAL SINGLE POINT ENERGY      -324.025792463927

DIPOLE MOMENT
-------------
                                X             Y             Z
Electronic contribution:      4.33260       3.42497       0.19708
Nuclear contribution   :     -5.49126      -3.38511      -0.20219
                        -----------------------------------------
Total Dipole Moment    :     -1.15866       0.03987      -0.00511
                        -----------------------------------------
Magnitude (a.u.)       :      1.15935
Magnitude (Debye)      :      2.94684

                             ****ORCA TERMINATED NORMALLY****
TOTAL RUN TIME: 0 days 0 hours 0 minutes 6 seconds 442 msec
