                         Program Version 3.0.3 - RELEASE   -
|  1> ! RI PBE def2-SVP def2-SVP/J NBO PAL2
|  2> % maxcore 2000
|  3> % output
|  4>     # printlevel mini
|  5>     print[ P_Basis ] 0
|  6>     print[ P_SCFInfo ] 1
|  7>     print[ P_SCFIterInfo ] 1
|  8>     print[ P_OrbEn ] 0
|  9>     print[ P_Cartesian ] 0
| 10> end
| 11> *xyz 0 1
| 12>  C        3.0626690000     0.1993220000     1.4477200000
| 13>  C        2.3647760000    -0.1041420000     0.1510990000
| 14>  O        1.1640860000    -0.2278060000     0.0816520000
| 15>  C        3.1665730000    -0.2588650000    -1.0886750000
| 16>  C        4.4961160000    -0.1453820000    -1.1430700000
| 17>  C        5.2318870000    -0.2996210000    -2.3482290000
| 18>  N        5.8497740000    -0.4204380000    -3.3130670000
| 19>  H        2.3186050000     0.2776350000     2.2374010000
| 20>  H        3.6191100000     1.1379200000     1.3797430000
| 21>  H        3.7761340000    -0.5899870000     1.6991440000
| 22>  H        2.5870340000    -0.4772500000    -1.9793540000
| 23>  H        5.0838470000     0.0729270000    -0.2572860000
| 24> *
| 25>
| 26>                          ****END OF INPUT****
 Total Charge           Charge          ....    0
 Multiplicity           Mult            ....    1
 Number of Electrons    NEL             ....   50
 Basis Dimension        Dim             ....  123

MULLIKEN ATOMIC CHARGES
-----------------------
   0 C :    0.025760
   1 C :   -0.044355
   2 O :   -0.142032
   3 C :    0.029604
   4 C :   -0.090090
   5 C :   -0.081588
   6 N :    0.067412
   7 H :    0.048521
   8 H :    0.050339
   9 H :    0.050968
  10 H :    0.028707
  11 H :    0.056756
Sum of atomic charges:   -0.0000000

LOEWDIN ATOMIC CHARGES
----------------------
   0 C :   -0.090076
   1 C :    0.045178
   2 O :   -0.098476
   3 C :   -0.000198
   4 C :   -0.036196
   5 C :   -0.036477
   6 N :   -0.030536
   7 H :    0.046691
   8 H :    0.048818
   9 H :    0.048577
  10 H :    0.048918
  11 H :    0.053776

  Mayer bond orders larger than 0.1
B(  0-C ,  1-C ) :   1.0630 B(  0-C ,  7-H ) :   0.9397 B(  0-C ,  8-H ) :   0.9288
B(  0-C ,  9-H ) :   0.9304 B(  1-C ,  2-O ) :   2.1245 B(  1-C ,  3-C ) :   0.9923
B(  3-C ,  4-C ) :   1.7350 B(  3-C ,  6-N ) :   0.1069 B(  3-C , 10-H ) :   0.9669
B(  4-C ,  5-C ) :   1.1119 B(  4-C , 11-H ) :   0.9292 B(  5-C ,  6-N ) :   2.9610

FINAL SINGLE POINT ENERGY      -322.844621778460

DIPOLE MOMENT
-------------
                                X             Y             Z
Electronic contribution:      0.61307      -0.96177      -5.54570
Nuclear contribution   :     -0.39221       1.20295       6.72643
                        -----------------------------------------
Total Dipole Moment    :      0.22086       0.24118       1.18073
                        -----------------------------------------
Magnitude (a.u.)       :      1.22518
Magnitude (Debye)      :      3.11417

                             ****ORCA TERMINATED NORMALLY****
TOTAL RUN TIME: 0 days 0 hours 0 minutes 5 seconds 584 msec
