                         Program Version 3.0.3 - RELEASE   -
|  1> ! RI PBE def2-SVP def2-SVP/J NBO PAL2
|  2> % maxcore 2000
|  3> % output
|  4>     # printlevel mini
|  5>     print[ P_Basis ] 0
|  6>     print[ P_SCFInfo ] 1
|  7>     print[ P_SCFIterInfo ] 1
|  8>     print[ P_OrbEn ] 0
|  9>     print[ P_Cartesian ] 0
| 10> end
| 11> *xyz 0 1
| 12>  C        3.3854130000     0.1234100000    -1.0244440000
| 13>  C        2.5450360000    -0.2611400000     0.1517340000
| 14>  O        1.3471780000    -0.1423130000     0.1758530000
| 15>  C        3.2624810000    -0.8251280000     1.3605880000
| 16>  C        2.5636880000    -1.1858790000     2.4378820000
| 17>  C        4.6826900000    -0.9595700000     1.3213950000
| 18>  N        5.8290720000    -1.0570760000     1.2611470000
| 19>  H        2.7491880000     0.5024180000    -1.8208230000
| 20>  H        3.9605490000    -0.7377930000    -1.3764840000
| 21>  H        4.1169880000     0.8824210000    -0.7321460000
| 22>  H        1.4865170000    -1.0650880000     2.4218560000
| 23>  H        3.0401090000    -1.5926620000     3.3204420000
| 24> *
| 25>
| 26>                          ****END OF INPUT****
 Total Charge           Charge          ....    0
 Multiplicity           Mult            ....    1
 Number of Electrons    NEL             ....   50
 Basis Dimension        Dim             ....  123

MULLIKEN ATOMIC CHARGES
-----------------------
   0 C :    0.050900
   1 C :   -0.017637
   2 O :   -0.134766
   3 C :   -0.171837
   4 C :    0.062891
   5 C :   -0.136867
   6 N :    0.070341
   7 H :    0.042281
   8 H :    0.061435
   9 H :    0.062931
  10 H :    0.059735
  11 H :    0.050593
Sum of atomic charges:   -0.0000000

LOEWDIN ATOMIC CHARGES
----------------------
   0 C :   -0.082141
   1 C :    0.067326
   2 O :   -0.100078
   3 C :   -0.110570
   4 C :    0.070917
   5 C :   -0.043445
   6 N :   -0.045832
   7 H :    0.044426
   8 H :    0.057378
   9 H :    0.057704
  10 H :    0.041449
  11 H :    0.042867

  Mayer bond orders larger than 0.1
B(  0-C ,  1-C ) :   1.1113 B(  0-C ,  7-H ) :   0.9326 B(  0-C ,  8-H ) :   0.9206
B(  0-C ,  9-H ) :   0.9219 B(  1-C ,  2-O ) :   2.1825 B(  1-C ,  3-C ) :   0.8739
B(  3-C ,  4-C ) :   1.9370 B(  3-C ,  5-C ) :   1.0845 B(  4-C ,  6-N ) :   0.1120
B(  4-C , 10-H ) :   0.9133 B(  4-C , 11-H ) :   0.9358 B(  5-C ,  6-N ) :   2.9635

FINAL SINGLE POINT ENERGY      -322.844967224022

DIPOLE MOMENT
-------------
                                X             Y             Z
Electronic contribution:      0.74178      -0.89675       2.03331
Nuclear contribution   :     -1.20449       0.90184      -1.92178
                        -----------------------------------------
Total Dipole Moment    :     -0.46271       0.00509       0.11153
                        -----------------------------------------
Magnitude (a.u.)       :      0.47599
Magnitude (Debye)      :      1.20987

                             ****ORCA TERMINATED NORMALLY****
TOTAL RUN TIME: 0 days 0 hours 0 minutes 5 seconds 509 msec
