                         Program Version 3.0.3 - RELEASE   -
|  1> ! RI PBE def2-SVP def2-SVP/J NBO PAL2
|  2> % maxcore 2000
|  3> % output
|  4>     # printlevel mini
|  5>     print[ P_Basis ] 0
|  6>     print[ P_SCFInfo ] 1
|  7>     print[ P_SCFIterInfo ] 1
|  8>     print[ P_OrbEn ] 0
|  9>     print[ P_Cartesian ] 0
| 10> end
| 11> *xyz 0 1
| 12>  C        3.2117650000    -0.0931000000    -1.2374200000
| 13>  C        2.4548550000    -0.3311380000     0.0547880000
| 14>  O        1.2359060000    -0.3613380000     0.0354960000
| 15>  C        3.1762190000    -0.5224440000     1.3104930000
| 16>  C        2.3344540000    -0.7498820000     2.5262470000
| 17>  C        4.5275290000    -0.4883500000     1.3279840000
| 18>  N        5.3358750000    -0.6466360000     2.4014260000
| 19>  H        2.4815890000     0.0211380000    -2.0362850000
| 20>  H        3.8711460000    -0.9309590000    -1.4775320000
| 21>  H        3.8232670000     0.8111820000    -1.1846460000
| 22>  H        1.6553960000     0.0904440000     2.6895210000
| 23>  H        2.9243150000    -0.8858190000     3.4350640000
| 24>  H        1.7035040000    -1.6330700000     2.4004810000
| 25>  H        5.0665780000    -0.3180230000     0.4029400000
| 26>  H        4.9622470000    -0.8110910000     3.3169380000
| 27>  H        6.3307650000    -0.6032130000     2.3040060000
| 28> *
| 29>
| 30>                          ****END OF INPUT****
 Total Charge           Charge          ....    0
 Multiplicity           Mult            ....    1
 Number of Electrons    NEL             ....   54
 Basis Dimension        Dim             ....  143

MULLIKEN ATOMIC CHARGES
-----------------------
   0 C :    0.031706
   1 C :   -0.061623
   2 O :   -0.197440
   3 C :   -0.131404
   4 C :    0.073023
   5 C :   -0.031673
   6 N :   -0.042876
   7 H :    0.024677
   8 H :    0.031548
   9 H :    0.030817
  10 H :    0.039062
  11 H :   -0.028978
  12 H :    0.038670
  13 H :   -0.005552
  14 H :    0.107863
  15 H :    0.122179
Sum of atomic charges:   -0.0000000

LOEWDIN ATOMIC CHARGES
----------------------
   0 C :   -0.095538
   1 C :    0.034128
   2 O :   -0.164956
   3 C :   -0.147417
   4 C :   -0.054470
   5 C :    0.020979
   6 N :    0.030819
   7 H :    0.036928
   8 H :    0.035246
   9 H :    0.035431
  10 H :    0.040789
  11 H :    0.013055
  12 H :    0.040893
  13 H :    0.027490
  14 H :    0.070495
  15 H :    0.076129

  Mayer bond orders larger than 0.1
B(  0-C ,  1-C ) :   1.0582 B(  0-C ,  7-H ) :   0.9399 B(  0-C ,  8-H ) :   0.9344
B(  0-C ,  9-H ) :   0.9331 B(  1-C ,  2-O ) :   2.1135 B(  1-C ,  3-C ) :   1.0441
B(  3-C ,  4-C ) :   1.1068 B(  3-C ,  5-C ) :   1.6107 B(  4-C , 10-H ) :   0.9408
B(  4-C , 11-H ) :   0.9396 B(  4-C , 12-H ) :   0.9406 B(  5-C ,  6-N ) :   1.3094
B(  5-C , 13-H ) :   0.9216 B(  6-N , 14-H ) :   0.9546 B(  6-N , 15-H ) :   0.9498

FINAL SINGLE POINT ENERGY      -325.274175661752

DIPOLE MOMENT
-------------
                                X             Y             Z
Electronic contribution:     -1.81222       0.05004      -0.58671
Nuclear contribution   :      3.83851      -0.13091       1.40354
                        -----------------------------------------
Total Dipole Moment    :      2.02629      -0.08088       0.81682
                        -----------------------------------------
Magnitude (a.u.)       :      2.18623
Magnitude (Debye)      :      5.55694

                             ****ORCA TERMINATED NORMALLY****
TOTAL RUN TIME: 0 days 0 hours 0 minutes 8 seconds 21 msec
