                         Program Version 3.0.3 - RELEASE   -
|  1> ! RI PBE def2-SVP def2-SVP/J NBO PAL2
|  2> % maxcore 2000
|  3> % output
|  4>     # printlevel mini
|  5>     print[ P_Basis ] 0
|  6>     print[ P_SCFInfo ] 1
|  7>     print[ P_SCFIterInfo ] 1
|  8>     print[ P_OrbEn ] 0
|  9>     print[ P_Cartesian ] 0
| 10> end
| 11> *xyz 0 1
| 12>  C        1.0872390000    -0.0515130000     0.0205200000
| 13>  C        2.5812930000    -0.0105510000     0.0929170000
| 14>  O        3.2091890000     0.4996650000     0.9851300000
| 15>  C        3.2841330000    -0.6460320000    -1.0175300000
| 16>  C        3.8665180000    -1.1708780000    -1.9347800000
| 17>  C        4.5317750000    -1.7636120000    -2.9709810000
| 18>  N        5.0883200000    -2.2661060000    -3.8492820000
| 19>  H        0.6666070000     0.4468430000     0.8920400000
| 20>  H        0.7454180000    -1.0892670000    -0.0241490000
| 21>  H        0.7459180000     0.4367510000    -0.8964740000
| 22> *
| 23>
| 24>                          ****END OF INPUT****
 Total Charge           Charge          ....    0
 Multiplicity           Mult            ....    1
 Number of Electrons    NEL             ....   48
 Basis Dimension        Dim             ....  113

MULLIKEN ATOMIC CHARGES
-----------------------
   0 C :    0.018480
   1 C :   -0.050073
   2 O :   -0.117148
   3 C :   -0.053100
   4 C :    0.046327
   5 C :   -0.140874
   6 N :    0.116609
   7 H :    0.053167
   8 H :    0.062475
   9 H :    0.064138
Sum of atomic charges:   -0.0000000

LOEWDIN ATOMIC CHARGES
----------------------
   0 C :   -0.072217
   1 C :    0.038552
   2 O :   -0.071884
   3 C :    0.021463
   4 C :   -0.036637
   5 C :   -0.040663
   6 N :    0.001140
   7 H :    0.047200
   8 H :    0.056283
   9 H :    0.056762

  Mayer bond orders larger than 0.1
B(  0-C ,  1-C ) :   1.0561 B(  0-C ,  7-H ) :   0.9406 B(  0-C ,  8-H ) :   0.9394
B(  0-C ,  9-H ) :   0.9387 B(  1-C ,  2-O ) :   2.1689 B(  1-C ,  3-C ) :   0.8420
B(  2-O ,  4-C ) :   0.1097 B(  3-C ,  4-C ) :   2.4374 B(  3-C ,  5-C ) :  -0.1119
B(  3-C ,  6-N ) :   0.1880 B(  4-C ,  5-C ) :   1.0083 B(  4-C ,  6-N ) :   0.1080
B(  5-C ,  6-N ) :   2.8613

FINAL SINGLE POINT ENERGY      -321.600049657381

DIPOLE MOMENT
-------------
                                X             Y             Z
Electronic contribution:      6.00951      -1.66496      -2.90689
Nuclear contribution   :     -7.31554       1.86387       3.25459
                        -----------------------------------------
Total Dipole Moment    :     -1.30603       0.19891       0.34770
                        -----------------------------------------
Magnitude (a.u.)       :      1.36608
Magnitude (Debye)      :      3.47231

                             ****ORCA TERMINATED NORMALLY****
TOTAL RUN TIME: 0 days 0 hours 0 minutes 5 seconds 235 msec
