                         Program Version 3.0.3 - RELEASE   -
|  1> ! RI PBE def2-SVP def2-SVP/J NBO PAL2
|  2> % maxcore 2000
|  3> % output
|  4>     # printlevel mini
|  5>     print[ P_Basis ] 0
|  6>     print[ P_SCFInfo ] 1
|  7>     print[ P_SCFIterInfo ] 1
|  8>     print[ P_OrbEn ] 0
|  9>     print[ P_Cartesian ] 0
| 10> end
| 11> *xyz 0 1
| 12>  C        0.9945380000    -0.1827960000    -0.1862530000
| 13>  C        2.4974080000    -0.1636040000    -0.1971720000
| 14>  O        3.1466630000    -0.8290210000    -0.9646030000
| 15>  C        3.1632620000     0.7415950000     0.8164730000
| 16>  C        4.6822680000     0.6773610000     0.7298440000
| 17>  C        5.3176490000     1.5502600000     1.7024760000
| 18>  N        5.8032050000     2.2455750000     2.4787330000
| 19>  H        0.6259560000    -0.8450930000    -0.9670350000
| 20>  H        0.5994010000     0.8256060000    -0.3374050000
| 21>  H        0.6299780000    -0.5224590000     0.7874980000
| 22>  H        2.8168550000     0.4628450000     1.8173780000
| 23>  H        2.8064410000     1.7651600000     0.6600260000
| 24>  H        5.0168890000     0.9566140000    -0.2720640000
| 25>  H        5.0282970000    -0.3465320000     0.8903040000
| 26> *
| 27>
| 28>                          ****END OF INPUT****
 Total Charge           Charge          ....    0
 Multiplicity           Mult            ....    1
 Number of Electrons    NEL             ....   52
 Basis Dimension        Dim             ....  133

MULLIKEN ATOMIC CHARGES
-----------------------
   0 C :    0.041991
   1 C :   -0.060607
   2 O :   -0.161933
   3 C :   -0.053592
   4 C :    0.096937
   5 C :   -0.287671
   6 N :    0.058228
   7 H :    0.044821
   8 H :    0.045610
   9 H :    0.047048
  10 H :    0.054426
  11 H :    0.056680
  12 H :    0.058332
  13 H :    0.059731
Sum of atomic charges:    0.0000000

LOEWDIN ATOMIC CHARGES
----------------------
   0 C :   -0.083148
   1 C :    0.059302
   2 O :   -0.115110
   3 C :   -0.059914
   4 C :   -0.052339
   5 C :   -0.045630
   6 N :   -0.070088
   7 H :    0.042433
   8 H :    0.048147
   9 H :    0.049359
  10 H :    0.050536
  11 H :    0.050959
  12 H :    0.062705
  13 H :    0.062788

  Mayer bond orders larger than 0.1
B(  0-C ,  1-C ) :   1.0536 B(  0-C ,  7-H ) :   0.9446 B(  0-C ,  8-H ) :   0.9424
B(  0-C ,  9-H ) :   0.9412 B(  1-C ,  2-O ) :   2.1651 B(  1-C ,  3-C ) :   0.9387
B(  3-C ,  4-C ) :   1.0937 B(  3-C , 10-H ) :   0.9173 B(  3-C , 11-H ) :   0.9165
B(  4-C ,  5-C ) :   1.1099 B(  4-C , 12-H ) :   0.8877 B(  4-C , 13-H ) :   0.8900
B(  5-C ,  6-N ) :   3.0588

FINAL SINGLE POINT ENERGY      -324.065387706208

DIPOLE MOMENT
-------------
                                X             Y             Z
Electronic contribution:      5.81800       1.01964       1.03250
Nuclear contribution   :     -7.17695      -1.37342      -1.40037
                        -----------------------------------------
Total Dipole Moment    :     -1.35895      -0.35378      -0.36787
                        -----------------------------------------
Magnitude (a.u.)       :      1.45163
Magnitude (Debye)      :      3.68975

                             ****ORCA TERMINATED NORMALLY****
TOTAL RUN TIME: 0 days 0 hours 0 minutes 6 seconds 66 msec
