                         Program Version 3.0.3 - RELEASE   -
|  1> ! RI PBE def2-SVP def2-SVP/J NBO PAL2
|  2> % maxcore 2000
|  3> % output
|  4>     # printlevel mini
|  5>     print[ P_Basis ] 0
|  6>     print[ P_SCFInfo ] 1
|  7>     print[ P_SCFIterInfo ] 1
|  8>     print[ P_OrbEn ] 0
|  9>     print[ P_Cartesian ] 0
| 10> end
| 11> *xyz 0 1
| 12>  C        0.8711740000     0.2072620000     0.0504330000
| 13>  C        2.3845310000     0.2329390000    -0.0460350000
| 14>  O        2.8196760000     1.2046930000    -0.9878200000
| 15>  C        3.0364940000     0.4369380000     1.3146350000
| 16>  C        4.5590030000     0.4172390000     1.2923730000
| 17>  C        5.1668680000    -0.9479130000     1.0084370000
| 18>  N        4.7665520000    -1.9224920000     2.0146880000
| 19>  H        0.4280120000     0.0777130000    -0.9386520000
| 20>  H        0.4950020000     1.1445820000     0.4753380000
| 21>  H        0.5323180000    -0.6083460000     0.6936990000
| 22>  H        2.7228560000    -0.7182100000    -0.4691880000
| 23>  H        2.5164260000     2.0652890000    -0.6827430000
| 24>  H        2.6749880000    -0.3375810000     1.9972300000
| 25>  H        2.6901110000     1.3990720000     1.7161470000
| 26>  H        4.9347790000     0.7712920000     2.2603350000
| 27>  H        4.9223360000     1.1245140000     0.5411690000
| 28>  H        6.2579760000    -0.8307360000     0.9206470000
| 29>  H        4.8197650000    -1.3106970000     0.0361990000
| 30>  H        5.1639920000    -1.6810130000     2.9151100000
| 31>  H        5.1110390000    -2.8444250000     1.7797770000
| 32> *
| 33>
| 34>                          ****END OF INPUT****
 Total Charge           Charge          ....    0
 Multiplicity           Mult            ....    1
 Number of Electrons    NEL             ....   58
 Basis Dimension        Dim             ....  163

MULLIKEN ATOMIC CHARGES
-----------------------
   0 C :    0.031664
   1 C :    0.044271
   2 O :   -0.286681
   3 C :    0.005786
   4 C :    0.011919
   5 C :    0.055002
   6 N :   -0.213180
   7 H :    0.021880
   8 H :   -0.001312
   9 H :    0.016275
  10 H :    0.004183
  11 H :    0.147313
  12 H :    0.007821
  13 H :   -0.016601
  14 H :   -0.004972
  15 H :   -0.000302
  16 H :   -0.002088
  17 H :    0.005862
  18 H :    0.084836
  19 H :    0.088323
Sum of atomic charges:    0.0000000

LOEWDIN ATOMIC CHARGES
----------------------
   0 C :   -0.075524
   1 C :    0.042461
   2 O :   -0.117449
   3 C :   -0.057217
   4 C :   -0.050369
   5 C :    0.004178
   6 N :   -0.110397
   7 H :    0.026979
   8 H :    0.019298
   9 H :    0.030747
  10 H :    0.020166
  11 H :    0.062597
  12 H :    0.025879
  13 H :    0.015771
  14 H :    0.019477
  15 H :    0.022802
  16 H :    0.001737
  17 H :    0.017773
  18 H :    0.048766
  19 H :    0.052325

  Mayer bond orders larger than 0.1
B(  0-C ,  1-C ) :   1.0984 B(  0-C ,  7-H ) :   0.9558 B(  0-C ,  8-H ) :   0.9506
B(  0-C ,  9-H ) :   0.9488 B(  1-C ,  2-O ) :   1.0081 B(  1-C ,  3-C ) :   1.0492
B(  1-C , 10-H ) :   0.9080 B(  2-O , 11-H ) :   0.9845 B(  3-C ,  4-C ) :   1.0939
B(  3-C , 12-H ) :   0.9096 B(  3-C , 13-H ) :   0.9176 B(  4-C ,  5-C ) :   1.0999
B(  4-C , 14-H ) :   0.9300 B(  4-C , 15-H ) :   0.9135 B(  5-C ,  6-N ) :   1.0768
B(  5-C , 16-H ) :   0.9279 B(  5-C , 17-H ) :   0.9338 B(  6-N , 18-H ) :   0.9688
B(  6-N , 19-H ) :   0.9663

FINAL SINGLE POINT ENERGY      -327.654597981769

DIPOLE MOMENT
-------------
                                X             Y             Z
Electronic contribution:      0.73654       0.98539      -2.06831
Nuclear contribution   :     -0.53347      -1.01086       2.58527
                        -----------------------------------------
Total Dipole Moment    :      0.20307      -0.02546       0.51696
                        -----------------------------------------
Magnitude (a.u.)       :      0.55600
Magnitude (Debye)      :      1.41324

                             ****ORCA TERMINATED NORMALLY****
TOTAL RUN TIME: 0 days 0 hours 0 minutes 7 seconds 772 msec
