                         Program Version 3.0.3 - RELEASE   -
|  1> ! RI PBE def2-SVP def2-SVP/J NBO PAL2
|  2> % maxcore 2000
|  3> % output
|  4>     # printlevel mini
|  5>     print[ P_Basis ] 0
|  6>     print[ P_SCFInfo ] 1
|  7>     print[ P_SCFIterInfo ] 1
|  8>     print[ P_OrbEn ] 0
|  9>     print[ P_Cartesian ] 0
| 10> end
| 11> *xyz 0 1
| 12>  C        0.8500120000     0.1363670000    -0.1228500000
| 13>  C        2.3665820000    -0.0602190000    -0.0837740000
| 14>  O        3.0233430000     1.1702370000     0.1851400000
| 15>  C        2.7380880000    -1.0967450000     0.9490480000
| 16>  C        3.3853120000    -2.2295650000     0.7353040000
| 17>  C        2.8272430000    -0.4733170000    -1.4185610000
| 18>  N        3.1525750000    -0.8276770000    -2.4613390000
| 19>  H        0.5017630000     0.4286530000     0.8711620000
| 20>  H        0.3432390000    -0.7859830000    -0.4102090000
| 21>  H        0.5984530000     0.9250910000    -0.8323680000
| 22>  H        2.8452620000     1.4032930000     1.1017280000
| 23>  H        2.4113910000    -0.8330440000     1.9543310000
| 24>  H        3.7145140000    -2.5201390000    -0.2568600000
| 25>  H        3.6058240000    -2.9065520000     1.5518570000
| 26> *
| 27>
| 28>                          ****END OF INPUT****
 Total Charge           Charge          ....    0
 Multiplicity           Mult            ....    1
 Number of Electrons    NEL             ....   52
 Basis Dimension        Dim             ....  133

MULLIKEN ATOMIC CHARGES
-----------------------
   0 C :    0.062333
   1 C :   -0.007065
   2 O :   -0.227042
   3 C :   -0.066298
   4 C :    0.013808
   5 C :   -0.172322
   6 N :    0.049599
   7 H :    0.017174
   8 H :    0.042795
   9 H :    0.047638
  10 H :    0.160724
  11 H :    0.004645
  12 H :    0.040137
  13 H :    0.033873
Sum of atomic charges:    0.0000000

LOEWDIN ATOMIC CHARGES
----------------------
   0 C :   -0.046586
   1 C :   -0.005022
   2 O :   -0.080697
   3 C :   -0.039425
   4 C :   -0.030499
   5 C :   -0.023762
   6 N :   -0.051322
   7 H :    0.028253
   8 H :    0.040702
   9 H :    0.039253
  10 H :    0.072184
  11 H :    0.027771
  12 H :    0.035923
  13 H :    0.033228

  Mayer bond orders larger than 0.1
B(  0-C ,  1-C ) :   1.0695 B(  0-C ,  7-H ) :   0.9479 B(  0-C ,  8-H ) :   0.9470
B(  0-C ,  9-H ) :   0.9472 B(  1-C ,  2-O ) :   1.1382 B(  1-C ,  3-C ) :   0.9854
B(  1-C ,  5-C ) :   0.9831 B(  2-O , 10-H ) :   0.9732 B(  3-C ,  4-C ) :   2.0374
B(  3-C , 11-H ) :   0.9486 B(  4-C , 12-H ) :   0.9123 B(  4-C , 13-H ) :   0.9383
B(  5-C ,  6-N ) :   3.0637

FINAL SINGLE POINT ENERGY      -324.019813534578

DIPOLE MOMENT
-------------
                                X             Y             Z
Electronic contribution:      3.18857       1.22410      -3.91397
Nuclear contribution   :     -3.93205      -1.16757       5.54010
                        -----------------------------------------
Total Dipole Moment    :     -0.74348       0.05653       1.62613
                        -----------------------------------------
Magnitude (a.u.)       :      1.78893
Magnitude (Debye)      :      4.54709

                             ****ORCA TERMINATED NORMALLY****
TOTAL RUN TIME: 0 days 0 hours 0 minutes 6 seconds 417 msec
