                         Program Version 3.0.3 - RELEASE   -
|  1> ! RI PBE def2-SVP def2-SVP/J NBO PAL2
|  2> % maxcore 2000
|  3> % output
|  4>     # printlevel mini
|  5>     print[ P_Basis ] 0
|  6>     print[ P_SCFInfo ] 1
|  7>     print[ P_SCFIterInfo ] 1
|  8>     print[ P_OrbEn ] 0
|  9>     print[ P_Cartesian ] 0
| 10> end
| 11> *xyz 0 1
| 12>  C        0.9137400000     0.1180780000    -0.1050230000
| 13>  C        2.4302390000    -0.0440010000    -0.0674030000
| 14>  O        2.7140660000    -0.9542090000     0.9728560000
| 15>  C        2.9452250000    -0.5217010000    -1.3568940000
| 16>  C        3.3698960000    -0.9314010000    -2.4001880000
| 17>  C        3.0578160000     1.2674890000     0.2282440000
| 18>  N        3.5421880000     2.2779630000     0.4827720000
| 19>  H        0.4698800000    -0.8520570000    -0.3263230000
| 20>  H        0.6250300000     0.8359680000    -0.8715540000
| 21>  H        0.5696590000     0.4638850000     0.8696200000
| 22>  H        3.6564610000    -1.1529860000     0.9618450000
| 23>  H        3.7464100000    -1.2937280000    -3.3282720000
| 24> *
| 25>
| 26>                          ****END OF INPUT****
 Total Charge           Charge          ....    0
 Multiplicity           Mult            ....    1
 Number of Electrons    NEL             ....   50
 Basis Dimension        Dim             ....  123

MULLIKEN ATOMIC CHARGES
-----------------------
   0 C :    0.071068
   1 C :   -0.023342
   2 O :   -0.222201
   3 C :    0.440152
   4 C :   -0.487138
   5 C :   -0.168279
   6 N :    0.058829
   7 H :    0.048067
   8 H :    0.048674
   9 H :    0.049193
  10 H :    0.170562
  11 H :    0.014416
Sum of atomic charges:   -0.0000000

LOEWDIN ATOMIC CHARGES
----------------------
   0 C :   -0.025553
   1 C :   -0.006669
   2 O :   -0.063783
   3 C :   -0.029089
   4 C :   -0.036947
   5 C :   -0.044435
   6 N :   -0.047046
   7 H :    0.041978
   8 H :    0.043459
   9 H :    0.042143
  10 H :    0.082519
  11 H :    0.043425

  Mayer bond orders larger than 0.1
B(  0-C ,  1-C ) :   1.0629 B(  0-C ,  7-H ) :   0.9528 B(  0-C ,  8-H ) :   0.9484
B(  0-C ,  9-H ) :   0.9476 B(  1-C ,  2-O ) :   1.0919 B(  1-C ,  3-C ) :   0.9403
B(  1-C ,  5-C ) :   0.9391 B(  2-O , 10-H ) :   0.9700 B(  3-C ,  4-C ) :   2.3271
B(  3-C , 11-H ) :  -0.1173 B(  4-C , 11-H ) :   1.1060 B(  5-C ,  6-N ) :   3.0930

FINAL SINGLE POINT ENERGY      -322.773838483655

DIPOLE MOMENT
-------------
                                X             Y             Z
Electronic contribution:      3.81562       1.50985       0.68387
Nuclear contribution   :     -4.06193      -2.53510      -1.28024
                        -----------------------------------------
Total Dipole Moment    :     -0.24631      -1.02525      -0.59637
                        -----------------------------------------
Magnitude (a.u.)       :      1.21139
Magnitude (Debye)      :      3.07910

                             ****ORCA TERMINATED NORMALLY****
TOTAL RUN TIME: 0 days 0 hours 0 minutes 5 seconds 506 msec
