                         Program Version 3.0.3 - RELEASE   -
|  1> ! RI PBE def2-SVP def2-SVP/J NBO PAL2
|  2> % maxcore 2000
|  3> % output
|  4>     # printlevel mini
|  5>     print[ P_Basis ] 0
|  6>     print[ P_SCFInfo ] 1
|  7>     print[ P_SCFIterInfo ] 1
|  8>     print[ P_OrbEn ] 0
|  9>     print[ P_Cartesian ] 0
| 10> end
| 11> *xyz 0 1
| 12>  C        3.9961210000    -1.0969570000    -0.2885010000
| 13>  C        2.7614870000    -0.2216850000    -0.2118140000
| 14>  O        1.8990740000    -0.6366640000     0.8428670000
| 15>  C        3.0274780000     1.2493190000    -0.0950830000
| 16>  C        4.2127050000     1.8481510000    -0.0979630000
| 17>  C        4.4098190000     3.3226360000     0.0275250000
| 18>  N        5.3248380000     3.6182450000     1.1220510000
| 19>  H        3.6932530000    -2.1435680000    -0.3409630000
| 20>  H        4.6277770000    -0.9666270000     0.5951480000
| 21>  H        4.5959400000    -0.8660320000    -1.1716600000
| 22>  H        2.1624830000    -0.3853120000    -1.1160060000
| 23>  H        2.3372160000    -0.4248640000     1.6728100000
| 24>  H        2.1275840000     1.8537050000     0.0146000000
| 25>  H        5.1268290000     1.2662740000    -0.1890220000
| 26>  H        3.4282650000     3.8137580000     0.1084400000
| 27>  H        4.8744990000     3.6959030000    -0.8930520000
| 28>  H        4.8985990000     3.3792250000     2.0089760000
| 29>  H        5.5450430000     4.6056020000     1.1494360000
| 30> *
| 31>
| 32>                          ****END OF INPUT****
 Total Charge           Charge          ....    0
 Multiplicity           Mult            ....    1
 Number of Electrons    NEL             ....   56
 Basis Dimension        Dim             ....  153

MULLIKEN ATOMIC CHARGES
-----------------------
   0 C :    0.014692
   1 C :    0.133024
   2 O :   -0.288932
   3 C :   -0.092819
   4 C :   -0.088401
   5 C :    0.161061
   6 N :   -0.227440
   7 H :    0.028290
   8 H :    0.015110
   9 H :    0.024975
  10 H :    0.007522
  11 H :    0.146742
  12 H :   -0.006289
  13 H :   -0.002132
  14 H :   -0.012520
  15 H :    0.011915
  16 H :    0.084786
  17 H :    0.090417
Sum of atomic charges:    0.0000000

LOEWDIN ATOMIC CHARGES
----------------------
   0 C :   -0.078599
   1 C :    0.040763
   2 O :   -0.115126
   3 C :   -0.063401
   4 C :   -0.044560
   5 C :    0.008207
   6 N :   -0.111059
   7 H :    0.031609
   8 H :    0.023567
   9 H :    0.031460
  10 H :    0.030657
  11 H :    0.064103
  12 H :    0.022667
  13 H :    0.024269
  14 H :    0.002827
  15 H :    0.030630
  16 H :    0.049671
  17 H :    0.052316

  Mayer bond orders larger than 0.1
B(  0-C ,  1-C ) :   1.1201 B(  0-C ,  7-H ) :   0.9503 B(  0-C ,  8-H ) :   0.9445
B(  0-C ,  9-H ) :   0.9377 B(  1-C ,  2-O ) :   0.9992 B(  1-C ,  3-C ) :   1.0161
B(  1-C , 10-H ) :   0.8839 B(  2-O , 11-H ) :   0.9862 B(  3-C ,  4-C ) :   1.8678
B(  3-C , 12-H ) :   0.9600 B(  4-C ,  5-C ) :   1.0576 B(  4-C , 13-H ) :   0.9409
B(  5-C ,  6-N ) :   1.0662 B(  5-C , 14-H ) :   0.9255 B(  5-C , 15-H ) :   0.9083
B(  6-N , 16-H ) :   0.9723 B(  6-N , 17-H ) :   0.9656

FINAL SINGLE POINT ENERGY      -326.432733538307

DIPOLE MOMENT
-------------
                                X             Y             Z
Electronic contribution:     -2.75209      -0.56210       0.83301
Nuclear contribution   :      2.98409       1.15519      -0.61346
                        -----------------------------------------
Total Dipole Moment    :      0.23200       0.59309       0.21956
                        -----------------------------------------
Magnitude (a.u.)       :      0.67364
Magnitude (Debye)      :      1.71225

                             ****ORCA TERMINATED NORMALLY****
TOTAL RUN TIME: 0 days 0 hours 0 minutes 7 seconds 989 msec
