                         Program Version 3.0.3 - RELEASE   -
|  1> ! RI PBE def2-SVP def2-SVP/J NBO PAL2
|  2> % maxcore 2000
|  3> % output
|  4>     # printlevel mini
|  5>     print[ P_Basis ] 0
|  6>     print[ P_SCFInfo ] 1
|  7>     print[ P_SCFIterInfo ] 1
|  8>     print[ P_OrbEn ] 0
|  9>     print[ P_Cartesian ] 0
| 10> end
| 11> *xyz 0 1
| 12>  C        0.9615500000     0.0766860000    -0.1564820000
| 13>  C        2.4604520000    -0.0278210000     0.0639800000
| 14>  O        3.1884510000     0.5830380000    -0.9864360000
| 15>  C        2.8608500000     0.5581990000     1.3820070000
| 16>  C        3.4105650000    -0.1413870000     2.3729900000
| 17>  C        3.7714670000     0.4404080000     3.6189660000
| 18>  N        4.0674830000     0.8939530000     4.6361030000
| 19>  H        0.7010940000    -0.3440470000    -1.1294610000
| 20>  H        0.6388700000     1.1228190000    -0.1330530000
| 21>  H        0.4098660000    -0.4595400000     0.6182120000
| 22>  H        2.7594160000    -1.0799070000     0.0406330000
| 23>  H        2.8244530000     1.4595820000    -1.1443490000
| 24>  H        2.6831910000     1.6238140000     1.5147920000
| 25>  H        3.6075920000    -1.2040970000     2.2659770000
| 26> *
| 27>
| 28>                          ****END OF INPUT****
 Total Charge           Charge          ....    0
 Multiplicity           Mult            ....    1
 Number of Electrons    NEL             ....   52
 Basis Dimension        Dim             ....  133

MULLIKEN ATOMIC CHARGES
-----------------------
   0 C :    0.001462
   1 C :    0.113788
   2 O :   -0.265737
   3 C :    0.003813
   4 C :   -0.105144
   5 C :   -0.106768
   6 N :    0.040607
   7 H :    0.038400
   8 H :    0.015380
   9 H :    0.035781
  10 H :    0.008820
  11 H :    0.155945
  12 H :    0.016734
  13 H :    0.046921
Sum of atomic charges:   -0.0000000

LOEWDIN ATOMIC CHARGES
----------------------
   0 C :   -0.070521
   1 C :    0.040993
   2 O :   -0.096934
   3 C :    0.014091
   4 C :   -0.071461
   5 C :   -0.043698
   6 N :   -0.054631
   7 H :    0.035054
   8 H :    0.025211
   9 H :    0.038145
  10 H :    0.029163
  11 H :    0.068983
  12 H :    0.034551
  13 H :    0.051055

  Mayer bond orders larger than 0.1
B(  0-C ,  1-C ) :   1.0759 B(  0-C ,  7-H ) :   0.9511 B(  0-C ,  8-H ) :   0.9546
B(  0-C ,  9-H ) :   0.9503 B(  1-C ,  2-O ) :   1.0111 B(  1-C ,  3-C ) :   0.9970
B(  1-C , 10-H ) :   0.9098 B(  2-O , 11-H ) :   0.9811 B(  3-C ,  4-C ) :   1.8436
B(  3-C ,  6-N ) :   0.1076 B(  3-C , 12-H ) :   0.9449 B(  4-C ,  5-C ) :   1.1094
B(  4-C , 13-H ) :   0.9400 B(  5-C ,  6-N ) :   2.9664

FINAL SINGLE POINT ENERGY      -324.033115122477

DIPOLE MOMENT
-------------
                                X             Y             Z
Electronic contribution:      5.37478       1.05334       6.17803
Nuclear contribution   :     -6.37463      -1.23375      -7.48758
                        -----------------------------------------
Total Dipole Moment    :     -0.99985      -0.18042      -1.30955
                        -----------------------------------------
Magnitude (a.u.)       :      1.65746
Magnitude (Debye)      :      4.21293

                             ****ORCA TERMINATED NORMALLY****
TOTAL RUN TIME: 0 days 0 hours 0 minutes 5 seconds 864 msec
