                         Program Version 3.0.3 - RELEASE   -
|  1> ! RI PBE def2-SVP def2-SVP/J NBO PAL2
|  2> % maxcore 2000
|  3> % output
|  4>     # printlevel mini
|  5>     print[ P_Basis ] 0
|  6>     print[ P_SCFInfo ] 1
|  7>     print[ P_SCFIterInfo ] 1
|  8>     print[ P_OrbEn ] 0
|  9>     print[ P_Cartesian ] 0
| 10> end
| 11> *xyz 0 1
| 12>  C        2.4426010000    -1.5114690000    -0.7051020000
| 13>  C        2.3796470000    -0.0615030000    -0.2406340000
| 14>  O        2.9833170000     0.0872510000     1.0298510000
| 15>  C        2.9705120000     0.8940790000    -1.2551430000
| 16>  C        2.2290840000     1.8239800000    -1.8461000000
| 17>  C        4.4313630000     0.7510790000    -1.5842900000
| 18>  N        5.2578560000     0.8951370000    -0.3826460000
| 19>  H        1.9623500000    -2.1475490000     0.0405310000
| 20>  H        3.4771940000    -1.8480650000    -0.8100960000
| 21>  H        1.9333110000    -1.6455810000    -1.6631520000
| 22>  H        1.3272560000     0.2106210000    -0.1086860000
| 23>  H        3.9383930000     0.1781670000     0.8658610000
| 24>  H        1.1727430000     1.9309370000    -1.6233810000
| 25>  H        2.6496470000     2.5059700000    -2.5785770000
| 26>  H        4.6920590000     1.4606150000    -2.3803340000
| 27>  H        4.6149790000    -0.2524110000    -1.9826670000
| 28>  H        5.2606040000     1.8602210000    -0.0737430000
| 29>  H        6.2166820000     0.6305210000    -0.5681920000
| 30> *
| 31>
| 32>                          ****END OF INPUT****
 Total Charge           Charge          ....    0
 Multiplicity           Mult            ....    1
 Number of Electrons    NEL             ....   56
 Basis Dimension        Dim             ....  153

MULLIKEN ATOMIC CHARGES
-----------------------
   0 C :    0.019527
   1 C :    0.161782
   2 O :   -0.287732
   3 C :   -0.195455
   4 C :   -0.035163
   5 C :    0.165163
   6 N :   -0.227790
   7 H :    0.025476
   8 H :    0.009222
   9 H :    0.007520
  10 H :   -0.020341
  11 H :    0.131374
  12 H :    0.016510
  13 H :    0.007234
  14 H :   -0.004174
  15 H :    0.015583
  16 H :    0.107418
  17 H :    0.103846
Sum of atomic charges:   -0.0000000

LOEWDIN ATOMIC CHARGES
----------------------
   0 C :   -0.076101
   1 C :    0.050662
   2 O :   -0.124718
   3 C :   -0.049853
   4 C :   -0.061287
   5 C :    0.016507
   6 N :   -0.072719
   7 H :    0.031134
   8 H :    0.019325
   9 H :    0.025059
  10 H :    0.018819
  11 H :    0.023674
  12 H :    0.022826
  13 H :    0.017760
  14 H :    0.009908
  15 H :    0.028996
  16 H :    0.060823
  17 H :    0.059185

  Mayer bond orders larger than 0.1
B(  0-C ,  1-C ) :   1.0610 B(  0-C ,  7-H ) :   0.9504 B(  0-C ,  8-H ) :   0.9518
B(  0-C ,  9-H ) :   0.9475 B(  1-C ,  2-O ) :   1.0607 B(  1-C ,  3-C ) :   1.0001
B(  1-C , 10-H ) :   0.8986 B(  2-O , 11-H ) :   0.9358 B(  3-C ,  4-C ) :   1.9861
B(  3-C ,  5-C ) :   1.0491 B(  4-C , 12-H ) :   0.9321 B(  4-C , 13-H ) :   0.9330
B(  5-C ,  6-N ) :   1.0563 B(  5-C , 14-H ) :   0.9228 B(  5-C , 15-H ) :   0.9117
B(  6-N , 11-H ) :   0.1532 B(  6-N , 16-H ) :   0.9587 B(  6-N , 17-H ) :   0.9604

FINAL SINGLE POINT ENERGY      -326.440284868644

DIPOLE MOMENT
-------------
                                X             Y             Z
Electronic contribution:     -0.13557       1.64757       2.48996
Nuclear contribution   :      1.02313      -1.33840      -3.29719
                        -----------------------------------------
Total Dipole Moment    :      0.88757       0.30917      -0.80723
                        -----------------------------------------
Magnitude (a.u.)       :      1.23894
Magnitude (Debye)      :      3.14915

                             ****ORCA TERMINATED NORMALLY****
TOTAL RUN TIME: 0 days 0 hours 0 minutes 8 seconds 567 msec
