                         Program Version 3.0.3 - RELEASE   -
|  1> ! RI PBE def2-SVP def2-SVP/J NBO PAL2
|  2> % maxcore 2000
|  3> % output
|  4>     # printlevel mini
|  5>     print[ P_Basis ] 0
|  6>     print[ P_SCFInfo ] 1
|  7>     print[ P_SCFIterInfo ] 1
|  8>     print[ P_OrbEn ] 0
|  9>     print[ P_Cartesian ] 0
| 10> end
| 11> *xyz 0 1
| 12>  C        1.0224230000     0.1219730000    -0.0749430000
| 13>  C        2.5185680000    -0.0877760000     0.0709010000
| 14>  O        3.2566160000     0.9965460000    -0.4471220000
| 15>  C        2.9118010000    -0.3691040000     1.5082640000
| 16>  C        3.4304050000    -1.5192530000     1.9307230000
| 17>  C        2.6987170000     0.7141080000     2.4177590000
| 18>  N        2.5054320000     1.6282530000     3.0923760000
| 19>  H        0.7825510000     0.3217520000    -1.1205410000
| 20>  H        0.6893890000     0.9729370000     0.5270150000
| 21>  H        0.4675190000    -0.7596170000     0.2525020000
| 22>  H        2.8286490000    -0.9544220000    -0.5187700000
| 23>  H        2.9442690000     1.8090110000    -0.0344460000
| 24>  H        3.6003180000    -2.3316650000     1.2334810000
| 25>  H        3.6959530000    -1.6797210000     2.9680020000
| 26> *
| 27>
| 28>                          ****END OF INPUT****
 Total Charge           Charge          ....    0
 Multiplicity           Mult            ....    1
 Number of Electrons    NEL             ....   52
 Basis Dimension        Dim             ....  133

MULLIKEN ATOMIC CHARGES
-----------------------
   0 C :    0.007269
   1 C :    0.164551
   2 O :   -0.263915
   3 C :   -0.213703
   4 C :    0.046807
   5 C :   -0.136808
   6 N :    0.065252
   7 H :    0.038091
   8 H :    0.035144
   9 H :    0.028119
  10 H :   -0.007575
  11 H :    0.165039
  12 H :    0.035035
  13 H :    0.036694
Sum of atomic charges:   -0.0000000

LOEWDIN ATOMIC CHARGES
----------------------
   0 C :   -0.071940
   1 C :    0.056480
   2 O :   -0.094489
   3 C :   -0.079658
   4 C :    0.006723
   5 C :   -0.039391
   6 N :   -0.054184
   7 H :    0.035312
   8 H :    0.031373
   9 H :    0.036310
  10 H :    0.029970
  11 H :    0.072038
  12 H :    0.033608
  13 H :    0.037850

  Mayer bond orders larger than 0.1
B(  0-C ,  1-C ) :   1.0916 B(  0-C ,  7-H ) :   0.9528 B(  0-C ,  8-H ) :   0.9497
B(  0-C ,  9-H ) :   0.9466 B(  1-C ,  2-O ) :   1.0560 B(  1-C ,  3-C ) :   0.9588
B(  1-C , 10-H ) :   0.8807 B(  2-O , 11-H ) :   0.9764 B(  3-C ,  4-C ) :   1.9513
B(  3-C ,  5-C ) :   1.0957 B(  4-C ,  6-N ) :   0.1100 B(  4-C , 12-H ) :   0.9262
B(  4-C , 13-H ) :   0.9353 B(  5-C ,  6-N ) :   2.9746

FINAL SINGLE POINT ENERGY      -324.033112438791

DIPOLE MOMENT
-------------
                                X             Y             Z
Electronic contribution:      2.79968       2.98834       3.79030
Nuclear contribution   :     -3.04876      -3.95635      -4.33409
                        -----------------------------------------
Total Dipole Moment    :     -0.24908      -0.96801      -0.54379
                        -----------------------------------------
Magnitude (a.u.)       :      1.13789
Magnitude (Debye)      :      2.89228

                             ****ORCA TERMINATED NORMALLY****
TOTAL RUN TIME: 0 days 0 hours 0 minutes 6 seconds 615 msec
