                         Program Version 3.0.3 - RELEASE   -
|  1> ! RI PBE def2-SVP def2-SVP/J NBO PAL2
|  2> % maxcore 2000
|  3> % output
|  4>     # printlevel mini
|  5>     print[ P_Basis ] 0
|  6>     print[ P_SCFInfo ] 1
|  7>     print[ P_SCFIterInfo ] 1
|  8>     print[ P_OrbEn ] 0
|  9>     print[ P_Cartesian ] 0
| 10> end
| 11> *xyz 0 1
| 12>  C        2.9726010000     1.3405450000    -0.6148850000
| 13>  C        2.5449670000    -0.0449450000    -0.1549020000
| 14>  O        2.8953180000    -1.0240780000    -1.1103290000
| 15>  C        3.0532430000    -0.4029760000     1.2521400000
| 16>  C        2.4514350000    -1.7187120000     1.7286470000
| 17>  C        4.5774130000    -0.4105840000     1.3596450000
| 18>  N        5.1855460000    -1.3964110000     0.4630850000
| 19>  H        2.5071180000     1.5645060000    -1.5761550000
| 20>  H        4.0552540000     1.3980590000    -0.7537890000
| 21>  H        2.6742030000     2.1120790000     0.1013870000
| 22>  H        1.4485040000    -0.0581380000    -0.1073140000
| 23>  H        3.8313760000    -1.2330070000    -0.9426940000
| 24>  H        2.7065950000     0.3924280000     1.9242610000
| 25>  H        2.6889290000    -2.5345480000     1.0423430000
| 26>  H        1.3618880000    -1.6519520000     1.7745260000
| 27>  H        2.8128170000    -1.9830330000     2.7267700000
| 28>  H        4.8549760000    -0.5667300000     2.4127090000
| 29>  H        4.9669190000     0.5709050000     1.0782770000
| 30>  H        5.0261960000    -2.3367170000     0.8040340000
| 31>  H        6.1875010000    -1.2663920000     0.4122440000
| 32> *
| 33>
| 34>                          ****END OF INPUT****
 Total Charge           Charge          ....    0
 Multiplicity           Mult            ....    1
 Number of Electrons    NEL             ....   58
 Basis Dimension        Dim             ....  163

MULLIKEN ATOMIC CHARGES
-----------------------
   0 C :    0.039678
   1 C :    0.094193
   2 O :   -0.289053
   3 C :   -0.156839
   4 C :    0.033727
   5 C :    0.101550
   6 N :   -0.229064
   7 H :    0.017806
   8 H :    0.007990
   9 H :   -0.000118
  10 H :   -0.006407
  11 H :    0.130970
  12 H :    0.002728
  13 H :    0.014091
  14 H :    0.020925
  15 H :    0.004844
  16 H :   -0.001317
  17 H :    0.004337
  18 H :    0.103945
  19 H :    0.106015
Sum of atomic charges:    0.0000000

LOEWDIN ATOMIC CHARGES
----------------------
   0 C :   -0.079180
   1 C :    0.046084
   2 O :   -0.128204
   3 C :   -0.067341
   4 C :   -0.063839
   5 C :    0.013777
   6 N :   -0.074859
   7 H :    0.029538
   8 H :    0.019749
   9 H :    0.021910
  10 H :    0.016473
  11 H :    0.022800
  12 H :    0.028640
  13 H :    0.021256
  14 H :    0.030475
  15 H :    0.020682
  16 H :    0.004795
  17 H :    0.019611
  18 H :    0.057475
  19 H :    0.060156

  Mayer bond orders larger than 0.1
B(  0-C ,  1-C ) :   1.0808 B(  0-C ,  7-H ) :   0.9483 B(  0-C ,  8-H ) :   0.9488
B(  0-C ,  9-H ) :   0.9436 B(  1-C ,  2-O ) :   1.0669 B(  1-C ,  3-C ) :   1.0122
B(  1-C , 10-H ) :   0.9119 B(  2-O , 11-H ) :   0.9353 B(  3-C ,  4-C ) :   1.0795
B(  3-C ,  5-C ) :   1.0578 B(  3-C , 12-H ) :   0.8945 B(  4-C , 13-H ) :   0.9494
B(  4-C , 14-H ) :   0.9561 B(  4-C , 15-H ) :   0.9559 B(  5-C ,  6-N ) :   1.0530
B(  5-C , 16-H ) :   0.9347 B(  5-C , 17-H ) :   0.9339 B(  6-N , 11-H ) :   0.1540
B(  6-N , 18-H ) :   0.9592 B(  6-N , 19-H ) :   0.9625

FINAL SINGLE POINT ENERGY      -327.662599992347

DIPOLE MOMENT
-------------
                                X             Y             Z
Electronic contribution:      0.10737      -1.39636      -2.62325
Nuclear contribution   :      0.74377       1.41326       3.52765
                        -----------------------------------------
Total Dipole Moment    :      0.85115       0.01690       0.90440
                        -----------------------------------------
Magnitude (a.u.)       :      1.24205
Magnitude (Debye)      :      3.15704

                             ****ORCA TERMINATED NORMALLY****
TOTAL RUN TIME: 0 days 0 hours 0 minutes 8 seconds 662 msec
