                         Program Version 3.0.3 - RELEASE   -
|  1> ! RI PBE def2-SVP def2-SVP/J NBO PAL2
|  2> % maxcore 2000
|  3> % output
|  4>     # printlevel mini
|  5>     print[ P_Basis ] 0
|  6>     print[ P_SCFInfo ] 1
|  7>     print[ P_SCFIterInfo ] 1
|  8>     print[ P_OrbEn ] 0
|  9>     print[ P_Cartesian ] 0
| 10> end
| 11> *xyz 0 1
| 12>  C        3.7449850000    -1.1514820000    -0.1654550000
| 13>  C        2.9150440000     0.0666100000     0.2095840000
| 14>  O        1.7071130000     0.0734360000    -0.5158060000
| 15>  C        2.5989290000     0.1834080000     1.7220040000
| 16>  C        1.9392990000     1.5317670000     1.9828800000
| 17>  C        3.8587190000     0.0584470000     2.5721510000
| 18>  N        1.6101730000    -0.8607630000     2.0171280000
| 19>  H        3.8423020000    -1.1890170000    -1.2514970000
| 20>  H        3.2553040000    -2.0778120000     0.1500300000
| 21>  H        4.7475130000    -1.1211550000     0.2667690000
| 22>  H        3.4638020000     0.9685740000    -0.0864080000
| 23>  H        1.1032470000    -0.4571600000     0.0289200000
| 24>  H        1.6385990000     1.6164160000     3.0318130000
| 25>  H        1.0594750000     1.6618110000     1.3521650000
| 26>  H        2.6359120000     2.3453150000     1.7704020000
| 27>  H        3.6263950000     0.2535820000     3.6226440000
| 28>  H        4.2917450000    -0.9422100000     2.5045840000
| 29>  H        4.6228140000     0.7764810000     2.2594160000
| 30>  H        1.0870460000    -0.6370780000     2.8539130000
| 31>  H        2.0578040000    -1.7558800000     2.1718730000
| 32> *
| 33>
| 34>                          ****END OF INPUT****
 Total Charge           Charge          ....    0
 Multiplicity           Mult            ....    1
 Number of Electrons    NEL             ....   58
 Basis Dimension        Dim             ....  163

MULLIKEN ATOMIC CHARGES
-----------------------
   0 C :    0.043438
   1 C :    0.132156
   2 O :   -0.272313
   3 C :   -0.332922
   4 C :    0.097914
   5 C :    0.069331
   6 N :   -0.144491
   7 H :    0.029408
   8 H :   -0.007555
   9 H :    0.005714
  10 H :   -0.011169
  11 H :    0.135397
  12 H :    0.002690
  13 H :    0.016595
  14 H :    0.014225
  15 H :    0.007410
  16 H :    0.017155
  17 H :    0.016783
  18 H :    0.090974
  19 H :    0.089260
Sum of atomic charges:   -0.0000000

LOEWDIN ATOMIC CHARGES
----------------------
   0 C :   -0.079808
   1 C :    0.042757
   2 O :   -0.116309
   3 C :   -0.042267
   4 C :   -0.051993
   5 C :   -0.065259
   6 N :   -0.068354
   7 H :    0.032976
   8 H :    0.018716
   9 H :    0.022245
  10 H :    0.015438
  11 H :    0.039187
  12 H :    0.018821
  13 H :    0.025588
  14 H :    0.029725
  15 H :    0.022916
  16 H :    0.021693
  17 H :    0.028492
  18 H :    0.054307
  19 H :    0.051130

  Mayer bond orders larger than 0.1
B(  0-C ,  1-C ) :   1.0765 B(  0-C ,  7-H ) :   0.9519 B(  0-C ,  8-H ) :   0.9454
B(  0-C ,  9-H ) :   0.9401 B(  1-C ,  2-O ) :   1.0674 B(  1-C ,  3-C ) :   0.9611
B(  1-C , 10-H ) :   0.9105 B(  2-O , 11-H ) :   0.9435 B(  3-C ,  4-C ) :   1.0579
B(  3-C ,  5-C ) :   1.0552 B(  3-C ,  6-N ) :   1.0524 B(  4-C , 12-H ) :   0.9456
B(  4-C , 13-H ) :   0.9439 B(  4-C , 14-H ) :   0.9561 B(  5-C , 15-H ) :   0.9479
B(  5-C , 16-H ) :   0.9433 B(  5-C , 17-H ) :   0.9497 B(  6-N , 11-H ) :   0.1156
B(  6-N , 18-H ) :   0.9580 B(  6-N , 19-H ) :   0.9587

FINAL SINGLE POINT ENERGY      -327.665418683792

DIPOLE MOMENT
-------------
                                X             Y             Z
Electronic contribution:     -3.08560      -0.14780      -2.89764
Nuclear contribution   :      3.36300      -0.15168       3.93522
                        -----------------------------------------
Total Dipole Moment    :      0.27740      -0.29948       1.03758
                        -----------------------------------------
Magnitude (a.u.)       :      1.11500
Magnitude (Debye)      :      2.83409

                             ****ORCA TERMINATED NORMALLY****
TOTAL RUN TIME: 0 days 0 hours 0 minutes 9 seconds 57 msec
