                         Program Version 3.0.3 - RELEASE   -
|  1> ! RI PBE def2-SVP def2-SVP/J NBO PAL2
|  2> % maxcore 2000
|  3> % output
|  4>     # printlevel mini
|  5>     print[ P_Basis ] 0
|  6>     print[ P_SCFInfo ] 1
|  7>     print[ P_SCFIterInfo ] 1
|  8>     print[ P_OrbEn ] 0
|  9>     print[ P_Cartesian ] 0
| 10> end
| 11> *xyz 0 1
| 12>  C        0.9310900000     0.0726930000     0.1103370000
| 13>  C        2.4361620000    -0.0255490000    -0.0315800000
| 14>  O        2.8835890000    -1.3600010000    -0.0068240000
| 15>  C        2.9663090000     0.7154660000    -1.2809480000
| 16>  C        4.4917190000     0.7626000000    -1.3171170000
| 17>  C        2.4374050000     0.0694640000    -2.4781410000
| 18>  N        2.0167970000    -0.4878320000    -3.3926340000
| 19>  H        0.6112050000    -0.4478980000     1.0140240000
| 20>  H        0.4273760000    -0.3830650000    -0.7475500000
| 21>  H        0.6059630000     1.1137400000     0.1777090000
| 22>  H        2.9160980000     0.4501080000     0.8297060000
| 23>  H        2.4131180000    -1.8514220000    -0.6895190000
| 24>  H        2.5673310000     1.7360800000    -1.2627410000
| 25>  H        4.9007140000    -0.2468560000    -1.2759320000
| 26>  H        4.8597150000     1.3202670000    -0.4536820000
| 27>  H        4.8510090000     1.2515050000    -2.2232090000
| 28> *
| 29>
| 30>                          ****END OF INPUT****
 Total Charge           Charge          ....    0
 Multiplicity           Mult            ....    1
 Number of Electrons    NEL             ....   54
 Basis Dimension        Dim             ....  143

MULLIKEN ATOMIC CHARGES
-----------------------
   0 C :    0.026267
   1 C :    0.066979
   2 O :   -0.266402
   3 C :   -0.078814
   4 C :    0.049921
   5 C :   -0.260598
   6 N :    0.053776
   7 H :    0.035961
   8 H :    0.031901
   9 H :    0.017312
  10 H :    0.012146
  11 H :    0.162674
  12 H :    0.042539
  13 H :    0.039537
  14 H :    0.027055
  15 H :    0.039745
Sum of atomic charges:   -0.0000000

LOEWDIN ATOMIC CHARGES
----------------------
   0 C :   -0.075238
   1 C :    0.054624
   2 O :   -0.097965
   3 C :   -0.079119
   4 C :   -0.039824
   5 C :   -0.043523
   6 N :   -0.072200
   7 H :    0.034947
   8 H :    0.031589
   9 H :    0.032321
  10 H :    0.026754
  11 H :    0.071648
  12 H :    0.053941
  13 H :    0.034362
  14 H :    0.032562
  15 H :    0.035121

  Mayer bond orders larger than 0.1
B(  0-C ,  1-C ) :   1.0854 B(  0-C ,  7-H ) :   0.9533 B(  0-C ,  8-H ) :   0.9480
B(  0-C ,  9-H ) :   0.9469 B(  1-C ,  2-O ) :   1.0477 B(  1-C ,  3-C ) :   0.9751
B(  1-C , 10-H ) :   0.9130 B(  2-O , 11-H ) :   0.9762 B(  3-C ,  4-C ) :   1.0768
B(  3-C ,  5-C ) :   1.0482 B(  3-C , 12-H ) :   0.8741 B(  4-C , 13-H ) :   0.9532
B(  4-C , 14-H ) :   0.9577 B(  4-C , 15-H ) :   0.9608 B(  5-C ,  6-N ) :   3.0461

FINAL SINGLE POINT ENERGY      -325.256125342402

DIPOLE MOMENT
-------------
                                X             Y             Z
Electronic contribution:     -0.58278      -2.55391      -4.36132
Nuclear contribution   :      0.68292       3.29033       5.22632
                        -----------------------------------------
Total Dipole Moment    :      0.10014       0.73642       0.86500
                        -----------------------------------------
Magnitude (a.u.)       :      1.14042
Magnitude (Debye)      :      2.89873

                             ****ORCA TERMINATED NORMALLY****
TOTAL RUN TIME: 0 days 0 hours 0 minutes 6 seconds 972 msec
