                         Program Version 3.0.3 - RELEASE   -
|  1> ! RI PBE def2-SVP def2-SVP/J NBO PAL2
|  2> % maxcore 2000
|  3> % output
|  4>     # printlevel mini
|  5>     print[ P_Basis ] 0
|  6>     print[ P_SCFInfo ] 1
|  7>     print[ P_SCFIterInfo ] 1
|  8>     print[ P_OrbEn ] 0
|  9>     print[ P_Cartesian ] 0
| 10> end
| 11> *xyz 0 1
| 12>  C        0.9140580000     0.1481010000     0.0181900000
| 13>  C        2.4332400000     0.0556180000     0.0616190000
| 14>  O        2.9105930000    -0.0999860000     1.3875390000
| 15>  C        2.9284850000    -1.0100280000    -0.8104610000
| 16>  C        3.3091220000    -1.9259230000    -1.4911910000
| 17>  C        3.8142460000    -3.0092700000    -2.3229950000
| 18>  N        4.8101990000    -3.8000300000    -1.6088460000
| 19>  H        0.5814080000     0.9508950000     0.6781670000
| 20>  H        0.4664070000    -0.7914940000     0.3503590000
| 21>  H        0.5660920000     0.3519680000    -0.9965560000
| 22>  H        2.8547000000     1.0088800000    -0.2743610000
| 23>  H        2.7643460000    -1.0150540000     1.6459280000
| 24>  H        4.1795670000    -2.5693890000    -3.2646020000
| 25>  H        2.9826300000    -3.6695400000    -2.5916930000
| 26>  H        5.5747810000    -3.2052430000    -1.3136670000
| 27>  H        5.1954270000    -4.5044050000    -2.2260310000
| 28> *
| 29>
| 30>                          ****END OF INPUT****
 Total Charge           Charge          ....    0
 Multiplicity           Mult            ....    1
 Number of Electrons    NEL             ....   54
 Basis Dimension        Dim             ....  143

MULLIKEN ATOMIC CHARGES
-----------------------
   0 C :    0.021593
   1 C :    0.146776
   2 O :   -0.274122
   3 C :   -0.118767
   4 C :   -0.190455
   5 C :    0.166156
   6 N :   -0.217634
   7 H :    0.028536
   8 H :    0.014944
   9 H :    0.022965
  10 H :    0.013411
  11 H :    0.157281
  12 H :    0.018830
  13 H :    0.024861
  14 H :    0.096055
  15 H :    0.089570
Sum of atomic charges:   -0.0000000

LOEWDIN ATOMIC CHARGES
----------------------
   0 C :   -0.065104
   1 C :    0.037925
   2 O :   -0.104555
   3 C :   -0.074647
   4 C :   -0.058221
   5 C :    0.001445
   6 N :   -0.106181
   7 H :    0.030396
   8 H :    0.026144
   9 H :    0.032255
  10 H :    0.037985
  11 H :    0.069943
  12 H :    0.022780
  13 H :    0.041818
  14 H :    0.054545
  15 H :    0.053474

  Mayer bond orders larger than 0.1
B(  0-C ,  1-C ) :   1.0844 B(  0-C ,  7-H ) :   0.9545 B(  0-C ,  8-H ) :   0.9549
B(  0-C ,  9-H ) :   0.9498 B(  1-C ,  2-O ) :   1.0358 B(  1-C ,  3-C ) :   0.9746
B(  1-C , 10-H ) :   0.8726 B(  2-O , 11-H ) :   0.9817 B(  3-C ,  4-C ) :   2.6868
B(  4-C ,  5-C ) :   1.0716 B(  5-C ,  6-N ) :   1.0820 B(  5-C , 12-H ) :   0.9051
B(  5-C , 13-H ) :   0.8861 B(  6-N , 14-H ) :   0.9677 B(  6-N , 15-H ) :   0.9631

FINAL SINGLE POINT ENERGY      -325.189859847353

DIPOLE MOMENT
-------------
                                X             Y             Z
Electronic contribution:      2.02393       0.54786       1.40983
Nuclear contribution   :     -1.95572      -0.90881      -2.10947
                        -----------------------------------------
Total Dipole Moment    :      0.06820      -0.36095      -0.69964
                        -----------------------------------------
Magnitude (a.u.)       :      0.79021
Magnitude (Debye)      :      2.00856

                             ****ORCA TERMINATED NORMALLY****
TOTAL RUN TIME: 0 days 0 hours 0 minutes 7 seconds 33 msec
