                         Program Version 3.0.3 - RELEASE   -
|  1> ! RI PBE def2-SVP def2-SVP/J NBO PAL2
|  2> % maxcore 2000
|  3> % output
|  4>     # printlevel mini
|  5>     print[ P_Basis ] 0
|  6>     print[ P_SCFInfo ] 1
|  7>     print[ P_SCFIterInfo ] 1
|  8>     print[ P_OrbEn ] 0
|  9>     print[ P_Cartesian ] 0
| 10> end
| 11> *xyz 0 1
| 12>  C        0.9416110000    -0.0573190000     0.0712440000
| 13>  C        2.4632330000    -0.0000470000     0.0653080000
| 14>  O        2.9854970000     0.4229330000    -1.1748360000
| 15>  C        2.9617920000     0.8297280000     1.1626840000
| 16>  C        3.3543670000     1.5416400000     2.0531850000
| 17>  C        3.8055850000     2.3431570000     3.0647080000
| 18>  N        4.1833230000     3.0220130000     3.9196010000
| 19>  H        0.6078140000    -0.6996030000    -0.7446040000
| 20>  H        0.5195460000     0.9409050000    -0.0669870000
| 21>  H        0.5694520000    -0.4570240000     1.0161920000
| 22>  H        2.8604280000    -1.0105500000     0.2083630000
| 23>  H        2.6989520000     1.3277660000    -1.3350570000
| 24> *
| 25>
| 26>                          ****END OF INPUT****
 Total Charge           Charge          ....    0
 Multiplicity           Mult            ....    1
 Number of Electrons    NEL             ....   50
 Basis Dimension        Dim             ....  123

MULLIKEN ATOMIC CHARGES
-----------------------
   0 C :    0.011862
   1 C :    0.114053
   2 O :   -0.257102
   3 C :   -0.145655
   4 C :    0.030718
   5 C :   -0.179676
   6 N :    0.109163
   7 H :    0.044628
   8 H :    0.027039
   9 H :    0.040714
  10 H :    0.039973
  11 H :    0.164283
Sum of atomic charges:   -0.0000000

LOEWDIN ATOMIC CHARGES
----------------------
   0 C :   -0.059893
   1 C :    0.034610
   2 O :   -0.086826
   3 C :    0.025915
   4 C :   -0.080280
   5 C :   -0.047513
   6 N :   -0.023122
   7 H :    0.038074
   8 H :    0.030791
   9 H :    0.040230
  10 H :    0.052578
  11 H :    0.075436

  Mayer bond orders larger than 0.1
B(  0-C ,  1-C ) :   1.0921 B(  0-C ,  7-H ) :   0.9532 B(  0-C ,  8-H ) :   0.9534
B(  0-C ,  9-H ) :   0.9493 B(  1-C ,  2-O ) :   1.0459 B(  1-C ,  3-C ) :   0.9512
B(  1-C , 10-H ) :   0.8688 B(  2-O , 11-H ) :   0.9782 B(  3-C ,  4-C ) :   2.4117
B(  3-C ,  5-C ) :  -0.1060 B(  3-C ,  6-N ) :   0.1831 B(  4-C ,  5-C ) :   0.9916
B(  4-C ,  6-N ) :   0.1257 B(  5-C ,  6-N ) :   2.8758

FINAL SINGLE POINT ENERGY      -322.794116333230

DIPOLE MOMENT
-------------
                                X             Y             Z
Electronic contribution:      5.77829       4.38961       5.35829
Nuclear contribution   :     -6.80498      -5.09015      -6.42171
                        -----------------------------------------
Total Dipole Moment    :     -1.02668      -0.70054      -1.06342
                        -----------------------------------------
Magnitude (a.u.)       :      1.63575
Magnitude (Debye)      :      4.15776

                             ****ORCA TERMINATED NORMALLY****
TOTAL RUN TIME: 0 days 0 hours 0 minutes 5 seconds 880 msec
