                         Program Version 3.0.3 - RELEASE   -
|  1> ! RI PBE def2-SVP def2-SVP/J NBO PAL2
|  2> % maxcore 2000
|  3> % output
|  4>     # printlevel mini
|  5>     print[ P_Basis ] 0
|  6>     print[ P_SCFInfo ] 1
|  7>     print[ P_SCFIterInfo ] 1
|  8>     print[ P_OrbEn ] 0
|  9>     print[ P_Cartesian ] 0
| 10> end
| 11> *xyz 0 1
| 12>  C        0.9137620000     0.3104400000    -0.4213620000
| 13>  C        2.3993620000     0.0719570000    -0.2423740000
| 14>  O        3.0789410000     1.2658770000     0.1075350000
| 15>  C        2.6791470000    -1.0345900000     0.7659400000
| 16>  C        4.1756270000    -1.3083550000     0.9036790000
| 17>  C        4.4688040000    -2.2973220000     1.9268390000
| 18>  N        4.6795670000    -3.0810830000     2.7414250000
| 19>  H        0.7424500000     1.1081740000    -1.1458190000
| 20>  H        0.4520630000     0.6017160000     0.5283940000
| 21>  H        0.4072550000    -0.5913370000    -0.7727130000
| 22>  H        2.8342630000    -0.2147550000    -1.2067910000
| 23>  H        2.6202650000     1.6652210000     0.8532280000
| 24>  H        2.1609810000    -1.9490960000     0.4636130000
| 25>  H        2.2682670000    -0.7481580000     1.7406170000
| 26>  H        4.6990290000    -0.3803030000     1.1479050000
| 27>  H        4.5883170000    -1.6635040000    -0.0459440000
| 28> *
| 29>
| 30>                          ****END OF INPUT****
 Total Charge           Charge          ....    0
 Multiplicity           Mult            ....    1
 Number of Electrons    NEL             ....   54
 Basis Dimension        Dim             ....  143

MULLIKEN ATOMIC CHARGES
-----------------------
   0 C :    0.023694
   1 C :    0.081082
   2 O :   -0.283044
   3 C :   -0.055383
   4 C :    0.087472
   5 C :   -0.273110
   6 N :    0.057837
   7 H :    0.036549
   8 H :    0.012188
   9 H :    0.024079
  10 H :   -0.001961
  11 H :    0.153786
  12 H :    0.027536
  13 H :    0.017519
  14 H :    0.046624
  15 H :    0.045132
Sum of atomic charges:    0.0000000

LOEWDIN ATOMIC CHARGES
----------------------
   0 C :   -0.073990
   1 C :    0.041643
   2 O :   -0.108636
   3 C :   -0.042133
   4 C :   -0.056892
   5 C :   -0.045427
   6 N :   -0.073627
   7 H :    0.033036
   8 H :    0.024622
   9 H :    0.034288
  10 H :    0.023352
  11 H :    0.068332
  12 H :    0.034850
  13 H :    0.028643
  14 H :    0.054982
  15 H :    0.056957

  Mayer bond orders larger than 0.1
B(  0-C ,  1-C ) :   1.1062 B(  0-C ,  7-H ) :   0.9552 B(  0-C ,  8-H ) :   0.9489
B(  0-C ,  9-H ) :   0.9470 B(  1-C ,  2-O ) :   1.0161 B(  1-C ,  3-C ) :   1.0460
B(  1-C , 10-H ) :   0.8985 B(  2-O , 11-H ) :   0.9828 B(  3-C ,  4-C ) :   1.0920
B(  3-C , 12-H ) :   0.9253 B(  3-C , 13-H ) :   0.9234 B(  4-C ,  5-C ) :   1.1301
B(  4-C , 14-H ) :   0.8732 B(  4-C , 15-H ) :   0.8885 B(  5-C ,  6-N ) :   3.0561

FINAL SINGLE POINT ENERGY      -325.255301301213

DIPOLE MOMENT
-------------
                                X             Y             Z
Electronic contribution:      6.08782      -3.53474       4.26021
Nuclear contribution   :     -7.03967       4.47284      -5.08474
                        -----------------------------------------
Total Dipole Moment    :     -0.95185       0.93810      -0.82453
                        -----------------------------------------
Magnitude (a.u.)       :      1.57032
Magnitude (Debye)      :      3.99143

                             ****ORCA TERMINATED NORMALLY****
TOTAL RUN TIME: 0 days 0 hours 0 minutes 6 seconds 785 msec
