                         Program Version 3.0.3 - RELEASE   -
|  1> ! RI PBE def2-SVP def2-SVP/J NBO PAL2
|  2> % maxcore 2000
|  3> % output
|  4>     # printlevel mini
|  5>     print[ P_Basis ] 0
|  6>     print[ P_SCFInfo ] 1
|  7>     print[ P_SCFIterInfo ] 1
|  8>     print[ P_OrbEn ] 0
|  9>     print[ P_Cartesian ] 0
| 10> end
| 11> *xyz 0 1
| 12>  C        1.1305770000    -0.0584130000     0.5283700000
| 13>  C        2.5683380000    -0.0809390000     0.0336780000
| 14>  O        2.6985410000    -0.7716170000    -1.1948710000
| 15>  C        2.8207210000    -2.1167500000    -1.1457240000
| 16>  C        2.8200050000    -2.9191180000    -0.0876860000
| 17>  C        3.0639160000     1.2805300000    -0.1890910000
| 18>  N        3.4336020000     2.3596110000    -0.3227560000
| 19>  H        0.7751760000    -1.0779240000     0.6762410000
| 20>  H        0.4934800000     0.4378200000    -0.2039340000
| 21>  H        1.0655160000     0.4813250000     1.4743920000
| 22>  H        3.2264480000    -0.5402640000     0.7819210000
| 23>  H        2.9346760000    -2.5021970000    -2.1526030000
| 24>  H        2.6952050000    -2.5859760000     0.9337430000
| 25>  H        2.9530080000    -3.9794780000    -0.2494600000
| 26> *
| 27>
| 28>                          ****END OF INPUT****
 Total Charge           Charge          ....    0
 Multiplicity           Mult            ....    1
 Number of Electrons    NEL             ....   52
 Basis Dimension        Dim             ....  133

MULLIKEN ATOMIC CHARGES
-----------------------
   0 C :    0.017528
   1 C :    0.057299
   2 O :   -0.243228
   3 C :    0.109779
   4 C :   -0.112779
   5 C :   -0.185345
   6 N :    0.058908
   7 H :    0.041231
   8 H :    0.052554
   9 H :    0.047745
  10 H :    0.056083
  11 H :    0.025737
  12 H :    0.034763
  13 H :    0.039726
Sum of atomic charges:   -0.0000000

LOEWDIN ATOMIC CHARGES
----------------------
   0 C :   -0.052030
   1 C :    0.036058
   2 O :   -0.051624
   3 C :    0.042459
   4 C :   -0.151657
   5 C :   -0.039770
   6 N :   -0.042819
   7 H :    0.038102
   8 H :    0.042054
   9 H :    0.043805
  10 H :    0.043245
  11 H :    0.030506
  12 H :    0.022867
  13 H :    0.038804

  Mayer bond orders larger than 0.1
B(  0-C ,  1-C ) :   1.1055 B(  0-C ,  7-H ) :   0.9484 B(  0-C ,  8-H ) :   0.9492
B(  0-C ,  9-H ) :   0.9514 B(  1-C ,  2-O ) :   1.0168 B(  1-C ,  5-C ) :   1.0357
B(  1-C , 10-H ) :   0.8937 B(  2-O ,  3-C ) :   1.1333 B(  3-C ,  4-C ) :   1.8635
B(  3-C , 11-H ) :   0.9654 B(  4-C , 12-H ) :   0.9480 B(  4-C , 13-H ) :   0.9355
B(  5-C ,  6-N ) :   3.0801

FINAL SINGLE POINT ENERGY      -324.019505148736

DIPOLE MOMENT
-------------
                                X             Y             Z
Electronic contribution:      3.35633       5.53616      -2.87983
Nuclear contribution   :     -3.93532      -6.72495       3.38115
                        -----------------------------------------
Total Dipole Moment    :     -0.57899      -1.18879       0.50132
                        -----------------------------------------
Magnitude (a.u.)       :      1.41413
Magnitude (Debye)      :      3.59443

                             ****ORCA TERMINATED NORMALLY****
TOTAL RUN TIME: 0 days 0 hours 0 minutes 6 seconds 563 msec
