                         Program Version 3.0.3 - RELEASE   -
|  1> ! RI PBE def2-SVP def2-SVP/J NBO PAL2
|  2> % maxcore 2000
|  3> % output
|  4>     # printlevel mini
|  5>     print[ P_Basis ] 0
|  6>     print[ P_SCFInfo ] 1
|  7>     print[ P_SCFIterInfo ] 1
|  8>     print[ P_OrbEn ] 0
|  9>     print[ P_Cartesian ] 0
| 10> end
| 11> *xyz 0 1
| 12>  C        0.9608700000    -1.5700890000     1.6391050000
| 13>  C        2.3825640000    -1.5974990000     2.1360450000
| 14>  O        3.1427790000    -0.6955990000     1.3544510000
| 15>  C        4.4510980000    -0.5849030000     1.6484990000
| 16>  C        5.1469120000    -1.2242940000     2.5874550000
| 17>  C        6.6059350000    -0.9848470000     2.7856600000
| 18>  N        6.8671600000    -0.5155280000     4.1419870000
| 19>  H        0.3471110000    -2.2580140000     2.2244230000
| 20>  H        0.9110850000    -1.8706320000     0.5909490000
| 21>  H        0.5377440000    -0.5680530000     1.7304190000
| 22>  H        2.8129020000    -2.6036410000     2.0507890000
| 23>  H        2.4393990000    -1.3013080000     3.1913050000
| 24>  H        4.9276000000     0.1320720000     0.9858100000
| 25>  H        4.6762720000    -1.9285630000     3.2642340000
| 26>  H        6.9676060000    -0.3056710000     1.9972340000
| 27>  H        7.1539420000    -1.9262210000     2.6600510000
| 28>  H        6.4208250000     0.3817930000     4.2888150000
| 29>  H        7.8605070000    -0.3898040000     4.2933700000
| 30> *
| 31>
| 32>                          ****END OF INPUT****
 Total Charge           Charge          ....    0
 Multiplicity           Mult            ....    1
 Number of Electrons    NEL             ....   56
 Basis Dimension        Dim             ....  153

MULLIKEN ATOMIC CHARGES
-----------------------
   0 C :   -0.011413
   1 C :    0.093593
   2 O :   -0.262952
   3 C :    0.123334
   4 C :   -0.175588
   5 C :    0.158348
   6 N :   -0.227897
   7 H :    0.026481
   8 H :    0.033014
   9 H :    0.033797
  10 H :    0.022238
  11 H :    0.022193
  12 H :    0.002173
  13 H :    0.006929
  14 H :   -0.016544
  15 H :    0.004901
  16 H :    0.083161
  17 H :    0.084231
Sum of atomic charges:    0.0000000

LOEWDIN ATOMIC CHARGES
----------------------
   0 C :   -0.073046
   1 C :    0.065285
   2 O :   -0.069114
   3 C :    0.019233
   4 C :   -0.130267
   5 C :    0.012003
   6 N :   -0.116149
   7 H :    0.035220
   8 H :    0.032129
   9 H :    0.031763
  10 H :    0.014193
  11 H :    0.014623
  12 H :    0.018635
  13 H :    0.023961
  14 H :    0.000537
  15 H :    0.024322
  16 H :    0.047553
  17 H :    0.049120

  Mayer bond orders larger than 0.1
B(  0-C ,  1-C ) :   1.1134 B(  0-C ,  7-H ) :   0.9537 B(  0-C ,  8-H ) :   0.9613
B(  0-C ,  9-H ) :   0.9628 B(  1-C ,  2-O ) :   0.9690 B(  1-C , 10-H ) :   0.9377
B(  1-C , 11-H ) :   0.9364 B(  2-O ,  3-C ) :   1.1602 B(  3-C ,  4-C ) :   1.7460
B(  3-C , 12-H ) :   0.9667 B(  4-C ,  5-C ) :   1.0708 B(  4-C , 13-H ) :   0.9589
B(  5-C ,  6-N ) :   1.0596 B(  5-C , 14-H ) :   0.9231 B(  5-C , 15-H ) :   0.9120
B(  6-N , 16-H ) :   0.9706 B(  6-N , 17-H ) :   0.9657

FINAL SINGLE POINT ENERGY      -326.431919410286

DIPOLE MOMENT
-------------
                                X             Y             Z
Electronic contribution:      1.23660       1.47196      -1.43422
Nuclear contribution   :     -1.26356      -1.37164       1.41996
                        -----------------------------------------
Total Dipole Moment    :     -0.02695       0.10032      -0.01426
                        -----------------------------------------
Magnitude (a.u.)       :      0.10485
Magnitude (Debye)      :      0.26651

                             ****ORCA TERMINATED NORMALLY****
TOTAL RUN TIME: 0 days 0 hours 0 minutes 7 seconds 243 msec
