                         Program Version 3.0.3 - RELEASE   -
|  1> ! RI PBE def2-SVP def2-SVP/J NBO PAL2
|  2> % maxcore 2000
|  3> % output
|  4>     # printlevel mini
|  5>     print[ P_Basis ] 0
|  6>     print[ P_SCFInfo ] 1
|  7>     print[ P_SCFIterInfo ] 1
|  8>     print[ P_OrbEn ] 0
|  9>     print[ P_Cartesian ] 0
| 10> end
| 11> *xyz 0 1
| 12>  C        0.3626810000     0.0161790000     0.0798410000
| 13>  C        1.8639690000    -0.0601010000     0.1459360000
| 14>  O        2.3505420000    -0.3555600000    -1.1602320000
| 15>  C        3.6598760000    -0.4664160000    -1.3248880000
| 16>  C        4.6153710000    -0.3323510000    -0.3897950000
| 17>  C        5.9779940000    -0.4838850000    -0.7387230000
| 18>  N        7.0945900000    -0.6036160000    -1.0027820000
| 19>  H       -0.0384540000     0.2417140000     1.0697420000
| 20>  H       -0.0598070000    -0.9324480000    -0.2550290000
| 21>  H        0.0437100000     0.8008040000    -0.6080120000
| 22>  H        2.1944290000    -0.8474800000     0.8332370000
| 23>  H        2.2983780000     0.8895760000     0.4790220000
| 24>  H        3.9141130000    -0.6913550000    -2.3552130000
| 25>  H        4.3951180000    -0.1084600000     0.6455870000
| 26> *
| 27>
| 28>                          ****END OF INPUT****
 Total Charge           Charge          ....    0
 Multiplicity           Mult            ....    1
 Number of Electrons    NEL             ....   52
 Basis Dimension        Dim             ....  133

MULLIKEN ATOMIC CHARGES
-----------------------
   0 C :    0.008636
   1 C :    0.072866
   2 O :   -0.238544
   3 C :    0.161842
   4 C :   -0.203689
   5 C :   -0.111121
   6 N :    0.036077
   7 H :    0.031530
   8 H :    0.040068
   9 H :    0.042740
  10 H :    0.037365
  11 H :    0.032759
  12 H :    0.040922
  13 H :    0.048548
Sum of atomic charges:   -0.0000000

LOEWDIN ATOMIC CHARGES
----------------------
   0 C :   -0.067276
   1 C :    0.069432
   2 O :   -0.034604
   3 C :    0.076009
   4 C :   -0.158828
   5 C :   -0.048736
   6 N :   -0.076354
   7 H :    0.039583
   8 H :    0.035855
   9 H :    0.036218
  10 H :    0.022278
  11 H :    0.021778
  12 H :    0.037459
  13 H :    0.047188

  Mayer bond orders larger than 0.1
B(  0-C ,  1-C ) :   1.1114 B(  0-C ,  7-H ) :   0.9510 B(  0-C ,  8-H ) :   0.9616
B(  0-C ,  9-H ) :   0.9632 B(  1-C ,  2-O ) :   0.9401 B(  1-C , 10-H ) :   0.9400
B(  1-C , 11-H ) :   0.9375 B(  2-O ,  3-C ) :   1.2263 B(  3-C ,  4-C ) :   1.6639
B(  3-C , 12-H ) :   0.9693 B(  4-C ,  5-C ) :   1.1297 B(  4-C , 13-H ) :   0.9458
B(  5-C ,  6-N ) :   2.9645

FINAL SINGLE POINT ENERGY      -324.038334674090

DIPOLE MOMENT
-------------
                                X             Y             Z
Electronic contribution:      9.49797      -1.21832      -3.22947
Nuclear contribution   :    -11.55630       1.46824       3.83823
                        -----------------------------------------
Total Dipole Moment    :     -2.05833       0.24991       0.60876
                        -----------------------------------------
Magnitude (a.u.)       :      2.16097
Magnitude (Debye)      :      5.49274

                             ****ORCA TERMINATED NORMALLY****
TOTAL RUN TIME: 0 days 0 hours 0 minutes 6 seconds 574 msec
