                         Program Version 3.0.3 - RELEASE   -
|  1> ! RI PBE def2-SVP def2-SVP/J NBO PAL2
|  2> % maxcore 2000
|  3> % output
|  4>     # printlevel mini
|  5>     print[ P_Basis ] 0
|  6>     print[ P_SCFInfo ] 1
|  7>     print[ P_SCFIterInfo ] 1
|  8>     print[ P_OrbEn ] 0
|  9>     print[ P_Cartesian ] 0
| 10> end
| 11> *xyz 0 1
| 12>  C        1.5566650000    -0.6338110000    -0.5381710000
| 13>  C        3.0480530000    -0.5238780000    -0.3529540000
| 14>  O        3.6485250000    -0.4691240000    -1.6309950000
| 15>  C        4.9977450000    -0.3915840000    -1.6871880000
| 16>  C        5.8264260000    -0.3254160000    -0.6470360000
| 17>  C        5.4320540000    -0.3892230000    -3.1244260000
| 18>  N        6.8399900000    -0.0916460000    -3.2843100000
| 19>  H        1.0614550000    -0.6774930000     0.4341830000
| 20>  H        1.3009540000    -1.5367690000    -1.0956970000
| 21>  H        1.1688070000     0.2286360000    -1.0835140000
| 22>  H        3.4428610000    -1.3860170000     0.1992490000
| 23>  H        3.3092990000     0.3798880000     0.2121560000
| 24>  H        5.4872390000    -0.3252090000     0.3785660000
| 25>  H        6.8887970000    -0.2966920000    -0.8406710000
| 26>  H        4.7552640000     0.2940880000    -3.6605530000
| 27>  H        5.2386540000    -1.3869040000    -3.5342330000
| 28>  H        7.0263070000     0.8766900000    -3.0545990000
| 29>  H        7.1238140000    -0.2365170000    -4.2436060000
| 30> *
| 31>
| 32>                          ****END OF INPUT****
 Total Charge           Charge          ....    0
 Multiplicity           Mult            ....    1
 Number of Electrons    NEL             ....   56
 Basis Dimension        Dim             ....  153

MULLIKEN ATOMIC CHARGES
-----------------------
   0 C :   -0.012765
   1 C :    0.103282
   2 O :   -0.278857
   3 C :   -0.020083
   4 C :   -0.097733
   5 C :    0.156265
   6 N :   -0.211131
   7 H :    0.021761
   8 H :    0.032470
   9 H :    0.032522
  10 H :    0.021462
  11 H :    0.021004
  12 H :    0.008586
  13 H :    0.015067
  14 H :    0.002935
  15 H :    0.019021
  16 H :    0.094798
  17 H :    0.091396
Sum of atomic charges:   -0.0000000

LOEWDIN ATOMIC CHARGES
----------------------
   0 C :   -0.072108
   1 C :    0.065349
   2 O :   -0.073229
   3 C :    0.015311
   4 C :   -0.163034
   5 C :    0.003820
   6 N :   -0.098013
   7 H :    0.033841
   8 H :    0.031250
   9 H :    0.031112
  10 H :    0.014188
  11 H :    0.013457
  12 H :    0.018601
  13 H :    0.026520
  14 H :    0.009823
  15 H :    0.033766
  16 H :    0.053771
  17 H :    0.055574

  Mayer bond orders larger than 0.1
B(  0-C ,  1-C ) :   1.1158 B(  0-C ,  7-H ) :   0.9530 B(  0-C ,  8-H ) :   0.9635
B(  0-C ,  9-H ) :   0.9638 B(  1-C ,  2-O ) :   0.9656 B(  1-C , 10-H ) :   0.9364
B(  1-C , 11-H ) :   0.9369 B(  2-O ,  3-C ) :   1.1363 B(  3-C ,  4-C ) :   1.8723
B(  3-C ,  5-C ) :   1.0030 B(  4-C , 12-H ) :   0.9341 B(  4-C , 13-H ) :   0.8991
B(  5-C ,  6-N ) :   1.1144 B(  5-C , 14-H ) :   0.9127 B(  5-C , 15-H ) :   0.9091
B(  6-N , 16-H ) :   0.9655 B(  6-N , 17-H ) :   0.9630

FINAL SINGLE POINT ENERGY      -326.435581612222

DIPOLE MOMENT
-------------
                                X             Y             Z
Electronic contribution:      1.88252      -0.00265      -1.73573
Nuclear contribution   :     -2.19717       0.27493       1.52158
                        -----------------------------------------
Total Dipole Moment    :     -0.31465       0.27228      -0.21415
                        -----------------------------------------
Magnitude (a.u.)       :      0.46797
Magnitude (Debye)      :      1.18950

                             ****ORCA TERMINATED NORMALLY****
TOTAL RUN TIME: 0 days 0 hours 0 minutes 7 seconds 393 msec
