                         Program Version 3.0.3 - RELEASE   -
|  1> ! RI PBE def2-SVP def2-SVP/J NBO PAL2
|  2> % maxcore 2000
|  3> % output
|  4>     # printlevel mini
|  5>     print[ P_Basis ] 0
|  6>     print[ P_SCFInfo ] 1
|  7>     print[ P_SCFIterInfo ] 1
|  8>     print[ P_OrbEn ] 0
|  9>     print[ P_Cartesian ] 0
| 10> end
| 11> *xyz 0 1
| 12>  C        0.6183650000     0.2541880000     0.4382360000
| 13>  C        2.0585660000    -0.0259720000     0.1050050000
| 14>  O        2.0791800000    -1.0698670000    -0.8699270000
| 15>  C        3.2698460000    -1.4995900000    -1.3311370000
| 16>  C        3.3633000000    -2.4682430000    -2.2424070000
| 17>  C        4.4622770000    -0.8857050000    -0.8148870000
| 18>  N        5.4173390000    -0.3928650000    -0.4009010000
| 19>  H        0.5611570000     1.0499630000     1.1834870000
| 20>  H        0.1341190000    -0.6351830000     0.8450950000
| 21>  H        0.0695040000     0.5726970000    -0.4496340000
| 22>  H        2.6148270000    -0.3445450000     0.9928930000
| 23>  H        2.5501970000     0.8637950000    -0.3022850000
| 24>  H        2.4705660000    -2.9358170000    -2.6361690000
| 25>  H        4.3327570000    -2.7904380000    -2.5913700000
| 26> *
| 27>
| 28>                          ****END OF INPUT****
 Total Charge           Charge          ....    0
 Multiplicity           Mult            ....    1
 Number of Electrons    NEL             ....   52
 Basis Dimension        Dim             ....  133

MULLIKEN ATOMIC CHARGES
-----------------------
   0 C :   -0.025173
   1 C :    0.102633
   2 O :   -0.263435
   3 C :    0.044745
   4 C :   -0.011726
   5 C :   -0.171013
   6 N :    0.048551
   7 H :    0.037353
   8 H :    0.041064
   9 H :    0.040862
  10 H :    0.039255
  11 H :    0.038509
  12 H :    0.040347
  13 H :    0.038026
Sum of atomic charges:   -0.0000000

LOEWDIN ATOMIC CHARGES
----------------------
   0 C :   -0.071715
   1 C :    0.071954
   2 O :   -0.066759
   3 C :   -0.010948
   4 C :   -0.061188
   5 C :   -0.052487
   6 N :   -0.043490
   7 H :    0.040031
   8 H :    0.034875
   9 H :    0.034985
  10 H :    0.022425
  11 H :    0.022265
  12 H :    0.037547
  13 H :    0.042505

  Mayer bond orders larger than 0.1
B(  0-C ,  1-C ) :   1.1229 B(  0-C ,  7-H ) :   0.9531 B(  0-C ,  8-H ) :   0.9613
B(  0-C ,  9-H ) :   0.9607 B(  1-C ,  2-O ) :   0.9298 B(  1-C , 10-H ) :   0.9405
B(  1-C , 11-H ) :   0.9407 B(  2-O ,  3-C ) :   1.1745 B(  3-C ,  4-C ) :   1.8655
B(  3-C ,  5-C ) :   1.0055 B(  4-C ,  6-N ) :   0.1121 B(  4-C , 12-H ) :   0.9291
B(  4-C , 13-H ) :   0.9281 B(  5-C ,  6-N ) :   2.9746

FINAL SINGLE POINT ENERGY      -324.025587054353

DIPOLE MOMENT
-------------
                                X             Y             Z
Electronic contribution:      6.48214      -1.68372      -1.88690
Nuclear contribution   :     -7.48811       1.61449       1.86977
                        -----------------------------------------
Total Dipole Moment    :     -1.00597      -0.06922      -0.01713
                        -----------------------------------------
Magnitude (a.u.)       :      1.00849
Magnitude (Debye)      :      2.56338

                             ****ORCA TERMINATED NORMALLY****
TOTAL RUN TIME: 0 days 0 hours 0 minutes 6 seconds 444 msec
