                         Program Version 3.0.3 - RELEASE   -
|  1> ! RI PBE def2-SVP def2-SVP/J NBO PAL2
|  2> % maxcore 2000
|  3> % output
|  4>     # printlevel mini
|  5>     print[ P_Basis ] 0
|  6>     print[ P_SCFInfo ] 1
|  7>     print[ P_SCFIterInfo ] 1
|  8>     print[ P_OrbEn ] 0
|  9>     print[ P_Cartesian ] 0
| 10> end
| 11> *xyz 0 1
| 12>  C        2.0077420000    -2.2667380000    -2.2201840000
| 13>  C        2.9308940000    -1.4262710000    -1.3738220000
| 14>  O        4.1517920000    -1.2721650000    -2.0558380000
| 15>  C        5.0919060000    -0.4295100000    -1.4101720000
| 16>  C        5.8170530000    -1.1488120000    -0.2874590000
| 17>  C        6.0473240000     0.0476770000    -2.4843970000
| 18>  N        5.3348220000     0.8232820000    -3.4829970000
| 19>  H        1.0495640000    -2.4048510000    -1.7143430000
| 20>  H        2.4447210000    -3.2499260000    -2.4055680000
| 21>  H        1.8230940000    -1.7866580000    -3.1833390000
| 22>  H        3.0876900000    -1.9076860000    -0.3980630000
| 23>  H        2.4862310000    -0.4382260000    -1.1812930000
| 24>  H        4.5616970000     0.4498250000    -1.0140710000
| 25>  H        6.3655760000    -2.0091650000    -0.6787390000
| 26>  H        5.1226610000    -1.5052520000     0.4754040000
| 27>  H        6.5272520000    -0.4774400000     0.2013300000
| 28>  H        6.5680350000    -0.8363740000    -2.8873500000
| 29>  H        6.8035500000     0.6835880000    -2.0141990000
| 30>  H        4.6207230000     0.2384810000    -3.9004780000
| 31>  H        5.9591930000     1.1128200000    -4.2245100000
| 32> *
| 33>
| 34>                          ****END OF INPUT****
 Total Charge           Charge          ....    0
 Multiplicity           Mult            ....    1
 Number of Electrons    NEL             ....   58
 Basis Dimension        Dim             ....  163

MULLIKEN ATOMIC CHARGES
-----------------------
   0 C :   -0.020845
   1 C :    0.140610
   2 O :   -0.352660
   3 C :    0.034720
   4 C :    0.026025
   5 C :    0.101778
   6 N :   -0.206718
   7 H :    0.019316
   8 H :    0.029543
   9 H :    0.025667
  10 H :   -0.003794
  11 H :   -0.000052
  12 H :   -0.007998
  13 H :    0.019359
  14 H :    0.015714
  15 H :    0.016878
  16 H :   -0.011892
  17 H :    0.002164
  18 H :    0.086648
  19 H :    0.085535
Sum of atomic charges:   -0.0000000

LOEWDIN ATOMIC CHARGES
----------------------
   0 C :   -0.073920
   1 C :    0.057825
   2 O :   -0.147313
   3 C :    0.040617
   4 C :   -0.073042
   5 C :    0.000342
   6 N :   -0.112400
   7 H :    0.031684
   8 H :    0.029697
   9 H :    0.027811
  10 H :    0.001933
  11 H :    0.006147
  12 H :    0.007933
  13 H :    0.027130
  14 H :    0.025327
  15 H :    0.030377
  16 H :    0.001172
  17 H :    0.021977
  18 H :    0.045481
  19 H :    0.051220

  Mayer bond orders larger than 0.1
B(  0-C ,  1-C ) :   1.1254 B(  0-C ,  7-H ) :   0.9532 B(  0-C ,  8-H ) :   0.9624
B(  0-C ,  9-H ) :   0.9633 B(  1-C ,  2-O ) :   0.9984 B(  1-C , 10-H ) :   0.9280
B(  1-C , 11-H ) :   0.9312 B(  2-O ,  3-C ) :   0.9963 B(  3-C ,  4-C ) :   1.0905
B(  3-C ,  5-C ) :   1.0464 B(  3-C , 12-H ) :   0.9018 B(  4-C , 13-H ) :   0.9509
B(  4-C , 14-H ) :   0.9486 B(  4-C , 15-H ) :   0.9507 B(  5-C ,  6-N ) :   1.1083
B(  5-C , 16-H ) :   0.9134 B(  5-C , 17-H ) :   0.9292 B(  6-N , 18-H ) :   0.9608
B(  6-N , 19-H ) :   0.9651

FINAL SINGLE POINT ENERGY      -327.648657992793

DIPOLE MOMENT
-------------
                                X             Y             Z
Electronic contribution:      0.80187       1.28726      -1.82671
Nuclear contribution   :     -0.74926      -1.47283       1.91109
                        -----------------------------------------
Total Dipole Moment    :      0.05261      -0.18557       0.08438
                        -----------------------------------------
Magnitude (a.u.)       :      0.21054
Magnitude (Debye)      :      0.53514

                             ****ORCA TERMINATED NORMALLY****
TOTAL RUN TIME: 0 days 0 hours 0 minutes 8 seconds 258 msec
