                         Program Version 3.0.3 - RELEASE   -
|  1> ! RI PBE def2-SVP def2-SVP/J NBO PAL2
|  2> % maxcore 2000
|  3> % output
|  4>     # printlevel mini
|  5>     print[ P_Basis ] 0
|  6>     print[ P_SCFInfo ] 1
|  7>     print[ P_SCFIterInfo ] 1
|  8>     print[ P_OrbEn ] 0
|  9>     print[ P_Cartesian ] 0
| 10> end
| 11> *xyz 0 1
| 12>  C        0.9894570000     0.1493240000     0.0821960000
| 13>  C        2.4567810000    -0.1716290000     0.1914750000
| 14>  O        3.1793550000     0.7755250000    -0.5762010000
| 15>  C        4.5616290000     0.5668590000    -0.5905270000
| 16>  C        5.1825010000     1.5148810000    -1.5976530000
| 17>  C        5.1501820000     0.7710380000     0.7498800000
| 18>  N        5.6060580000     0.9292670000     1.7933090000
| 19>  H        0.4054530000    -0.5677670000     0.6626500000
| 20>  H        0.6587700000     0.1041330000    -0.9570840000
| 21>  H        0.7858560000     1.1502980000     0.4663790000
| 22>  H        2.6660800000    -1.1832560000    -0.1863070000
| 23>  H        2.7868710000    -0.1323650000     1.2380140000
| 24>  H        4.7866260000    -0.4742000000    -0.8721090000
| 25>  H        4.9652420000     2.5472730000    -1.3226610000
| 26>  H        4.7591280000     1.3134160000    -2.5819430000
| 27>  H        6.2638230000     1.3788150000    -1.6368170000
| 28> *
| 29>
| 30>                          ****END OF INPUT****
 Total Charge           Charge          ....    0
 Multiplicity           Mult            ....    1
 Number of Electrons    NEL             ....   54
 Basis Dimension        Dim             ....  143

MULLIKEN ATOMIC CHARGES
-----------------------
   0 C :   -0.019941
   1 C :    0.125773
   2 O :   -0.323230
   3 C :    0.140392
   4 C :    0.016979
   5 C :   -0.260970
   6 N :    0.037025
   7 H :    0.029222
   8 H :    0.031347
   9 H :    0.035938
  10 H :   -0.002365
  11 H :    0.025348
  12 H :    0.029326
  13 H :    0.051479
  14 H :    0.040120
  15 H :    0.043556
Sum of atomic charges:   -0.0000000

LOEWDIN ATOMIC CHARGES
----------------------
   0 C :   -0.070702
   1 C :    0.061499
   2 O :   -0.126299
   3 C :    0.027319
   4 C :   -0.049063
   5 C :   -0.058094
   6 N :   -0.056913
   7 H :    0.036580
   8 H :    0.030555
   9 H :    0.033788
  10 H :    0.007789
  11 H :    0.013690
  12 H :    0.031139
  13 H :    0.040225
  14 H :    0.037406
  15 H :    0.041081

  Mayer bond orders larger than 0.1
B(  0-C ,  1-C ) :   1.1223 B(  0-C ,  7-H ) :   0.9529 B(  0-C ,  8-H ) :   0.9653
B(  0-C ,  9-H ) :   0.9630 B(  1-C ,  2-O ) :   0.9815 B(  1-C , 10-H ) :   0.9279
B(  1-C , 11-H ) :   0.9320 B(  2-O ,  3-C ) :   1.0888 B(  3-C ,  4-C ) :   1.0801
B(  3-C ,  5-C ) :   0.9770 B(  3-C , 12-H ) :   0.9047 B(  4-C , 13-H ) :   0.9567
B(  4-C , 14-H ) :   0.9542 B(  4-C , 15-H ) :   0.9527 B(  5-C ,  6-N ) :   3.0767

FINAL SINGLE POINT ENERGY      -325.241306373394

DIPOLE MOMENT
-------------
                                X             Y             Z
Electronic contribution:      5.35325       1.06297       3.57301
Nuclear contribution   :     -5.85183      -1.53206      -4.58425
                        -----------------------------------------
Total Dipole Moment    :     -0.49858      -0.46908      -1.01124
                        -----------------------------------------
Magnitude (a.u.)       :      1.22116
Magnitude (Debye)      :      3.10393

                             ****ORCA TERMINATED NORMALLY****
TOTAL RUN TIME: 0 days 0 hours 0 minutes 6 seconds 690 msec
