                         Program Version 3.0.3 - RELEASE   -
|  1> ! RI PBE def2-SVP def2-SVP/J NBO PAL2
|  2> % maxcore 2000
|  3> % output
|  4>     # printlevel mini
|  5>     print[ P_Basis ] 0
|  6>     print[ P_SCFInfo ] 1
|  7>     print[ P_SCFIterInfo ] 1
|  8>     print[ P_OrbEn ] 0
|  9>     print[ P_Cartesian ] 0
| 10> end
| 11> *xyz 0 1
| 12>  C        1.1805030000     0.0949920000    -0.1978260000
| 13>  C        2.6877790000     0.0618100000    -0.1939360000
| 14>  O        3.1695110000     0.9770800000    -1.1453640000
| 15>  C        4.5738970000     1.0118680000    -1.2126000000
| 16>  C        4.9980670000     2.0853210000    -2.1958050000
| 17>  C        4.5137140000     1.7810390000    -3.6097690000
| 18>  N        4.5705160000     3.3771040000    -1.6762780000
| 19>  H        0.7838260000    -0.6124110000     0.5336820000
| 20>  H        0.7918700000    -0.1726850000    -1.1823390000
| 21>  H        0.8161900000     1.0925560000     0.0557240000
| 22>  H        3.0515870000    -0.9501500000    -0.4318010000
| 23>  H        3.0783040000     0.3187080000     0.8027790000
| 24>  H        4.9631160000     0.0327740000    -1.5316920000
| 25>  H        4.9930860000     1.2432250000    -0.2230530000
| 26>  H        6.0953150000     2.0788080000    -2.1939240000
| 27>  H        3.4227860000     1.7418600000    -3.6405560000
| 28>  H        4.8992580000     0.8218240000    -3.9683700000
| 29>  H        4.8495740000     2.5560150000    -4.3038370000
| 30>  H        3.5644430000     3.3636250000    -1.5509950000
| 31>  H        4.7777700000     4.1115570000    -2.3419600000
| 32> *
| 33>
| 34>                          ****END OF INPUT****
 Total Charge           Charge          ....    0
 Multiplicity           Mult            ....    1
 Number of Electrons    NEL             ....   58
 Basis Dimension        Dim             ....  163

MULLIKEN ATOMIC CHARGES
-----------------------
   0 C :   -0.016514
   1 C :    0.140604
   2 O :   -0.359659
   3 C :    0.190942
   4 C :   -0.043069
   5 C :    0.009046
   6 N :   -0.187556
   7 H :    0.020182
   8 H :    0.028616
   9 H :    0.027915
  10 H :   -0.006851
  11 H :   -0.003400
  12 H :   -0.012703
  13 H :   -0.001208
  14 H :    0.008073
  15 H :    0.024127
  16 H :    0.003383
  17 H :    0.010657
  18 H :    0.087553
  19 H :    0.079862
Sum of atomic charges:   -0.0000000

LOEWDIN ATOMIC CHARGES
----------------------
   0 C :   -0.073288
   1 C :    0.059085
   2 O :   -0.148994
   3 C :    0.062335
   4 C :   -0.017006
   5 C :   -0.080419
   6 N :   -0.097245
   7 H :    0.032420
   8 H :    0.029212
   9 H :    0.029089
  10 H :    0.003293
  11 H :    0.004561
  12 H :    0.002762
  13 H :    0.006928
  14 H :    0.025937
  15 H :    0.024317
  16 H :    0.023619
  17 H :    0.020199
  18 H :    0.045687
  19 H :    0.047508

  Mayer bond orders larger than 0.1
B(  0-C ,  1-C ) :   1.1165 B(  0-C ,  7-H ) :   0.9540 B(  0-C ,  8-H ) :   0.9648
B(  0-C ,  9-H ) :   0.9646 B(  1-C ,  2-O ) :   0.9996 B(  1-C , 10-H ) :   0.9312
B(  1-C , 11-H ) :   0.9322 B(  2-O ,  3-C ) :   1.0083 B(  3-C ,  4-C ) :   1.0551
B(  3-C , 12-H ) :   0.9263 B(  3-C , 13-H ) :   0.9210 B(  4-C ,  5-C ) :   1.0663
B(  4-C ,  6-N ) :   1.0864 B(  4-C , 14-H ) :   0.9034 B(  5-C , 15-H ) :   0.9563
B(  5-C , 16-H ) :   0.9455 B(  5-C , 17-H ) :   0.9593 B(  6-N , 18-H ) :   0.9647
B(  6-N , 19-H ) :   0.9695

FINAL SINGLE POINT ENERGY      -327.648642787419

DIPOLE MOMENT
-------------
                                X             Y             Z
Electronic contribution:      1.22842       1.52199       0.77729
Nuclear contribution   :     -1.31343      -1.78655      -0.89335
                        -----------------------------------------
Total Dipole Moment    :     -0.08501      -0.26456      -0.11606
                        -----------------------------------------
Magnitude (a.u.)       :      0.30115
Magnitude (Debye)      :      0.76546

                             ****ORCA TERMINATED NORMALLY****
TOTAL RUN TIME: 0 days 0 hours 0 minutes 8 seconds 121 msec
