                         Program Version 3.0.3 - RELEASE   -
|  1> ! RI PBE def2-SVP def2-SVP/J NBO PAL2
|  2> % maxcore 2000
|  3> % output
|  4>     # printlevel mini
|  5>     print[ P_Basis ] 0
|  6>     print[ P_SCFInfo ] 1
|  7>     print[ P_SCFIterInfo ] 1
|  8>     print[ P_OrbEn ] 0
|  9>     print[ P_Cartesian ] 0
| 10> end
| 11> *xyz 0 1
| 12>  C        0.9183050000     0.0864430000     0.1618420000
| 13>  C        2.4201610000    -0.0338240000     0.1675000000
| 14>  O        2.9663960000     1.0505320000    -0.5511030000
| 15>  C        4.3622020000     1.0211060000    -0.5990090000
| 16>  C        4.8097030000     2.2377950000    -1.3960240000
| 17>  C        6.2555960000     2.3090620000    -1.5105760000
| 18>  N        7.4015450000     2.3488450000    -1.5907700000
| 19>  H        0.4718960000    -0.7435260000     0.7133760000
| 20>  H        0.5340830000     0.0682440000    -0.8596830000
| 21>  H        0.6047480000     1.0208170000     0.6309880000
| 22>  H        2.7362390000    -0.9811510000    -0.2942800000
| 23>  H        2.8069640000    -0.0281170000     1.1975130000
| 24>  H        4.7227250000     0.1014490000    -1.0823190000
| 25>  H        4.7940970000     1.0539650000     0.4117980000
| 26>  H        4.4436540000     3.1478360000    -0.9133490000
| 27>  H        4.3727750000     2.2017040000    -2.3975020000
| 28> *
| 29>
| 30>                          ****END OF INPUT****
 Total Charge           Charge          ....    0
 Multiplicity           Mult            ....    1
 Number of Electrons    NEL             ....   54
 Basis Dimension        Dim             ....  143

MULLIKEN ATOMIC CHARGES
-----------------------
   0 C :   -0.019769
   1 C :    0.133327
   2 O :   -0.344608
   3 C :    0.145954
   4 C :    0.076493
   5 C :   -0.284172
   6 N :    0.046170
   7 H :    0.025441
   8 H :    0.032213
   9 H :    0.033098
  10 H :   -0.001353
  11 H :    0.002139
  12 H :    0.015395
  13 H :    0.017470
  14 H :    0.060824
  15 H :    0.061378
Sum of atomic charges:   -0.0000000

LOEWDIN ATOMIC CHARGES
----------------------
   0 C :   -0.071783
   1 C :    0.061793
   2 O :   -0.147830
   3 C :    0.072219
   4 C :   -0.062758
   5 C :   -0.044557
   6 N :   -0.064823
   7 H :    0.034947
   8 H :    0.031052
   9 H :    0.031417
  10 H :    0.006295
  11 H :    0.006703
  12 H :    0.012072
  13 H :    0.012763
  14 H :    0.061012
  15 H :    0.061478

  Mayer bond orders larger than 0.1
B(  0-C ,  1-C ) :   1.1170 B(  0-C ,  7-H ) :   0.9537 B(  0-C ,  8-H ) :   0.9652
B(  0-C ,  9-H ) :   0.9646 B(  1-C ,  2-O ) :   0.9875 B(  1-C , 10-H ) :   0.9333
B(  1-C , 11-H ) :   0.9349 B(  2-O ,  3-C ) :   1.0488 B(  3-C ,  4-C ) :   1.0670
B(  3-C , 12-H ) :   0.9325 B(  3-C , 13-H ) :   0.9316 B(  4-C ,  5-C ) :   1.0762
B(  4-C , 14-H ) :   0.8944 B(  4-C , 15-H ) :   0.8899 B(  5-C ,  6-N ) :   3.0572

FINAL SINGLE POINT ENERGY      -325.242349329311

DIPOLE MOMENT
-------------
                                X             Y             Z
Electronic contribution:      8.98741       4.52858      -3.31699
Nuclear contribution   :    -10.34523      -5.00198       3.68560
                        -----------------------------------------
Total Dipole Moment    :     -1.35782      -0.47341       0.36861
                        -----------------------------------------
Magnitude (a.u.)       :      1.48448
Magnitude (Debye)      :      3.77324

                             ****ORCA TERMINATED NORMALLY****
TOTAL RUN TIME: 0 days 0 hours 0 minutes 7 seconds 235 msec
