                         Program Version 3.0.3 - RELEASE   -
|  1> ! RI PBE def2-SVP def2-SVP/J NBO PAL2
|  2> % maxcore 2000
|  3> % output
|  4>     # printlevel mini
|  5>     print[ P_Basis ] 0
|  6>     print[ P_SCFInfo ] 1
|  7>     print[ P_SCFIterInfo ] 1
|  8>     print[ P_OrbEn ] 0
|  9>     print[ P_Cartesian ] 0
| 10> end
| 11> *xyz 0 1
| 12>  C        2.7192870000     3.5919360000    -0.6011310000
| 13>  C        3.1942540000     2.2328940000    -0.1536240000
| 14>  O        4.4391620000     2.3697110000     0.4850540000
| 15>  C        4.9599940000     1.1454570000     0.9424660000
| 16>  C        6.2578760000     1.4130910000     1.6602990000
| 17>  N        6.0387650000     2.2204390000     2.8380630000
| 18>  C        7.2627680000     2.5877110000     3.5111030000
| 19>  H        1.7540690000     3.5092310000    -1.1054420000
| 20>  H        3.4337250000     4.0402070000    -1.2943030000
| 21>  H        2.6046400000     4.2609640000     0.2540450000
| 22>  H        3.2903370000     1.5547120000    -1.0160070000
| 23>  H        2.4679460000     1.7765250000     0.5364340000
| 24>  H        5.1316480000     0.4638550000     0.0955740000
| 25>  H        4.2480100000     0.6652600000     1.6299740000
| 26>  H        6.9679360000     1.8749090000     0.9502140000
| 27>  H        6.6910380000     0.4529490000     1.9637450000
| 28>  H        5.5258920000     3.0496380000     2.5651200000
| 29>  H        7.9974700000     3.0940380000     2.8619260000
| 30>  H        7.7449740000     1.6920400000     3.9142970000
| 31>  H        7.0394970000     3.2468220000     4.3524040000
| 32> *
| 33>
| 34>                          ****END OF INPUT****
 Total Charge           Charge          ....    0
 Multiplicity           Mult            ....    1
 Number of Electrons    NEL             ....   58
 Basis Dimension        Dim             ....  163

MULLIKEN ATOMIC CHARGES
-----------------------
   0 C :   -0.028808
   1 C :    0.131184
   2 O :   -0.356647
   3 C :    0.155833
   4 C :    0.108565
   5 N :   -0.278101
   6 C :    0.068816
   7 H :    0.021396
   8 H :    0.033969
   9 H :    0.032359
  10 H :   -0.001705
  11 H :   -0.002262
  12 H :   -0.003132
  13 H :   -0.002133
  14 H :   -0.012435
  15 H :    0.001917
  16 H :    0.101724
  17 H :   -0.005057
  18 H :    0.012063
  19 H :    0.022454
Sum of atomic charges:   -0.0000000

LOEWDIN ATOMIC CHARGES
----------------------
   0 C :   -0.076531
   1 C :    0.056798
   2 O :   -0.152139
   3 C :    0.054523
   4 C :    0.001526
   5 N :   -0.105995
   6 C :   -0.008138
   7 H :    0.033076
   8 H :    0.030443
   9 H :    0.030213
  10 H :    0.004417
  11 H :    0.004460
  12 H :    0.006828
  13 H :    0.006484
  14 H :    0.000338
  15 H :    0.023600
  16 H :    0.050437
  17 H :   -0.002086
  18 H :    0.019190
  19 H :    0.022554

  Mayer bond orders larger than 0.1
B(  0-C ,  1-C ) :   1.1202 B(  0-C ,  7-H ) :   0.9512 B(  0-C ,  8-H ) :   0.9640
B(  0-C ,  9-H ) :   0.9630 B(  1-C ,  2-O ) :   1.0050 B(  1-C , 10-H ) :   0.9309
B(  1-C , 11-H ) :   0.9320 B(  2-O ,  3-C ) :   1.0086 B(  3-C ,  4-C ) :   1.0845
B(  3-C , 12-H ) :   0.9239 B(  3-C , 13-H ) :   0.9179 B(  4-C ,  5-N ) :   1.0573
B(  4-C , 14-H ) :   0.9065 B(  4-C , 15-H ) :   0.9203 B(  5-N ,  6-C ) :   1.0704
B(  5-N , 16-H ) :   0.9407 B(  6-C , 17-H ) :   0.9439 B(  6-C , 18-H ) :   0.9668
B(  6-C , 19-H ) :   0.9727

FINAL SINGLE POINT ENERGY      -327.639007719653

DIPOLE MOMENT
-------------
                                X             Y             Z
Electronic contribution:     -0.25104      -0.64136       0.08740
Nuclear contribution   :      0.11447       0.57357      -0.36410
                        -----------------------------------------
Total Dipole Moment    :     -0.13656      -0.06779      -0.27670
                        -----------------------------------------
Magnitude (a.u.)       :      0.31593
Magnitude (Debye)      :      0.80302

                             ****ORCA TERMINATED NORMALLY****
TOTAL RUN TIME: 0 days 0 hours 0 minutes 8 seconds 19 msec
