                         Program Version 3.0.3 - RELEASE   -
|  1> ! RI PBE def2-SVP def2-SVP/J NBO PAL2
|  2> % maxcore 2000
|  3> % output
|  4>     # printlevel mini
|  5>     print[ P_Basis ] 0
|  6>     print[ P_SCFInfo ] 1
|  7>     print[ P_SCFIterInfo ] 1
|  8>     print[ P_OrbEn ] 0
|  9>     print[ P_Cartesian ] 0
| 10> end
| 11> *xyz 0 1
| 12>  C        3.2268350000    -1.5006880000     0.1322470000
| 13>  C        2.5789040000    -0.1325460000    -0.0068370000
| 14>  O        1.3585520000    -0.0796090000    -0.0829680000
| 15>  C        3.3710080000     1.0656160000    -0.0482680000
| 16>  C        4.7304200000     1.2413320000     0.0191870000
| 17>  N        5.6613570000     0.2619110000     0.1462640000
| 18>  N        5.2521450000     2.4975980000    -0.0423890000
| 19>  H        2.4352030000    -2.2477250000     0.1402000000
| 20>  H        3.7896050000    -1.5855850000     1.0681190000
| 21>  H        3.8951380000    -1.7162600000    -0.7083830000
| 22>  H        2.7805500000     1.9691640000    -0.1497670000
| 23>  H        5.3852500000    -0.6974560000     0.2015030000
| 24>  H        6.6377140000     0.4781580000     0.1894430000
| 25>  H        4.6364270000     3.2810690000    -0.1371400000
| 26>  H        6.2371010000     2.6698310000     0.0021010000
| 27> *
| 28>
| 29>                          ****END OF INPUT****
 Total Charge           Charge          ....    0
 Multiplicity           Mult            ....    1
 Number of Electrons    NEL             ....   54
 Basis Dimension        Dim             ....  138

MULLIKEN ATOMIC CHARGES
-----------------------
   0 C :   -0.007201
   1 C :   -0.050456
   2 O :   -0.223355
   3 C :   -0.051523
   4 C :   -0.038490
   5 N :   -0.021873
   6 N :   -0.041874
   7 H :    0.021305
   8 H :    0.028682
   9 H :    0.028662
  10 H :   -0.049447
  11 H :    0.083075
  12 H :    0.105453
  13 H :    0.117482
  14 H :    0.099562
Sum of atomic charges:    0.0000000

LOEWDIN ATOMIC CHARGES
----------------------
   0 C :   -0.102455
   1 C :    0.018573
   2 O :   -0.192948
   3 C :   -0.209315
   4 C :    0.059649
   5 N :    0.012738
   6 N :    0.008910
   7 H :    0.037872
   8 H :    0.029013
   9 H :    0.028818
  10 H :    0.025891
  11 H :    0.066939
  12 H :    0.069751
  13 H :    0.080665
  14 H :    0.065898

  Mayer bond orders larger than 0.1
B(  0-C ,  1-C ) :   1.0343 B(  0-C ,  7-H ) :   0.9241 B(  0-C ,  8-H ) :   0.9337
B(  0-C ,  9-H ) :   0.9341 B(  1-C ,  2-O ) :   2.0592 B(  1-C ,  3-C ) :   1.1324
B(  3-C ,  4-C ) :   1.3946 B(  3-C , 10-H ) :   0.9339 B(  4-C ,  5-N ) :   1.3059
B(  4-C ,  6-N ) :   1.2848 B(  5-N , 11-H ) :   0.9352 B(  5-N , 12-H ) :   0.9402
B(  6-N , 13-H ) :   0.9414 B(  6-N , 14-H ) :   0.9465

FINAL SINGLE POINT ENERGY      -341.298976591892

DIPOLE MOMENT
-------------
                                X             Y             Z
Electronic contribution:     -2.49499       2.20973      -0.30935
Nuclear contribution   :      5.25131      -1.55125       0.42537
                        -----------------------------------------
Total Dipole Moment    :      2.75632       0.65848       0.11602
                        -----------------------------------------
Magnitude (a.u.)       :      2.83626
Magnitude (Debye)      :      7.20920

                             ****ORCA TERMINATED NORMALLY****
TOTAL RUN TIME: 0 days 0 hours 0 minutes 6 seconds 739 msec
