                         Program Version 3.0.3 - RELEASE   -
|  1> ! RI PBE def2-SVP def2-SVP/J NBO PAL2
|  2> % maxcore 2000
|  3> % output
|  4>     # printlevel mini
|  5>     print[ P_Basis ] 0
|  6>     print[ P_SCFInfo ] 1
|  7>     print[ P_SCFIterInfo ] 1
|  8>     print[ P_OrbEn ] 0
|  9>     print[ P_Cartesian ] 0
| 10> end
| 11> *xyz 0 1
| 12>  C        1.5002940000     0.1567830000    -0.5007390000
| 13>  C        2.9246500000     0.5991540000    -0.3455130000
| 14>  O        3.5266200000     1.1445650000    -1.2402330000
| 15>  C        3.5718930000     0.3406020000     1.0043710000
| 16>  C        4.9247560000    -0.3436610000     0.9353400000
| 17>  N        5.8475320000     0.3165590000     0.1814350000
| 18>  N        5.2285470000    -1.4097660000     1.5630660000
| 19>  H        1.1169210000     0.4454410000    -1.4774100000
| 20>  H        0.8828970000     0.5913310000     0.2909860000
| 21>  H        1.4427520000    -0.9298030000    -0.3832550000
| 22>  H        2.9080380000    -0.2384040000     1.6457010000
| 23>  H        3.7111990000     1.3250030000     1.4677040000
| 24>  H        5.4883210000     0.8921100000    -0.5659970000
| 25>  H        6.6919910000    -0.2000810000    -0.0035760000
| 26>  H        4.4479000000    -1.7421230000     2.1187220000
| 27> *
| 28>
| 29>                          ****END OF INPUT****
 Total Charge           Charge          ....    0
 Multiplicity           Mult            ....    1
 Number of Electrons    NEL             ....   54
 Basis Dimension        Dim             ....  138

MULLIKEN ATOMIC CHARGES
-----------------------
   0 C :    0.019190
   1 C :   -0.059016
   2 O :   -0.177360
   3 C :    0.089449
   4 C :   -0.222194
   5 N :   -0.045398
   6 N :   -0.107052
   7 H :    0.041457
   8 H :    0.048349
   9 H :    0.057633
  10 H :   -0.004030
  11 H :    0.069374
  12 H :    0.106791
  13 H :    0.110336
  14 H :    0.072473
Sum of atomic charges:   -0.0000000

LOEWDIN ATOMIC CHARGES
----------------------
   0 C :   -0.083423
   1 C :    0.066199
   2 O :   -0.123563
   3 C :   -0.083838
   4 C :    0.001036
   5 N :    0.000838
   6 N :   -0.180715
   7 H :    0.039622
   8 H :    0.048704
   9 H :    0.052899
  10 H :    0.031486
  11 H :    0.064979
  12 H :    0.054943
  13 H :    0.071045
  14 H :    0.039787

  Mayer bond orders larger than 0.1
B(  0-C ,  1-C ) :   1.0600 B(  0-C ,  7-H ) :   0.9505 B(  0-C ,  8-H ) :   0.9374
B(  0-C ,  9-H ) :   0.9340 B(  1-C ,  2-O ) :   2.0977 B(  1-C ,  3-C ) :   0.9397
B(  3-C ,  4-C ) :   0.9769 B(  3-C , 10-H ) :   0.9117 B(  3-C , 11-H ) :   0.8852
B(  4-C ,  5-N ) :   1.2558 B(  4-C ,  6-N ) :   1.9487 B(  5-N , 12-H ) :   0.9160
B(  5-N , 13-H ) :   0.9411 B(  6-N , 14-H ) :   0.9217

FINAL SINGLE POINT ENERGY      -341.305549850964

DIPOLE MOMENT
-------------
                                X             Y             Z
Electronic contribution:      3.39753       0.98236      -1.24183
Nuclear contribution   :     -4.45919      -0.77119       1.32503
                        -----------------------------------------
Total Dipole Moment    :     -1.06166       0.21117       0.08319
                        -----------------------------------------
Magnitude (a.u.)       :      1.08565
Magnitude (Debye)      :      2.75951

                             ****ORCA TERMINATED NORMALLY****
TOTAL RUN TIME: 0 days 0 hours 0 minutes 6 seconds 699 msec
