                         Program Version 3.0.3 - RELEASE   -
|  1> ! RI PBE def2-SVP def2-SVP/J NBO PAL2
|  2> % maxcore 2000
|  3> % output
|  4>     # printlevel mini
|  5>     print[ P_Basis ] 0
|  6>     print[ P_SCFInfo ] 1
|  7>     print[ P_SCFIterInfo ] 1
|  8>     print[ P_OrbEn ] 0
|  9>     print[ P_Cartesian ] 0
| 10> end
| 11> *xyz 0 1
| 12>  C        1.9890490000    -0.5017180000     1.2963950000
| 13>  C        2.5914700000    -0.0062490000    -0.0130340000
| 14>  O        3.6049870000     0.9217150000     0.2531420000
| 15>  C        3.1041670000    -1.1470190000    -0.8597670000
| 16>  C        2.1521070000    -2.1789680000    -1.3683670000
| 17>  N        4.3544130000    -1.1533150000    -1.0898380000
| 18>  N        4.9084720000    -2.1877830000    -1.7854890000
| 19>  H        1.6323870000     0.3530920000     1.8732030000
| 20>  H        2.7510500000    -1.0195820000     1.8829110000
| 21>  H        1.1473880000    -1.1788100000     1.1313820000
| 22>  H        1.7953810000     0.4927700000    -0.5908380000
| 23>  H        4.4097760000     0.5381110000    -0.1308490000
| 24>  H        1.1233140000    -1.9409230000    -1.1010640000
| 25>  H        2.3945530000    -3.1681350000    -0.9662360000
| 26>  H        2.1976930000    -2.2536820000    -2.4616650000
| 27>  H        5.7860020000    -1.8971960000    -2.1877770000
| 28>  H        4.3039900000    -2.6080380000    -2.4842000000
| 29> *
| 30>
| 31>                          ****END OF INPUT****
 Total Charge           Charge          ....    0
 Multiplicity           Mult            ....    1
 Number of Electrons    NEL             ....   56
 Basis Dimension        Dim             ....  148

MULLIKEN ATOMIC CHARGES
-----------------------
   0 C :    0.014545
   1 C :    0.121943
   2 O :   -0.256514
   3 C :   -0.210650
   4 C :    0.042503
   5 N :   -0.167073
   6 N :   -0.047698
   7 H :    0.032162
   8 H :    0.018206
   9 H :    0.006531
  10 H :   -0.004434
  11 H :    0.138492
  12 H :    0.026307
  13 H :    0.047221
  14 H :    0.034883
  15 H :    0.116839
  16 H :    0.086737
Sum of atomic charges:   -0.0000000

LOEWDIN ATOMIC CHARGES
----------------------
   0 C :   -0.071636
   1 C :    0.036995
   2 O :   -0.116350
   3 C :   -0.065944
   4 C :   -0.078191
   5 N :   -0.062696
   6 N :    0.000562
   7 H :    0.031954
   8 H :    0.027210
   9 H :    0.020899
  10 H :    0.014849
  11 H :    0.041857
  12 H :    0.037292
  13 H :    0.043322
  14 H :    0.035773
  15 H :    0.061285
  16 H :    0.042817

  Mayer bond orders larger than 0.1
B(  0-C ,  1-C ) :   1.0507 B(  0-C ,  7-H ) :   0.9554 B(  0-C ,  8-H ) :   0.9507
B(  0-C ,  9-H ) :   0.9470 B(  1-C ,  2-O ) :   1.1643 B(  1-C ,  3-C ) :   1.0010
B(  1-C , 10-H ) :   0.8911 B(  2-O , 11-H ) :   0.9376 B(  3-C ,  4-C ) :   1.0831
B(  3-C ,  5-N ) :   1.8669 B(  4-C , 12-H ) :   0.9411 B(  4-C , 13-H ) :   0.9381
B(  4-C , 14-H ) :   0.9265 B(  5-N ,  6-N ) :   1.1174 B(  5-N , 11-H ) :   0.1177
B(  6-N , 15-H ) :   0.9638 B(  6-N , 16-H ) :   0.9406

FINAL SINGLE POINT ENERGY      -342.460317829977

DIPOLE MOMENT
-------------
                                X             Y             Z
Electronic contribution:      4.58681       2.58093      -1.13598
Nuclear contribution   :     -4.75927      -3.53185       0.11331
                        -----------------------------------------
Total Dipole Moment    :     -0.17246      -0.95092      -1.02266
                        -----------------------------------------
Magnitude (a.u.)       :      1.40706
Magnitude (Debye)      :      3.57647

                             ****ORCA TERMINATED NORMALLY****
TOTAL RUN TIME: 0 days 0 hours 0 minutes 8 seconds 2 msec
