                         Program Version 3.0.3 - RELEASE   -
|  1> ! RI PBE def2-SVP def2-SVP/J NBO PAL2
|  2> % maxcore 2000
|  3> % output
|  4>     # printlevel mini
|  5>     print[ P_Basis ] 0
|  6>     print[ P_SCFInfo ] 1
|  7>     print[ P_SCFIterInfo ] 1
|  8>     print[ P_OrbEn ] 0
|  9>     print[ P_Cartesian ] 0
| 10> end
| 11> *xyz 0 1
| 12>  C        1.5338980000     0.1350710000    -0.8666400000
| 13>  C        3.0209770000     0.1127870000    -0.5638440000
| 14>  O        3.7427560000     0.8859640000    -1.5123980000
| 15>  C        3.3278040000     0.7073580000     0.7970160000
| 16>  C        4.7014350000     0.4262820000     1.3158560000
| 17>  N        5.4141800000    -0.5163680000     0.8645990000
| 18>  N        6.6145350000    -0.7692200000     1.4599640000
| 19>  H        1.3383380000    -0.2545290000    -1.8694190000
| 20>  H        1.1482210000     1.1569070000    -0.8206240000
| 21>  H        0.9774770000    -0.4814220000    -0.1557130000
| 22>  H        3.3856190000    -0.9215240000    -0.5764260000
| 23>  H        3.7568840000     0.4072620000    -2.3440300000
| 24>  H        2.5930680000     0.3435260000     1.5268820000
| 25>  H        3.1809160000     1.7920200000     0.7377750000
| 26>  H        5.0624320000     1.0597560000     2.1385920000
| 27>  H        7.2506770000    -1.1809060000     0.7951050000
| 28>  H        7.0315940000     0.0322250000     1.9270160000
| 29> *
| 30>
| 31>                          ****END OF INPUT****
 Total Charge           Charge          ....    0
 Multiplicity           Mult            ....    1
 Number of Electrons    NEL             ....   56
 Basis Dimension        Dim             ....  148

MULLIKEN ATOMIC CHARGES
-----------------------
   0 C :    0.022706
   1 C :    0.050196
   2 O :   -0.275587
   3 C :    0.063584
   4 C :   -0.072201
   5 N :   -0.122696
   6 N :   -0.052864
   7 H :    0.001890
   8 H :    0.014962
   9 H :    0.012207
  10 H :    0.004638
  11 H :    0.148724
  12 H :    0.019757
  13 H :    0.017546
  14 H :   -0.025841
  15 H :    0.112689
  16 H :    0.080289
Sum of atomic charges:   -0.0000000

LOEWDIN ATOMIC CHARGES
----------------------
   0 C :   -0.077759
   1 C :    0.048375
   2 O :   -0.120221
   3 C :   -0.058883
   4 C :   -0.046794
   5 N :   -0.046233
   6 N :   -0.003716
   7 H :    0.021321
   8 H :    0.025079
   9 H :    0.026399
  10 H :    0.008006
  11 H :    0.066589
  12 H :    0.037160
  13 H :    0.035193
  14 H :   -0.010411
  15 H :    0.057697
  16 H :    0.038197

  Mayer bond orders larger than 0.1
B(  0-C ,  1-C ) :   1.0854 B(  0-C ,  7-H ) :   0.9521 B(  0-C ,  8-H ) :   0.9547
B(  0-C ,  9-H ) :   0.9480 B(  1-C ,  2-O ) :   1.0661 B(  1-C ,  3-C ) :   1.0653
B(  1-C , 10-H ) :   0.9105 B(  2-O , 11-H ) :   0.9845 B(  3-C ,  4-C ) :   1.0292
B(  3-C , 12-H ) :   0.9094 B(  3-C , 13-H ) :   0.9093 B(  4-C ,  5-N ) :   1.8992
B(  4-C ,  6-N ) :   0.1263 B(  4-C , 14-H ) :   0.9304 B(  5-N ,  6-N ) :   1.0990
B(  6-N , 15-H ) :   0.9645 B(  6-N , 16-H ) :   0.9424

FINAL SINGLE POINT ENERGY      -342.447087073747

DIPOLE MOMENT
-------------
                                X             Y             Z
Electronic contribution:      4.91590      -0.49380       0.32492
Nuclear contribution   :     -4.63478       0.48189      -0.38587
                        -----------------------------------------
Total Dipole Moment    :      0.28112      -0.01191      -0.06095
                        -----------------------------------------
Magnitude (a.u.)       :      0.28790
Magnitude (Debye)      :      0.73179

                             ****ORCA TERMINATED NORMALLY****
TOTAL RUN TIME: 0 days 0 hours 0 minutes 7 seconds 791 msec
