                         Program Version 3.0.3 - RELEASE   -
|  1> ! RI PBE def2-SVP def2-SVP/J NBO PAL2
|  2> % maxcore 2000
|  3> % output
|  4>     # printlevel mini
|  5>     print[ P_Basis ] 0
|  6>     print[ P_SCFInfo ] 1
|  7>     print[ P_SCFIterInfo ] 1
|  8>     print[ P_OrbEn ] 0
|  9>     print[ P_Cartesian ] 0
| 10> end
| 11> *xyz 0 1
| 12>  C        3.1844510000     0.3901330000    -1.5147060000
| 13>  C        2.5451820000     0.0682820000    -0.1764550000
| 14>  O        2.5624640000    -1.3181990000     0.0831280000
| 15>  C        3.1511640000     0.8610570000     0.9967710000
| 16>  C        4.5777460000     0.4602990000     1.2721960000
| 17>  N        5.5369750000     1.2386760000     0.6873620000
| 18>  N        4.9276020000    -0.5870510000     1.9157210000
| 19>  H        2.7030690000    -0.1953470000    -2.2995440000
| 20>  H        4.2515620000     0.1525220000    -1.5091890000
| 21>  H        3.0769270000     1.4501080000    -1.7609210000
| 22>  H        1.4835510000     0.3304840000    -0.2199510000
| 23>  H        3.4833950000    -1.5846480000     0.1942470000
| 24>  H        2.5564610000     0.6547750000     1.8887380000
| 25>  H        3.0715280000     1.9315420000     0.7836330000
| 26>  H        5.3165200000     2.1861290000     0.4428250000
| 27>  H        6.4866920000     1.0494360000     0.9625550000
| 28>  H        4.1084900000    -1.0663880000     2.2764910000
| 29> *
| 30>
| 31>                          ****END OF INPUT****
 Total Charge           Charge          ....    0
 Multiplicity           Mult            ....    1
 Number of Electrons    NEL             ....   56
 Basis Dimension        Dim             ....  148

MULLIKEN ATOMIC CHARGES
-----------------------
   0 C :    0.007671
   1 C :    0.062286
   2 O :   -0.278761
   3 C :    0.101441
   4 C :   -0.246968
   5 N :   -0.037800
   6 N :   -0.130151
   7 H :    0.029522
   8 H :    0.024114
   9 H :    0.004942
  10 H :    0.009704
  11 H :    0.141527
  12 H :    0.024680
  13 H :   -0.010500
  14 H :    0.105841
  15 H :    0.112259
  16 H :    0.080192
Sum of atomic charges:   -0.0000000

LOEWDIN ATOMIC CHARGES
----------------------
   0 C :   -0.082071
   1 C :    0.050359
   2 O :   -0.109827
   3 C :   -0.069635
   4 C :   -0.006043
   5 N :    0.007095
   6 N :   -0.188439
   7 H :    0.031357
   8 H :    0.024720
   9 H :    0.024814
  10 H :    0.023631
  11 H :    0.054851
  12 H :    0.037941
  13 H :    0.025013
  14 H :    0.066944
  15 H :    0.071109
  16 H :    0.038181

  Mayer bond orders larger than 0.1
B(  0-C ,  1-C ) :   1.0834 B(  0-C ,  7-H ) :   0.9515 B(  0-C ,  8-H ) :   0.9488
B(  0-C ,  9-H ) :   0.9482 B(  1-C ,  2-O ) :   1.0545 B(  1-C ,  3-C ) :   1.0465
B(  1-C , 10-H ) :   0.9145 B(  2-O , 11-H ) :   0.9652 B(  3-C ,  4-C ) :   1.0058
B(  3-C , 12-H ) :   0.9017 B(  3-C , 13-H ) :   0.8935 B(  4-C ,  5-N ) :   1.2234
B(  4-C ,  6-N ) :   1.9206 B(  5-N , 14-H ) :   0.9428 B(  5-N , 15-H ) :   0.9392
B(  6-N , 16-H ) :   0.9201

FINAL SINGLE POINT ENERGY      -342.493812831223

DIPOLE MOMENT
-------------
                                X             Y             Z
Electronic contribution:      1.28380      -2.03892       3.15332
Nuclear contribution   :     -1.18373       3.26638      -3.46302
                        -----------------------------------------
Total Dipole Moment    :      0.10007       1.22746      -0.30969
                        -----------------------------------------
Magnitude (a.u.)       :      1.26987
Magnitude (Debye)      :      3.22776

                             ****ORCA TERMINATED NORMALLY****
TOTAL RUN TIME: 0 days 0 hours 0 minutes 7 seconds 792 msec
