                         Program Version 3.0.3 - RELEASE   -
|  1> ! RI PBE def2-SVP def2-SVP/J NBO PAL2
|  2> % maxcore 2000
|  3> % output
|  4>     # printlevel mini
|  5>     print[ P_Basis ] 0
|  6>     print[ P_SCFInfo ] 1
|  7>     print[ P_SCFIterInfo ] 1
|  8>     print[ P_OrbEn ] 0
|  9>     print[ P_Cartesian ] 0
| 10> end
| 11> *xyz 0 1
| 12>  C        0.9814210000    -0.3151980000    -0.3142530000
| 13>  C        2.4633840000    -0.4070830000    -0.2559930000
| 14>  O        3.1721720000     0.3203360000     0.6679470000
| 15>  C        2.5645390000     1.1381910000     1.5636920000
| 16>  C        3.2625210000     1.8202120000     2.4584170000
| 17>  N        3.0998280000    -1.1554850000    -1.0541190000
| 18>  N        4.4666920000    -1.1469500000    -1.0083230000
| 19>  H        0.6423940000     0.7019550000    -0.5334460000
| 20>  H        0.5117180000    -0.6318310000     0.6217690000
| 21>  H        0.6454740000    -0.9725480000    -1.1129380000
| 22>  H        1.4848180000     1.1996950000     1.5002450000
| 23>  H        4.3416830000     1.7537680000     2.5105220000
| 24>  H        2.7457250000     2.4649320000     3.1546400000
| 25>  H        4.8165030000    -2.0224090000    -1.3639170000
| 26>  H        4.8561270000    -0.9203760000    -0.1001540000
| 27> *
| 28>
| 29>                          ****END OF INPUT****
 Total Charge           Charge          ....    0
 Multiplicity           Mult            ....    1
 Number of Electrons    NEL             ....   54
 Basis Dimension        Dim             ....  138

MULLIKEN ATOMIC CHARGES
-----------------------
   0 C :    0.032359
   1 C :   -0.053946
   2 O :   -0.219475
   3 C :    0.089747
   4 C :   -0.068701
   5 N :   -0.118798
   6 N :   -0.068513
   7 H :    0.044226
   8 H :    0.042239
   9 H :    0.043474
  10 H :    0.009073
  11 H :    0.030974
  12 H :    0.028927
  13 H :    0.111348
  14 H :    0.097065
Sum of atomic charges:   -0.0000000

LOEWDIN ATOMIC CHARGES
----------------------
   0 C :   -0.076759
   1 C :   -0.025061
   2 O :   -0.033208
   3 C :    0.035509
   4 C :   -0.114948
   5 N :   -0.081847
   6 N :   -0.005995
   7 H :    0.037361
   8 H :    0.036696
   9 H :    0.050685
  10 H :    0.017899
  11 H :    0.029713
  12 H :    0.033398
  13 H :    0.057461
  14 H :    0.039096

  Mayer bond orders larger than 0.1
B(  0-C ,  1-C ) :   1.0861 B(  0-C ,  7-H ) :   0.9357 B(  0-C ,  8-H ) :   0.9352
B(  0-C ,  9-H ) :   0.9359 B(  1-C ,  2-O ) :   1.0396 B(  1-C ,  5-N ) :   1.9114
B(  2-O ,  3-C ) :   1.0705 B(  3-C ,  4-C ) :   1.9248 B(  3-C , 10-H ) :   0.9424
B(  4-C , 11-H ) :   0.9500 B(  4-C , 12-H ) :   0.9373 B(  5-N ,  6-N ) :   1.1039
B(  6-N , 13-H ) :   0.9653 B(  6-N , 14-H ) :   0.9413

FINAL SINGLE POINT ENERGY      -341.237378607857

DIPOLE MOMENT
-------------
                                X             Y             Z
Electronic contribution:      2.57852      -1.47181      -1.75982
Nuclear contribution   :     -2.79282       1.36879       2.28200
                        -----------------------------------------
Total Dipole Moment    :     -0.21430      -0.10302       0.52218
                        -----------------------------------------
Magnitude (a.u.)       :      0.57377
Magnitude (Debye)      :      1.45841

                             ****ORCA TERMINATED NORMALLY****
TOTAL RUN TIME: 0 days 0 hours 0 minutes 6 seconds 806 msec
