                         Program Version 3.0.3 - RELEASE   -
|  1> ! RI PBE def2-SVP def2-SVP/J NBO PAL2
|  2> % maxcore 2000
|  3> % output
|  4>     # printlevel mini
|  5>     print[ P_Basis ] 0
|  6>     print[ P_SCFInfo ] 1
|  7>     print[ P_SCFIterInfo ] 1
|  8>     print[ P_OrbEn ] 0
|  9>     print[ P_Cartesian ] 0
| 10> end
| 11> *xyz 0 1
| 12>  C        1.3181370000    -0.4615530000    -0.8876870000
| 13>  C        2.5788580000    -0.2095450000    -1.6726190000
| 14>  O        3.6735210000    -0.2799820000    -0.7668760000
| 15>  C        4.9015100000    -0.0863330000    -1.2859790000
| 16>  C        5.9878200000    -0.1928160000    -0.2712140000
| 17>  N        5.0476570000     0.1547690000    -2.5219200000
| 18>  N        6.3548830000     0.2911700000    -2.9796170000
| 19>  H        0.4519420000    -0.4136360000    -1.5511420000
| 20>  H        1.1901150000     0.2863000000    -0.1025070000
| 21>  H        1.3384290000    -1.4487100000    -0.4216710000
| 22>  H        2.5720530000     0.7745800000    -2.1519390000
| 23>  H        2.7206760000    -0.9494330000    -2.4662770000
| 24>  H        5.5988340000    -0.6042520000     0.6581080000
| 25>  H        6.4229300000     0.7886570000    -0.0545020000
| 26>  H        6.7881630000    -0.8322760000    -0.6519370000
| 27>  H        6.3085050000     0.7245770000    -3.8905120000
| 28>  H        6.9218560000     0.8810840000    -2.3763200000
| 29> *
| 30>
| 31>                          ****END OF INPUT****
 Total Charge           Charge          ....    0
 Multiplicity           Mult            ....    1
 Number of Electrons    NEL             ....   56
 Basis Dimension        Dim             ....  148

MULLIKEN ATOMIC CHARGES
-----------------------
   0 C :   -0.020837
   1 C :    0.144612
   2 O :   -0.272855
   3 C :   -0.013692
   4 C :    0.020892
   5 N :   -0.203703
   6 N :   -0.068368
   7 H :    0.022912
   8 H :    0.030052
   9 H :    0.028017
  10 H :    0.005788
  11 H :    0.017824
  12 H :    0.032511
  13 H :    0.038242
  14 H :    0.051670
  15 H :    0.105926
  16 H :    0.081008
Sum of atomic charges:   -0.0000000

LOEWDIN ATOMIC CHARGES
----------------------
   0 C :   -0.076120
   1 C :    0.067759
   2 O :   -0.076315
   3 C :   -0.017230
   4 C :   -0.083962
   5 N :   -0.123347
   6 N :   -0.027133
   7 H :    0.033477
   8 H :    0.029292
   9 H :    0.029491
  10 H :    0.012034
  11 H :    0.015594
  12 H :    0.041297
  13 H :    0.038367
  14 H :    0.041718
  15 H :    0.055526
  16 H :    0.039552

  Mayer bond orders larger than 0.1
B(  0-C ,  1-C ) :   1.1036 B(  0-C ,  7-H ) :   0.9559 B(  0-C ,  8-H ) :   0.9635
B(  0-C ,  9-H ) :   0.9615 B(  1-C ,  2-O ) :   0.9429 B(  1-C , 10-H ) :   0.9412
B(  1-C , 11-H ) :   0.9455 B(  2-O ,  3-C ) :   1.1687 B(  3-C ,  4-C ) :   1.0919
B(  3-C ,  5-N ) :   1.7695 B(  4-C , 12-H ) :   0.9352 B(  4-C , 13-H ) :   0.9397
B(  4-C , 14-H ) :   0.9409 B(  5-N ,  6-N ) :   1.0533 B(  6-N , 15-H ) :   0.9692
B(  6-N , 16-H ) :   0.9443

FINAL SINGLE POINT ENERGY      -342.458645544123

DIPOLE MOMENT
-------------
                                X             Y             Z
Electronic contribution:      2.51121       0.26228      -1.63891
Nuclear contribution   :     -2.28706       0.21640       1.74477
                        -----------------------------------------
Total Dipole Moment    :      0.22415       0.47868       0.10585
                        -----------------------------------------
Magnitude (a.u.)       :      0.53906
Magnitude (Debye)      :      1.37017

                             ****ORCA TERMINATED NORMALLY****
TOTAL RUN TIME: 0 days 0 hours 0 minutes 7 seconds 731 msec
