                         Program Version 3.0.3 - RELEASE   -
|  1> ! RI PBE def2-SVP def2-SVP/J NBO PAL2
|  2> % maxcore 2000
|  3> % output
|  4>     # printlevel mini
|  5>     print[ P_Basis ] 0
|  6>     print[ P_SCFInfo ] 1
|  7>     print[ P_SCFIterInfo ] 1
|  8>     print[ P_OrbEn ] 0
|  9>     print[ P_Cartesian ] 0
| 10> end
| 11> *xyz 0 1
| 12>  C        1.5001750000    -3.2729400000     1.4663820000
| 13>  C        2.7481760000    -3.1276110000     0.6336680000
| 14>  O        3.5293460000    -2.0847220000     1.1760130000
| 15>  C        4.7208430000    -1.8486320000     0.4614670000
| 16>  C        5.7401970000    -2.9224900000     0.6560780000
| 17>  N        6.2118920000    -3.5554110000    -0.3374240000
| 18>  N        7.0972100000    -4.5556760000    -0.1154220000
| 19>  H        0.8672750000    -4.0673670000     1.0646010000
| 20>  H        0.9281030000    -2.3430240000     1.4697180000
| 21>  H        1.7529960000    -3.5226590000     2.4987740000
| 22>  H        2.4936180000    -2.8917600000    -0.4109100000
| 23>  H        3.3171580000    -4.0672430000     0.6205140000
| 24>  H        5.1034070000    -0.8970390000     0.8441000000
| 25>  H        4.5293350000    -1.7381550000    -0.6141810000
| 26>  H        6.0510790000    -3.1451310000     1.6856760000
| 27>  H        7.6772550000    -4.7127360000    -0.9233660000
| 28>  H        7.6303430000    -4.4920140000     0.7465220000
| 29> *
| 30>
| 31>                          ****END OF INPUT****
 Total Charge           Charge          ....    0
 Multiplicity           Mult            ....    1
 Number of Electrons    NEL             ....   56
 Basis Dimension        Dim             ....  148

MULLIKEN ATOMIC CHARGES
-----------------------
   0 C :   -0.028984
   1 C :    0.135071
   2 O :   -0.355531
   3 C :    0.278463
   4 C :   -0.144982
   5 N :   -0.106789
   6 N :   -0.048934
   7 H :    0.020440
   8 H :    0.032187
   9 H :    0.027833
  10 H :   -0.008021
  11 H :    0.008349
  12 H :    0.009309
  13 H :   -0.005953
  14 H :   -0.018102
  15 H :    0.118243
  16 H :    0.087403
Sum of atomic charges:   -0.0000000

LOEWDIN ATOMIC CHARGES
----------------------
   0 C :   -0.076414
   1 C :    0.057691
   2 O :   -0.151570
   3 C :    0.047690
   4 C :   -0.076080
   5 N :   -0.039106
   6 N :    0.009178
   7 H :    0.031578
   8 H :    0.029453
   9 H :    0.029111
  10 H :    0.004422
  11 H :    0.004677
  12 H :    0.025133
  13 H :    0.010970
  14 H :   -0.008474
  15 H :    0.060641
  16 H :    0.041101

  Mayer bond orders larger than 0.1
B(  0-C ,  1-C ) :   1.1176 B(  0-C ,  7-H ) :   0.9547 B(  0-C ,  8-H ) :   0.9638
B(  0-C ,  9-H ) :   0.9618 B(  1-C ,  2-O ) :   1.0065 B(  1-C , 10-H ) :   0.9286
B(  1-C , 11-H ) :   0.9320 B(  2-O ,  3-C ) :   1.0203 B(  3-C ,  4-C ) :   1.0452
B(  3-C , 12-H ) :   0.9216 B(  3-C , 13-H ) :   0.9197 B(  4-C ,  5-N ) :   1.8593
B(  4-C ,  6-N ) :   0.1333 B(  4-C , 14-H ) :   0.9271 B(  5-N ,  6-N ) :   1.1177
B(  6-N , 15-H ) :   0.9631 B(  6-N , 16-H ) :   0.9424

FINAL SINGLE POINT ENERGY      -342.437266560940

DIPOLE MOMENT
-------------
                                X             Y             Z
Electronic contribution:      5.18878       0.80750      -1.19315
Nuclear contribution   :     -4.40953      -1.12643       1.20815
                        -----------------------------------------
Total Dipole Moment    :      0.77924      -0.31893       0.01500
                        -----------------------------------------
Magnitude (a.u.)       :      0.84212
Magnitude (Debye)      :      2.14049

                             ****ORCA TERMINATED NORMALLY****
TOTAL RUN TIME: 0 days 0 hours 0 minutes 7 seconds 615 msec
