                         Program Version 3.0.3 - RELEASE   -
|  1> ! RI PBE def2-SVP def2-SVP/J NBO PAL2
|  2> % maxcore 2000
|  3> % output
|  4>     # printlevel mini
|  5>     print[ P_Basis ] 0
|  6>     print[ P_SCFInfo ] 1
|  7>     print[ P_SCFIterInfo ] 1
|  8>     print[ P_OrbEn ] 0
|  9>     print[ P_Cartesian ] 0
| 10> end
| 11> *xyz 0 1
| 12>  C        1.0518460000    -0.0369620000     0.0452290000
| 13>  C        2.5570470000    -0.0017770000    -0.0119900000
| 14>  O        3.0679470000    -0.1118470000     1.2973380000
| 15>  C        4.4693630000    -0.1009840000     1.3403560000
| 16>  C        4.9670110000    -0.3450250000     2.7474820000
| 17>  N        4.1266770000    -1.0908160000     3.5128500000
| 18>  N        6.1062380000     0.0270040000     3.1789440000
| 19>  H        0.6343120000     0.0514820000    -0.9598590000
| 20>  H        0.6696300000     0.7869890000     0.6507020000
| 21>  H        0.7034980000    -0.9757900000     0.4802740000
| 22>  H        2.9055510000     0.9372870000    -0.4669930000
| 23>  H        2.9436200000    -0.8263970000    -0.6296710000
| 24>  H        4.8661980000     0.8604370000     0.9875550000
| 25>  H        4.8768180000    -0.8912120000     0.6900160000
| 26>  H        3.1553450000    -1.0956430000     3.2543190000
| 27>  H        4.3549070000    -1.1495200000     4.4907640000
| 28>  H        6.6096030000     0.5440850000     2.4640950000
| 29> *
| 30>
| 31>                          ****END OF INPUT****
 Total Charge           Charge          ....    0
 Multiplicity           Mult            ....    1
 Number of Electrons    NEL             ....   56
 Basis Dimension        Dim             ....  148

MULLIKEN ATOMIC CHARGES
-----------------------
   0 C :   -0.018654
   1 C :    0.134895
   2 O :   -0.363571
   3 C :    0.245249
   4 C :   -0.237680
   5 N :   -0.044905
   6 N :   -0.115508
   7 H :    0.022372
   8 H :    0.035727
   9 H :    0.029719
  10 H :   -0.000419
  11 H :    0.003698
  12 H :   -0.003996
  13 H :    0.023865
  14 H :    0.108834
  15 H :    0.110537
  16 H :    0.069837
Sum of atomic charges:   -0.0000000

LOEWDIN ATOMIC CHARGES
----------------------
   0 C :   -0.072533
   1 C :    0.060861
   2 O :   -0.150290
   3 C :    0.043986
   4 C :   -0.017231
   5 N :    0.007562
   6 N :   -0.186892
   7 H :    0.034363
   8 H :    0.031787
   9 H :    0.029903
  10 H :    0.006598
  11 H :    0.006820
  12 H :    0.011857
  13 H :    0.021175
  14 H :    0.062037
  15 H :    0.070072
  16 H :    0.039925

  Mayer bond orders larger than 0.1
B(  0-C ,  1-C ) :   1.1174 B(  0-C ,  7-H ) :   0.9526 B(  0-C ,  8-H ) :   0.9657
B(  0-C ,  9-H ) :   0.9649 B(  1-C ,  2-O ) :   0.9845 B(  1-C , 10-H ) :   0.9336
B(  1-C , 11-H ) :   0.9341 B(  2-O ,  3-C ) :   1.0042 B(  3-C ,  4-C ) :   0.9518
B(  3-C , 12-H ) :   0.9197 B(  3-C , 13-H ) :   0.9135 B(  4-C ,  5-N ) :   1.2723
B(  4-C ,  6-N ) :   1.9542 B(  5-N ,  6-N ) :   0.1002 B(  5-N , 14-H ) :   0.9267
B(  5-N , 15-H ) :   0.9412 B(  6-N , 16-H ) :   0.9250

FINAL SINGLE POINT ENERGY      -342.480355234452

DIPOLE MOMENT
-------------
                                X             Y             Z
Electronic contribution:      4.35521      -0.56785       4.92158
Nuclear contribution   :     -5.23975       0.57973      -5.78245
                        -----------------------------------------
Total Dipole Moment    :     -0.88454       0.01188      -0.86087
                        -----------------------------------------
Magnitude (a.u.)       :      1.23436
Magnitude (Debye)      :      3.13749

                             ****ORCA TERMINATED NORMALLY****
TOTAL RUN TIME: 0 days 0 hours 0 minutes 7 seconds 477 msec
