                         Program Version 3.0.3 - RELEASE   -
|  1> ! RI PBE def2-SVP def2-SVP/J NBO PAL2
|  2> % maxcore 2000
|  3> % output
|  4>     # printlevel mini
|  5>     print[ P_Basis ] 0
|  6>     print[ P_SCFInfo ] 1
|  7>     print[ P_SCFIterInfo ] 1
|  8>     print[ P_OrbEn ] 0
|  9>     print[ P_Cartesian ] 0
| 10> end
| 11> *xyz 0 1
| 12>  C        3.1825380000    -1.2545960000    -0.2858770000
| 13>  C        2.4286260000    -0.1097870000     0.3266470000
| 14>  O        1.2233040000    -0.0284350000     0.2669530000
| 15>  C        3.2020720000     0.9610360000     1.0321560000
| 16>  C        2.4857240000     2.1081610000     1.6494850000
| 17>  N        4.4676800000     0.7923190000     1.0453460000
| 18>  O        5.1195680000     1.8009560000     1.7030190000
| 19>  H        2.4704240000    -1.9323640000    -0.7525490000
| 20>  H        3.7629050000    -1.7802840000     0.4746990000
| 21>  H        3.8976580000    -0.8890620000    -1.0252230000
| 22>  H        1.4151660000     2.0006030000     1.4896190000
| 23>  H        2.8328980000     3.0492520000     1.2162650000
| 24>  H        2.6980850000     2.1557000000     2.7202340000
| 25>  H        6.0455420000     1.5480020000     1.6357170000
| 26> *
| 27>
| 28>                          ****END OF INPUT****
 Total Charge           Charge          ....    0
 Multiplicity           Mult            ....    1
 Number of Electrons    NEL             ....   54
 Basis Dimension        Dim             ....  133

MULLIKEN ATOMIC CHARGES
-----------------------
   0 C :    0.058793
   1 C :   -0.019619
   2 O :   -0.158643
   3 C :   -0.219820
   4 C :    0.097414
   5 N :   -0.020288
   6 O :   -0.148171
   7 H :    0.029089
   8 H :    0.042217
   9 H :    0.042085
  10 H :    0.034971
  11 H :    0.038239
  12 H :    0.045081
  13 H :    0.178650
Sum of atomic charges:   -0.0000000

LOEWDIN ATOMIC CHARGES
----------------------
   0 C :   -0.086524
   1 C :    0.044398
   2 O :   -0.116965
   3 C :   -0.084444
   4 C :   -0.073215
   5 N :   -0.002831
   6 O :   -0.022635
   7 H :    0.036442
   8 H :    0.048085
   9 H :    0.047564
  10 H :    0.038009
  11 H :    0.045623
  12 H :    0.046793
  13 H :    0.079700

  Mayer bond orders larger than 0.1
B(  0-C ,  1-C ) :   1.0777 B(  0-C ,  7-H ) :   0.9382 B(  0-C ,  8-H ) :   0.9297
B(  0-C ,  9-H ) :   0.9319 B(  1-C ,  2-O ) :   2.1282 B(  1-C ,  3-C ) :   0.9374
B(  3-C ,  4-C ) :   1.1131 B(  3-C ,  5-N ) :   1.8680 B(  4-C , 10-H ) :   0.9250
B(  4-C , 11-H ) :   0.9291 B(  4-C , 12-H ) :   0.9303 B(  5-N ,  6-O ) :   1.0366
B(  6-O , 13-H ) :   0.9716

FINAL SINGLE POINT ENERGY      -361.097848926572

DIPOLE MOMENT
-------------
                                X             Y             Z
Electronic contribution:      0.45837       0.42589       0.29770
Nuclear contribution   :      0.71405      -0.26128      -0.09104
                        -----------------------------------------
Total Dipole Moment    :      1.17242       0.16461       0.20666
                        -----------------------------------------
Magnitude (a.u.)       :      1.20182
Magnitude (Debye)      :      3.05479

                             ****ORCA TERMINATED NORMALLY****
TOTAL RUN TIME: 0 days 0 hours 0 minutes 6 seconds 324 msec
