                         Program Version 3.0.3 - RELEASE   -
|  1> ! RI PBE def2-SVP def2-SVP/J NBO PAL2
|  2> % maxcore 2000
|  3> % output
|  4>     # printlevel mini
|  5>     print[ P_Basis ] 0
|  6>     print[ P_SCFInfo ] 1
|  7>     print[ P_SCFIterInfo ] 1
|  8>     print[ P_OrbEn ] 0
|  9>     print[ P_Cartesian ] 0
| 10> end
| 11> *xyz 0 1
| 12>  C        1.8232310000    -0.9584920000    -0.3037360000
| 13>  C        2.4164990000     0.2785560000     0.3060210000
| 14>  O        2.2177600000     0.6053820000     1.4475120000
| 15>  C        3.3205630000     1.1080880000    -0.6017520000
| 16>  C        4.7086180000     0.5644970000    -0.5625670000
| 17>  N        5.1942930000     0.0087330000    -1.5915340000
| 18>  O        6.4755840000    -0.4554110000    -1.3700630000
| 19>  H        1.3692480000    -1.5794550000     0.4662020000
| 20>  H        2.5834970000    -1.5185750000    -0.8538590000
| 21>  H        1.0585020000    -0.6653250000    -1.0303030000
| 22>  H        3.3112480000     2.1335280000    -0.2253630000
| 23>  H        2.9619680000     1.0837200000    -1.6326350000
| 24>  H        5.2830090000     0.6337160000     0.3627170000
| 25>  H        6.7258700000    -0.8230590000    -2.2223270000
| 26> *
| 27>
| 28>                          ****END OF INPUT****
 Total Charge           Charge          ....    0
 Multiplicity           Mult            ....    1
 Number of Electrons    NEL             ....   54
 Basis Dimension        Dim             ....  133

MULLIKEN ATOMIC CHARGES
-----------------------
   0 C :    0.020078
   1 C :   -0.087516
   2 O :   -0.153264
   3 C :    0.114331
   4 C :   -0.063936
   5 N :   -0.044715
   6 O :   -0.173534
   7 H :    0.041696
   8 H :    0.045983
   9 H :    0.049836
  10 H :    0.034324
  11 H :    0.022210
  12 H :    0.020641
  13 H :    0.173866
Sum of atomic charges:    0.0000000

LOEWDIN ATOMIC CHARGES
----------------------
   0 C :   -0.088891
   1 C :    0.059459
   2 O :   -0.115405
   3 C :   -0.068707
   4 C :   -0.029621
   5 N :   -0.016722
   6 O :   -0.049783
   7 H :    0.039639
   8 H :    0.045417
   9 H :    0.052145
  10 H :    0.046329
  11 H :    0.039012
  12 H :    0.011692
  13 H :    0.075436

  Mayer bond orders larger than 0.1
B(  0-C ,  1-C ) :   1.0304 B(  0-C ,  7-H ) :   0.9482 B(  0-C ,  8-H ) :   0.9370
B(  0-C ,  9-H ) :   0.9316 B(  1-C ,  2-O ) :   2.1936 B(  1-C ,  3-C ) :   0.9405
B(  3-C ,  4-C ) :   1.0479 B(  3-C , 10-H ) :   0.8945 B(  3-C , 11-H ) :   0.9133
B(  4-C ,  5-N ) :   1.8789 B(  4-C ,  6-O ) :   0.1145 B(  4-C , 12-H ) :   0.9403
B(  5-N ,  6-O ) :   0.9984 B(  6-O , 13-H ) :   0.9744

FINAL SINGLE POINT ENERGY      -361.083504026572

DIPOLE MOMENT
-------------
                                X             Y             Z
Electronic contribution:      3.14606       1.27542       1.24952
Nuclear contribution   :     -2.97937      -1.58255      -2.20139
                        -----------------------------------------
Total Dipole Moment    :      0.16669      -0.30712      -0.95187
                        -----------------------------------------
Magnitude (a.u.)       :      1.01399
Magnitude (Debye)      :      2.57735

                             ****ORCA TERMINATED NORMALLY****
TOTAL RUN TIME: 0 days 0 hours 0 minutes 6 seconds 273 msec
