                         Program Version 3.0.3 - RELEASE   -
|  1> ! RI PBE def2-SVP def2-SVP/J NBO PAL2
|  2> % maxcore 2000
|  3> % output
|  4>     # printlevel mini
|  5>     print[ P_Basis ] 0
|  6>     print[ P_SCFInfo ] 1
|  7>     print[ P_SCFIterInfo ] 1
|  8>     print[ P_OrbEn ] 0
|  9>     print[ P_Cartesian ] 0
| 10> end
| 11> *xyz 0 1
| 12>  C        2.4844030000     0.8988000000     1.3257790000
| 13>  C        3.3561620000    -0.1123940000     0.6418720000
| 14>  O        3.6728930000    -1.1465440000     1.1850610000
| 15>  C        3.7855400000     0.2340430000    -0.7667320000
| 16>  C        5.1647400000    -0.2087870000    -1.2446240000
| 17>  N        5.5846130000    -1.4048000000    -0.7898580000
| 18>  O        5.7849200000     0.4805140000    -2.0264440000
| 19>  H        2.1115100000     0.5021390000     2.2680470000
| 20>  H        1.6524770000     1.1886530000     0.6781210000
| 21>  H        3.0673160000     1.8061140000     1.5127560000
| 22>  H        3.7122960000     1.3058390000    -0.9493300000
| 23>  H        3.0520690000    -0.2428540000    -1.4309010000
| 24>  H        5.0964660000    -1.8316130000    -0.0148970000
| 25>  H        6.5144950000    -1.6970000000    -1.0373400000
| 26> *
| 27>
| 28>                          ****END OF INPUT****
 Total Charge           Charge          ....    0
 Multiplicity           Mult            ....    1
 Number of Electrons    NEL             ....   54
 Basis Dimension        Dim             ....  133

MULLIKEN ATOMIC CHARGES
-----------------------
   0 C :    0.023581
   1 C :   -0.056453
   2 O :   -0.184917
   3 C :    0.013677
   4 C :   -0.038372
   5 N :   -0.044342
   6 O :   -0.201251
   7 H :    0.040644
   8 H :    0.046866
   9 H :    0.058752
  10 H :    0.033354
  11 H :    0.079795
  12 H :    0.113395
  13 H :    0.115272
Sum of atomic charges:   -0.0000000

LOEWDIN ATOMIC CHARGES
----------------------
   0 C :   -0.080630
   1 C :    0.065297
   2 O :   -0.125713
   3 C :   -0.095993
   4 C :    0.022042
   5 N :    0.016986
   6 O :   -0.192020
   7 H :    0.039752
   8 H :    0.047285
   9 H :    0.054925
  10 H :    0.045812
  11 H :    0.073501
  12 H :    0.055564
  13 H :    0.073195

  Mayer bond orders larger than 0.1
B(  0-C ,  1-C ) :   1.0577 B(  0-C ,  7-H ) :   0.9490 B(  0-C ,  8-H ) :   0.9426
B(  0-C ,  9-H ) :   0.9334 B(  1-C ,  2-O ) :   2.0768 B(  1-C ,  3-C ) :   0.9420
B(  2-O , 12-H ) :   0.1048 B(  3-C ,  4-C ) :   0.9357 B(  3-C , 10-H ) :   0.9226
B(  3-C , 11-H ) :   0.8804 B(  4-C ,  5-N ) :   1.2945 B(  4-C ,  6-O ) :   2.1155
B(  5-N , 12-H ) :   0.8974 B(  5-N , 13-H ) :   0.9362

FINAL SINGLE POINT ENERGY      -361.174498993442

DIPOLE MOMENT
-------------
                                X             Y             Z
Electronic contribution:      3.67907      -2.29138      -1.94960
Nuclear contribution   :     -4.43061       2.22622       2.51443
                        -----------------------------------------
Total Dipole Moment    :     -0.75154      -0.06516       0.56483
                        -----------------------------------------
Magnitude (a.u.)       :      0.94239
Magnitude (Debye)      :      2.39535

                             ****ORCA TERMINATED NORMALLY****
TOTAL RUN TIME: 0 days 0 hours 0 minutes 7 seconds 142 msec
