                         Program Version 3.0.3 - RELEASE   -
|  1> ! RI PBE def2-SVP def2-SVP/J NBO PAL2
|  2> % maxcore 2000
|  3> % output
|  4>     # printlevel mini
|  5>     print[ P_Basis ] 0
|  6>     print[ P_SCFInfo ] 1
|  7>     print[ P_SCFIterInfo ] 1
|  8>     print[ P_OrbEn ] 0
|  9>     print[ P_Cartesian ] 0
| 10> end
| 11> *xyz 0 1
| 12>  C        1.0760930000     0.2088010000     0.1265820000
| 13>  C        2.5215240000    -0.2504950000    -0.0067200000
| 14>  O        2.6742230000    -1.5034600000     0.6017370000
| 15>  C        2.9682080000    -0.2583540000    -1.4469600000
| 16>  C        2.9620190000     1.0055090000    -2.2356210000
| 17>  N        3.3389720000    -1.3865310000    -1.8946010000
| 18>  O        3.7318540000    -1.3499810000    -3.2202840000
| 19>  H        0.7984360000     0.2093890000     1.1815690000
| 20>  H        0.4155070000    -0.4809610000    -0.4030600000
| 21>  H        0.9304710000     1.2165670000    -0.2688100000
| 22>  H        3.1646400000     0.4798420000     0.5125150000
| 23>  H        3.0469510000    -2.0891540000    -0.0727530000
| 24>  H        2.9099330000     1.8753380000    -1.5805690000
| 25>  H        2.1015660000     1.0309720000    -2.9104640000
| 26>  H        3.8571190000     1.0693310000    -2.8557790000
| 27>  H        4.0056940000    -2.2553910000    -3.3899720000
| 28> *
| 29>
| 30>                          ****END OF INPUT****
 Total Charge           Charge          ....    0
 Multiplicity           Mult            ....    1
 Number of Electrons    NEL             ....   56
 Basis Dimension        Dim             ....  143

MULLIKEN ATOMIC CHARGES
-----------------------
   0 C :    0.019020
   1 C :    0.116484
   2 O :   -0.252827
   3 C :   -0.206106
   4 C :    0.081650
   5 N :   -0.082740
   6 O :   -0.174028
   7 H :    0.034700
   8 H :    0.017200
   9 H :    0.007096
  10 H :    0.005761
  11 H :    0.138737
  12 H :    0.023898
  13 H :    0.051944
  14 H :    0.043875
  15 H :    0.175336
Sum of atomic charges:   -0.0000000

LOEWDIN ATOMIC CHARGES
----------------------
   0 C :   -0.066821
   1 C :    0.041055
   2 O :   -0.112371
   3 C :   -0.055244
   4 C :   -0.070819
   5 N :   -0.037772
   6 O :   -0.049736
   7 H :    0.033420
   8 H :    0.027466
   9 H :    0.023486
  10 H :    0.019606
  11 H :    0.043123
  12 H :    0.034415
  13 H :    0.050730
  14 H :    0.043440
  15 H :    0.076022

  Mayer bond orders larger than 0.1
B(  0-C ,  1-C ) :   1.0527 B(  0-C ,  7-H ) :   0.9582 B(  0-C ,  8-H ) :   0.9523
B(  0-C ,  9-H ) :   0.9460 B(  1-C ,  2-O ) :   1.1605 B(  1-C ,  3-C ) :   1.0012
B(  1-C , 10-H ) :   0.8870 B(  2-O , 11-H ) :   0.9440 B(  3-C ,  4-C ) :   1.0781
B(  3-C ,  5-N ) :   1.8815 B(  4-C , 12-H ) :   0.9431 B(  4-C , 13-H ) :   0.9360
B(  4-C , 14-H ) :   0.9266 B(  5-N ,  6-O ) :   1.0116 B(  5-N , 11-H ) :   0.1081
B(  6-O , 15-H ) :   0.9745

FINAL SINGLE POINT ENERGY      -362.284386713845

DIPOLE MOMENT
-------------
                                X             Y             Z
Electronic contribution:      3.55946      -5.25552      -1.47167
Nuclear contribution   :     -3.41010       5.50699       0.72464
                        -----------------------------------------
Total Dipole Moment    :      0.14936       0.25147      -0.74703
                        -----------------------------------------
Magnitude (a.u.)       :      0.80225
Magnitude (Debye)      :      2.03916

                             ****ORCA TERMINATED NORMALLY****
TOTAL RUN TIME: 0 days 0 hours 0 minutes 6 seconds 839 msec
