                         Program Version 3.0.3 - RELEASE   -
|  1> ! RI PBE def2-SVP def2-SVP/J NBO PAL2
|  2> % maxcore 2000
|  3> % output
|  4>     # printlevel mini
|  5>     print[ P_Basis ] 0
|  6>     print[ P_SCFInfo ] 1
|  7>     print[ P_SCFIterInfo ] 1
|  8>     print[ P_OrbEn ] 0
|  9>     print[ P_Cartesian ] 0
| 10> end
| 11> *xyz 0 1
| 12>  C        0.9056190000    -0.0748730000     0.0723030000
| 13>  C        2.4121390000    -0.1456180000    -0.0762520000
| 14>  O        2.8735490000    -1.4855000000    -0.0404560000
| 15>  C        2.8908340000     0.5688120000    -1.3403900000
| 16>  C        4.3730900000     0.5977350000    -1.4600470000
| 17>  N        4.9682590000     1.7069680000    -1.5933560000
| 18>  O        6.3413650000     1.5475360000    -1.6819950000
| 19>  H        0.5895590000    -0.6033530000     0.9732780000
| 20>  H        0.4098400000    -0.5358150000    -0.7893180000
| 21>  H        0.5621050000     0.9600210000     0.1382450000
| 22>  H        2.8830500000     0.3290040000     0.7904060000
| 23>  H        2.3898230000    -1.9855500000    -0.7049900000
| 24>  H        2.5147270000     1.5945420000    -1.3623620000
| 25>  H        2.4637920000     0.0460350000    -2.2081810000
| 26>  H        4.9335000000    -0.3371290000    -1.4168050000
| 27>  H        6.6578590000     2.4501940000    -1.7740900000
| 28> *
| 29>
| 30>                          ****END OF INPUT****
 Total Charge           Charge          ....    0
 Multiplicity           Mult            ....    1
 Number of Electrons    NEL             ....   56
 Basis Dimension        Dim             ....  143

MULLIKEN ATOMIC CHARGES
-----------------------
   0 C :    0.025301
   1 C :    0.032261
   2 O :   -0.277076
   3 C :    0.074364
   4 C :   -0.034905
   5 N :   -0.049185
   6 O :   -0.178494
   7 H :    0.031341
   8 H :    0.003985
   9 H :    0.020037
  10 H :    0.014017
  11 H :    0.148919
  12 H :    0.010087
  13 H :    0.008135
  14 H :    0.002960
  15 H :    0.168254
Sum of atomic charges:   -0.0000000

LOEWDIN ATOMIC CHARGES
----------------------
   0 C :   -0.075462
   1 C :    0.044419
   2 O :   -0.112474
   3 C :   -0.062224
   4 C :   -0.033156
   5 N :   -0.019123
   6 O :   -0.057707
   7 H :    0.031062
   8 H :    0.021623
   9 H :    0.032133
  10 H :    0.024887
  11 H :    0.064451
  12 H :    0.034818
  13 H :    0.029660
  14 H :    0.005593
  15 H :    0.071500

  Mayer bond orders larger than 0.1
B(  0-C ,  1-C ) :   1.0957 B(  0-C ,  7-H ) :   0.9568 B(  0-C ,  8-H ) :   0.9499
B(  0-C ,  9-H ) :   0.9496 B(  1-C ,  2-O ) :   1.0230 B(  1-C ,  3-C ) :   1.0214
B(  1-C , 10-H ) :   0.9120 B(  2-O , 11-H ) :   0.9843 B(  3-C ,  4-C ) :   1.0411
B(  3-C , 12-H ) :   0.9112 B(  3-C , 13-H ) :   0.9020 B(  4-C ,  5-N ) :   1.9093
B(  4-C ,  6-O ) :   0.1122 B(  4-C , 14-H ) :   0.9413 B(  5-N ,  6-O ) :   0.9927
B(  6-O , 15-H ) :   0.9767

FINAL SINGLE POINT ENERGY      -362.274338040060

DIPOLE MOMENT
-------------
                                X             Y             Z
Electronic contribution:      7.56875       1.45212      -1.68404
Nuclear contribution   :     -8.11221      -1.33100       1.40163
                        -----------------------------------------
Total Dipole Moment    :     -0.54346       0.12112      -0.28242
                        -----------------------------------------
Magnitude (a.u.)       :      0.62432
Magnitude (Debye)      :      1.58690

                             ****ORCA TERMINATED NORMALLY****
TOTAL RUN TIME: 0 days 0 hours 0 minutes 7 seconds 195 msec
