                         Program Version 3.0.3 - RELEASE   -
|  1> ! RI PBE def2-SVP def2-SVP/J NBO PAL2
|  2> % maxcore 2000
|  3> % output
|  4>     # printlevel mini
|  5>     print[ P_Basis ] 0
|  6>     print[ P_SCFInfo ] 1
|  7>     print[ P_SCFIterInfo ] 1
|  8>     print[ P_OrbEn ] 0
|  9>     print[ P_Cartesian ] 0
| 10> end
| 11> *xyz 0 1
| 12>  C        1.3441050000     1.1963530000     0.0570340000
| 13>  C        2.1111990000     0.0764560000     0.7304190000
| 14>  O        1.6378010000    -0.1266410000     2.0626950000
| 15>  C        1.9542140000    -1.2375700000    -0.0150400000
| 16>  C        2.8698340000    -2.3793350000     0.3942240000
| 17>  N        3.1083740000    -2.4915480000     1.7196320000
| 18>  O        3.3348000000    -3.1421400000    -0.4289260000
| 19>  H        1.4429370000     2.1298070000     0.6191270000
| 20>  H        0.2825490000     0.9462350000    -0.0082990000
| 21>  H        1.7235010000     1.3761520000    -0.9512270000
| 22>  H        3.1785750000     0.3387240000     0.7650290000
| 23>  H        1.7234980000     0.6999540000     2.5447110000
| 24>  H        2.1292450000    -1.0809890000    -1.0796030000
| 25>  H        0.9180730000    -1.5773270000     0.0979940000
| 26>  H        2.6720610000    -1.8589190000     2.3711540000
| 27>  H        3.6762210000    -3.2573230000     2.0372770000
| 28> *
| 29>
| 30>                          ****END OF INPUT****
 Total Charge           Charge          ....    0
 Multiplicity           Mult            ....    1
 Number of Electrons    NEL             ....   56
 Basis Dimension        Dim             ....  143

MULLIKEN ATOMIC CHARGES
-----------------------
   0 C :    0.017358
   1 C :   -0.000330
   2 O :   -0.273521
   3 C :    0.044953
   4 C :   -0.046957
   5 N :   -0.049580
   6 O :   -0.204627
   7 H :    0.012869
   8 H :    0.028691
   9 H :    0.025795
  10 H :    0.009023
  11 H :    0.160780
  12 H :    0.022117
  13 H :    0.041744
  14 H :    0.102684
  15 H :    0.109000
Sum of atomic charges:    0.0000000

LOEWDIN ATOMIC CHARGES
----------------------
   0 C :   -0.074350
   1 C :    0.044144
   2 O :   -0.110853
   3 C :   -0.070998
   4 C :    0.019692
   5 N :    0.011441
   6 O :   -0.201905
   7 H :    0.023422
   8 H :    0.031107
   9 H :    0.034942
  10 H :    0.010914
  11 H :    0.072378
  12 H :    0.043593
  13 H :    0.045335
  14 H :    0.052471
  15 H :    0.068666

  Mayer bond orders larger than 0.1
B(  0-C ,  1-C ) :   1.0949 B(  0-C ,  7-H ) :   0.9533 B(  0-C ,  8-H ) :   0.9524
B(  0-C ,  9-H ) :   0.9459 B(  1-C ,  2-O ) :   1.0015 B(  1-C ,  3-C ) :   1.0306
B(  1-C , 10-H ) :   0.9279 B(  2-O , 11-H ) :   0.9732 B(  2-O , 14-H ) :   0.1001
B(  3-C ,  4-C ) :   0.9613 B(  3-C , 12-H ) :   0.9185 B(  3-C , 13-H ) :   0.9004
B(  4-C ,  5-N ) :   1.2793 B(  4-C ,  6-O ) :   2.1261 B(  5-N , 14-H ) :   0.9052
B(  5-N , 15-H ) :   0.9372

FINAL SINGLE POINT ENERGY      -362.363239877299

DIPOLE MOMENT
-------------
                                X             Y             Z
Electronic contribution:      2.72292      -6.10947       0.83912
Nuclear contribution   :     -3.02795       7.46896       0.22257
                        -----------------------------------------
Total Dipole Moment    :     -0.30503       1.35949       1.06169
                        -----------------------------------------
Magnitude (a.u.)       :      1.75169
Magnitude (Debye)      :      4.45245

                             ****ORCA TERMINATED NORMALLY****
TOTAL RUN TIME: 0 days 0 hours 0 minutes 7 seconds 224 msec
