                         Program Version 3.0.3 - RELEASE   -
|  1> ! RI PBE def2-SVP def2-SVP/J NBO PAL2
|  2> % maxcore 2000
|  3> % output
|  4>     # printlevel mini
|  5>     print[ P_Basis ] 0
|  6>     print[ P_SCFInfo ] 1
|  7>     print[ P_SCFIterInfo ] 1
|  8>     print[ P_OrbEn ] 0
|  9>     print[ P_Cartesian ] 0
| 10> end
| 11> *xyz 0 1
| 12>  C        0.6213590000     0.3548930000    -0.7550940000
| 13>  C        1.9625150000    -0.2737710000    -0.8887160000
| 14>  O        2.8298550000    -0.3169950000     0.1474790000
| 15>  C        2.5210790000     0.2098570000     1.3624150000
| 16>  C        3.3850850000     0.1584470000     2.3629270000
| 17>  N        2.2820070000    -0.7765230000    -2.0118420000
| 18>  O        3.5505840000    -1.3305360000    -2.0126360000
| 19>  H        0.6962990000     1.4140320000    -0.4936190000
| 20>  H        0.0167740000    -0.1422120000     0.0085410000
| 21>  H        0.1157250000     0.2662020000    -1.7139360000
| 22>  H        1.5429480000     0.6652280000     1.4588210000
| 23>  H        4.3582080000    -0.3009470000     2.2475870000
| 24>  H        3.1155780000     0.5842210000     3.3188170000
| 25>  H        3.6280940000    -1.6555870000    -2.9132350000
| 26> *
| 27>
| 28>                          ****END OF INPUT****
 Total Charge           Charge          ....    0
 Multiplicity           Mult            ....    1
 Number of Electrons    NEL             ....   54
 Basis Dimension        Dim             ....  133

MULLIKEN ATOMIC CHARGES
-----------------------
   0 C :    0.014458
   1 C :   -0.034078
   2 O :   -0.173149
   3 C :    0.087800
   4 C :   -0.058637
   5 N :   -0.053229
   6 O :   -0.175038
   7 H :    0.053639
   8 H :    0.049845
   9 H :    0.046091
  10 H :    0.001635
  11 H :    0.039866
  12 H :    0.029591
  13 H :    0.171206
Sum of atomic charges:   -0.0000000

LOEWDIN ATOMIC CHARGES
----------------------
   0 C :   -0.075745
   1 C :   -0.023162
   2 O :   -0.005725
   3 C :    0.036304
   4 C :   -0.103607
   5 N :   -0.062303
   6 O :   -0.055930
   7 H :    0.041437
   8 H :    0.040397
   9 H :    0.050467
  10 H :    0.016026
  11 H :    0.034307
  12 H :    0.033786
  13 H :    0.073749

  Mayer bond orders larger than 0.1
B(  0-C ,  1-C ) :   1.1002 B(  0-C ,  7-H ) :   0.9335 B(  0-C ,  8-H ) :   0.9346
B(  0-C ,  9-H ) :   0.9333 B(  1-C ,  2-O ) :   1.1134 B(  1-C ,  5-N ) :   1.8815
B(  2-O ,  3-C ) :   1.0668 B(  3-C ,  4-C ) :   1.9384 B(  3-C , 10-H ) :   0.9392
B(  4-C , 11-H ) :   0.9461 B(  4-C , 12-H ) :   0.9359 B(  5-N ,  6-O ) :   1.0007
B(  6-O , 13-H ) :   0.9776

FINAL SINGLE POINT ENERGY      -361.055774564973

DIPOLE MOMENT
-------------
                                X             Y             Z
Electronic contribution:      3.05101      -2.51818      -3.67862
Nuclear contribution   :     -3.55172       2.77527       3.78634
                        -----------------------------------------
Total Dipole Moment    :     -0.50070       0.25709       0.10771
                        -----------------------------------------
Magnitude (a.u.)       :      0.57306
Magnitude (Debye)      :      1.45661

                             ****ORCA TERMINATED NORMALLY****
TOTAL RUN TIME: 0 days 0 hours 0 minutes 6 seconds 448 msec
