                         Program Version 3.0.3 - RELEASE   -
|  1> ! RI PBE def2-SVP def2-SVP/J NBO PAL2
|  2> % maxcore 2000
|  3> % output
|  4>     # printlevel mini
|  5>     print[ P_Basis ] 0
|  6>     print[ P_SCFInfo ] 1
|  7>     print[ P_SCFIterInfo ] 1
|  8>     print[ P_OrbEn ] 0
|  9>     print[ P_Cartesian ] 0
| 10> end
| 11> *xyz 0 1
| 12>  C        1.1635710000    -0.3221560000     0.0312830000
| 13>  C        2.6687940000    -0.3382800000     0.0660690000
| 14>  O        3.1316220000     0.7519950000    -0.7273760000
| 15>  C        4.4584860000     0.9137050000    -0.8250000000
| 16>  C        4.8707860000     2.0685260000    -1.6664760000
| 17>  N        5.2372970000     0.1081590000    -0.2213780000
| 18>  O        6.5736800000     0.4517190000    -0.4527270000
| 19>  H        0.7706310000    -1.1463780000     0.6303390000
| 20>  H        0.7949430000    -0.4347520000    -0.9901360000
| 21>  H        0.7731810000     0.6130720000     0.4372440000
| 22>  H        3.0776810000    -1.2704710000    -0.3356270000
| 23>  H        3.0560870000    -0.2284320000     1.0836400000
| 24>  H        3.9921530000     2.5787910000    -2.0559110000
| 25>  H        5.4968950000     1.7253820000    -2.4922750000
| 26>  H        5.4733320000     2.7637180000    -1.0787970000
| 27>  H        7.0449440000    -0.2188980000     0.0468180000
| 28> *
| 29>
| 30>                          ****END OF INPUT****
 Total Charge           Charge          ....    0
 Multiplicity           Mult            ....    1
 Number of Electrons    NEL             ....   56
 Basis Dimension        Dim             ....  143

MULLIKEN ATOMIC CHARGES
-----------------------
   0 C :   -0.011284
   1 C :    0.133902
   2 O :   -0.264774
   3 C :   -0.023612
   4 C :    0.077755
   5 N :   -0.117242
   6 O :   -0.198750
   7 H :    0.023742
   8 H :    0.029422
   9 H :    0.030606
  10 H :    0.012707
  11 H :    0.016714
  12 H :    0.027187
  13 H :    0.046069
  14 H :    0.046816
  15 H :    0.170741
Sum of atomic charges:   -0.0000000

LOEWDIN ATOMIC CHARGES
----------------------
   0 C :   -0.073209
   1 C :    0.068078
   2 O :   -0.065822
   3 C :   -0.015552
   4 C :   -0.076586
   5 N :   -0.094703
   6 O :   -0.069368
   7 H :    0.034645
   8 H :    0.030064
   9 H :    0.030420
  10 H :    0.014859
  11 H :    0.015283
  12 H :    0.037513
  13 H :    0.046628
  14 H :    0.046784
  15 H :    0.070968

  Mayer bond orders larger than 0.1
B(  0-C ,  1-C ) :   1.1042 B(  0-C ,  7-H ) :   0.9551 B(  0-C ,  8-H ) :   0.9634
B(  0-C ,  9-H ) :   0.9632 B(  1-C ,  2-O ) :   0.9349 B(  1-C , 10-H ) :   0.9424
B(  1-C , 11-H ) :   0.9441 B(  2-O ,  3-C ) :   1.1907 B(  3-C ,  4-C ) :   1.0853
B(  3-C ,  5-N ) :   1.7473 B(  4-C , 12-H ) :   0.9380 B(  4-C , 13-H ) :   0.9381
B(  4-C , 14-H ) :   0.9378 B(  5-N ,  6-O ) :   0.9774 B(  6-O , 15-H ) :   0.9786

FINAL SINGLE POINT ENERGY      -362.284153600275

DIPOLE MOMENT
-------------
                                X             Y             Z
Electronic contribution:      5.49409       0.06317       0.03923
Nuclear contribution   :     -5.55450      -0.23454       0.08628
                        -----------------------------------------
Total Dipole Moment    :     -0.06041      -0.17137       0.12551
                        -----------------------------------------
Magnitude (a.u.)       :      0.22083
Magnitude (Debye)      :      0.56131

                             ****ORCA TERMINATED NORMALLY****
TOTAL RUN TIME: 0 days 0 hours 0 minutes 7 seconds 321 msec
