                         Program Version 3.0.3 - RELEASE   -
|  1> ! RI PBE def2-SVP def2-SVP/J NBO PAL2
|  2> % maxcore 2000
|  3> % output
|  4>     # printlevel mini
|  5>     print[ P_Basis ] 0
|  6>     print[ P_SCFInfo ] 1
|  7>     print[ P_SCFIterInfo ] 1
|  8>     print[ P_OrbEn ] 0
|  9>     print[ P_Cartesian ] 0
| 10> end
| 11> *xyz 0 1
| 12>  C        1.1656440000     0.4033620000    -0.2382520000
| 13>  C        2.6694370000     0.3066450000    -0.2231080000
| 14>  O        3.0357910000    -0.8546950000     0.4927970000
| 15>  C        4.4258410000    -1.0331600000     0.5976520000
| 16>  C        5.0503630000    -1.4547300000    -0.6926480000
| 17>  N        6.0151460000    -0.7873310000    -1.1667510000
| 18>  O        6.4923430000    -1.3272270000    -2.3443380000
| 19>  H        0.8500850000     1.2991920000    -0.7774890000
| 20>  H        0.7724400000     0.4550540000     0.7788430000
| 21>  H        0.7286730000    -0.4673860000    -0.7308340000
| 22>  H        3.1120010000     1.1908150000     0.2599820000
| 23>  H        3.0650640000     0.2667590000    -1.2473170000
| 24>  H        4.5685480000    -1.8218610000     1.3429400000
| 25>  H        4.9261850000    -0.1243040000     0.9571830000
| 26>  H        4.6646640000    -2.3375160000    -1.2067870000
| 27>  H        7.2044760000    -0.7286170000    -2.5867550000
| 28> *
| 29>
| 30>                          ****END OF INPUT****
 Total Charge           Charge          ....    0
 Multiplicity           Mult            ....    1
 Number of Electrons    NEL             ....   56
 Basis Dimension        Dim             ....  143

MULLIKEN ATOMIC CHARGES
-----------------------
   0 C :   -0.019295
   1 C :    0.135502
   2 O :   -0.350886
   3 C :    0.262174
   4 C :   -0.098584
   5 N :   -0.042704
   6 O :   -0.172337
   7 H :    0.019810
   8 H :    0.028522
   9 H :    0.030820
  10 H :   -0.007755
  11 H :    0.008066
  12 H :    0.028544
  13 H :   -0.004779
  14 H :    0.010306
  15 H :    0.172595
Sum of atomic charges:    0.0000000

LOEWDIN ATOMIC CHARGES
----------------------
   0 C :   -0.072732
   1 C :    0.058594
   2 O :   -0.146851
   3 C :    0.049573
   4 C :   -0.054124
   5 N :   -0.011674
   6 O :   -0.049800
   7 H :    0.032179
   8 H :    0.029354
   9 H :    0.030293
  10 H :    0.004999
  11 H :    0.004632
  12 H :    0.031927
  13 H :    0.011340
  14 H :    0.007761
  15 H :    0.074529

  Mayer bond orders larger than 0.1
B(  0-C ,  1-C ) :   1.1160 B(  0-C ,  7-H ) :   0.9550 B(  0-C ,  8-H ) :   0.9639
B(  0-C ,  9-H ) :   0.9649 B(  1-C ,  2-O ) :   1.0013 B(  1-C , 10-H ) :   0.9278
B(  1-C , 11-H ) :   0.9317 B(  2-O ,  3-C ) :   1.0257 B(  3-C ,  4-C ) :   1.0291
B(  3-C , 12-H ) :   0.9230 B(  3-C , 13-H ) :   0.9177 B(  4-C ,  5-N ) :   1.8828
B(  4-C ,  6-O ) :   0.1165 B(  4-C , 14-H ) :   0.9379 B(  5-N ,  6-O ) :   0.9975
B(  6-O , 15-H ) :   0.9754

FINAL SINGLE POINT ENERGY      -362.260698327954

DIPOLE MOMENT
-------------
                                X             Y             Z
Electronic contribution:      7.12466      -3.25970      -1.77880
Nuclear contribution   :     -6.86605       3.55639       1.54923
                        -----------------------------------------
Total Dipole Moment    :      0.25860       0.29670      -0.22958
                        -----------------------------------------
Magnitude (a.u.)       :      0.45564
Magnitude (Debye)      :      1.15815

                             ****ORCA TERMINATED NORMALLY****
TOTAL RUN TIME: 0 days 0 hours 0 minutes 7 seconds 7 msec
