                         Program Version 3.0.3 - RELEASE   -
|  1> ! RI PBE def2-SVP def2-SVP/J NBO PAL2
|  2> % maxcore 2000
|  3> % output
|  4>     # printlevel mini
|  5>     print[ P_Basis ] 0
|  6>     print[ P_SCFInfo ] 1
|  7>     print[ P_SCFIterInfo ] 1
|  8>     print[ P_OrbEn ] 0
|  9>     print[ P_Cartesian ] 0
| 10> end
| 11> *xyz 0 1
| 12>  C        1.0265110000    -0.0150960000    -0.0968210000
| 13>  C        2.5318180000     0.0451890000    -0.0840800000
| 14>  O        2.9925400000    -0.2565740000     1.2142200000
| 15>  C        4.3891910000    -0.2257620000     1.3210790000
| 16>  C        4.8549420000    -0.5506200000     2.7270810000
| 17>  N        3.8712130000    -0.8052880000     3.6104110000
| 18>  O        6.0387640000    -0.5680590000     2.9911270000
| 19>  H        0.6486760000     0.2162830000    -1.0948040000
| 20>  H        0.6048510000     0.7065620000     0.6056380000
| 21>  H        0.6772560000    -1.0118220000     0.1798950000
| 22>  H        2.8836320000     1.0454790000    -0.3769500000
| 23>  H        2.9559730000    -0.6723690000    -0.8019360000
| 24>  H        4.7902950000     0.7649360000     1.0660450000
| 25>  H        4.8604070000    -0.9532580000     0.6457470000
| 26>  H        2.9111650000    -0.7718220000     3.3165390000
| 27>  H        4.1153550000    -1.0272690000     4.5591090000
| 28> *
| 29>
| 30>                          ****END OF INPUT****
 Total Charge           Charge          ....    0
 Multiplicity           Mult            ....    1
 Number of Electrons    NEL             ....   56
 Basis Dimension        Dim             ....  143

MULLIKEN ATOMIC CHARGES
-----------------------
   0 C :   -0.020469
   1 C :    0.144679
   2 O :   -0.370676
   3 C :    0.193560
   4 C :   -0.058732
   5 N :   -0.040670
   6 O :   -0.216613
   7 H :    0.023243
   8 H :    0.033563
   9 H :    0.028992
  10 H :   -0.002928
  11 H :    0.004275
  12 H :    0.022015
  13 H :    0.026537
  14 H :    0.116131
  15 H :    0.117092
Sum of atomic charges:   -0.0000000

LOEWDIN ATOMIC CHARGES
----------------------
   0 C :   -0.073040
   1 C :    0.063168
   2 O :   -0.156440
   3 C :    0.035347
   4 C :    0.008303
   5 N :    0.022016
   6 O :   -0.198994
   7 H :    0.034835
   8 H :    0.030646
   9 H :    0.029705
  10 H :    0.006541
  11 H :    0.007917
  12 H :    0.024192
  13 H :    0.025103
  14 H :    0.067510
  15 H :    0.073190

  Mayer bond orders larger than 0.1
B(  0-C ,  1-C ) :   1.1175 B(  0-C ,  7-H ) :   0.9529 B(  0-C ,  8-H ) :   0.9659
B(  0-C ,  9-H ) :   0.9650 B(  1-C ,  2-O ) :   0.9837 B(  1-C , 10-H ) :   0.9326
B(  1-C , 11-H ) :   0.9351 B(  2-O ,  3-C ) :   1.0050 B(  3-C ,  4-C ) :   0.9379
B(  3-C , 12-H ) :   0.9180 B(  3-C , 13-H ) :   0.9187 B(  4-C ,  5-N ) :   1.2972
B(  4-C ,  6-O ) :   2.0987 B(  5-N ,  6-O ) :   0.1013 B(  5-N , 14-H ) :   0.9206
B(  5-N , 15-H ) :   0.9377

FINAL SINGLE POINT ENERGY      -362.348941133489

DIPOLE MOMENT
-------------
                                X             Y             Z
Electronic contribution:      6.57448      -1.23669       6.11856
Nuclear contribution   :     -7.91677       1.27574      -6.49964
                        -----------------------------------------
Total Dipole Moment    :     -1.34229       0.03905      -0.38108
                        -----------------------------------------
Magnitude (a.u.)       :      1.39588
Magnitude (Debye)      :      3.54804

                             ****ORCA TERMINATED NORMALLY****
TOTAL RUN TIME: 0 days 0 hours 0 minutes 6 seconds 734 msec
