                         Program Version 3.0.3 - RELEASE   -
|  1> ! RI PBE def2-SVP def2-SVP/J NBO PAL2
|  2> % maxcore 2000
|  3> % output
|  4>     # printlevel mini
|  5>     print[ P_Basis ] 0
|  6>     print[ P_SCFInfo ] 1
|  7>     print[ P_SCFIterInfo ] 1
|  8>     print[ P_OrbEn ] 0
|  9>     print[ P_Cartesian ] 0
| 10> end
| 11> *xyz 0 1
| 12>  C        2.9421950000    -1.5035980000    -1.5623320000
| 13>  C        2.6396960000    -0.1208510000    -1.0670860000
| 14>  O        1.7100280000     0.5289040000    -1.4771320000
| 15>  C        3.5290160000     0.4486210000     0.0259190000
| 16>  N        4.8423630000    -0.1485360000     0.0766020000
| 17>  C        5.8758320000     0.5269820000    -0.6849740000
| 18>  C        5.8486830000     0.6057160000     0.7918660000
| 19>  H        2.1572810000    -1.8283330000    -2.2428320000
| 20>  H        3.0432710000    -2.1956810000    -0.7228670000
| 21>  H        3.9087380000    -1.5090930000    -2.0732480000
| 22>  H        3.0163110000     0.2385950000     0.9736190000
| 23>  H        3.5425110000     1.5425880000    -0.0952230000
| 24>  H        5.5939950000     1.4220290000    -1.2345050000
| 25>  H        6.5916120000    -0.1156730000    -1.1856000000
| 26>  H        5.5516680000     1.5549410000     1.2311860000
| 27>  H        6.5444010000     0.0222100000     1.3847070000
| 28> *
| 29>
| 30>                          ****END OF INPUT****
 Total Charge           Charge          ....    0
 Multiplicity           Mult            ....    1
 Number of Electrons    NEL             ....   54
 Basis Dimension        Dim             ....  143

MULLIKEN ATOMIC CHARGES
-----------------------
   0 C :    0.043969
   1 C :   -0.094928
   2 O :   -0.164522
   3 C :    0.129952
   4 N :   -0.298814
   5 C :    0.021624
   6 C :    0.032405
   7 H :    0.036467
   8 H :    0.043435
   9 H :    0.044323
  10 H :    0.045428
  11 H :    0.008647
  12 H :    0.035619
  13 H :    0.044066
  14 H :    0.028273
  15 H :    0.044056
Sum of atomic charges:   -0.0000000

LOEWDIN ATOMIC CHARGES
----------------------
   0 C :   -0.088625
   1 C :    0.051915
   2 O :   -0.123045
   3 C :   -0.016551
   4 N :   -0.111622
   5 C :    0.002172
   6 C :    0.007959
   7 H :    0.036091
   8 H :    0.048334
   9 H :    0.051167
  10 H :    0.046253
  11 H :    0.016810
  12 H :    0.016739
  13 H :    0.023016
  14 H :    0.015762
  15 H :    0.023624

  Mayer bond orders larger than 0.1
B(  0-C ,  1-C ) :   1.0459 B(  0-C ,  7-H ) :   0.9468 B(  0-C ,  8-H ) :   0.9359
B(  0-C ,  9-H ) :   0.9226 B(  1-C ,  2-O ) :   2.1849 B(  1-C ,  3-C ) :   0.9459
B(  3-C ,  4-N ) :   1.0333 B(  3-C , 10-H ) :   0.9082 B(  3-C , 11-H ) :   0.9028
B(  4-N ,  5-C ) :   0.9548 B(  4-N ,  6-C ) :   0.9675 B(  5-C ,  6-C ) :   1.0899
B(  5-C , 12-H ) :   0.9342 B(  5-C , 13-H ) :   0.9494 B(  6-C , 14-H ) :   0.9347
B(  6-C , 15-H ) :   0.9504

FINAL SINGLE POINT ENERGY      -325.225806142742

DIPOLE MOMENT
-------------
                                X             Y             Z
Electronic contribution:     -3.70272       1.12285      -0.71189
Nuclear contribution   :      4.60040      -1.23359       1.08651
                        -----------------------------------------
Total Dipole Moment    :      0.89768      -0.11074       0.37461
                        -----------------------------------------
Magnitude (a.u.)       :      0.97899
Magnitude (Debye)      :      2.48840

                             ****ORCA TERMINATED NORMALLY****
TOTAL RUN TIME: 0 days 0 hours 0 minutes 7 seconds 97 msec
