                         Program Version 3.0.3 - RELEASE   -
|  1> ! RI PBE def2-SVP def2-SVP/J NBO PAL2
|  2> % maxcore 2000
|  3> % output
|  4>     # printlevel mini
|  5>     print[ P_Basis ] 0
|  6>     print[ P_SCFInfo ] 1
|  7>     print[ P_SCFIterInfo ] 1
|  8>     print[ P_OrbEn ] 0
|  9>     print[ P_Cartesian ] 0
| 10> end
| 11> *xyz 0 1
| 12>  C        0.9718180000    -0.1749740000    -0.1112050000
| 13>  C        2.4771660000    -0.1061900000    -0.0146590000
| 14>  O        3.0260460000    -0.7937530000    -1.1175890000
| 15>  C        2.9905380000     1.3242630000     0.0004820000
| 16>  N        4.4403500000     1.3099970000    -0.0293760000
| 17>  C        5.1132920000     2.5403350000     0.3193060000
| 18>  C        5.1176460000     1.3896840000     1.2499020000
| 19>  H        0.6456030000    -1.2156440000    -0.1442130000
| 20>  H        0.6267900000     0.3181550000    -1.0232830000
| 21>  H        0.5019020000     0.3065090000     0.7497970000
| 22>  H        2.7991520000    -0.5923880000     0.9217810000
| 23>  H        3.9410110000    -0.4902210000    -1.1847010000
| 24>  H        2.5965630000     1.8640410000     0.8773880000
| 25>  H        2.6383820000     1.8359430000    -0.9016270000
| 26>  H        4.4922070000     3.3913360000     0.5874010000
| 27>  H        5.9979380000     2.7803520000    -0.2601290000
| 28>  H        4.4995140000     1.4683460000     2.1408820000
| 29>  H        6.0053800000     0.7768700000     1.3582530000
| 30> *
| 31>
| 32>                          ****END OF INPUT****
 Total Charge           Charge          ....    0
 Multiplicity           Mult            ....    1
 Number of Electrons    NEL             ....   56
 Basis Dimension        Dim             ....  153

MULLIKEN ATOMIC CHARGES
-----------------------
   0 C :    0.036961
   1 C :    0.062278
   2 O :   -0.273710
   3 C :    0.111405
   4 N :   -0.312438
   5 C :    0.036902
   6 C :    0.026428
   7 H :    0.027737
   8 H :    0.014994
   9 H :    0.007430
  10 H :   -0.019282
  11 H :    0.145992
  12 H :   -0.020463
  13 H :    0.009133
  14 H :    0.029285
  15 H :    0.040289
  16 H :    0.034557
  17 H :    0.042501
Sum of atomic charges:    0.0000000

LOEWDIN ATOMIC CHARGES
----------------------
   0 C :   -0.064769
   1 C :    0.036330
   2 O :   -0.120764
   3 C :    0.000615
   4 N :   -0.109546
   5 C :    0.009119
   6 C :    0.004957
   7 H :    0.032349
   8 H :    0.026538
   9 H :    0.026306
  10 H :    0.002254
  11 H :    0.052399
  12 H :    0.003435
  13 H :    0.022810
  14 H :    0.016567
  15 H :    0.022836
  16 H :    0.015343
  17 H :    0.023222

  Mayer bond orders larger than 0.1
B(  0-C ,  1-C ) :   1.0921 B(  0-C ,  7-H ) :   0.9565 B(  0-C ,  8-H ) :   0.9524
B(  0-C ,  9-H ) :   0.9524 B(  1-C ,  2-O ) :   1.0856 B(  1-C ,  3-C ) :   1.0481
B(  1-C , 10-H ) :   0.8984 B(  2-O , 11-H ) :   0.9577 B(  3-C ,  4-N ) :   1.0130
B(  3-C , 12-H ) :   0.9012 B(  3-C , 13-H ) :   0.9201 B(  4-N ,  5-C ) :   0.9749
B(  4-N ,  6-C ) :   0.9501 B(  5-C ,  6-C ) :   1.0897 B(  5-C , 14-H ) :   0.9348
B(  5-C , 15-H ) :   0.9505 B(  6-C , 16-H ) :   0.9320 B(  6-C , 17-H ) :   0.9515

FINAL SINGLE POINT ENERGY      -326.422311259301

DIPOLE MOMENT
-------------
                                X             Y             Z
Electronic contribution:      2.93899      -1.29483      -2.03907
Nuclear contribution   :     -2.69098       2.03314       2.68733
                        -----------------------------------------
Total Dipole Moment    :      0.24802       0.73831       0.64825
                        -----------------------------------------
Magnitude (a.u.)       :      1.01334
Magnitude (Debye)      :      2.57569

                             ****ORCA TERMINATED NORMALLY****
TOTAL RUN TIME: 0 days 0 hours 0 minutes 7 seconds 897 msec
