                         Program Version 3.0.3 - RELEASE   -
|  1> ! RI PBE def2-SVP def2-SVP/J NBO PAL2
|  2> % maxcore 2000
|  3> % output
|  4>     # printlevel mini
|  5>     print[ P_Basis ] 0
|  6>     print[ P_SCFInfo ] 1
|  7>     print[ P_SCFIterInfo ] 1
|  8>     print[ P_OrbEn ] 0
|  9>     print[ P_Cartesian ] 0
| 10> end
| 11> *xyz 0 1
| 12>  C        0.9188300000    -0.1800920000    -0.3780600000
| 13>  C        2.3123290000    -0.0557160000     0.2154550000
| 14>  O        3.2006090000     0.2715780000    -0.8261890000
| 15>  C        2.3538450000     1.0800630000     1.2520370000
| 16>  N        3.7401290000     1.3584730000     1.5882400000
| 17>  C        2.6961320000    -1.3486210000     0.8958910000
| 18>  C        3.7504220000    -2.0865880000     0.5831210000
| 19>  H        0.6309610000     0.7613510000    -0.8504610000
| 20>  H        0.1840220000    -0.4307270000     0.3907990000
| 21>  H        0.9077920000    -0.9659390000    -1.1348310000
| 22>  H        3.9240130000     0.7489470000    -0.3876720000
| 23>  H        1.7210390000     0.8199500000     2.1121460000
| 24>  H        1.9317250000     1.9743560000     0.7853870000
| 25>  H        4.1229070000     0.6393250000     2.1894280000
| 26>  H        3.8438210000     2.2496660000     2.0518890000
| 27>  H        2.0324950000    -1.6653050000     1.6996120000
| 28>  H        4.4091260000    -1.7930530000    -0.2264400000
| 29>  H        3.9713020000    -3.0081790000     1.1092680000
| 30> *
| 31>
| 32>                          ****END OF INPUT****
 Total Charge           Charge          ....    0
 Multiplicity           Mult            ....    1
 Number of Electrons    NEL             ....   56
 Basis Dimension        Dim             ....  153

MULLIKEN ATOMIC CHARGES
-----------------------
   0 C :    0.080603
   1 C :   -0.077785
   2 O :   -0.248637
   3 C :    0.110077
   4 N :   -0.209738
   5 C :   -0.056477
   6 C :   -0.015989
   7 H :    0.013815
   8 H :    0.004802
   9 H :    0.032040
  10 H :    0.139097
  11 H :   -0.007062
  12 H :    0.004697
  13 H :    0.099100
  14 H :    0.102027
  15 H :   -0.009875
  16 H :    0.021854
  17 H :    0.017453
Sum of atomic charges:    0.0000000

LOEWDIN ATOMIC CHARGES
----------------------
   0 C :   -0.052231
   1 C :    0.003908
   2 O :   -0.101445
   3 C :    0.005916
   4 N :   -0.085405
   5 C :   -0.046233
   6 C :   -0.061146
   7 H :    0.026722
   8 H :    0.025080
   9 H :    0.034177
  10 H :    0.043588
  11 H :    0.004008
  12 H :    0.021990
  13 H :    0.056095
  14 H :    0.058857
  15 H :    0.021714
  16 H :    0.021602
  17 H :    0.022803

  Mayer bond orders larger than 0.1
B(  0-C ,  1-C ) :   1.0537 B(  0-C ,  7-H ) :   0.9442 B(  0-C ,  8-H ) :   0.9476
B(  0-C ,  9-H ) :   0.9549 B(  1-C ,  2-O ) :   1.1082 B(  1-C ,  3-C ) :   1.0082
B(  1-C ,  5-C ) :   0.9472 B(  2-O , 10-H ) :   0.9349 B(  3-C ,  4-N ) :   1.0930
B(  3-C , 11-H ) :   0.9266 B(  3-C , 12-H ) :   0.9227 B(  4-N , 10-H ) :   0.1221
B(  4-N , 13-H ) :   0.9617 B(  4-N , 14-H ) :   0.9639 B(  5-C ,  6-C ) :   2.0095
B(  5-C , 15-H ) :   0.9432 B(  6-C , 16-H ) :   0.9310 B(  6-C , 17-H ) :   0.9379

FINAL SINGLE POINT ENERGY      -326.441873327663

DIPOLE MOMENT
-------------
                                X             Y             Z
Electronic contribution:      2.11708       0.15002      -1.31919
Nuclear contribution   :     -2.17959       0.24423       2.38308
                        -----------------------------------------
Total Dipole Moment    :     -0.06251       0.39424       1.06390
                        -----------------------------------------
Magnitude (a.u.)       :      1.13632
Magnitude (Debye)      :      2.88829

                             ****ORCA TERMINATED NORMALLY****
TOTAL RUN TIME: 0 days 0 hours 0 minutes 8 seconds 55 msec
