                         Program Version 3.0.3 - RELEASE   -
|  1> ! RI PBE def2-SVP def2-SVP/J NBO PAL2
|  2> % maxcore 2000
|  3> % output
|  4>     # printlevel mini
|  5>     print[ P_Basis ] 0
|  6>     print[ P_SCFInfo ] 1
|  7>     print[ P_SCFIterInfo ] 1
|  8>     print[ P_OrbEn ] 0
|  9>     print[ P_Cartesian ] 0
| 10> end
| 11> *xyz 0 1
| 12>  C        1.0766190000     0.1489300000    -0.0488300000
| 13>  C        2.5926350000     0.0799220000     0.0038030000
| 14>  O        3.0970250000     1.3640320000    -0.2846850000
| 15>  C        3.0820470000    -0.3306610000     1.4019380000
| 16>  N        4.5237310000    -0.1674980000     1.4578370000
| 17>  C        3.0923490000    -0.9053200000    -0.9753980000
| 18>  C        3.5160300000    -1.7190570000    -1.7509280000
| 19>  H        0.7259480000     0.8864970000     0.6755280000
| 20>  H        0.6352830000    -0.8229770000     0.1781210000
| 21>  H        0.7537310000     0.4552230000    -1.0440210000
| 22>  H        3.9963680000     1.3585180000     0.0815970000
| 23>  H        2.7275850000    -1.3436660000     1.6322790000
| 24>  H        2.6283900000     0.3620760000     2.1155630000
| 25>  H        4.9937770000    -0.9328070000     0.9901990000
| 26>  H        4.8604710000    -0.1227720000     2.4088380000
| 27>  H        3.8829220000    -2.4265400000    -2.4566310000
| 28> *
| 29>
| 30>                          ****END OF INPUT****
 Total Charge           Charge          ....    0
 Multiplicity           Mult            ....    1
 Number of Electrons    NEL             ....   54
 Basis Dimension        Dim             ....  143

MULLIKEN ATOMIC CHARGES
-----------------------
   0 C :    0.088380
   1 C :   -0.085004
   2 O :   -0.246775
   3 C :    0.111873
   4 N :   -0.211604
   5 C :    0.467104
   6 C :   -0.556095
   7 H :    0.019686
   8 H :    0.017521
   9 H :    0.034188
  10 H :    0.141550
  11 H :    0.002898
  12 H :    0.010720
  13 H :    0.105569
  14 H :    0.103272
  15 H :   -0.003285
Sum of atomic charges:    0.0000000

LOEWDIN ATOMIC CHARGES
----------------------
   0 C :   -0.042750
   1 C :   -0.004502
   2 O :   -0.095179
   3 C :    0.010732
   4 N :   -0.086515
   5 C :   -0.021253
   6 C :   -0.093376
   7 H :    0.029488
   8 H :    0.030525
   9 H :    0.036640
  10 H :    0.048067
  11 H :    0.009007
  12 H :    0.024915
  13 H :    0.060191
  14 H :    0.059950
  15 H :    0.034061

  Mayer bond orders larger than 0.1
B(  0-C ,  1-C ) :   1.0480 B(  0-C ,  7-H ) :   0.9464 B(  0-C ,  8-H ) :   0.9501
B(  0-C ,  9-H ) :   0.9542 B(  1-C ,  2-O ) :   1.0818 B(  1-C ,  3-C ) :   1.0220
B(  1-C ,  5-C ) :   0.8758 B(  2-O , 10-H ) :   0.9430 B(  3-C ,  4-N ) :   1.1010
B(  3-C , 11-H ) :   0.9261 B(  3-C , 12-H ) :   0.9242 B(  4-N , 10-H ) :   0.1142
B(  4-N , 13-H ) :   0.9624 B(  4-N , 14-H ) :   0.9639 B(  5-C ,  6-C ) :   2.3099
B(  5-C , 15-H ) :  -0.1228 B(  6-C , 15-H ) :   1.1114

FINAL SINGLE POINT ENERGY      -325.194870418608

DIPOLE MOMENT
-------------
                                X             Y             Z
Electronic contribution:      2.11779       0.35312      -3.13186
Nuclear contribution   :     -1.79281      -1.05196       3.95751
                        -----------------------------------------
Total Dipole Moment    :      0.32498      -0.69883       0.82565
                        -----------------------------------------
Magnitude (a.u.)       :      1.12946
Magnitude (Debye)      :      2.87086

                             ****ORCA TERMINATED NORMALLY****
TOTAL RUN TIME: 0 days 0 hours 0 minutes 7 seconds 308 msec
