                         Program Version 3.0.3 - RELEASE   -
|  1> ! RI PBE def2-SVP def2-SVP/J NBO PAL2
|  2> % maxcore 2000
|  3> % output
|  4>     # printlevel mini
|  5>     print[ P_Basis ] 0
|  6>     print[ P_SCFInfo ] 1
|  7>     print[ P_SCFIterInfo ] 1
|  8>     print[ P_OrbEn ] 0
|  9>     print[ P_Cartesian ] 0
| 10> end
| 11> *xyz 0 1
| 12>  C        3.2259500000    -0.8463500000    -1.2661410000
| 13>  C        2.5399640000    -0.1608290000    -0.0991140000
| 14>  O        2.3558660000    -1.0445590000     0.9914680000
| 15>  C        3.2259290000     1.1392240000     0.3813110000
| 16>  N        2.4497670000     1.8223540000     1.3998430000
| 17>  C        4.6217030000     0.8487730000     0.8530070000
| 18>  C        5.0842870000     1.0890710000     2.0722380000
| 19>  H        2.6223570000    -1.6891720000    -1.6070540000
| 20>  H        4.2076240000    -1.2344540000    -0.9836080000
| 21>  H        3.3608730000    -0.1579920000    -2.1051490000
| 22>  H        1.5247220000     0.1160480000    -0.4038180000
| 23>  H        3.2238030000    -1.2188840000     1.3740350000
| 24>  H        3.3018490000     1.8044200000    -0.4890500000
| 25>  H        2.1138560000     1.1349020000     2.0671890000
| 26>  H        1.6287200000     2.2424150000     0.9828460000
| 27>  H        5.2812640000     0.3929460000     0.1185530000
| 28>  H        4.4650220000     1.5738640000     2.8181710000
| 29>  H        6.1036440000     0.8397220000     2.3439830000
| 30> *
| 31>
| 32>                          ****END OF INPUT****
 Total Charge           Charge          ....    0
 Multiplicity           Mult            ....    1
 Number of Electrons    NEL             ....   56
 Basis Dimension        Dim             ....  153

MULLIKEN ATOMIC CHARGES
-----------------------
   0 C :    0.024362
   1 C :    0.076812
   2 O :   -0.275854
   3 C :    0.011129
   4 N :   -0.138132
   5 C :   -0.103790
   6 C :   -0.016083
   7 H :    0.028832
   8 H :    0.009519
   9 H :    0.015517
  10 H :   -0.011411
  11 H :    0.149405
  12 H :    0.011421
  13 H :    0.084132
  14 H :    0.086789
  15 H :    0.002004
  16 H :    0.024957
  17 H :    0.020391
Sum of atomic charges:   -0.0000000

LOEWDIN ATOMIC CHARGES
----------------------
   0 C :   -0.079306
   1 C :    0.031731
   2 O :   -0.109193
   3 C :   -0.020481
   4 N :   -0.082924
   5 C :   -0.048080
   6 C :   -0.056350
   7 H :    0.032079
   8 H :    0.022205
   9 H :    0.029175
  10 H :    0.015915
  11 H :    0.062330
  12 H :    0.032341
  13 H :    0.045530
  14 H :    0.054167
  15 H :    0.024122
  16 H :    0.022992
  17 H :    0.023748

  Mayer bond orders larger than 0.1
B(  0-C ,  1-C ) :   1.0742 B(  0-C ,  7-H ) :   0.9478 B(  0-C ,  8-H ) :   0.9441
B(  0-C ,  9-H ) :   0.9490 B(  1-C ,  2-O ) :   1.0162 B(  1-C ,  3-C ) :   0.9728
B(  1-C , 10-H ) :   0.9040 B(  2-O , 11-H ) :   0.9750 B(  3-C ,  4-N ) :   1.1568
B(  3-C ,  5-C ) :   0.9765 B(  3-C , 12-H ) :   0.8872 B(  4-N , 13-H ) :   0.9520
B(  4-N , 14-H ) :   0.9640 B(  5-C ,  6-C ) :   2.0078 B(  5-C , 15-H ) :   0.9535
B(  6-C , 16-H ) :   0.9252 B(  6-C , 17-H ) :   0.9408

FINAL SINGLE POINT ENERGY      -326.435127528286

DIPOLE MOMENT
-------------
                                X             Y             Z
Electronic contribution:     -1.24050       0.18547       2.14258
Nuclear contribution   :      1.32522      -0.27128      -2.54982
                        -----------------------------------------
Total Dipole Moment    :      0.08472      -0.08581      -0.40724
                        -----------------------------------------
Magnitude (a.u.)       :      0.42471
Magnitude (Debye)      :      1.07953

                             ****ORCA TERMINATED NORMALLY****
TOTAL RUN TIME: 0 days 0 hours 0 minutes 7 seconds 728 msec
