                         Program Version 3.0.3 - RELEASE   -
|  1> ! RI PBE def2-SVP def2-SVP/J NBO PAL2
|  2> % maxcore 2000
|  3> % output
|  4>     # printlevel mini
|  5>     print[ P_Basis ] 0
|  6>     print[ P_SCFInfo ] 1
|  7>     print[ P_SCFIterInfo ] 1
|  8>     print[ P_OrbEn ] 0
|  9>     print[ P_Cartesian ] 0
| 10> end
| 11> *xyz 0 1
| 12>  C        0.8817000000     0.0408520000    -0.0108100000
| 13>  C        2.3893230000    -0.0961720000     0.0368660000
| 14>  O        2.8440980000    -0.5223290000     1.3032540000
| 15>  C        2.9548220000    -1.0143740000    -1.0720090000
| 16>  N        4.4073070000    -1.0253870000    -1.1494480000
| 17>  C        2.4614260000    -2.3767030000    -0.8712660000
| 18>  C        2.0456700000    -3.4785070000    -0.6356730000
| 19>  H        0.5441360000     0.7153600000     0.7776480000
| 20>  H        0.4002630000    -0.9303070000     0.1328830000
| 21>  H        0.5524100000     0.4412500000    -0.9733280000
| 22>  H        2.8506250000     0.8862080000    -0.1128320000
| 23>  H        2.4693710000    -1.3964980000     1.4642080000
| 24>  H        2.5707770000    -0.6547050000    -2.0344800000
| 25>  H        4.7799670000    -1.2442680000    -0.2315800000
| 26>  H        4.7369420000    -0.0965700000    -1.3860140000
| 27>  H        1.6881720000    -4.4660600000    -0.4614390000
| 28> *
| 29>
| 30>                          ****END OF INPUT****
 Total Charge           Charge          ....    0
 Multiplicity           Mult            ....    1
 Number of Electrons    NEL             ....   54
 Basis Dimension        Dim             ....  143

MULLIKEN ATOMIC CHARGES
-----------------------
   0 C :    0.025580
   1 C :    0.074894
   2 O :   -0.275150
   3 C :    0.044691
   4 N :   -0.143586
   5 C :    0.377250
   6 C :   -0.509325
   7 H :    0.030790
   8 H :    0.021135
   9 H :    0.012501
  10 H :   -0.007356
  11 H :    0.152859
  12 H :    0.017636
  13 H :    0.088942
  14 H :    0.087422
  15 H :    0.001717
Sum of atomic charges:   -0.0000000

LOEWDIN ATOMIC CHARGES
----------------------
   0 C :   -0.077317
   1 C :    0.033022
   2 O :   -0.107121
   3 C :   -0.025040
   4 N :   -0.079294
   5 C :   -0.015155
   6 C :   -0.086330
   7 H :    0.031579
   8 H :    0.028357
   9 H :    0.029998
  10 H :    0.018172
  11 H :    0.066721
  12 H :    0.042378
  13 H :    0.050345
  14 H :    0.052987
  15 H :    0.036698

  Mayer bond orders larger than 0.1
B(  0-C ,  1-C ) :   1.0693 B(  0-C ,  7-H ) :   0.9514 B(  0-C ,  8-H ) :   0.9495
B(  0-C ,  9-H ) :   0.9465 B(  1-C ,  2-O ) :   1.0236 B(  1-C ,  3-C ) :   0.9590
B(  1-C , 10-H ) :   0.9022 B(  2-O , 11-H ) :   0.9762 B(  3-C ,  4-N ) :   1.1211
B(  3-C ,  5-C ) :   0.9758 B(  3-C , 12-H ) :   0.8663 B(  4-N , 13-H ) :   0.9575
B(  4-N , 14-H ) :   0.9644 B(  5-C ,  6-C ) :   2.3148 B(  5-C , 15-H ) :  -0.1169
B(  6-C , 15-H ) :   1.1069

FINAL SINGLE POINT ENERGY      -325.190250859005

DIPOLE MOMENT
-------------
                                X             Y             Z
Electronic contribution:      2.16271      -3.08682       0.19831
Nuclear contribution   :     -2.54857       3.27978      -0.18185
                        -----------------------------------------
Total Dipole Moment    :     -0.38586       0.19296       0.01646
                        -----------------------------------------
Magnitude (a.u.)       :      0.43173
Magnitude (Debye)      :      1.09737

                             ****ORCA TERMINATED NORMALLY****
TOTAL RUN TIME: 0 days 0 hours 0 minutes 7 seconds 639 msec
