                         Program Version 3.0.3 - RELEASE   -
|  1> ! RI PBE def2-SVP def2-SVP/J NBO PAL2
|  2> % maxcore 2000
|  3> % output
|  4>     # printlevel mini
|  5>     print[ P_Basis ] 0
|  6>     print[ P_SCFInfo ] 1
|  7>     print[ P_SCFIterInfo ] 1
|  8>     print[ P_OrbEn ] 0
|  9>     print[ P_Cartesian ] 0
| 10> end
| 11> *xyz 0 1
| 12>  C        1.2382730000     0.5263440000     0.2741830000
| 13>  C        2.6857920000     0.3111040000     0.6489970000
| 14>  O        2.7760190000    -0.8042340000     1.5061620000
| 15>  C        3.5593680000     0.0709450000    -0.5760140000
| 16>  N        4.8960740000    -0.3475750000    -0.1912700000
| 17>  C        5.5700380000    -1.0729150000    -1.2447770000
| 18>  C        5.7083070000     0.7522560000     0.2838520000
| 19>  H        0.6356200000     0.6787630000     1.1709840000
| 20>  H        0.8483980000    -0.3477000000    -0.2533110000
| 21>  H        1.1283080000     1.4041340000    -0.3675820000
| 22>  H        3.0439860000     1.2109390000     1.1755560000
| 23>  H        3.6839390000    -1.1254220000     1.3985220000
| 24>  H        3.5722100000     0.9677150000    -1.2205470000
| 25>  H        3.1079480000    -0.7433500000    -1.1515290000
| 26>  H        4.9722760000    -1.9358630000    -1.5441630000
| 27>  H        6.5350930000    -1.4361700000    -0.8838990000
| 28>  H        5.7544310000    -0.4538590000    -2.1401920000
| 29>  H        5.2210040000     1.2563180000     1.1195220000
| 30>  H        5.9012210000     1.5018170000    -0.5037360000
| 31>  H        6.6702940000     0.3744530000     0.6364320000
| 32> *
| 33>
| 34>                          ****END OF INPUT****
 Total Charge           Charge          ....    0
 Multiplicity           Mult            ....    1
 Number of Electrons    NEL             ....   58
 Basis Dimension        Dim             ....  163

MULLIKEN ATOMIC CHARGES
-----------------------
   0 C :    0.029887
   1 C :    0.047911
   2 O :   -0.269184
   3 C :    0.101113
   4 N :   -0.367649
   5 C :    0.106081
   6 C :    0.099354
   7 H :    0.029087
   8 H :    0.014966
   9 H :    0.009710
  10 H :   -0.015433
  11 H :    0.136747
  12 H :   -0.014112
  13 H :    0.002159
  14 H :    0.027717
  15 H :    0.017013
  16 H :   -0.004217
  17 H :    0.030329
  18 H :   -0.003346
  19 H :    0.021867
Sum of atomic charges:   -0.0000000

LOEWDIN ATOMIC CHARGES
----------------------
   0 C :   -0.066474
   1 C :    0.033171
   2 O :   -0.123388
   3 C :    0.002790
   4 N :   -0.108624
   5 C :    0.005837
   6 C :    0.003996
   7 H :    0.032370
   8 H :    0.025755
   9 H :    0.026859
  10 H :   -0.000522
  11 H :    0.044281
  12 H :    0.003745
  13 H :    0.021788
  14 H :    0.023903
  15 H :    0.021919
  16 H :    0.002366
  17 H :    0.023339
  18 H :    0.003086
  19 H :    0.023801

  Mayer bond orders larger than 0.1
B(  0-C ,  1-C ) :   1.0973 B(  0-C ,  7-H ) :   0.9542 B(  0-C ,  8-H ) :   0.9505
B(  0-C ,  9-H ) :   0.9517 B(  1-C ,  2-O ) :   1.1018 B(  1-C ,  3-C ) :   1.0450
B(  1-C , 10-H ) :   0.8894 B(  2-O , 11-H ) :   0.9489 B(  3-C ,  4-N ) :   1.0205
B(  3-C , 12-H ) :   0.9072 B(  3-C , 13-H ) :   0.9217 B(  4-N ,  5-C ) :   1.0291
B(  4-N ,  6-C ) :   1.0153 B(  4-N , 11-H ) :   0.1001 B(  5-C , 14-H ) :   0.9666
B(  5-C , 15-H ) :   0.9659 B(  5-C , 16-H ) :   0.9438 B(  6-C , 17-H ) :   0.9653
B(  6-C , 18-H ) :   0.9399 B(  6-C , 19-H ) :   0.9650

FINAL SINGLE POINT ENERGY      -327.647087813421

DIPOLE MOMENT
-------------
                                X             Y             Z
Electronic contribution:     -1.19382      -2.07853       3.14768
Nuclear contribution   :      1.82297       2.35729      -3.74147
                        -----------------------------------------
Total Dipole Moment    :      0.62915       0.27875      -0.59380
                        -----------------------------------------
Magnitude (a.u.)       :      0.90892
Magnitude (Debye)      :      2.31029

                             ****ORCA TERMINATED NORMALLY****
TOTAL RUN TIME: 0 days 0 hours 0 minutes 8 seconds 807 msec
