                         Program Version 3.0.3 - RELEASE   -
|  1> ! RI PBE def2-SVP def2-SVP/J NBO PAL2
|  2> % maxcore 2000
|  3> % output
|  4>     # printlevel mini
|  5>     print[ P_Basis ] 0
|  6>     print[ P_SCFInfo ] 1
|  7>     print[ P_SCFIterInfo ] 1
|  8>     print[ P_OrbEn ] 0
|  9>     print[ P_Cartesian ] 0
| 10> end
| 11> *xyz 0 1
| 12>  C        1.6613100000    -1.0848760000    -0.8630590000
| 13>  C        2.8684660000    -0.2625890000    -0.5017490000
| 14>  O        3.2616790000     0.6428870000    -1.1905340000
| 15>  C        3.5463810000    -0.6325560000     0.8131670000
| 16>  N        4.9185150000    -0.2474010000     0.8969370000
| 17>  C        5.1645800000     0.9830680000     1.0721210000
| 18>  N        6.4334580000     1.4674430000     1.1641060000
| 19>  H        1.0738700000    -0.5794990000    -1.6276530000
| 20>  H        1.0460150000    -1.2931040000     0.0160390000
| 21>  H        1.9991500000    -2.0504330000    -1.2526970000
| 22>  H        3.4532470000    -1.7129320000     0.9615870000
| 23>  H        2.9089810000    -0.1723620000     1.5907960000
| 24>  H        4.3904110000     1.7470050000     1.2135400000
| 25>  H        7.1647240000     0.8504930000     0.8484530000
| 26>  H        6.5748340000     2.4462540000     0.9911470000
| 27> *
| 28>
| 29>                          ****END OF INPUT****
 Total Charge           Charge          ....    0
 Multiplicity           Mult            ....    1
 Number of Electrons    NEL             ....   54
 Basis Dimension        Dim             ....  138

MULLIKEN ATOMIC CHARGES
-----------------------
   0 C :    0.010927
   1 C :   -0.095533
   2 O :   -0.156905
   3 C :    0.128743
   4 N :   -0.208077
   5 C :    0.011621
   6 N :   -0.064370
   7 H :    0.038183
   8 H :    0.035931
   9 H :    0.054037
  10 H :    0.018895
  11 H :    0.017085
  12 H :   -0.017850
  13 H :    0.111123
  14 H :    0.116190
Sum of atomic charges:   -0.0000000

LOEWDIN ATOMIC CHARGES
----------------------
   0 C :   -0.089154
   1 C :    0.047601
   2 O :   -0.119078
   3 C :   -0.031911
   4 N :   -0.166992
   5 C :    0.031904
   6 N :    0.004010
   7 H :    0.038218
   8 H :    0.039443
   9 H :    0.053110
  10 H :    0.028475
  11 H :    0.030020
  12 H :   -0.008497
  13 H :    0.071094
  14 H :    0.071758

  Mayer bond orders larger than 0.1
B(  0-C ,  1-C ) :   1.0294 B(  0-C ,  7-H ) :   0.9481 B(  0-C ,  8-H ) :   0.9469
B(  0-C ,  9-H ) :   0.9335 B(  1-C ,  2-O ) :   2.1950 B(  1-C ,  3-C ) :   0.8999
B(  3-C ,  4-N ) :   1.0762 B(  3-C , 10-H ) :   0.9315 B(  3-C , 11-H ) :   0.8780
B(  4-N ,  5-C ) :   1.8036 B(  5-C ,  6-N ) :   1.2504 B(  5-C , 12-H ) :   0.9254
B(  6-N , 13-H ) :   0.9498 B(  6-N , 14-H ) :   0.9542

FINAL SINGLE POINT ENERGY      -341.291245514718

DIPOLE MOMENT
-------------
                                X             Y             Z
Electronic contribution:      2.98448       1.99403      -0.80373
Nuclear contribution   :     -3.06501      -1.80154       1.14859
                        -----------------------------------------
Total Dipole Moment    :     -0.08053       0.19249       0.34486
                        -----------------------------------------
Magnitude (a.u.)       :      0.40307
Magnitude (Debye)      :      1.02453

                             ****ORCA TERMINATED NORMALLY****
TOTAL RUN TIME: 0 days 0 hours 0 minutes 6 seconds 795 msec
