                         Program Version 3.0.3 - RELEASE   -
|  1> ! RI PBE def2-SVP def2-SVP/J NBO PAL2
|  2> % maxcore 2000
|  3> % output
|  4>     # printlevel mini
|  5>     print[ P_Basis ] 0
|  6>     print[ P_SCFInfo ] 1
|  7>     print[ P_SCFIterInfo ] 1
|  8>     print[ P_OrbEn ] 0
|  9>     print[ P_Cartesian ] 0
| 10> end
| 11> *xyz 0 1
| 12>  C        0.9867610000    -0.2201270000     0.1218310000
| 13>  C        2.4649450000     0.1428640000     0.1827870000
| 14>  O        3.2286220000    -0.8378490000    -0.4976000000
| 15>  C        2.7317630000     1.5004630000    -0.4802260000
| 16>  N        2.6414880000     1.3652010000    -1.9292490000
| 17>  C        2.9406460000     0.1480640000     1.6312100000
| 18>  N        4.3655810000     0.4123820000     1.7053980000
| 19>  H        0.6389660000    -0.2490060000    -0.9140440000
| 20>  H        0.3736910000     0.4987500000     0.6730390000
| 21>  H        0.8288650000    -1.2128870000     0.5477560000
| 22>  H        3.2566960000    -0.5224130000    -1.4163880000
| 23>  H        3.7500980000     1.7946320000    -0.2215100000
| 24>  H        2.0498600000     2.2533450000    -0.0631990000
| 25>  H        3.2020090000     2.0596200000    -2.4016410000
| 26>  H        1.6916240000     1.4605440000    -2.2624350000
| 27>  H        2.6443470000    -0.8157990000     2.0735930000
| 28>  H        2.4021100000     0.9313620000     2.1757880000
| 29>  H        4.8505210000    -0.2989240000     1.1704940000
| 30>  H        4.6913060000     0.3557770000     2.6610740000
| 31> *
| 32>
| 33>                          ****END OF INPUT****
 Total Charge           Charge          ....    0
 Multiplicity           Mult            ....    1
 Number of Electrons    NEL             ....   58
 Basis Dimension        Dim             ....  158

MULLIKEN ATOMIC CHARGES
-----------------------
   0 C :    0.085705
   1 C :   -0.159306
   2 O :   -0.270858
   3 C :    0.110183
   4 N :   -0.208756
   5 C :    0.141961
   6 N :   -0.194698
   7 H :   -0.004877
   8 H :    0.001098
   9 H :    0.014331
  10 H :    0.135431
  11 H :    0.001083
  12 H :   -0.008442
  13 H :    0.104007
  14 H :    0.096172
  15 H :   -0.010082
  16 H :   -0.007695
  17 H :    0.091701
  18 H :    0.083041
Sum of atomic charges:   -0.0000000

LOEWDIN ATOMIC CHARGES
----------------------
   0 C :   -0.067881
   1 C :   -0.002080
   2 O :   -0.116001
   3 C :    0.000482
   4 N :   -0.083792
   5 C :    0.007076
   6 N :   -0.104578
   7 H :    0.020080
   8 H :    0.022279
   9 H :    0.026864
  10 H :    0.039067
  11 H :    0.018915
  12 H :    0.006017
  13 H :    0.059770
  14 H :    0.053842
  15 H :    0.002852
  16 H :    0.017811
  17 H :    0.047695
  18 H :    0.051582

  Mayer bond orders larger than 0.1
B(  0-C ,  1-C ) :   1.0480 B(  0-C ,  7-H ) :   0.9469 B(  0-C ,  8-H ) :   0.9451
B(  0-C ,  9-H ) :   0.9473 B(  1-C ,  2-O ) :   1.0623 B(  1-C ,  3-C ) :   1.0036
B(  1-C ,  5-C ) :   1.0160 B(  2-O , 10-H ) :   0.9340 B(  3-C ,  4-N ) :   1.0992
B(  3-C , 11-H ) :   0.9081 B(  3-C , 12-H ) :   0.9317 B(  4-N , 10-H ) :   0.1317
B(  4-N , 13-H ) :   0.9647 B(  4-N , 14-H ) :   0.9661 B(  5-C ,  6-N ) :   1.1052
B(  5-C , 15-H ) :   0.9199 B(  5-C , 16-H ) :   0.9220 B(  6-N , 17-H ) :   0.9525
B(  6-N , 18-H ) :   0.9621

FINAL SINGLE POINT ENERGY      -343.682340180328

DIPOLE MOMENT
-------------
                                X             Y             Z
Electronic contribution:      2.52965      -1.28990      -1.14562
Nuclear contribution   :     -2.83202       1.89272       0.97609
                        -----------------------------------------
Total Dipole Moment    :     -0.30238       0.60283      -0.16953
                        -----------------------------------------
Magnitude (a.u.)       :      0.69539
Magnitude (Debye)      :      1.76754

                             ****ORCA TERMINATED NORMALLY****
TOTAL RUN TIME: 0 days 0 hours 0 minutes 8 seconds 493 msec
