                         Program Version 3.0.3 - RELEASE   -
|  1> ! RI PBE def2-SVP def2-SVP/J NBO PAL2
|  2> % maxcore 2000
|  3> % output
|  4>     # printlevel mini
|  5>     print[ P_Basis ] 0
|  6>     print[ P_SCFInfo ] 1
|  7>     print[ P_SCFIterInfo ] 1
|  8>     print[ P_OrbEn ] 0
|  9>     print[ P_Cartesian ] 0
| 10> end
| 11> *xyz 0 1
| 12>  C        3.1003310000     1.2502200000    -1.1507040000
| 13>  C        2.7515400000     0.0729040000    -0.2568500000
| 14>  O        3.2069050000    -1.1472140000    -0.8101150000
| 15>  C        3.2374730000     0.2207880000     1.1946920000
| 16>  N        2.8568930000    -0.9360940000     2.0052480000
| 17>  C        4.7460800000     0.4247690000     1.3067050000
| 18>  N        5.4541560000    -0.7578250000     0.8165140000
| 19>  H        2.6326500000     1.1198130000    -2.1280750000
| 20>  H        4.1792110000     1.3223730000    -1.3081960000
| 21>  H        2.7494650000     2.1950050000    -0.7244570000
| 22>  H        1.6582740000    -0.0145310000    -0.2144380000
| 23>  H        4.1586000000    -1.1912710000    -0.5995450000
| 24>  H        2.7648610000     1.1138230000     1.6181930000
| 25>  H        2.7673630000    -1.7392240000     1.3903470000
| 26>  H        1.9500900000    -0.7931860000     2.4288270000
| 27>  H        4.9800610000     0.6550390000     2.3544180000
| 28>  H        5.0534020000     1.2843320000     0.7054880000
| 29>  H        5.3006460000    -1.5197350000     1.4685720000
| 30>  H        6.4516800000    -0.5931880000     0.7798880000
| 31> *
| 32>
| 33>                          ****END OF INPUT****
 Total Charge           Charge          ....    0
 Multiplicity           Mult            ....    1
 Number of Electrons    NEL             ....   58
 Basis Dimension        Dim             ....  158

MULLIKEN ATOMIC CHARGES
-----------------------
   0 C :    0.030174
   1 C :    0.104849
   2 O :   -0.292651
   3 C :   -0.110947
   4 N :   -0.165050
   5 C :    0.140340
   6 N :   -0.234835
   7 H :    0.019959
   8 H :    0.017391
   9 H :    0.002252
  10 H :   -0.012178
  11 H :    0.132195
  12 H :   -0.004061
  13 H :    0.080460
  14 H :    0.090718
  15 H :   -0.005101
  16 H :    0.000792
  17 H :    0.102798
  18 H :    0.102894
Sum of atomic charges:   -0.0000000

LOEWDIN ATOMIC CHARGES
----------------------
   0 C :   -0.078157
   1 C :    0.030964
   2 O :   -0.126606
   3 C :   -0.024005
   4 N :   -0.098981
   5 C :    0.005940
   6 N :   -0.079054
   7 H :    0.030348
   8 H :    0.022634
   9 H :    0.023090
  10 H :    0.012397
  11 H :    0.025438
  12 H :    0.022210
  13 H :    0.042000
  14 H :    0.054216
  15 H :    0.006068
  16 H :    0.016505
  17 H :    0.056220
  18 H :    0.058771

  Mayer bond orders larger than 0.1
B(  0-C ,  1-C ) :   1.0751 B(  0-C ,  7-H ) :   0.9464 B(  0-C ,  8-H ) :   0.9509
B(  0-C ,  9-H ) :   0.9466 B(  1-C ,  2-O ) :   1.0323 B(  1-C ,  3-C ) :   0.9962
B(  1-C , 10-H ) :   0.9087 B(  2-O , 11-H ) :   0.9300 B(  3-C ,  4-N ) :   1.1274
B(  3-C ,  5-C ) :   1.0312 B(  3-C , 12-H ) :   0.9092 B(  4-N , 13-H ) :   0.9484
B(  4-N , 14-H ) :   0.9691 B(  5-C ,  6-N ) :   1.0506 B(  5-C , 15-H ) :   0.9263
B(  5-C , 16-H ) :   0.9322 B(  6-N , 11-H ) :   0.1603 B(  6-N , 17-H ) :   0.9528
B(  6-N , 18-H ) :   0.9623

FINAL SINGLE POINT ENERGY      -343.682192111225

DIPOLE MOMENT
-------------
                                X             Y             Z
Electronic contribution:     -0.55105      -3.06559       0.06282
Nuclear contribution   :      0.92924       3.49565       0.48630
                        -----------------------------------------
Total Dipole Moment    :      0.37819       0.43006       0.54912
                        -----------------------------------------
Magnitude (a.u.)       :      0.79342
Magnitude (Debye)      :      2.01671

                             ****ORCA TERMINATED NORMALLY****
TOTAL RUN TIME: 0 days 0 hours 0 minutes 8 seconds 522 msec
