                         Program Version 3.0.3 - RELEASE   -
|  1> ! RI PBE def2-SVP def2-SVP/J NBO PAL2
|  2> % maxcore 2000
|  3> % output
|  4>     # printlevel mini
|  5>     print[ P_Basis ] 0
|  6>     print[ P_SCFInfo ] 1
|  7>     print[ P_SCFIterInfo ] 1
|  8>     print[ P_OrbEn ] 0
|  9>     print[ P_Cartesian ] 0
| 10> end
| 11> *xyz 0 1
| 12>  C        0.8036480000    -0.4136140000     0.3908370000
| 13>  C        1.9574580000     0.5541590000     0.4928460000
| 14>  O        2.1752500000     0.8249330000     1.8613700000
| 15>  C        3.2233440000    -0.0090230000    -0.1454530000
| 16>  N        4.3715370000     0.8536280000     0.0380080000
| 17>  C        4.7252440000     1.8165010000    -0.8667650000
| 18>  N        5.7686560000     2.5373390000    -0.9071250000
| 19>  H       -0.0908070000     0.0149110000     0.8444590000
| 20>  H        1.0404940000    -1.3420920000     0.9165230000
| 21>  H        0.5835100000    -0.6487620000    -0.6529230000
| 22>  H        1.6966290000     1.4869060000    -0.0321660000
| 23>  H        2.9181090000     1.4355990000     1.9129040000
| 24>  H        3.0527370000    -0.1837270000    -1.2133380000
| 25>  H        3.4436840000    -0.9779600000     0.3107760000
| 26>  H        5.0821710000     0.5527040000     0.6841430000
| 27>  H        3.9669770000     1.9627630000    -1.6409150000
| 28>  H        6.4069590000     2.3258320000    -0.1389920000
| 29> *
| 30>
| 31>                          ****END OF INPUT****
 Total Charge           Charge          ....    0
 Multiplicity           Mult            ....    1
 Number of Electrons    NEL             ....   56
 Basis Dimension        Dim             ....  148

MULLIKEN ATOMIC CHARGES
-----------------------
   0 C :    0.028093
   1 C :    0.053649
   2 O :   -0.270455
   3 C :    0.088895
   4 N :   -0.152386
   5 C :   -0.034298
   6 N :   -0.134839
   7 H :    0.030905
   8 H :    0.018961
   9 H :    0.016165
  10 H :   -0.004042
  11 H :    0.140836
  12 H :    0.017158
  13 H :    0.008144
  14 H :    0.107302
  15 H :    0.016564
  16 H :    0.069347
Sum of atomic charges:   -0.0000000

LOEWDIN ATOMIC CHARGES
----------------------
   0 C :   -0.064225
   1 C :    0.029527
   2 O :   -0.116433
   3 C :    0.005337
   4 N :   -0.024637
   5 C :    0.010243
   6 N :   -0.167015
   7 H :    0.034418
   8 H :    0.028473
   9 H :    0.030138
  10 H :    0.006879
  11 H :    0.056337
  12 H :    0.025215
  13 H :    0.026701
  14 H :    0.066190
  15 H :    0.014493
  16 H :    0.038360

  Mayer bond orders larger than 0.1
B(  0-C ,  1-C ) :   1.0935 B(  0-C ,  7-H ) :   0.9539 B(  0-C ,  8-H ) :   0.9518
B(  0-C ,  9-H ) :   0.9559 B(  1-C ,  2-O ) :   1.0643 B(  1-C ,  3-C ) :   1.0278
B(  1-C , 10-H ) :   0.9060 B(  2-O , 11-H ) :   0.9698 B(  3-C ,  4-N ) :   1.0385
B(  3-C , 12-H ) :   0.9238 B(  3-C , 13-H ) :   0.9247 B(  4-N ,  5-C ) :   1.1524
B(  4-N ,  6-N ) :   0.1029 B(  4-N , 14-H ) :   0.9290 B(  5-C ,  6-N ) :   1.9964
B(  5-C , 15-H ) :   0.9318 B(  6-N , 16-H ) :   0.9408

FINAL SINGLE POINT ENERGY      -342.478357774939

DIPOLE MOMENT
-------------
                                X             Y             Z
Electronic contribution:      4.16306       2.95550       0.89296
Nuclear contribution   :     -4.29376      -3.80406      -0.61945
                        -----------------------------------------
Total Dipole Moment    :     -0.13070      -0.84857       0.27350
                        -----------------------------------------
Magnitude (a.u.)       :      0.90108
Magnitude (Debye)      :      2.29037

                             ****ORCA TERMINATED NORMALLY****
TOTAL RUN TIME: 0 days 0 hours 0 minutes 7 seconds 673 msec
