                         Program Version 3.0.3 - RELEASE   -
|  1> ! RI PBE def2-SVP def2-SVP/J NBO PAL2
|  2> % maxcore 2000
|  3> % output
|  4>     # printlevel mini
|  5>     print[ P_Basis ] 0
|  6>     print[ P_SCFInfo ] 1
|  7>     print[ P_SCFIterInfo ] 1
|  8>     print[ P_OrbEn ] 0
|  9>     print[ P_Cartesian ] 0
| 10> end
| 11> *xyz 0 1
| 12>  C        1.1856280000    -0.4737700000     0.1102280000
| 13>  C        2.6674830000    -0.2605080000     0.0271150000
| 14>  O        3.4639340000    -1.1605660000     0.1394910000
| 15>  C        3.1299600000     1.1587310000    -0.2094990000
| 16>  N        4.5564150000     1.2098920000    -0.2663530000
| 17>  C        5.2257640000     2.3604360000    -0.4678810000
| 18>  O        4.7011470000     3.4413620000    -0.6187700000
| 19>  H        0.9711130000    -1.5266090000     0.2816890000
| 20>  H        0.7044500000    -0.1438300000    -0.8147050000
| 21>  H        0.7626890000     0.1269420000     0.9202520000
| 22>  H        2.7361350000     1.8019610000     0.5878870000
| 23>  H        2.6769930000     1.5338180000    -1.1362180000
| 24>  H        5.0385730000     0.3309250000    -0.1461550000
| 25>  H        6.3217160000     2.2167380000    -0.4838820000
| 26> *
| 27>
| 28>                          ****END OF INPUT****
 Total Charge           Charge          ....    0
 Multiplicity           Mult            ....    1
 Number of Electrons    NEL             ....   54
 Basis Dimension        Dim             ....  133

MULLIKEN ATOMIC CHARGES
-----------------------
   0 C :    0.028895
   1 C :   -0.094681
   2 O :   -0.170851
   3 C :    0.147252
   4 N :   -0.142118
   5 C :    0.126228
   6 O :   -0.244529
   7 H :    0.045709
   8 H :    0.052145
   9 H :    0.051935
  10 H :    0.051479
  11 H :    0.047055
  12 H :    0.119327
  13 H :   -0.017846
Sum of atomic charges:    0.0000000

LOEWDIN ATOMIC CHARGES
----------------------
   0 C :   -0.081234
   1 C :    0.057958
   2 O :   -0.117484
   3 C :   -0.001646
   4 N :    0.000015
   5 C :    0.046897
   6 O :   -0.194399
   7 H :    0.043443
   8 H :    0.051313
   9 H :    0.051285
  10 H :    0.046019
  11 H :    0.045332
  12 H :    0.067191
  13 H :   -0.014692

  Mayer bond orders larger than 0.1
B(  0-C ,  1-C ) :   1.0428 B(  0-C ,  7-H ) :   0.9468 B(  0-C ,  8-H ) :   0.9409
B(  0-C ,  9-H ) :   0.9407 B(  1-C ,  2-O ) :   2.1471 B(  1-C ,  3-C ) :   0.9406
B(  3-C ,  4-N ) :   1.0190 B(  3-C , 10-H ) :   0.9133 B(  3-C , 11-H ) :   0.9131
B(  4-N ,  5-C ) :   1.2289 B(  4-N , 12-H ) :   0.9022 B(  5-C ,  6-O ) :   2.0181
B(  5-C , 13-H ) :   0.9301

FINAL SINGLE POINT ENERGY      -361.160014089790

DIPOLE MOMENT
-------------
                                X             Y             Z
Electronic contribution:      4.57779       1.07247      -0.32082
Nuclear contribution   :     -5.36887      -1.84749       0.46923
                        -----------------------------------------
Total Dipole Moment    :     -0.79109      -0.77502       0.14841
                        -----------------------------------------
Magnitude (a.u.)       :      1.11736
Magnitude (Debye)      :      2.84011

                             ****ORCA TERMINATED NORMALLY****
TOTAL RUN TIME: 0 days 0 hours 0 minutes 6 seconds 46 msec
