                         Program Version 3.0.3 - RELEASE   -
|  1> ! RI PBE def2-SVP def2-SVP/J NBO PAL2
|  2> % maxcore 2000
|  3> % output
|  4>     # printlevel mini
|  5>     print[ P_Basis ] 0
|  6>     print[ P_SCFInfo ] 1
|  7>     print[ P_SCFIterInfo ] 1
|  8>     print[ P_OrbEn ] 0
|  9>     print[ P_Cartesian ] 0
| 10> end
| 11> *xyz 0 1
| 12>  C        1.0867800000    -0.2511510000     0.2704320000
| 13>  C        2.4240990000     0.4467520000     0.1228970000
| 14>  O        3.3800690000    -0.4790300000    -0.3648100000
| 15>  C        2.3154790000     1.6016090000    -0.8874380000
| 16>  N        3.6344560000     1.9490080000    -1.3937160000
| 17>  C        2.8953150000     0.9397830000     1.4935460000
| 18>  O        4.1992070000     1.4772910000     1.4563020000
| 19>  H        0.7696120000    -0.6585060000    -0.6910840000
| 20>  H        0.3188570000     0.4405300000     0.6282970000
| 21>  H        1.1633550000    -1.0770300000     0.9804190000
| 22>  H        3.8970490000     0.0344470000    -1.0127800000
| 23>  H        1.7759050000     2.4386210000    -0.4240570000
| 24>  H        1.7166910000     1.2547720000    -1.7346080000
| 25>  H        4.1584520000     2.4691470000    -0.7011940000
| 26>  H        3.5786970000     2.4908480000    -2.2441080000
| 27>  H        2.8437220000     0.1005740000     2.2004550000
| 28>  H        2.2372300000     1.7314480000     1.8616450000
| 29>  H        4.7617280000     0.7706680000     1.1199940000
| 30> *
| 31>
| 32>                          ****END OF INPUT****
 Total Charge           Charge          ....    0
 Multiplicity           Mult            ....    1
 Number of Electrons    NEL             ....   58
 Basis Dimension        Dim             ....  153

MULLIKEN ATOMIC CHARGES
-----------------------
   0 C :    0.074465
   1 C :   -0.212564
   2 O :   -0.262350
   3 C :    0.127078
   4 N :   -0.220428
   5 C :    0.250629
   6 O :   -0.286306
   7 H :    0.012166
   8 H :    0.009726
   9 H :    0.025418
  10 H :    0.137319
  11 H :   -0.002636
  12 H :    0.005942
  13 H :    0.097418
  14 H :    0.102612
  15 H :   -0.001469
  16 H :   -0.002061
  17 H :    0.145039
Sum of atomic charges:    0.0000000

LOEWDIN ATOMIC CHARGES
----------------------
   0 C :   -0.058645
   1 C :   -0.018127
   2 O :   -0.115187
   3 C :    0.005685
   4 N :   -0.083480
   5 C :    0.046124
   6 O :   -0.116079
   7 H :    0.026994
   8 H :    0.027106
   9 H :    0.030072
  10 H :    0.034862
  11 H :    0.008526
  12 H :    0.022544
  13 H :    0.048732
  14 H :    0.058557
  15 H :    0.006888
  16 H :    0.016760
  17 H :    0.058668

  Mayer bond orders larger than 0.1
B(  0-C ,  1-C ) :   1.0575 B(  0-C ,  7-H ) :   0.9400 B(  0-C ,  8-H ) :   0.9498
B(  0-C ,  9-H ) :   0.9500 B(  1-C ,  2-O ) :   1.0917 B(  1-C ,  3-C ) :   1.0058
B(  1-C ,  5-C ) :   0.9743 B(  2-O , 10-H ) :   0.9225 B(  3-C ,  4-N ) :   1.0995
B(  3-C , 11-H ) :   0.9274 B(  3-C , 12-H ) :   0.9290 B(  4-N , 10-H ) :   0.1463
B(  4-N , 13-H ) :   0.9473 B(  4-N , 14-H ) :   0.9616 B(  5-C ,  6-O ) :   1.0643
B(  5-C , 15-H ) :   0.9309 B(  5-C , 16-H ) :   0.9274 B(  6-O , 17-H ) :   0.9632

FINAL SINGLE POINT ENERGY      -363.525981551598

DIPOLE MOMENT
-------------
                                X             Y             Z
Electronic contribution:      4.04124      -0.32748       0.51215
Nuclear contribution   :     -4.30654       0.91114      -0.98533
                        -----------------------------------------
Total Dipole Moment    :     -0.26530       0.58366      -0.47317
                        -----------------------------------------
Magnitude (a.u.)       :      0.79683
Magnitude (Debye)      :      2.02537

                             ****ORCA TERMINATED NORMALLY****
TOTAL RUN TIME: 0 days 0 hours 0 minutes 7 seconds 971 msec
