                         Program Version 3.0.3 - RELEASE   -
|  1> ! RI PBE def2-SVP def2-SVP/J NBO PAL2
|  2> % maxcore 2000
|  3> % output
|  4>     # printlevel mini
|  5>     print[ P_Basis ] 0
|  6>     print[ P_SCFInfo ] 1
|  7>     print[ P_SCFIterInfo ] 1
|  8>     print[ P_OrbEn ] 0
|  9>     print[ P_Cartesian ] 0
| 10> end
| 11> *xyz 0 1
| 12>  C        3.2477950000    -0.3510820000    -1.2892400000
| 13>  C        2.7606840000    -0.3911320000     0.1465170000
| 14>  O        3.2435820000    -1.5398360000     0.8294600000
| 15>  C        3.1772820000     0.8215440000     0.9780990000
| 16>  N        2.7043520000     0.7585440000     2.3564850000
| 17>  C        4.6868400000     1.0497560000     1.0307760000
| 18>  O        4.9788330000     2.1460870000     1.8579180000
| 19>  H        2.8344900000    -1.1881870000    -1.8592430000
| 20>  H        4.3360930000    -0.4164540000    -1.3361850000
| 21>  H        2.9319550000     0.5711240000    -1.7839530000
| 22>  H        1.6590370000    -0.4094370000     0.1441530000
| 23>  H        2.9537470000    -2.3237220000     0.3574240000
| 24>  H        2.7296610000     1.7099190000     0.5186480000
| 25>  H        2.8453110000    -0.1799150000     2.7149460000
| 26>  H        1.7163500000     0.9650280000     2.4191280000
| 27>  H        5.0787840000     1.2747460000     0.0362870000
| 28>  H        5.1803410000     0.1344830000     1.3881130000
| 29>  H        4.3499630000     2.0629240000     2.5909750000
| 30> *
| 31>
| 32>                          ****END OF INPUT****
 Total Charge           Charge          ....    0
 Multiplicity           Mult            ....    1
 Number of Electrons    NEL             ....   58
 Basis Dimension        Dim             ....  153

MULLIKEN ATOMIC CHARGES
-----------------------
   0 C :   -0.004936
   1 C :    0.054772
   2 O :   -0.263304
   3 C :   -0.072857
   4 N :   -0.189459
   5 C :    0.225848
   6 O :   -0.288663
   7 H :    0.011160
   8 H :    0.041054
   9 H :    0.023209
  10 H :   -0.012434
  11 H :    0.154478
  12 H :    0.004736
  13 H :    0.099077
  14 H :    0.093899
  15 H :   -0.002827
  16 H :   -0.009177
  17 H :    0.135427
Sum of atomic charges:    0.0000000

LOEWDIN ATOMIC CHARGES
----------------------
   0 C :   -0.079666
   1 C :    0.030215
   2 O :   -0.115025
   3 C :   -0.029536
   4 N :   -0.074589
   5 C :    0.051045
   6 O :   -0.131589
   7 H :    0.023927
   8 H :    0.031030
   9 H :    0.033431
  10 H :    0.002425
  11 H :    0.070727
  12 H :    0.023757
  13 H :    0.052180
  14 H :    0.055130
  15 H :    0.013894
  16 H :    0.001081
  17 H :    0.041565

  Mayer bond orders larger than 0.1
B(  0-C ,  1-C ) :   1.0790 B(  0-C ,  7-H ) :   0.9488 B(  0-C ,  8-H ) :   0.9520
B(  0-C ,  9-H ) :   0.9479 B(  1-C ,  2-O ) :   1.0445 B(  1-C ,  3-C ) :   0.9962
B(  1-C , 10-H ) :   0.9073 B(  2-O , 11-H ) :   0.9768 B(  3-C ,  4-N ) :   1.0851
B(  3-C ,  5-C ) :   1.0278 B(  3-C , 12-H ) :   0.9077 B(  4-N , 13-H ) :   0.9601
B(  4-N , 14-H ) :   0.9679 B(  4-N , 17-H ) :   0.1148 B(  5-C ,  6-O ) :   1.0928
B(  5-C , 15-H ) :   0.9321 B(  5-C , 16-H ) :   0.9169 B(  6-O , 17-H ) :   0.9510

FINAL SINGLE POINT ENERGY      -363.518454140913

DIPOLE MOMENT
-------------
                                X             Y             Z
Electronic contribution:      1.04484       0.53647       3.53193
Nuclear contribution   :     -2.24488      -1.47829      -4.10335
                        -----------------------------------------
Total Dipole Moment    :     -1.20004      -0.94182      -0.57142
                        -----------------------------------------
Magnitude (a.u.)       :      1.62900
Magnitude (Debye)      :      4.14059

                             ****ORCA TERMINATED NORMALLY****
TOTAL RUN TIME: 0 days 0 hours 0 minutes 7 seconds 990 msec
