                         Program Version 3.0.3 - RELEASE   -
|  1> ! RI PBE def2-SVP def2-SVP/J NBO PAL2
|  2> % maxcore 2000
|  3> % output
|  4>     # printlevel mini
|  5>     print[ P_Basis ] 0
|  6>     print[ P_SCFInfo ] 1
|  7>     print[ P_SCFIterInfo ] 1
|  8>     print[ P_OrbEn ] 0
|  9>     print[ P_Cartesian ] 0
| 10> end
| 11> *xyz 0 1
| 12>  C        1.0275510000    -0.1189280000     0.3292680000
| 13>  C        2.5177830000    -0.0589640000     0.0730070000
| 14>  O        3.0543160000    -1.3487200000    -0.1823110000
| 15>  C        2.8946370000     0.8990070000    -1.0538850000
| 16>  N        2.3876000000     0.4890560000    -2.3428430000
| 17>  C        1.3368720000     1.0816320000    -2.9513410000
| 18>  O        0.6687360000     1.9740350000    -2.4822710000
| 19>  H        0.8132550000    -0.8054390000     1.1505790000
| 20>  H        0.4957690000    -0.4636130000    -0.5631600000
| 21>  H        0.6301790000     0.8659330000     0.5805060000
| 22>  H        3.0277040000     0.2951840000     0.9756310000
| 23>  H        2.3979030000    -1.8471480000    -0.6763180000
| 24>  H        3.9844140000     0.9607370000    -1.1096190000
| 25>  H        2.5003530000     1.8961050000    -0.8486480000
| 26>  H        2.8848970000    -0.2227780000    -2.8497950000
| 27>  H        1.1409120000     0.6552010000    -3.9535900000
| 28> *
| 29>
| 30>                          ****END OF INPUT****
 Total Charge           Charge          ....    0
 Multiplicity           Mult            ....    1
 Number of Electrons    NEL             ....   56
 Basis Dimension        Dim             ....  143

MULLIKEN ATOMIC CHARGES
-----------------------
   0 C :   -0.015481
   1 C :    0.049814
   2 O :   -0.282590
   3 C :    0.136887
   4 N :   -0.159268
   5 C :    0.133425
   6 O :   -0.240173
   7 H :    0.033735
   8 H :    0.023708
   9 H :    0.032652
  10 H :    0.005650
  11 H :    0.146457
  12 H :    0.024443
  13 H :    0.023613
  14 H :    0.111451
  15 H :   -0.024324
Sum of atomic charges:    0.0000000

LOEWDIN ATOMIC CHARGES
----------------------
   0 C :   -0.077176
   1 C :    0.034950
   2 O :   -0.118486
   3 C :    0.010693
   4 N :    0.001159
   5 C :    0.044903
   6 O :   -0.188624
   7 H :    0.029664
   8 H :    0.025164
   9 H :    0.039138
  10 H :    0.023302
  11 H :    0.060929
  12 H :    0.027794
  13 H :    0.032111
  14 H :    0.070545
  15 H :   -0.016068

  Mayer bond orders larger than 0.1
B(  0-C ,  1-C ) :   1.1052 B(  0-C ,  7-H ) :   0.9592 B(  0-C ,  8-H ) :   0.9454
B(  0-C ,  9-H ) :   0.9476 B(  1-C ,  2-O ) :   1.0456 B(  1-C ,  3-C ) :   1.0271
B(  1-C , 10-H ) :   0.9105 B(  2-O , 11-H ) :   0.9831 B(  3-C ,  4-N ) :   0.9863
B(  3-C , 12-H ) :   0.9319 B(  3-C , 13-H ) :   0.9133 B(  4-N ,  5-C ) :   1.2235
B(  4-N ,  6-O ) :   0.1045 B(  4-N , 14-H ) :   0.9282 B(  5-C ,  6-O ) :   2.0031
B(  5-C , 15-H ) :   0.9221

FINAL SINGLE POINT ENERGY      -362.347371824912

DIPOLE MOMENT
-------------
                                X             Y             Z
Electronic contribution:      0.42993       1.22003      -3.67176
Nuclear contribution   :      0.02976      -2.01304       3.47018
                        -----------------------------------------
Total Dipole Moment    :      0.45969      -0.79301      -0.20158
                        -----------------------------------------
Magnitude (a.u.)       :      0.93851
Magnitude (Debye)      :      2.38551

                             ****ORCA TERMINATED NORMALLY****
TOTAL RUN TIME: 0 days 0 hours 0 minutes 6 seconds 914 msec
