                         Program Version 3.0.3 - RELEASE   -
|  1> ! RI PBE def2-SVP def2-SVP/J NBO PAL2
|  2> % maxcore 2000
|  3> % output
|  4>     # printlevel mini
|  5>     print[ P_Basis ] 0
|  6>     print[ P_SCFInfo ] 1
|  7>     print[ P_SCFIterInfo ] 1
|  8>     print[ P_OrbEn ] 0
|  9>     print[ P_Cartesian ] 0
| 10> end
| 11> *xyz 0 1
| 12>  C        1.5462880000    -0.1128560000     3.2171100000
| 13>  C        2.8324330000    -0.0327480000     2.9286510000
| 14>  O        3.2380960000    -0.0374110000     1.6153960000
| 15>  C        4.5373010000     0.0429680000     1.3306970000
| 16>  N        5.4502280000     0.1254090000     2.2079150000
| 17>  N        6.7011660000     0.1950430000     1.6109820000
| 18>  C        7.6478010000     0.2788360000     2.4480560000
| 19>  H        1.2332520000    -0.1086480000     4.2515170000
| 20>  H        0.7923800000    -0.1829900000     2.4431760000
| 21>  H        3.6334460000     0.0392970000     3.6521250000
| 22>  H        4.7246750000     0.0297110000     0.2589480000
| 23>  H        8.6597140000     0.3375330000     2.0602790000
| 24>  H        7.4761090000     0.2933570000     3.5255470000
| 25> *
| 26>
| 27>                          ****END OF INPUT****
 Total Charge           Charge          ....    0
 Multiplicity           Mult            ....    1
 Number of Electrons    NEL             ....   52
 Basis Dimension        Dim             ....  128

MULLIKEN ATOMIC CHARGES
-----------------------
   0 C :   -0.039419
   1 C :    0.082643
   2 O :   -0.187030
   3 C :    0.184668
   4 N :   -0.153513
   5 N :   -0.109280
   6 C :    0.017860
   7 H :    0.039496
   8 H :    0.039732
   9 H :    0.035984
  10 H :    0.018574
  11 H :    0.045248
  12 H :    0.025036
Sum of atomic charges:   -0.0000000

LOEWDIN ATOMIC CHARGES
----------------------
   0 C :   -0.081056
   1 C :    0.049276
   2 O :    0.000910
   3 C :    0.061767
   4 N :   -0.109900
   5 N :   -0.035889
   6 C :   -0.004480
   7 H :    0.037897
   8 H :    0.033869
   9 H :    0.020596
  10 H :    0.006707
  11 H :    0.020477
  12 H :   -0.000175

  Mayer bond orders larger than 0.1
B(  0-C ,  1-C ) :   1.9395 B(  0-C ,  7-H ) :   0.9437 B(  0-C ,  8-H ) :   0.9461
B(  1-C ,  2-O ) :   1.0251 B(  1-C ,  9-H ) :   0.9501 B(  2-O ,  3-C ) :   1.1701
B(  3-C ,  4-N ) :   1.7196 B(  3-C , 10-H ) :   0.9458 B(  4-N ,  5-N ) :   0.9937
B(  5-N ,  6-C ) :   1.9219 B(  6-C , 11-H ) :   0.9521 B(  6-C , 12-H ) :   0.9292

FINAL SINGLE POINT ENERGY      -340.016641824248

DIPOLE MOMENT
-------------
                                X             Y             Z
Electronic contribution:      0.69637      -0.01344      -2.57763
Nuclear contribution   :     -0.81045       0.01430       2.85074
                        -----------------------------------------
Total Dipole Moment    :     -0.11408       0.00086       0.27311
                        -----------------------------------------
Magnitude (a.u.)       :      0.29598
Magnitude (Debye)      :      0.75231

                             ****ORCA TERMINATED NORMALLY****
TOTAL RUN TIME: 0 days 0 hours 0 minutes 5 seconds 970 msec
