                         Program Version 3.0.3 - RELEASE   -
|  1> ! RI PBE def2-SVP def2-SVP/J NBO PAL2
|  2> % maxcore 2000
|  3> % output
|  4>     # printlevel mini
|  5>     print[ P_Basis ] 0
|  6>     print[ P_SCFInfo ] 1
|  7>     print[ P_SCFIterInfo ] 1
|  8>     print[ P_OrbEn ] 0
|  9>     print[ P_Cartesian ] 0
| 10> end
| 11> *xyz 0 1
| 12>  C        3.4766700000     1.4779350000     0.5365050000
| 13>  C        2.5382750000     0.4699340000    -0.0515710000
| 14>  O        1.4347900000     0.7479390000    -0.4599510000
| 15>  C        2.9848210000    -0.9501200000    -0.1391750000
| 16>  N        4.1364580000    -1.2901810000     0.2765320000
| 17>  N        4.3787880000    -2.6513860000     0.1148760000
| 18>  C        5.5335690000    -2.9750770000     0.5265490000
| 19>  H        3.0041160000     2.4580350000     0.5283100000
| 20>  H        4.4095180000     1.4991360000    -0.0314990000
| 21>  H        3.7445920000     1.1918420000     1.5561470000
| 22>  H        2.2815740000    -1.6644710000    -0.5712730000
| 23>  H        5.8264130000    -4.0174750000     0.4465910000
| 24>  H        6.2250960000    -2.2447210000     0.9500600000
| 25> *
| 26>
| 27>                          ****END OF INPUT****
 Total Charge           Charge          ....    0
 Multiplicity           Mult            ....    1
 Number of Electrons    NEL             ....   52
 Basis Dimension        Dim             ....  128

MULLIKEN ATOMIC CHARGES
-----------------------
   0 C :    0.053391
   1 C :   -0.033248
   2 O :   -0.149649
   3 C :    0.025559
   4 N :   -0.065332
   5 N :   -0.097104
   6 C :    0.043187
   7 H :    0.035691
   8 H :    0.045450
   9 H :    0.046292
  10 H :    0.004515
  11 H :    0.056931
  12 H :    0.034317
Sum of atomic charges:    0.0000000

LOEWDIN ATOMIC CHARGES
----------------------
   0 C :   -0.084534
   1 C :    0.034720
   2 O :   -0.101036
   3 C :   -0.000180
   4 N :   -0.030711
   5 N :   -0.037042
   6 C :    0.034175
   7 H :    0.038331
   8 H :    0.050632
   9 H :    0.051140
  10 H :    0.013910
  11 H :    0.026040
  12 H :    0.004555

  Mayer bond orders larger than 0.1
B(  0-C ,  1-C ) :   1.0609 B(  0-C ,  7-H ) :   0.9424 B(  0-C ,  8-H ) :   0.9293
B(  0-C ,  9-H ) :   0.9282 B(  1-C ,  2-O ) :   2.1203 B(  1-C ,  3-C ) :   0.9505
B(  3-C ,  4-N ) :   1.8416 B(  3-C ,  6-C ) :   0.1130 B(  3-C , 10-H ) :   0.9432
B(  4-N ,  5-N ) :   0.9843 B(  5-N ,  6-C ) :   1.9088 B(  6-C , 11-H ) :   0.9514
B(  6-C , 12-H ) :   0.9256

FINAL SINGLE POINT ENERGY      -340.038484769150

DIPOLE MOMENT
-------------
                                X             Y             Z
Electronic contribution:     -3.15702      -1.69205      -1.63785
Nuclear contribution   :      4.24240       1.40635       2.03273
                        -----------------------------------------
Total Dipole Moment    :      1.08538      -0.28570       0.39488
                        -----------------------------------------
Magnitude (a.u.)       :      1.18979
Magnitude (Debye)      :      3.02422

                             ****ORCA TERMINATED NORMALLY****
TOTAL RUN TIME: 0 days 0 hours 0 minutes 6 seconds 26 msec
