                         Program Version 3.0.3 - RELEASE   -
|  1> ! RI PBE def2-SVP def2-SVP/J NBO PAL2
|  2> % maxcore 2000
|  3> % output
|  4>     # printlevel mini
|  5>     print[ P_Basis ] 0
|  6>     print[ P_SCFInfo ] 1
|  7>     print[ P_SCFIterInfo ] 1
|  8>     print[ P_OrbEn ] 0
|  9>     print[ P_Cartesian ] 0
| 10> end
| 11> *xyz 0 1
| 12>  C        0.9930240000    -0.2160180000    -0.1094780000
| 13>  C        2.4890000000    -0.2958070000    -0.0040400000
| 14>  O        3.1544310000    -0.9862750000    -0.7373080000
| 15>  C        3.1292990000     0.5406410000     1.0780200000
| 16>  N        4.5388530000     0.3748470000     1.0689840000
| 17>  N        5.2793990000     1.0293160000     1.9499090000
| 18>  C        6.5442890000     0.8820470000     1.9454250000
| 19>  H        0.6465860000    -0.8560150000    -0.9184610000
| 20>  H        0.6801370000     0.8149740000    -0.2952090000
| 21>  H        0.5292740000    -0.5265370000     0.8306580000
| 22>  H        2.6825400000     0.2485870000     2.0403480000
| 23>  H        2.8329040000     1.5879570000     0.9160400000
| 24>  H        4.9362940000    -0.2505070000     0.3782430000
| 25>  H        7.1173410000     1.4327600000     2.6799060000
| 26>  H        7.0683200000     0.2310300000     1.2399530000
| 27> *
| 28>
| 29>                          ****END OF INPUT****
 Total Charge           Charge          ....    0
 Multiplicity           Mult            ....    1
 Number of Electrons    NEL             ....   54
 Basis Dimension        Dim             ....  138

MULLIKEN ATOMIC CHARGES
-----------------------
   0 C :    0.032979
   1 C :   -0.097956
   2 O :   -0.172508
   3 C :    0.190746
   4 N :   -0.157974
   5 N :   -0.065063
   6 C :   -0.071972
   7 H :    0.043662
   8 H :    0.047546
   9 H :    0.048107
  10 H :    0.032035
  11 H :    0.034008
  12 H :    0.103217
  13 H :    0.034339
  14 H :   -0.001168
Sum of atomic charges:   -0.0000000

LOEWDIN ATOMIC CHARGES
----------------------
   0 C :   -0.081478
   1 C :    0.055968
   2 O :   -0.119379
   3 C :   -0.010198
   4 N :    0.014935
   5 N :   -0.026514
   6 C :   -0.094315
   7 H :    0.042260
   8 H :    0.048667
   9 H :    0.048887
  10 H :    0.037239
  11 H :    0.037479
  12 H :    0.042405
  13 H :    0.015215
  14 H :   -0.011171

  Mayer bond orders larger than 0.1
B(  0-C ,  1-C ) :   1.0400 B(  0-C ,  7-H ) :   0.9460 B(  0-C ,  8-H ) :   0.9422
B(  0-C ,  9-H ) :   0.9419 B(  1-C ,  2-O ) :   2.1441 B(  1-C ,  3-C ) :   0.9395
B(  3-C ,  4-N ) :   1.0374 B(  3-C , 10-H ) :   0.9046 B(  3-C , 11-H ) :   0.9052
B(  4-N ,  5-N ) :   1.1071 B(  4-N ,  6-C ) :   0.1636 B(  4-N , 12-H ) :   0.9058
B(  5-N ,  6-C ) :   1.8666 B(  6-C , 13-H ) :   0.9584 B(  6-C , 14-H ) :   0.9326

FINAL SINGLE POINT ENERGY      -341.251787340961

DIPOLE MOMENT
-------------
                                X             Y             Z
Electronic contribution:      2.23158      -1.11173      -1.03040
Nuclear contribution   :     -3.07942       1.19073       1.00885
                        -----------------------------------------
Total Dipole Moment    :     -0.84784       0.07901      -0.02155
                        -----------------------------------------
Magnitude (a.u.)       :      0.85179
Magnitude (Debye)      :      2.16508

                             ****ORCA TERMINATED NORMALLY****
TOTAL RUN TIME: 0 days 0 hours 0 minutes 6 seconds 86 msec
