                         Program Version 3.0.3 - RELEASE   -
|  1> ! RI PBE def2-SVP def2-SVP/J NBO PAL2
|  2> % maxcore 2000
|  3> % output
|  4>     # printlevel mini
|  5>     print[ P_Basis ] 0
|  6>     print[ P_SCFInfo ] 1
|  7>     print[ P_SCFIterInfo ] 1
|  8>     print[ P_OrbEn ] 0
|  9>     print[ P_Cartesian ] 0
| 10> end
| 11> *xyz 0 1
| 12>  C        0.7458980000     0.3131770000     0.0868710000
| 13>  C        2.2631790000     0.2273610000     0.1740940000
| 14>  O        2.6755470000     0.2331230000     1.5115570000
| 15>  C        2.7765940000    -0.9664520000    -0.5593490000
| 16>  N        3.5174580000    -1.7976850000     0.0469190000
| 17>  N        3.9262370000    -2.8591980000    -0.7557970000
| 18>  C        4.6543970000    -3.6864870000    -0.1326650000
| 19>  H        0.4061940000     1.2045990000     0.6154430000
| 20>  H        0.2907060000    -0.5613590000     0.5558630000
| 21>  H        0.4117450000     0.3760840000    -0.9517210000
| 22>  H        2.6829880000     1.1084740000    -0.3428570000
| 23>  H        3.2625090000    -0.5301300000     1.6181890000
| 24>  H        2.5108210000    -1.1045660000    -1.6099050000
| 25>  H        5.0221830000    -4.5493020000    -0.6792510000
| 26>  H        4.9168430000    -3.5568400000     0.9188070000
| 27> *
| 28>
| 29>                          ****END OF INPUT****
 Total Charge           Charge          ....    0
 Multiplicity           Mult            ....    1
 Number of Electrons    NEL             ....   54
 Basis Dimension        Dim             ....  138

MULLIKEN ATOMIC CHARGES
-----------------------
   0 C :   -0.001563
   1 C :    0.122300
   2 O :   -0.252451
   3 C :    0.003506
   4 N :   -0.135892
   5 N :   -0.097387
   6 C :    0.030827
   7 H :    0.039058
   8 H :    0.029015
   9 H :    0.016336
  10 H :    0.018440
  11 H :    0.140496
  12 H :    0.008729
  13 H :    0.051378
  14 H :    0.027206
Sum of atomic charges:    0.0000000

LOEWDIN ATOMIC CHARGES
----------------------
   0 C :   -0.062640
   1 C :    0.028302
   2 O :   -0.111615
   3 C :    0.028377
   4 N :   -0.066050
   5 N :   -0.036179
   6 C :    0.015729
   7 H :    0.035934
   8 H :    0.030176
   9 H :    0.027426
  10 H :    0.029201
  11 H :    0.045321
  12 H :    0.010507
  13 H :    0.023664
  14 H :    0.001847

  Mayer bond orders larger than 0.1
B(  0-C ,  1-C ) :   1.0395 B(  0-C ,  7-H ) :   0.9573 B(  0-C ,  8-H ) :   0.9594
B(  0-C ,  9-H ) :   0.9518 B(  1-C ,  2-O ) :   1.1628 B(  1-C ,  3-C ) :   0.9813
B(  1-C , 10-H ) :   0.8821 B(  2-O , 11-H ) :   0.9431 B(  3-C ,  4-N ) :   1.8445
B(  3-C ,  6-C ) :   0.1070 B(  3-C , 12-H ) :   0.9426 B(  4-N ,  5-N ) :   0.9888
B(  4-N , 11-H ) :   0.1064 B(  5-N ,  6-C ) :   1.9319 B(  6-C , 13-H ) :   0.9511
B(  6-C , 14-H ) :   0.9267

FINAL SINGLE POINT ENERGY      -341.233996222259

DIPOLE MOMENT
-------------
                                X             Y             Z
Electronic contribution:      3.67008      -2.10139       0.17050
Nuclear contribution   :     -3.59527       1.75419      -0.55690
                        -----------------------------------------
Total Dipole Moment    :      0.07481      -0.34720      -0.38639
                        -----------------------------------------
Magnitude (a.u.)       :      0.52483
Magnitude (Debye)      :      1.33401

                             ****ORCA TERMINATED NORMALLY****
TOTAL RUN TIME: 0 days 0 hours 0 minutes 6 seconds 318 msec
