                         Program Version 3.0.3 - RELEASE   -
|  1> ! RI PBE def2-SVP def2-SVP/J NBO PAL2
|  2> % maxcore 2000
|  3> % output
|  4>     # printlevel mini
|  5>     print[ P_Basis ] 0
|  6>     print[ P_SCFInfo ] 1
|  7>     print[ P_SCFIterInfo ] 1
|  8>     print[ P_OrbEn ] 0
|  9>     print[ P_Cartesian ] 0
| 10> end
| 11> *xyz 0 1
| 12>  C        3.1926860000    -1.4809570000     0.3425910000
| 13>  C        2.6276260000    -0.0709610000     0.3402060000
| 14>  O        2.9111120000     0.6068570000     1.5461910000
| 15>  C        3.0654280000     0.7448590000    -0.8732520000
| 16>  N        4.5061150000     0.8121880000    -1.0269290000
| 17>  N        5.1782670000     1.3778030000    -0.0094670000
| 18>  C        6.3362720000     1.8607310000    -0.2045080000
| 19>  H        2.8246830000    -2.0174050000     1.2183560000
| 20>  H        4.2834830000    -1.4637620000     0.3810390000
| 21>  H        2.8914850000    -2.0311460000    -0.5536430000
| 22>  H        1.5340910000    -0.1303420000     0.2883670000
| 23>  H        3.8185150000     0.9350680000     1.4670640000
| 24>  H        2.6181110000     1.7453530000    -0.7949640000
| 25>  H        2.6801940000     0.2720630000    -1.7804230000
| 26>  H        4.8275840000     1.0740160000    -1.9540510000
| 27>  H        6.8715340000     2.2622730000     0.6464390000
| 28>  H        6.8136150000     1.8757200000    -1.1888060000
| 29> *
| 30>
| 31>                          ****END OF INPUT****
 Total Charge           Charge          ....    0
 Multiplicity           Mult            ....    1
 Number of Electrons    NEL             ....   56
 Basis Dimension        Dim             ....  148

MULLIKEN ATOMIC CHARGES
-----------------------
   0 C :    0.012724
   1 C :    0.053779
   2 O :   -0.282793
   3 C :    0.110197
   4 N :   -0.120332
   5 N :   -0.098733
   6 C :   -0.047742
   7 H :    0.026962
   8 H :    0.020774
   9 H :    0.001059
  10 H :    0.007051
  11 H :    0.141096
  12 H :    0.016131
  13 H :    0.005191
  14 H :    0.093366
  15 H :    0.049986
  16 H :    0.011284
Sum of atomic charges:    0.0000000

LOEWDIN ATOMIC CHARGES
----------------------
   0 C :   -0.080265
   1 C :    0.034135
   2 O :   -0.123050
   3 C :   -0.002531
   4 N :    0.012178
   5 N :   -0.014864
   6 C :   -0.066949
   7 H :    0.029924
   8 H :    0.024470
   9 H :    0.023025
  10 H :    0.022907
  11 H :    0.033497
  12 H :    0.014489
  13 H :    0.027402
  14 H :    0.047119
  15 H :    0.022545
  16 H :   -0.004033

  Mayer bond orders larger than 0.1
B(  0-C ,  1-C ) :   1.0580 B(  0-C ,  7-H ) :   0.9569 B(  0-C ,  8-H ) :   0.9549
B(  0-C ,  9-H ) :   0.9488 B(  1-C ,  2-O ) :   1.0742 B(  1-C ,  3-C ) :   1.0575
B(  1-C , 10-H ) :   0.9136 B(  2-O , 11-H ) :   0.9544 B(  3-C ,  4-N ) :   1.0262
B(  3-C , 12-H ) :   0.9268 B(  3-C , 13-H ) :   0.9229 B(  4-N ,  5-N ) :   1.1083
B(  4-N ,  6-C ) :   0.1547 B(  4-N , 14-H ) :   0.9212 B(  5-N ,  6-C ) :   1.8658
B(  5-N , 11-H ) :   0.1068 B(  6-C , 15-H ) :   0.9580 B(  6-C , 16-H ) :   0.9320

FINAL SINGLE POINT ENERGY      -342.446272438572

DIPOLE MOMENT
-------------
                                X             Y             Z
Electronic contribution:      0.88879       2.90724       1.20228
Nuclear contribution   :     -0.42192      -2.73254      -2.40672
                        -----------------------------------------
Total Dipole Moment    :      0.46687       0.17469      -1.20444
                        -----------------------------------------
Magnitude (a.u.)       :      1.30352
Magnitude (Debye)      :      3.31328

                             ****ORCA TERMINATED NORMALLY****
TOTAL RUN TIME: 0 days 0 hours 0 minutes 7 seconds 730 msec
