                         Program Version 3.0.3 - RELEASE   -
|  1> ! RI PBE def2-SVP def2-SVP/J NBO PAL2
|  2> % maxcore 2000
|  3> % output
|  4>     # printlevel mini
|  5>     print[ P_Basis ] 0
|  6>     print[ P_SCFInfo ] 1
|  7>     print[ P_SCFIterInfo ] 1
|  8>     print[ P_OrbEn ] 0
|  9>     print[ P_Cartesian ] 0
| 10> end
| 11> *xyz 0 1
| 12>  C        1.5561460000     2.3176120000    -1.6622930000
| 13>  C        2.9521320000     2.3189440000    -1.0984810000
| 14>  O        3.1384010000     1.0960480000    -0.3917920000
| 15>  C        4.3303360000     0.9276670000     0.1934070000
| 16>  N        5.2576090000     1.7828470000     0.1461870000
| 17>  N        6.4109790000     1.5306840000     0.8579350000
| 18>  C        7.5669870000     2.1416410000     0.2419910000
| 19>  H        1.3783340000     3.2439030000    -2.2127940000
| 20>  H        0.8132770000     2.2442820000    -0.8656960000
| 21>  H        1.4113560000     1.4790360000    -2.3461840000
| 22>  H        3.1164690000     3.1554590000    -0.4120290000
| 23>  H        3.7103200000     2.3953420000    -1.8846330000
| 24>  H        4.3832790000    -0.0283260000     0.7206530000
| 25>  H        6.5592260000     0.5365290000     1.0134750000
| 26>  H        7.7709170000     1.7796550000    -0.7758010000
| 27>  H        8.4385260000     1.9445100000     0.8692180000
| 28>  H        7.4131160000     3.2204740000     0.1955350000
| 29> *
| 30>
| 31>                          ****END OF INPUT****
 Total Charge           Charge          ....    0
 Multiplicity           Mult            ....    1
 Number of Electrons    NEL             ....   56
 Basis Dimension        Dim             ....  148

MULLIKEN ATOMIC CHARGES
-----------------------
   0 C :   -0.028947
   1 C :    0.133593
   2 O :   -0.268746
   3 C :    0.123992
   4 N :   -0.155278
   5 N :   -0.143916
   6 C :    0.078933
   7 H :    0.024859
   8 H :    0.035093
   9 H :    0.033744
  10 H :    0.017101
  11 H :    0.014370
  12 H :   -0.011252
  13 H :    0.088535
  14 H :    0.002187
  15 H :    0.019543
  16 H :    0.036188
Sum of atomic charges:   -0.0000000

LOEWDIN ATOMIC CHARGES
----------------------
   0 C :   -0.076800
   1 C :    0.069300
   2 O :   -0.072265
   3 C :    0.002476
   4 N :   -0.100275
   5 N :   -0.024631
   6 C :   -0.011250
   7 H :    0.034621
   8 H :    0.031775
   9 H :    0.030762
  10 H :    0.016006
  11 H :    0.014741
  12 H :   -0.007651
  13 H :    0.040667
  14 H :    0.002005
  15 H :    0.022824
  16 H :    0.027697

  Mayer bond orders larger than 0.1
B(  0-C ,  1-C ) :   1.1065 B(  0-C ,  7-H ) :   0.9558 B(  0-C ,  8-H ) :   0.9620
B(  0-C ,  9-H ) :   0.9635 B(  1-C ,  2-O ) :   0.9470 B(  1-C , 10-H ) :   0.9442
B(  1-C , 11-H ) :   0.9419 B(  2-O ,  3-C ) :   1.1649 B(  3-C ,  4-N ) :   1.7382
B(  3-C ,  5-N ) :   0.1072 B(  3-C , 12-H ) :   0.9452 B(  4-N ,  5-N ) :   1.0258
B(  5-N ,  6-C ) :   1.0494 B(  5-N , 13-H ) :   0.9281 B(  6-C , 14-H ) :   0.9530
B(  6-C , 15-H ) :   0.9682 B(  6-C , 16-H ) :   0.9694

FINAL SINGLE POINT ENERGY      -342.444956493277

DIPOLE MOMENT
-------------
                                X             Y             Z
Electronic contribution:     -0.09896      -2.75849       2.77757
Nuclear contribution   :      0.31768       2.50136      -2.96273
                        -----------------------------------------
Total Dipole Moment    :      0.21872      -0.25713      -0.18516
                        -----------------------------------------
Magnitude (a.u.)       :      0.38502
Magnitude (Debye)      :      0.97863

                             ****ORCA TERMINATED NORMALLY****
TOTAL RUN TIME: 0 days 0 hours 0 minutes 7 seconds 110 msec
