                         Program Version 3.0.3 - RELEASE   -
|  1> ! RI PBE def2-SVP def2-SVP/J NBO PAL2
|  2> % maxcore 2000
|  3> % output
|  4>     # printlevel mini
|  5>     print[ P_Basis ] 0
|  6>     print[ P_SCFInfo ] 1
|  7>     print[ P_SCFIterInfo ] 1
|  8>     print[ P_OrbEn ] 0
|  9>     print[ P_Cartesian ] 0
| 10> end
| 11> *xyz 0 1
| 12>  C        1.2579650000    -0.4248380000    -0.1438200000
| 13>  C        2.6808490000     0.0523870000    -0.2493260000
| 14>  O        3.0716750000     0.5446880000     1.0388970000
| 15>  C        4.2994920000     1.0133490000     1.1541000000
| 16>  N        5.1314290000     1.0454400000     0.1908610000
| 17>  N        6.3395090000     1.5892360000     0.6051750000
| 18>  C        7.2054520000     1.6446290000    -0.3171220000
| 19>  H        0.9261780000    -0.8081360000    -1.1109820000
| 20>  H        0.5923570000     0.3893740000     0.1485830000
| 21>  H        1.1670780000    -1.2262250000     0.5917020000
| 22>  H        2.7941190000     0.8577170000    -0.9797950000
| 23>  H        3.3656180000    -0.7488910000    -0.5391940000
| 24>  H        4.5286630000     1.3701840000     2.1576120000
| 25>  H        8.1786310000     2.0583350000    -0.0724920000
| 26>  H        7.0023940000     1.2944500000    -1.3307100000
| 27> *
| 28>
| 29>                          ****END OF INPUT****
 Total Charge           Charge          ....    0
 Multiplicity           Mult            ....    1
 Number of Electrons    NEL             ....   54
 Basis Dimension        Dim             ....  138

MULLIKEN ATOMIC CHARGES
-----------------------
   0 C :   -0.027823
   1 C :    0.122261
   2 O :   -0.242832
   3 C :    0.178359
   4 N :   -0.173222
   5 N :   -0.105668
   6 C :    0.008539
   7 H :    0.029201
   8 H :    0.039473
   9 H :    0.039208
  10 H :    0.030652
  11 H :    0.027230
  12 H :    0.014087
  13 H :    0.042367
  14 H :    0.018169
Sum of atomic charges:    0.0000000

LOEWDIN ATOMIC CHARGES
----------------------
   0 C :   -0.075503
   1 C :    0.072886
   2 O :   -0.041618
   3 C :    0.053382
   4 N :   -0.123959
   5 N :   -0.037547
   6 C :   -0.013624
   7 H :    0.037480
   8 H :    0.033636
   9 H :    0.033352
  10 H :    0.021816
  11 H :    0.021412
  12 H :    0.002649
  13 H :    0.018501
  14 H :   -0.002863

  Mayer bond orders larger than 0.1
B(  0-C ,  1-C ) :   1.1089 B(  0-C ,  7-H ) :   0.9536 B(  0-C ,  8-H ) :   0.9621
B(  0-C ,  9-H ) :   0.9629 B(  1-C ,  2-O ) :   0.9197 B(  1-C , 10-H ) :   0.9478
B(  1-C , 11-H ) :   0.9451 B(  2-O ,  3-C ) :   1.2305 B(  3-C ,  4-N ) :   1.6838
B(  3-C , 12-H ) :   0.9423 B(  4-N ,  5-N ) :   0.9913 B(  5-N ,  6-C ) :   1.9292
B(  6-C , 13-H ) :   0.9513 B(  6-C , 14-H ) :   0.9268

FINAL SINGLE POINT ENERGY      -341.240656475491

DIPOLE MOMENT
-------------
                                X             Y             Z
Electronic contribution:      4.56731       2.47677       3.09568
Nuclear contribution   :     -5.00269      -2.72568      -3.44925
                        -----------------------------------------
Total Dipole Moment    :     -0.43538      -0.24890      -0.35357
                        -----------------------------------------
Magnitude (a.u.)       :      0.61361
Magnitude (Debye)      :      1.55969

                             ****ORCA TERMINATED NORMALLY****
TOTAL RUN TIME: 0 days 0 hours 0 minutes 6 seconds 649 msec
