                         Program Version 3.0.3 - RELEASE   -
|  1> ! RI PBE def2-SVP def2-SVP/J NBO PAL2
|  2> % maxcore 2000
|  3> % output
|  4>     # printlevel mini
|  5>     print[ P_Basis ] 0
|  6>     print[ P_SCFInfo ] 1
|  7>     print[ P_SCFIterInfo ] 1
|  8>     print[ P_OrbEn ] 0
|  9>     print[ P_Cartesian ] 0
| 10> end
| 11> *xyz 0 1
| 12>  C        2.5748490000    -1.9597460000    -0.9145350000
| 13>  C        3.7165080000    -1.0400740000    -0.5658860000
| 14>  O        3.8041660000    -0.0506170000    -1.5746570000
| 15>  C        4.7816960000     0.8860790000    -1.4452940000
| 16>  N        5.6530280000     1.0085050000    -0.5267190000
| 17>  N        4.7180670000     1.7437360000    -2.4904060000
| 18>  C        5.6334900000     2.8421750000    -2.6193910000
| 19>  H        2.4787480000    -2.7377370000    -0.1543470000
| 20>  H        2.7449500000    -2.4402890000    -1.8796300000
| 21>  H        1.6341520000    -1.4084740000    -0.9640710000
| 22>  H        4.6603180000    -1.5956530000    -0.5110740000
| 23>  H        3.5473040000    -0.5617900000     0.4062640000
| 24>  H        5.5740100000     0.2934290000     0.1841530000
| 25>  H        4.0052270000     1.5843870000    -3.1759330000
| 26>  H        5.5616230000     3.5211160000    -1.7653460000
| 27>  H        5.3947550000     3.3918090000    -3.5299260000
| 28>  H        6.6678080000     2.4922530000    -2.6764320000
| 29> *
| 30>
| 31>                          ****END OF INPUT****
 Total Charge           Charge          ....    0
 Multiplicity           Mult            ....    1
 Number of Electrons    NEL             ....   56
 Basis Dimension        Dim             ....  148

MULLIKEN ATOMIC CHARGES
-----------------------
   0 C :   -0.025719
   1 C :    0.113405
   2 O :   -0.277741
   3 C :    0.000180
   4 N :   -0.153540
   5 N :   -0.159746
   6 C :    0.104338
   7 H :    0.029297
   8 H :    0.034247
   9 H :    0.033541
  10 H :    0.021924
  11 H :    0.018231
  12 H :    0.069062
  13 H :    0.115923
  14 H :    0.033170
  15 H :    0.013003
  16 H :    0.030427
Sum of atomic charges:    0.0000000

LOEWDIN ATOMIC CHARGES
----------------------
   0 C :   -0.071315
   1 C :    0.061479
   2 O :   -0.101575
   3 C :    0.025759
   4 N :   -0.216973
   5 N :   -0.017387
   6 C :    0.013999
   7 H :    0.035704
   8 H :    0.032235
   9 H :    0.031600
  10 H :    0.012252
  11 H :    0.012004
  12 H :    0.038070
  13 H :    0.070830
  14 H :    0.024929
  15 H :    0.023961
  16 H :    0.024428

  Mayer bond orders larger than 0.1
B(  0-C ,  1-C ) :   1.1234 B(  0-C ,  7-H ) :   0.9538 B(  0-C ,  8-H ) :   0.9627
B(  0-C ,  9-H ) :   0.9645 B(  1-C ,  2-O ) :   0.9550 B(  1-C , 10-H ) :   0.9366
B(  1-C , 11-H ) :   0.9339 B(  2-O ,  3-C ) :   1.1537 B(  3-C ,  4-N ) :   1.8809
B(  3-C ,  5-N ) :   1.1972 B(  4-N , 12-H ) :   0.9391 B(  5-N ,  6-C ) :   1.0361
B(  5-N , 13-H ) :   0.9301 B(  6-C , 14-H ) :   0.9648 B(  6-C , 15-H ) :   0.9679
B(  6-C , 16-H ) :   0.9640

FINAL SINGLE POINT ENERGY      -342.489953681996

DIPOLE MOMENT
-------------
                                X             Y             Z
Electronic contribution:      0.94727       1.68403      -0.74672
Nuclear contribution   :     -1.62399      -2.12132       0.41691
                        -----------------------------------------
Total Dipole Moment    :     -0.67673      -0.43730      -0.32980
                        -----------------------------------------
Magnitude (a.u.)       :      0.87061
Magnitude (Debye)      :      2.21291

                             ****ORCA TERMINATED NORMALLY****
TOTAL RUN TIME: 0 days 0 hours 0 minutes 7 seconds 511 msec
