                         Program Version 3.0.3 - RELEASE   -
|  1> ! RI PBE def2-SVP def2-SVP/J NBO PAL2
|  2> % maxcore 2000
|  3> % output
|  4>     # printlevel mini
|  5>     print[ P_Basis ] 0
|  6>     print[ P_SCFInfo ] 1
|  7>     print[ P_SCFIterInfo ] 1
|  8>     print[ P_OrbEn ] 0
|  9>     print[ P_Cartesian ] 0
| 10> end
| 11> *xyz 0 1
| 12>  C        1.0337860000     0.0682630000    -0.2039230000
| 13>  C        2.4972950000     0.0669400000     0.1460120000
| 14>  O        3.0235180000    -1.2199160000    -0.1825520000
| 15>  C        4.3172930000    -1.4113020000     0.0590280000
| 16>  N        5.0633970000    -0.5139190000     0.5542520000
| 17>  O        6.3626220000    -0.9857040000     0.6979050000
| 18>  C        7.1559160000     0.0370520000     1.2510560000
| 19>  H        0.5977640000     1.0405140000     0.0351920000
| 20>  H        0.4963960000    -0.6964470000     0.3600220000
| 21>  H        0.8863920000    -0.1209430000    -1.2688540000
| 22>  H        2.6658530000     0.2553750000     1.2107730000
| 23>  H        3.0538850000     0.8278150000    -0.4097760000
| 24>  H        4.6631710000    -2.4070850000    -0.2099200000
| 25>  H        8.1587100000    -0.3814420000     1.3408900000
| 26>  H        6.7893090000     0.3315850000     2.2394580000
| 27>  H        7.1800020000     0.9157250000     0.5988350000
| 28> *
| 29>
| 30>                          ****END OF INPUT****
 Total Charge           Charge          ....    0
 Multiplicity           Mult            ....    1
 Number of Electrons    NEL             ....   56
 Basis Dimension        Dim             ....  143

MULLIKEN ATOMIC CHARGES
-----------------------
   0 C :   -0.020080
   1 C :    0.124176
   2 O :   -0.263123
   3 C :    0.157482
   4 N :   -0.082872
   5 O :   -0.289276
   6 C :    0.165531
   7 H :    0.025359
   8 H :    0.036451
   9 H :    0.035083
  10 H :    0.020331
  11 H :    0.019812
  12 H :    0.014930
  13 H :    0.029122
  14 H :    0.011985
  15 H :    0.015090
Sum of atomic charges:   -0.0000000

LOEWDIN ATOMIC CHARGES
----------------------
   0 C :   -0.074123
   1 C :    0.070169
   2 O :   -0.060219
   3 C :    0.017401
   4 N :   -0.072341
   5 O :   -0.099768
   6 C :    0.041057
   7 H :    0.035786
   8 H :    0.032498
   9 H :    0.032134
  10 H :    0.017272
  11 H :    0.017255
  12 H :    0.004542
  13 H :    0.022580
  14 H :    0.007755
  15 H :    0.008003

  Mayer bond orders larger than 0.1
B(  0-C ,  1-C ) :   1.1082 B(  0-C ,  7-H ) :   0.9547 B(  0-C ,  8-H ) :   0.9629
B(  0-C ,  9-H ) :   0.9633 B(  1-C ,  2-O ) :   0.9368 B(  1-C , 10-H ) :   0.9439
B(  1-C , 11-H ) :   0.9427 B(  2-O ,  3-C ) :   1.1847 B(  3-C ,  4-N ) :   1.7328
B(  3-C , 12-H ) :   0.9488 B(  4-N ,  5-O ) :   0.9274 B(  5-O ,  6-C ) :   0.9865
B(  6-C , 13-H ) :   0.9730 B(  6-C , 14-H ) :   0.9646 B(  6-C , 15-H ) :   0.9653

FINAL SINGLE POINT ENERGY      -362.264040043755

DIPOLE MOMENT
-------------
                                X             Y             Z
Electronic contribution:      3.13529      -4.16646      -0.72284
Nuclear contribution   :     -3.32863       4.48050       0.79063
                        -----------------------------------------
Total Dipole Moment    :     -0.19334       0.31404       0.06779
                        -----------------------------------------
Magnitude (a.u.)       :      0.37497
Magnitude (Debye)      :      0.95309

                             ****ORCA TERMINATED NORMALLY****
TOTAL RUN TIME: 0 days 0 hours 0 minutes 7 seconds 119 msec
