                         Program Version 3.0.3 - RELEASE   -
|  1> ! RI PBE def2-SVP def2-SVP/J NBO PAL2
|  2> % maxcore 2000
|  3> % output
|  4>     # printlevel mini
|  5>     print[ P_Basis ] 0
|  6>     print[ P_SCFInfo ] 1
|  7>     print[ P_SCFIterInfo ] 1
|  8>     print[ P_OrbEn ] 0
|  9>     print[ P_Cartesian ] 0
| 10> end
| 11> *xyz 0 1
| 12>  C        3.9834040000    -1.1541150000     1.2210300000
| 13>  C        3.1589120000    -0.7259230000     0.0195390000
| 14>  O        1.7751390000    -0.7942670000     0.3049710000
| 15>  C        3.4837410000     0.6731870000    -0.4872930000
| 16>  O        3.1097480000     1.5901600000     0.5187390000
| 17>  C        4.9346590000     0.9024090000    -0.8722010000
| 18>  N        5.0922630000     2.3082560000    -1.2278500000
| 19>  H        3.6056850000    -2.1082860000     1.5911550000
| 20>  H        3.9082060000    -0.4148520000     2.0213800000
| 21>  H        5.0385390000    -1.2833330000     0.9662560000
| 22>  H        3.3245910000    -1.4293070000    -0.8040840000
| 23>  H        1.5680870000    -0.0145520000     0.8324740000
| 24>  H        2.8572330000     0.8365290000    -1.3808380000
| 25>  H        3.5598190000     2.4154210000     0.2856940000
| 26>  H        5.2269400000     0.2011300000    -1.6664830000
| 27>  H        5.5692400000     0.7073300000    -0.0043280000
| 28>  H        4.7349440000     2.4924460000    -2.1572890000
| 29>  H        6.0626490000     2.5898690000    -1.2136790000
| 30> *
| 31>
| 32>                          ****END OF INPUT****
 Total Charge           Charge          ....    0
 Multiplicity           Mult            ....    1
 Number of Electrons    NEL             ....   58
 Basis Dimension        Dim             ....  153

MULLIKEN ATOMIC CHARGES
-----------------------
   0 C :    0.015602
   1 C :    0.105123
   2 O :   -0.279890
   3 C :    0.044090
   4 O :   -0.275389
   5 C :    0.076218
   6 N :   -0.219474
   7 H :    0.018504
   8 H :    0.018877
   9 H :    0.007624
  10 H :   -0.006499
  11 H :    0.153934
  12 H :   -0.014288
  13 H :    0.145184
  14 H :    0.001333
  15 H :    0.009585
  16 H :    0.098828
  17 H :    0.100639
Sum of atomic charges:    0.0000000

LOEWDIN ATOMIC CHARGES
----------------------
   0 C :   -0.079764
   1 C :    0.035765
   2 O :   -0.113833
   3 C :    0.018964
   4 O :   -0.120545
   5 C :   -0.006385
   6 N :   -0.093282
   7 H :    0.029901
   8 H :    0.024944
   9 H :    0.021579
  10 H :    0.019148
  11 H :    0.061941
  12 H :    0.003908
  13 H :    0.050838
  14 H :    0.008021
  15 H :    0.022494
  16 H :    0.057421
  17 H :    0.058883

  Mayer bond orders larger than 0.1
B(  0-C ,  1-C ) :   1.0716 B(  0-C ,  7-H ) :   0.9500 B(  0-C ,  8-H ) :   0.9507
B(  0-C ,  9-H ) :   0.9425 B(  1-C ,  2-O ) :   1.0537 B(  1-C ,  3-C ) :   1.0202
B(  1-C , 10-H ) :   0.9072 B(  2-O , 11-H ) :   0.9735 B(  3-C ,  4-O ) :   1.0610
B(  3-C ,  5-C ) :   1.0345 B(  3-C , 12-H ) :   0.8948 B(  4-O , 13-H ) :   0.9386
B(  5-C ,  6-N ) :   1.0771 B(  5-C , 14-H ) :   0.9288 B(  5-C , 15-H ) :   0.9141
B(  6-N , 13-H ) :   0.1113 B(  6-N , 16-H ) :   0.9668 B(  6-N , 17-H ) :   0.9640

FINAL SINGLE POINT ENERGY      -363.522161250717

DIPOLE MOMENT
-------------
                                X             Y             Z
Electronic contribution:     -3.96047       1.30332       0.07256
Nuclear contribution   :      5.10279      -0.70467      -0.74126
                        -----------------------------------------
Total Dipole Moment    :      1.14232       0.59865      -0.66871
                        -----------------------------------------
Magnitude (a.u.)       :      1.45274
Magnitude (Debye)      :      3.69257

                             ****ORCA TERMINATED NORMALLY****
TOTAL RUN TIME: 0 days 0 hours 0 minutes 7 seconds 421 msec
