                         Program Version 3.0.3 - RELEASE   -
|  1> ! RI PBE def2-SVP def2-SVP/J NBO PAL2
|  2> % maxcore 2000
|  3> % output
|  4>     # printlevel mini
|  5>     print[ P_Basis ] 0
|  6>     print[ P_SCFInfo ] 1
|  7>     print[ P_SCFIterInfo ] 1
|  8>     print[ P_OrbEn ] 0
|  9>     print[ P_Cartesian ] 0
| 10> end
| 11> *xyz 0 1
| 12>  C        2.6388530000    -0.4336560000     1.8606680000
| 13>  C        2.3304140000    -1.5335930000     0.8746270000
| 14>  O        3.0163680000    -2.7486050000     1.2127110000
| 15>  C        4.2651770000    -2.8768290000     0.7602790000
| 16>  O        4.8422350000    -2.0474510000     0.1075030000
| 17>  C        4.8460880000    -4.2158840000     1.1320980000
| 18>  N        6.2833590000    -4.1942320000     1.0001220000
| 19>  H        2.0528510000     0.4553230000     1.6152920000
| 20>  H        3.6956270000    -0.1666210000     1.8238940000
| 21>  H        2.3852540000    -0.7401360000     2.8773990000
| 22>  H        2.6077010000    -1.2425240000    -0.1398680000
| 23>  H        1.2736560000    -1.8022080000     0.8956040000
| 24>  H        4.3331480000    -4.9456480000     0.4843440000
| 25>  H        4.5417160000    -4.4497930000     2.1566640000
| 26>  H        6.5391890000    -3.5569810000     0.2548340000
| 27>  H        6.6469530000    -5.1102610000     0.7801470000
| 28> *
| 29>
| 30>                          ****END OF INPUT****
 Total Charge           Charge          ....    0
 Multiplicity           Mult            ....    1
 Number of Electrons    NEL             ....   56
 Basis Dimension        Dim             ....  143

MULLIKEN ATOMIC CHARGES
-----------------------
   0 C :   -0.048600
   1 C :    0.137264
   2 O :   -0.257222
   3 C :    0.072371
   4 O :   -0.203845
   5 C :    0.113400
   6 N :   -0.210717
   7 H :    0.029688
   8 H :    0.046286
   9 H :    0.034377
  10 H :    0.025578
  11 H :    0.029002
  12 H :    0.024314
  13 H :    0.024003
  14 H :    0.095341
  15 H :    0.088760
Sum of atomic charges:   -0.0000000

LOEWDIN ATOMIC CHARGES
----------------------
   0 C :   -0.076319
   1 C :    0.070020
   2 O :   -0.060236
   3 C :    0.041728
   4 O :   -0.153489
   5 C :   -0.018602
   6 N :   -0.110432
   7 H :    0.037043
   8 H :    0.035291
   9 H :    0.030503
  10 H :    0.019383
  11 H :    0.024245
  12 H :    0.027108
  13 H :    0.030638
  14 H :    0.048858
  15 H :    0.054262

  Mayer bond orders larger than 0.1
B(  0-C ,  1-C ) :   1.1400 B(  0-C ,  7-H ) :   0.9549 B(  0-C ,  8-H ) :   0.9609
B(  0-C ,  9-H ) :   0.9620 B(  1-C ,  2-O ) :   0.9168 B(  1-C , 10-H ) :   0.9328
B(  1-C , 11-H ) :   0.9517 B(  2-O ,  3-C ) :   1.2054 B(  3-C ,  4-O ) :   2.0356
B(  3-C ,  5-C ) :   0.9767 B(  5-C ,  6-N ) :   1.1120 B(  5-C , 12-H ) :   0.8953
B(  5-C , 13-H ) :   0.9158 B(  6-N , 14-H ) :   0.9492 B(  6-N , 15-H ) :   0.9598

FINAL SINGLE POINT ENERGY      -362.346665328400

DIPOLE MOMENT
-------------
                                X             Y             Z
Electronic contribution:      1.51621      -1.84518      -1.87131
Nuclear contribution   :     -2.18312       1.55322       1.75950
                        -----------------------------------------
Total Dipole Moment    :     -0.66691      -0.29195      -0.11181
                        -----------------------------------------
Magnitude (a.u.)       :      0.73655
Magnitude (Debye)      :      1.87216

                             ****ORCA TERMINATED NORMALLY****
TOTAL RUN TIME: 0 days 0 hours 0 minutes 6 seconds 913 msec
