                         Program Version 3.0.3 - RELEASE   -
|  1> ! RI PBE def2-SVP def2-SVP/J NBO PAL2
|  2> % maxcore 2000
|  3> % output
|  4>     # printlevel mini
|  5>     print[ P_Basis ] 0
|  6>     print[ P_SCFInfo ] 1
|  7>     print[ P_SCFIterInfo ] 1
|  8>     print[ P_OrbEn ] 0
|  9>     print[ P_Cartesian ] 0
| 10> end
| 11> *xyz 0 1
| 12>  C        2.8217350000    -0.9791130000    -2.6364040000
| 13>  C        2.3706500000    -1.2187810000    -1.4126150000
| 14>  O        3.0718910000    -1.3550770000    -0.2591010000
| 15>  C        4.4465640000    -1.1201880000    -0.2609230000
| 16>  O        5.1872650000    -2.2493270000    -0.6493520000
| 17>  N        5.7614780000    -2.0854430000    -1.8905440000
| 18>  C        6.4219510000    -3.1034810000    -2.2419990000
| 19>  H        2.0989860000    -0.8761400000    -3.4342260000
| 20>  H        3.8717980000    -0.9030550000    -2.8834690000
| 21>  H        1.3122270000    -1.3286010000    -1.2033160000
| 22>  H        4.7011280000    -0.9287670000     0.7815450000
| 23>  H        4.7115280000    -0.2761850000    -0.9037360000
| 24>  H        6.9105390000    -3.0503510000    -3.2071220000
| 25>  H        6.5058590000    -3.9950890000    -1.6234170000
| 26> *
| 27>
| 28>                          ****END OF INPUT****
 Total Charge           Charge          ....    0
 Multiplicity           Mult            ....    1
 Number of Electrons    NEL             ....   54
 Basis Dimension        Dim             ....  133

MULLIKEN ATOMIC CHARGES
-----------------------
   0 C :   -0.113980
   1 C :    0.096053
   2 O :   -0.254801
   3 C :    0.324673
   4 O :   -0.264105
   5 N :   -0.009834
   6 C :   -0.007777
   7 H :    0.028400
   8 H :    0.039816
   9 H :    0.016865
  10 H :    0.026361
  11 H :    0.019488
  12 H :    0.058570
  13 H :    0.040271
Sum of atomic charges:    0.0000000

LOEWDIN ATOMIC CHARGES
----------------------
   0 C :   -0.141720
   1 C :    0.032046
   2 O :   -0.069094
   3 C :    0.127209
   4 O :   -0.075908
   5 N :    0.020124
   6 C :   -0.035837
   7 H :    0.033581
   8 H :    0.020253
   9 H :    0.024216
  10 H :    0.019230
  11 H :    0.004050
  12 H :    0.030354
  13 H :    0.011497

  Mayer bond orders larger than 0.1
B(  0-C ,  1-C ) :   1.8961 B(  0-C ,  7-H ) :   0.9353 B(  0-C ,  8-H ) :   0.9401
B(  1-C ,  2-O ) :   1.1128 B(  1-C ,  9-H ) :   0.9666 B(  2-O ,  3-C ) :   1.0436
B(  3-C ,  4-O ) :   1.0094 B(  3-C , 10-H ) :   0.9518 B(  3-C , 11-H ) :   0.9324
B(  4-O ,  5-N ) :   0.9603 B(  4-O ,  6-C ) :   0.1122 B(  5-N ,  6-C ) :   1.9402
B(  6-C , 12-H ) :   0.9507 B(  6-C , 13-H ) :   0.9330

FINAL SINGLE POINT ENERGY      -361.036906241027

DIPOLE MOMENT
-------------
                                X             Y             Z
Electronic contribution:      0.44573      -0.79807       2.98236
Nuclear contribution   :     -0.07371       0.73679      -3.08805
                        -----------------------------------------
Total Dipole Moment    :      0.37202      -0.06128      -0.10569
                        -----------------------------------------
Magnitude (a.u.)       :      0.39156
Magnitude (Debye)      :      0.99528

                             ****ORCA TERMINATED NORMALLY****
TOTAL RUN TIME: 0 days 0 hours 0 minutes 6 seconds 667 msec
