                         Program Version 3.0.3 - RELEASE   -
|  1> ! RI PBE def2-SVP def2-SVP/J NBO PAL2
|  2> % maxcore 2000
|  3> % output
|  4>     # printlevel mini
|  5>     print[ P_Basis ] 0
|  6>     print[ P_SCFInfo ] 1
|  7>     print[ P_SCFIterInfo ] 1
|  8>     print[ P_OrbEn ] 0
|  9>     print[ P_Cartesian ] 0
| 10> end
| 11> *xyz 0 1
| 12>  C        2.8943030000     1.3448250000    -1.2895310000
| 13>  C        2.2913120000     0.2801700000    -0.4247140000
| 14>  O        1.1658990000     0.3368440000     0.0020660000
| 15>  C        3.1273490000    -0.9426230000    -0.1019250000
| 16>  O        4.4901790000    -0.7177380000    -0.3953670000
| 17>  N        5.1501960000    -1.9196920000    -0.5091830000
| 18>  C        6.3953720000    -1.7638850000    -0.6604310000
| 19>  H        2.1514770000     2.1147720000    -1.4884490000
| 20>  H        3.2592320000     0.9112930000    -2.2244290000
| 21>  H        3.7665860000     1.7774610000    -0.7926490000
| 22>  H        2.7477310000    -1.7761500000    -0.7036150000
| 23>  H        2.9840710000    -1.1955980000     0.9532250000
| 24>  H        6.9834300000    -2.6664520000    -0.7722690000
| 25>  H        6.8708720000    -0.7845260000    -0.6814290000
| 26> *
| 27>
| 28>                          ****END OF INPUT****
 Total Charge           Charge          ....    0
 Multiplicity           Mult            ....    1
 Number of Electrons    NEL             ....   54
 Basis Dimension        Dim             ....  133

MULLIKEN ATOMIC CHARGES
-----------------------
   0 C :    0.036436
   1 C :   -0.111149
   2 O :   -0.166590
   3 C :    0.239078
   4 O :   -0.285903
   5 N :   -0.009418
   6 C :   -0.018470
   7 H :    0.040121
   8 H :    0.044460
   9 H :    0.050108
  10 H :    0.047625
  11 H :    0.036295
  12 H :    0.060583
  13 H :    0.036822
Sum of atomic charges:   -0.0000000

LOEWDIN ATOMIC CHARGES
----------------------
   0 C :   -0.089015
   1 C :    0.045168
   2 O :   -0.117326
   3 C :    0.027158
   4 O :   -0.085487
   5 N :    0.013970
   6 C :   -0.040317
   7 H :    0.039160
   8 H :    0.048818
   9 H :    0.050526
  10 H :    0.037562
  11 H :    0.030320
  12 H :    0.030656
  13 H :    0.008805

  Mayer bond orders larger than 0.1
B(  0-C ,  1-C ) :   1.0415 B(  0-C ,  7-H ) :   0.9453 B(  0-C ,  8-H ) :   0.9364
B(  0-C ,  9-H ) :   0.9272 B(  1-C ,  2-O ) :   2.1666 B(  1-C ,  3-C ) :   0.9437
B(  3-C ,  4-O ) :   0.9629 B(  3-C , 10-H ) :   0.9166 B(  3-C , 11-H ) :   0.9289
B(  4-O ,  5-N ) :   0.9590 B(  4-O ,  6-C ) :   0.1174 B(  5-N ,  6-C ) :   1.9450
B(  6-C , 12-H ) :   0.9516 B(  6-C , 13-H ) :   0.9327

FINAL SINGLE POINT ENERGY      -361.066302148401

DIPOLE MOMENT
-------------
                                X             Y             Z
Electronic contribution:     -2.01263      -1.54868       1.81200
Nuclear contribution   :      3.04750       1.57340      -2.17028
                        -----------------------------------------
Total Dipole Moment    :      1.03487       0.02472      -0.35828
                        -----------------------------------------
Magnitude (a.u.)       :      1.09542
Magnitude (Debye)      :      2.78432

                             ****ORCA TERMINATED NORMALLY****
TOTAL RUN TIME: 0 days 0 hours 0 minutes 6 seconds 400 msec
