                         Program Version 3.0.3 - RELEASE   -
|  1> ! RI PBE def2-SVP def2-SVP/J NBO PAL2
|  2> % maxcore 2000
|  3> % output
|  4>     # printlevel mini
|  5>     print[ P_Basis ] 0
|  6>     print[ P_SCFInfo ] 1
|  7>     print[ P_SCFIterInfo ] 1
|  8>     print[ P_OrbEn ] 0
|  9>     print[ P_Cartesian ] 0
| 10> end
| 11> *xyz 0 1
| 12>  C        0.8071560000     0.3976420000     0.1453290000
| 13>  C        2.2631690000    -0.0139380000     0.1681080000
| 14>  O        2.3513590000    -1.2331480000     0.8730210000
| 15>  C        2.8084600000    -0.1396530000    -1.2428020000
| 16>  O        4.2308600000    -0.1955430000    -1.3116560000
| 17>  N        4.7045580000    -1.3274360000    -0.7028640000
| 18>  C        5.9608430000    -1.4394290000    -0.7921000000
| 19>  H        0.4156480000     0.4066090000     1.1634310000
| 20>  H        0.2159480000    -0.3148910000    -0.4356540000
| 21>  H        0.6833230000     1.3944990000    -0.2834120000
| 22>  H        2.8515100000     0.7644880000     0.6805810000
| 23>  H        3.2017590000    -1.6306400000     0.6408580000
| 24>  H        2.5585740000     0.7480690000    -1.8268050000
| 25>  H        2.3794190000    -1.0225430000    -1.7301660000
| 26>  H        6.4068130000    -2.3099130000    -0.3275380000
| 27>  H        6.5764310000    -0.7057740000    -1.3097220000
| 28> *
| 29>
| 30>                          ****END OF INPUT****
 Total Charge           Charge          ....    0
 Multiplicity           Mult            ....    1
 Number of Electrons    NEL             ....   56
 Basis Dimension        Dim             ....  143

MULLIKEN ATOMIC CHARGES
-----------------------
   0 C :    0.009282
   1 C :    0.037219
   2 O :   -0.266837
   3 C :    0.186763
   4 O :   -0.263885
   5 N :   -0.031165
   6 C :   -0.005496
   7 H :    0.032757
   8 H :    0.021000
   9 H :    0.012599
  10 H :   -0.008394
  11 H :    0.140352
  12 H :    0.017908
  13 H :    0.016356
  14 H :    0.059694
  15 H :    0.041848
Sum of atomic charges:    0.0000000

LOEWDIN ATOMIC CHARGES
----------------------
   0 C :   -0.065478
   1 C :    0.026189
   2 O :   -0.120920
   3 C :    0.035889
   4 O :   -0.074635
   5 N :    0.015361
   6 C :   -0.033801
   7 H :    0.034684
   8 H :    0.027651
   9 H :    0.026586
  10 H :    0.007288
  11 H :    0.033873
  12 H :    0.028422
  13 H :    0.015802
  14 H :    0.030405
  15 H :    0.012683

  Mayer bond orders larger than 0.1
B(  0-C ,  1-C ) :   1.0820 B(  0-C ,  7-H ) :   0.9522 B(  0-C ,  8-H ) :   0.9566
B(  0-C ,  9-H ) :   0.9544 B(  1-C ,  2-O ) :   1.1029 B(  1-C ,  3-C ) :   1.0473
B(  1-C , 10-H ) :   0.8958 B(  2-O , 11-H ) :   0.9504 B(  3-C ,  4-O ) :   0.9612
B(  3-C , 12-H ) :   0.9315 B(  3-C , 13-H ) :   0.9265 B(  4-O ,  5-N ) :   0.9746
B(  4-O ,  6-C ) :   0.1282 B(  5-N ,  6-C ) :   1.9179 B(  5-N , 11-H ) :   0.1046
B(  6-C , 14-H ) :   0.9524 B(  6-C , 15-H ) :   0.9330

FINAL SINGLE POINT ENERGY      -362.265383501808

DIPOLE MOMENT
-------------
                                X             Y             Z
Electronic contribution:      4.54473      -2.05456      -0.60901
Nuclear contribution   :     -4.01564       2.27646       0.14382
                        -----------------------------------------
Total Dipole Moment    :      0.52909       0.22190      -0.46519
                        -----------------------------------------
Magnitude (a.u.)       :      0.73864
Magnitude (Debye)      :      1.87746

                             ****ORCA TERMINATED NORMALLY****
TOTAL RUN TIME: 0 days 0 hours 0 minutes 7 seconds 221 msec
