                         Program Version 3.0.3 - RELEASE   -
|  1> ! RI PBE def2-SVP def2-SVP/J NBO PAL2
|  2> % maxcore 2000
|  3> % output
|  4>     # printlevel mini
|  5>     print[ P_Basis ] 0
|  6>     print[ P_SCFInfo ] 1
|  7>     print[ P_SCFIterInfo ] 1
|  8>     print[ P_OrbEn ] 0
|  9>     print[ P_Cartesian ] 0
| 10> end
| 11> *xyz 0 1
| 12>  C        3.1419470000     0.7759490000     2.2403210000
| 13>  C        2.4466300000    -0.3256480000     1.4775810000
| 14>  O        3.1186530000    -1.5785090000     1.6280960000
| 15>  C        4.1344240000    -1.8081460000     0.7683240000
| 16>  O        4.4736870000    -1.0512450000    -0.1113010000
| 17>  N        4.7021840000    -3.0041640000     1.0400480000
| 18>  C        5.7995460000    -3.5289270000     0.2749820000
| 19>  H        2.5681370000     1.7024700000     2.1583830000
| 20>  H        4.1379970000     0.9547990000     1.8329010000
| 21>  H        3.2312370000     0.5217120000     3.2986200000
| 22>  H        2.3807470000    -0.0844710000     0.4155080000
| 23>  H        1.4426920000    -0.5037020000     1.8664640000
| 24>  H        4.3094000000    -3.5359570000     1.7960800000
| 25>  H        6.0569980000    -2.7920100000    -0.4840400000
| 26>  H        5.5301450000    -4.4645550000    -0.2232950000
| 27>  H        6.6763940000    -3.7054070000     0.9041270000
| 28> *
| 29>
| 30>                          ****END OF INPUT****
 Total Charge           Charge          ....    0
 Multiplicity           Mult            ....    1
 Number of Electrons    NEL             ....   56
 Basis Dimension        Dim             ....  143

MULLIKEN ATOMIC CHARGES
-----------------------
   0 C :   -0.058465
   1 C :    0.147558
   2 O :   -0.287913
   3 C :    0.156325
   4 O :   -0.245610
   5 N :   -0.169362
   6 C :    0.077314
   7 H :    0.027309
   8 H :    0.039634
   9 H :    0.032516
  10 H :    0.029373
  11 H :    0.017644
  12 H :    0.122222
  13 H :    0.050952
  14 H :    0.029696
  15 H :    0.030807
Sum of atomic charges:   -0.0000000

LOEWDIN ATOMIC CHARGES
----------------------
   0 C :   -0.081699
   1 C :    0.068766
   2 O :   -0.096052
   3 C :    0.026911
   4 O :   -0.209135
   5 N :   -0.014504
   6 C :    0.012434
   7 H :    0.034747
   8 H :    0.033336
   9 H :    0.028233
  10 H :    0.019382
  11 H :    0.020783
  12 H :    0.074646
  13 H :    0.037725
  14 H :    0.022087
  15 H :    0.022339

  Mayer bond orders larger than 0.1
B(  0-C ,  1-C ) :   1.1414 B(  0-C ,  7-H ) :   0.9553 B(  0-C ,  8-H ) :   0.9579
B(  0-C ,  9-H ) :   0.9617 B(  1-C ,  2-O ) :   0.9444 B(  1-C , 10-H ) :   0.9324
B(  1-C , 11-H ) :   0.9485 B(  2-O ,  3-C ) :   1.1461 B(  3-C ,  4-O ) :   1.9744
B(  3-C ,  5-N ) :   1.2058 B(  5-N ,  6-C ) :   1.0206 B(  5-N , 12-H ) :   0.9258
B(  6-C , 13-H ) :   0.9542 B(  6-C , 14-H ) :   0.9707 B(  6-C , 15-H ) :   0.9709

FINAL SINGLE POINT ENERGY      -362.368569173771

DIPOLE MOMENT
-------------
                                X             Y             Z
Electronic contribution:     -0.58725      -2.13260      -1.40326
Nuclear contribution   :      0.48238       1.50546       2.02447
                        -----------------------------------------
Total Dipole Moment    :     -0.10488      -0.62714       0.62122
                        -----------------------------------------
Magnitude (a.u.)       :      0.88894
Magnitude (Debye)      :      2.25951

                             ****ORCA TERMINATED NORMALLY****
TOTAL RUN TIME: 0 days 0 hours 0 minutes 7 seconds 400 msec
