                         Program Version 3.0.3 - RELEASE   -
|  1> ! RI PBE def2-SVP def2-SVP/J NBO PAL2
|  2> % maxcore 2000
|  3> % output
|  4>     # printlevel mini
|  5>     print[ P_Basis ] 0
|  6>     print[ P_SCFInfo ] 1
|  7>     print[ P_SCFIterInfo ] 1
|  8>     print[ P_OrbEn ] 0
|  9>     print[ P_Cartesian ] 0
| 10> end
| 11> *xyz 0 1
| 12>  C        1.3932370000     0.7162380000    -0.9468050000
| 13>  C        2.7874490000     0.2993650000    -0.5553710000
| 14>  O        3.0637880000     0.8265450000     0.7320490000
| 15>  C        4.2224240000     0.3695140000     1.3208230000
| 16>  O        5.3974760000     0.9780190000     0.8212900000
| 17>  N        5.9415800000     0.2372700000    -0.2018710000
| 18>  C        6.9660140000     0.7898930000    -0.6952780000
| 19>  H        1.1488740000     0.3305540000    -1.9390570000
| 20>  H        1.3106870000     1.8045360000    -0.9713140000
| 21>  H        0.6593610000     0.3329710000    -0.2351780000
| 22>  H        3.5213740000     0.6687360000    -1.2799400000
| 23>  H        2.8789280000    -0.7953740000    -0.5274380000
| 24>  H        4.3315130000    -0.7170870000     1.2141220000
| 25>  H        4.1768690000     0.6661140000     2.3691200000
| 26>  H        7.4593220000     0.2611660000    -1.5017100000
| 27>  H        7.3488040000     1.7454290000    -0.3404430000
| 28> *
| 29>
| 30>                          ****END OF INPUT****
 Total Charge           Charge          ....    0
 Multiplicity           Mult            ....    1
 Number of Electrons    NEL             ....   56
 Basis Dimension        Dim             ....  143

MULLIKEN ATOMIC CHARGES
-----------------------
   0 C :   -0.024815
   1 C :    0.118974
   2 O :   -0.322621
   3 C :    0.313377
   4 O :   -0.268561
   5 N :   -0.021886
   6 C :   -0.012442
   7 H :    0.019697
   8 H :    0.036481
   9 H :    0.028751
  10 H :    0.015825
  11 H :    0.006093
  12 H :   -0.003169
  13 H :    0.024867
  14 H :    0.054967
  15 H :    0.034463
Sum of atomic charges:    0.0000000

LOEWDIN ATOMIC CHARGES
----------------------
   0 C :   -0.075037
   1 C :    0.058641
   2 O :   -0.130949
   3 C :    0.105262
   4 O :   -0.082724
   5 N :    0.009947
   6 C :   -0.044103
   7 H :    0.032621
   8 H :    0.031965
   9 H :    0.029254
  10 H :    0.009209
  11 H :    0.009297
  12 H :   -0.007477
  13 H :    0.017778
  14 H :    0.027799
  15 H :    0.008517

  Mayer bond orders larger than 0.1
B(  0-C ,  1-C ) :   1.1177 B(  0-C ,  7-H ) :   0.9524 B(  0-C ,  8-H ) :   0.9650
B(  0-C ,  9-H ) :   0.9624 B(  1-C ,  2-O ) :   0.9792 B(  1-C , 10-H ) :   0.9369
B(  1-C , 11-H ) :   0.9347 B(  2-O ,  3-C ) :   1.1249 B(  3-C ,  4-O ) :   0.9882
B(  3-C , 12-H ) :   0.9296 B(  3-C , 13-H ) :   0.9501 B(  4-O ,  5-N ) :   0.9655
B(  4-O ,  6-C ) :   0.1155 B(  5-N ,  6-C ) :   1.9371 B(  6-C , 14-H ) :   0.9519
B(  6-C , 15-H ) :   0.9330

FINAL SINGLE POINT ENERGY      -362.256852852620

DIPOLE MOMENT
-------------
                                X             Y             Z
Electronic contribution:      5.09455       0.91131       3.38609
Nuclear contribution   :     -4.90867      -1.09175      -3.67035
                        -----------------------------------------
Total Dipole Moment    :      0.18588      -0.18044      -0.28426
                        -----------------------------------------
Magnitude (a.u.)       :      0.38460
Magnitude (Debye)      :      0.97757

                             ****ORCA TERMINATED NORMALLY****
TOTAL RUN TIME: 0 days 0 hours 0 minutes 6 seconds 872 msec
