                         Program Version 3.0.3 - RELEASE   -
|  1> ! RI PBE def2-SVP def2-SVP/J NBO PAL2
|  2> % maxcore 2000
|  3> % output
|  4>     # printlevel mini
|  5>     print[ P_Basis ] 0
|  6>     print[ P_SCFInfo ] 1
|  7>     print[ P_SCFIterInfo ] 1
|  8>     print[ P_OrbEn ] 0
|  9>     print[ P_Cartesian ] 0
| 10> end
| 11> *xyz 0 1
| 12>  C        3.0728260000     1.6681530000    -0.0041020000
| 13>  C        2.4997210000     0.3307130000     0.3962280000
| 14>  O        1.4074650000    -0.0661290000     0.0327020000
| 15>  N        3.2892230000    -0.4125390000     1.1974870000
| 16>  C        4.6041830000    -0.2373750000     1.7932110000
| 17>  C        4.4423940000    -1.6324420000     2.4376890000
| 18>  C        3.0544430000    -1.7284060000     1.7630790000
| 19>  H        2.3552880000     2.1753780000    -0.6445940000
| 20>  H        4.0158330000     1.5444070000    -0.5430050000
| 21>  H        3.2748130000     2.2862320000     0.8746300000
| 22>  H        4.6709310000     0.5978330000     2.4977970000
| 23>  H        5.4187680000    -0.1496980000     1.0671150000
| 24>  H        4.4194570000    -1.6273540000     3.5258190000
| 25>  H        5.1644770000    -2.3728700000     2.0986470000
| 26>  H        2.1964720000    -1.7675650000     2.4392220000
| 27>  H        2.9418170000    -2.5142290000     1.0116840000
| 28> *
| 29>
| 30>                          ****END OF INPUT****
 Total Charge           Charge          ....    0
 Multiplicity           Mult            ....    1
 Number of Electrons    NEL             ....   54
 Basis Dimension        Dim             ....  143

MULLIKEN ATOMIC CHARGES
-----------------------
   0 C :   -0.026027
   1 C :    0.021887
   2 O :   -0.225066
   3 N :   -0.302717
   4 C :    0.176354
   5 C :   -0.128783
   6 C :    0.185665
   7 H :    0.042622
   8 H :    0.039438
   9 H :    0.039332
  10 H :    0.022727
  11 H :    0.021108
  12 H :    0.039658
  13 H :    0.035290
  14 H :    0.029618
  15 H :    0.028894
Sum of atomic charges:   -0.0000000

LOEWDIN ATOMIC CHARGES
----------------------
   0 C :   -0.093774
   1 C :    0.015031
   2 O :   -0.199376
   3 N :   -0.044624
   4 C :    0.045692
   5 C :   -0.040203
   6 C :    0.053981
   7 H :    0.042944
   8 H :    0.039612
   9 H :    0.039565
  10 H :    0.017830
  11 H :    0.017687
  12 H :    0.030668
  13 H :    0.030004
  14 H :    0.022423
  15 H :    0.022542

  Mayer bond orders larger than 0.1
B(  0-C ,  1-C ) :   1.0378 B(  0-C ,  7-H ) :   0.9502 B(  0-C ,  8-H ) :   0.9435
B(  0-C ,  9-H ) :   0.9437 B(  1-C ,  2-O ) :   2.0818 B(  1-C ,  3-N ) :   1.1508
B(  3-N ,  4-C ) :   1.0046 B(  3-N ,  6-C ) :   0.9946 B(  4-C ,  5-C ) :   1.1180
B(  4-C , 10-H ) :   0.9326 B(  4-C , 11-H ) :   0.9325 B(  5-C ,  6-C ) :   1.1113
B(  5-C , 12-H ) :   0.9291 B(  5-C , 13-H ) :   0.9296 B(  6-C , 14-H ) :   0.9401
B(  6-C , 15-H ) :   0.9395

FINAL SINGLE POINT ENERGY      -325.266716239573

DIPOLE MOMENT
-------------
                                X             Y             Z
Electronic contribution:     -4.06321      -0.67209      -1.77091
Nuclear contribution   :      5.42076       0.66301       2.48573
                        -----------------------------------------
Total Dipole Moment    :      1.35755      -0.00909       0.71483
                        -----------------------------------------
Magnitude (a.u.)       :      1.53428
Magnitude (Debye)      :      3.89982

                             ****ORCA TERMINATED NORMALLY****
TOTAL RUN TIME: 0 days 0 hours 0 minutes 7 seconds 194 msec
