                         Program Version 3.0.3 - RELEASE   -
|  1> ! RI PBE def2-SVP def2-SVP/J NBO PAL2
|  2> % maxcore 2000
|  3> % output
|  4>     # printlevel mini
|  5>     print[ P_Basis ] 0
|  6>     print[ P_SCFInfo ] 1
|  7>     print[ P_SCFIterInfo ] 1
|  8>     print[ P_OrbEn ] 0
|  9>     print[ P_Cartesian ] 0
| 10> end
| 11> *xyz 0 1
| 12>  C        3.2731070000    -0.8048290000    -1.4087400000
| 13>  C        2.5633580000    -0.0870160000    -0.2909690000
| 14>  O        1.3531200000    -0.0321740000    -0.2117980000
| 15>  N        3.3566760000     0.5068050000     0.6489950000
| 16>  C        4.7707300000     0.6508250000     0.5934750000
| 17>  C        5.5181660000     0.6541390000     1.8880470000
| 18>  C        5.6519770000    -0.5083680000     0.9564660000
| 19>  H        2.5232570000    -1.2427310000    -2.0628410000
| 20>  H        3.9300940000    -1.5862120000    -1.0219090000
| 21>  H        3.8964880000    -0.1127770000    -1.9807030000
| 22>  H        2.8459670000     1.0601240000     1.3202880000
| 23>  H        5.1491640000     1.3191540000    -0.1769160000
| 24>  H        4.9390870000     0.5025100000     2.7906640000
| 25>  H        6.3483290000     1.3406970000     1.9907520000
| 26>  H        5.1568290000    -1.4282910000     1.2398770000
| 27>  H        6.5775390000    -0.6330530000     0.4088020000
| 28> *
| 29>
| 30>                          ****END OF INPUT****
 Total Charge           Charge          ....    0
 Multiplicity           Mult            ....    1
 Number of Electrons    NEL             ....   54
 Basis Dimension        Dim             ....  143

MULLIKEN ATOMIC CHARGES
-----------------------
   0 C :    0.002797
   1 C :   -0.031708
   2 O :   -0.207626
   3 N :   -0.078044
   4 C :   -0.072532
   5 C :   -0.039987
   6 C :   -0.013668
   7 H :    0.040210
   8 H :    0.035652
   9 H :    0.038519
  10 H :    0.115635
  11 H :    0.037263
  12 H :    0.044922
  13 H :    0.044883
  14 H :    0.044038
  15 H :    0.039647
Sum of atomic charges:   -0.0000000

LOEWDIN ATOMIC CHARGES
----------------------
   0 C :   -0.090918
   1 C :    0.025748
   2 O :   -0.191891
   3 N :    0.002368
   4 C :   -0.003173
   5 C :   -0.042344
   6 C :   -0.043242
   7 H :    0.041942
   8 H :    0.041211
   9 H :    0.041454
  10 H :    0.073804
  11 H :    0.019859
  12 H :    0.031733
  13 H :    0.032350
  14 H :    0.031109
  15 H :    0.029989

  Mayer bond orders larger than 0.1
B(  0-C ,  1-C ) :   1.0309 B(  0-C ,  7-H ) :   0.9511 B(  0-C ,  8-H ) :   0.9390
B(  0-C ,  9-H ) :   0.9339 B(  1-C ,  2-O ) :   2.1189 B(  1-C ,  3-N ) :   1.1647
B(  3-N ,  4-C ) :   1.0476 B(  3-N , 10-H ) :   0.9168 B(  4-C ,  5-C ) :   0.9957
B(  4-C ,  6-C ) :   0.9941 B(  4-C , 11-H ) :   0.9338 B(  5-C ,  6-C ) :   1.0366
B(  5-C , 12-H ) :   0.9537 B(  5-C , 13-H ) :   0.9439 B(  6-C , 14-H ) :   0.9414
B(  6-C , 15-H ) :   0.9487

FINAL SINGLE POINT ENERGY      -325.266946826889

DIPOLE MOMENT
-------------
                                X             Y             Z
Electronic contribution:     -5.65635       1.32937       0.37475
Nuclear contribution   :      7.09270      -1.12729      -0.13185
                        -----------------------------------------
Total Dipole Moment    :      1.43635       0.20208       0.24290
                        -----------------------------------------
Magnitude (a.u.)       :      1.47069
Magnitude (Debye)      :      3.73820

                             ****ORCA TERMINATED NORMALLY****
TOTAL RUN TIME: 0 days 0 hours 0 minutes 6 seconds 389 msec
