                         Program Version 3.0.3 - RELEASE   -
|  1> ! RI PBE def2-SVP def2-SVP/J NBO PAL2
|  2> % maxcore 2000
|  3> % output
|  4>     # printlevel mini
|  5>     print[ P_Basis ] 0
|  6>     print[ P_SCFInfo ] 1
|  7>     print[ P_SCFIterInfo ] 1
|  8>     print[ P_OrbEn ] 0
|  9>     print[ P_Cartesian ] 0
| 10> end
| 11> *xyz 0 1
| 12>  C        0.9024000000     0.5480850000     0.2478870000
| 13>  C        2.3234570000     0.2576500000     0.6628700000
| 14>  O        2.7185860000     0.4819230000     1.7896820000
| 15>  N        3.1172130000    -0.2691320000    -0.3057780000
| 16>  C        4.5084670000    -0.5932170000    -0.0880390000
| 17>  C        5.4026080000     0.1116480000    -1.0550910000
| 18>  C        6.2399220000    -0.5008980000    -1.8798010000
| 19>  H        0.7018150000     1.6067680000     0.4183070000
| 20>  H        0.2304540000    -0.0194290000     0.8933470000
| 21>  H        0.6878000000     0.3052800000    -0.7939180000
| 22>  H        2.7323590000    -0.4138420000    -1.2228280000
| 23>  H        4.6671300000    -1.6755490000    -0.1493560000
| 24>  H        4.7236100000    -0.2828310000     0.9381540000
| 25>  H        5.3348100000     1.1974960000    -1.0554180000
| 26>  H        6.3221010000    -1.5836610000    -1.8989570000
| 27>  H        6.8808880000     0.0528890000    -2.5556410000
| 28> *
| 29>
| 30>                          ****END OF INPUT****
 Total Charge           Charge          ....    0
 Multiplicity           Mult            ....    1
 Number of Electrons    NEL             ....   54
 Basis Dimension        Dim             ....  143

MULLIKEN ATOMIC CHARGES
-----------------------
   0 C :    0.028532
   1 C :   -0.024515
   2 O :   -0.228219
   3 N :   -0.154541
   4 C :    0.194573
   5 C :   -0.115249
   6 C :   -0.038201
   7 H :    0.051131
   8 H :    0.051975
   9 H :    0.001584
  10 H :    0.109240
  11 H :    0.015191
  12 H :    0.038959
  13 H :    0.015957
  14 H :    0.023455
  15 H :    0.030127
Sum of atomic charges:   -0.0000000

LOEWDIN ATOMIC CHARGES
----------------------
   0 C :   -0.086471
   1 C :    0.023130
   2 O :   -0.198071
   3 N :    0.001683
   4 C :    0.025176
   5 C :   -0.043088
   6 C :   -0.061060
   7 H :    0.049264
   8 H :    0.050004
   9 H :    0.022186
  10 H :    0.070198
  11 H :    0.025320
  12 H :    0.041670
  13 H :    0.029565
  14 H :    0.023083
  15 H :    0.027411

  Mayer bond orders larger than 0.1
B(  0-C ,  1-C ) :   1.0270 B(  0-C ,  7-H ) :   0.9454 B(  0-C ,  8-H ) :   0.9436
B(  0-C ,  9-H ) :   0.9470 B(  1-C ,  2-O ) :   2.0379 B(  1-C ,  3-N ) :   1.2023
B(  3-N ,  4-C ) :   0.9592 B(  3-N , 10-H ) :   0.9244 B(  4-C ,  5-C ) :   1.0793
B(  4-C , 11-H ) :   0.9315 B(  4-C , 12-H ) :   0.8934 B(  5-C ,  6-C ) :   1.9870
B(  5-C , 13-H ) :   0.9592 B(  6-C , 14-H ) :   0.9494 B(  6-C , 15-H ) :   0.9442

FINAL SINGLE POINT ENERGY      -325.272640586457

DIPOLE MOMENT
-------------
                                X             Y             Z
Electronic contribution:     -0.45016       0.53137       3.27526
Nuclear contribution   :      0.25229      -0.84222      -4.51203
                        -----------------------------------------
Total Dipole Moment    :     -0.19787      -0.31085      -1.23678
                        -----------------------------------------
Magnitude (a.u.)       :      1.29050
Magnitude (Debye)      :      3.28020

                             ****ORCA TERMINATED NORMALLY****
TOTAL RUN TIME: 0 days 0 hours 0 minutes 7 seconds 142 msec
