                         Program Version 3.0.3 - RELEASE   -
|  1> ! RI PBE def2-SVP def2-SVP/J NBO PAL2
|  2> % maxcore 2000
|  3> % output
|  4>     # printlevel mini
|  5>     print[ P_Basis ] 0
|  6>     print[ P_SCFInfo ] 1
|  7>     print[ P_SCFIterInfo ] 1
|  8>     print[ P_OrbEn ] 0
|  9>     print[ P_Cartesian ] 0
| 10> end
| 11> *xyz 0 1
| 12>  C        1.1233360000     0.1028990000     0.0577880000
| 13>  C        2.6299560000     0.1439770000     0.0399390000
| 14>  O        3.2438560000     1.1232810000    -0.3327430000
| 15>  N        3.2490140000    -0.9887660000     0.4648180000
| 16>  C        4.6878100000    -1.0770490000     0.5556290000
| 17>  C        5.1285260000    -1.6127740000     1.8348820000
| 18>  C        5.4856090000    -2.0768780000     2.8820740000
| 19>  H        0.7653770000     0.8977360000     0.7139180000
| 20>  H        0.7122070000    -0.8504370000     0.3925170000
| 21>  H        0.7584760000     0.3188310000    -0.9471590000
| 22>  H        2.6996340000    -1.7588930000     0.8025980000
| 23>  H        5.0682310000    -0.0625850000     0.4072730000
| 24>  H        5.0956460000    -1.6935600000    -0.2543910000
| 25>  H        5.8081100000    -2.4774920000     3.8140560000
| 26> *
| 27>
| 28>                          ****END OF INPUT****
 Total Charge           Charge          ....    0
 Multiplicity           Mult            ....    1
 Number of Electrons    NEL             ....   52
 Basis Dimension        Dim             ....  133

MULLIKEN ATOMIC CHARGES
-----------------------
   0 C :    0.025572
   1 C :   -0.020009
   2 O :   -0.225229
   3 N :   -0.152360
   4 C :    0.233254
   5 C :    0.256085
   6 C :   -0.454967
   7 H :    0.056517
   8 H :    0.005528
   9 H :    0.051863
  10 H :    0.116530
  11 H :    0.054042
  12 H :    0.047468
  13 H :    0.005706
Sum of atomic charges:   -0.0000000

LOEWDIN ATOMIC CHARGES
----------------------
   0 C :   -0.084407
   1 C :    0.026291
   2 O :   -0.194438
   3 N :    0.004077
   4 C :    0.022985
   5 C :   -0.037778
   6 C :   -0.073393
   7 H :    0.051676
   8 H :    0.023740
   9 H :    0.050073
  10 H :    0.073915
  11 H :    0.054743
  12 H :    0.045301
  13 H :    0.037214

  Mayer bond orders larger than 0.1
B(  0-C ,  1-C ) :   1.0282 B(  0-C ,  7-H ) :   0.9448 B(  0-C ,  8-H ) :   0.9480
B(  0-C ,  9-H ) :   0.9456 B(  1-C ,  2-O ) :   2.0389 B(  1-C ,  3-N ) :   1.1975
B(  3-N ,  4-C ) :   0.9737 B(  3-N , 10-H ) :   0.9239 B(  4-C ,  5-C ) :   1.0641
B(  4-C , 11-H ) :   0.8759 B(  4-C , 12-H ) :   0.9061 B(  5-C ,  6-C ) :   2.3922
B(  5-C , 13-H ) :  -0.1021 B(  6-C , 13-H ) :   1.0932

FINAL SINGLE POINT ENERGY      -324.025963785118

DIPOLE MOMENT
-------------
                                X             Y             Z
Electronic contribution:      3.38673       0.38538       0.50619
Nuclear contribution   :     -3.88042      -1.47990      -0.17107
                        -----------------------------------------
Total Dipole Moment    :     -0.49369      -1.09452       0.33512
                        -----------------------------------------
Magnitude (a.u.)       :      1.24660
Magnitude (Debye)      :      3.16859

                             ****ORCA TERMINATED NORMALLY****
TOTAL RUN TIME: 0 days 0 hours 0 minutes 6 seconds 412 msec
