                         Program Version 3.0.3 - RELEASE   -
|  1> ! RI PBE def2-SVP def2-SVP/J NBO PAL2
|  2> % maxcore 2000
|  3> % output
|  4>     # printlevel mini
|  5>     print[ P_Basis ] 0
|  6>     print[ P_SCFInfo ] 1
|  7>     print[ P_SCFIterInfo ] 1
|  8>     print[ P_OrbEn ] 0
|  9>     print[ P_Cartesian ] 0
| 10> end
| 11> *xyz 0 1
| 12>  C        0.5951850000    -0.6159170000     2.1242780000
| 13>  C        1.5949050000     0.5101930000     1.9392640000
| 14>  O        1.3913260000     1.1645620000     0.6790730000
| 15>  N        1.7989360000     0.3514780000    -0.3441520000
| 16>  C        1.6096240000     0.8776220000    -1.4786270000
| 17>  C        1.4474980000     1.5716620000     2.9789140000
| 18>  C        2.3532260000     1.8323190000     3.9084570000
| 19>  H        0.6930600000    -1.3391820000     1.3131680000
| 20>  H       -0.4252100000    -0.2248520000     2.1253070000
| 21>  H        0.7727120000    -1.1251790000     3.0734980000
| 22>  H        2.6155230000     0.1138650000     1.9541110000
| 23>  H        1.9204280000     0.2980860000    -2.3392680000
| 24>  H        1.1626710000     1.8627870000    -1.6045510000
| 25>  H        0.5105470000     2.1242430000     2.9554130000
| 26>  H        3.2961090000     1.2955610000     3.9465790000
| 27>  H        2.1860600000     2.5873420000     4.6677330000
| 28> *
| 29>
| 30>                          ****END OF INPUT****
 Total Charge           Charge          ....    0
 Multiplicity           Mult            ....    1
 Number of Electrons    NEL             ....   54
 Basis Dimension        Dim             ....  143

MULLIKEN ATOMIC CHARGES
-----------------------
   0 C :    0.015796
   1 C :    0.144892
   2 O :   -0.284045
   3 N :   -0.008915
   4 C :   -0.017597
   5 C :   -0.046384
   6 C :   -0.024357
   7 H :    0.038624
   8 H :    0.019493
   9 H :    0.024899
  10 H :   -0.006296
  11 H :    0.050828
  12 H :    0.029907
  13 H :    0.009974
  14 H :    0.022207
  15 H :    0.030976
Sum of atomic charges:    0.0000000

LOEWDIN ATOMIC CHARGES
----------------------
   0 C :   -0.070211
   1 C :    0.042893
   2 O :   -0.080040
   3 N :    0.010433
   4 C :   -0.048877
   5 C :   -0.029714
   6 C :   -0.047172
   7 H :    0.031856
   8 H :    0.027863
   9 H :    0.033942
  10 H :    0.015733
  11 H :    0.026259
  12 H :    0.005852
  13 H :    0.029044
  14 H :    0.024337
  15 H :    0.027803

  Mayer bond orders larger than 0.1
B(  0-C ,  1-C ) :   1.0832 B(  0-C ,  7-H ) :   0.9463 B(  0-C ,  8-H ) :   0.9517
B(  0-C ,  9-H ) :   0.9544 B(  1-C ,  2-O ) :   0.9046 B(  1-C ,  5-C ) :   1.0177
B(  1-C , 10-H ) :   0.9199 B(  2-O ,  3-N ) :   0.9802 B(  2-O ,  4-C ) :   0.1235
B(  3-N ,  4-C ) :   1.9348 B(  4-C , 11-H ) :   0.9526 B(  4-C , 12-H ) :   0.9318
B(  5-C ,  6-C ) :   2.0223 B(  5-C , 13-H ) :   0.9486 B(  6-C , 14-H ) :   0.9456
B(  6-C , 15-H ) :   0.9440

FINAL SINGLE POINT ENERGY      -325.179061092062

DIPOLE MOMENT
-------------
                                X             Y             Z
Electronic contribution:      0.87618       1.52951      -3.41213
Nuclear contribution   :     -0.96652      -1.50866       3.49062
                        -----------------------------------------
Total Dipole Moment    :     -0.09034       0.02085       0.07849
                        -----------------------------------------
Magnitude (a.u.)       :      0.12148
Magnitude (Debye)      :      0.30878

                             ****ORCA TERMINATED NORMALLY****
TOTAL RUN TIME: 0 days 0 hours 0 minutes 7 seconds 182 msec
