                         Program Version 3.0.3 - RELEASE   -
|  1> ! RI PBE def2-SVP def2-SVP/J NBO PAL2
|  2> % maxcore 2000
|  3> % output
|  4>     # printlevel mini
|  5>     print[ P_Basis ] 0
|  6>     print[ P_SCFInfo ] 1
|  7>     print[ P_SCFIterInfo ] 1
|  8>     print[ P_OrbEn ] 0
|  9>     print[ P_Cartesian ] 0
| 10> end
| 11> *xyz 0 1
| 12>  C        1.1059770000    -0.2246310000    -0.1170210000
| 13>  C        2.5865620000     0.0484200000     0.0816700000
| 14>  O        2.8779000000     1.4445510000    -0.0442890000
| 15>  N        2.8695710000     1.7875780000    -1.3729790000
| 16>  C        3.0666600000     3.0243470000    -1.5459250000
| 17>  C        3.0518190000    -0.3657900000     1.3984970000
| 18>  C        3.4098970000    -0.7384830000     2.4806270000
| 19>  H        0.8072640000     0.1102970000    -1.1112260000
| 20>  H        0.5210390000     0.3074330000     0.6346030000
| 21>  H        0.9041470000    -1.2932950000    -0.0272730000
| 22>  H        3.1668560000    -0.4805720000    -0.6829480000
| 23>  H        3.0881100000     3.3712680000    -2.5717490000
| 24>  H        3.2127600000     3.7194210000    -0.7205810000
| 25>  H        3.7342370000    -1.0630440000     3.4410830000
| 26> *
| 27>
| 28>                          ****END OF INPUT****
 Total Charge           Charge          ....    0
 Multiplicity           Mult            ....    1
 Number of Electrons    NEL             ....   52
 Basis Dimension        Dim             ....  133

MULLIKEN ATOMIC CHARGES
-----------------------
   0 C :    0.018387
   1 C :    0.147585
   2 O :   -0.266995
   3 N :   -0.011083
   4 C :   -0.017043
   5 C :    0.367691
   6 C :   -0.468703
   7 H :    0.030774
   8 H :    0.033249
   9 H :    0.032880
  10 H :    0.034490
  11 H :    0.053959
  12 H :    0.038537
  13 H :    0.006271
Sum of atomic charges:    0.0000000

LOEWDIN ATOMIC CHARGES
----------------------
   0 C :   -0.059053
   1 C :    0.034478
   2 O :   -0.071979
   3 N :    0.010301
   4 C :   -0.042634
   5 C :   -0.023337
   6 C :   -0.061026
   7 H :    0.032052
   8 H :    0.033772
   9 H :    0.037111
  10 H :    0.035161
  11 H :    0.027953
  12 H :    0.009554
  13 H :    0.037648

  Mayer bond orders larger than 0.1
B(  0-C ,  1-C ) :   1.0966 B(  0-C ,  7-H ) :   0.9453 B(  0-C ,  8-H ) :   0.9517
B(  0-C ,  9-H ) :   0.9555 B(  1-C ,  2-O ) :   0.9544 B(  1-C ,  5-C ) :   0.9672
B(  1-C , 10-H ) :   0.8961 B(  2-O ,  3-N ) :   0.9709 B(  2-O ,  4-C ) :   0.1228
B(  3-N ,  4-C ) :   1.9358 B(  4-C , 11-H ) :   0.9528 B(  4-C , 12-H ) :   0.9330
B(  5-C ,  6-C ) :   2.3831 B(  5-C , 13-H ) :  -0.1035 B(  6-C , 13-H ) :   1.0935

FINAL SINGLE POINT ENERGY      -323.932160772910

DIPOLE MOMENT
-------------
                                X             Y             Z
Electronic contribution:      3.01950       0.63014       1.38539
Nuclear contribution   :     -3.13761      -0.59231      -1.43070
                        -----------------------------------------
Total Dipole Moment    :     -0.11811       0.03783      -0.04531
                        -----------------------------------------
Magnitude (a.u.)       :      0.13204
Magnitude (Debye)      :      0.33562

                             ****ORCA TERMINATED NORMALLY****
TOTAL RUN TIME: 0 days 0 hours 0 minutes 6 seconds 767 msec
