                         Program Version 3.0.3 - RELEASE   -
|  1> ! RI PBE def2-SVP def2-SVP/J NBO PAL2
|  2> % maxcore 2000
|  3> % output
|  4>     # printlevel mini
|  5>     print[ P_Basis ] 0
|  6>     print[ P_SCFInfo ] 1
|  7>     print[ P_SCFIterInfo ] 1
|  8>     print[ P_OrbEn ] 0
|  9>     print[ P_Cartesian ] 0
| 10> end
| 11> *xyz 0 1
| 12>  C        0.9695070000     0.6283740000    -0.1819560000
| 13>  C        2.4663190000     0.7322320000    -0.0451290000
| 14>  O        3.0027550000     0.9084360000    -1.3469870000
| 15>  N        4.3746050000     1.0120820000    -1.2725870000
| 16>  C        4.9025240000     1.1679650000    -2.4134880000
| 17>  C        6.3793070000     1.2917430000    -2.5488420000
| 18>  C        6.9769270000     0.1871280000    -3.4139890000
| 19>  H        0.5153250000     0.4915300000     0.8016270000
| 20>  H        0.6931290000    -0.2215760000    -0.8090340000
| 21>  H        0.5550110000     1.5343450000    -0.6285460000
| 22>  H        2.8896610000    -0.1740140000     0.4020100000
| 23>  H        2.7513440000     1.5835460000     0.5828140000
| 24>  H        4.2767410000     1.1997790000    -3.3095510000
| 25>  H        6.8200360000     1.2834270000    -1.5496170000
| 26>  H        6.6099250000     2.2656970000    -2.9972310000
| 27>  H        6.8079510000    -0.7939760000    -2.9649780000
| 28>  H        8.0536500000     0.3258940000    -3.5313900000
| 29>  H        6.5315610000     0.1787970000    -4.4123260000
| 30> *
| 31>
| 32>                          ****END OF INPUT****
 Total Charge           Charge          ....    0
 Multiplicity           Mult            ....    1
 Number of Electrons    NEL             ....   56
 Basis Dimension        Dim             ....  153

MULLIKEN ATOMIC CHARGES
-----------------------
   0 C :   -0.040009
   1 C :    0.167196
   2 O :   -0.293565
   3 N :    0.005953
   4 C :   -0.062667
   5 C :    0.034100
   6 C :   -0.050139
   7 H :    0.025497
   8 H :    0.033208
   9 H :    0.031630
  10 H :    0.005530
  11 H :    0.010686
  12 H :   -0.003191
  13 H :    0.021333
  14 H :    0.026079
  15 H :    0.032588
  16 H :    0.030682
  17 H :    0.025088
Sum of atomic charges:   -0.0000000

LOEWDIN ATOMIC CHARGES
----------------------
   0 C :   -0.075536
   1 C :    0.050927
   2 O :   -0.095348
   3 N :   -0.005327
   4 C :   -0.028566
   5 C :   -0.052120
   6 C :   -0.062901
   7 H :    0.034785
   8 H :    0.030591
   9 H :    0.030413
  10 H :    0.008437
  11 H :    0.009338
  12 H :    0.002293
  13 H :    0.033502
  14 H :    0.035404
  15 H :    0.028469
  16 H :    0.029698
  17 H :    0.025942

  Mayer bond orders larger than 0.1
B(  0-C ,  1-C ) :   1.1140 B(  0-C ,  7-H ) :   0.9573 B(  0-C ,  8-H ) :   0.9643
B(  0-C ,  9-H ) :   0.9635 B(  1-C ,  2-O ) :   0.9479 B(  1-C , 10-H ) :   0.9426
B(  1-C , 11-H ) :   0.9447 B(  2-O ,  3-N ) :   0.9539 B(  2-O ,  4-C ) :   0.1081
B(  3-N ,  4-C ) :   1.8996 B(  4-C ,  5-C ) :   1.0489 B(  4-C , 12-H ) :   0.9388
B(  5-C ,  6-C ) :   1.0936 B(  5-C , 13-H ) :   0.9274 B(  5-C , 14-H ) :   0.9219
B(  6-C , 15-H ) :   0.9690 B(  6-C , 16-H ) :   0.9615 B(  6-C , 17-H ) :   0.9690

FINAL SINGLE POINT ENERGY      -326.409849893136

DIPOLE MOMENT
-------------
                                X             Y             Z
Electronic contribution:     -1.06585       1.42247       0.70705
Nuclear contribution   :      1.09269      -1.42822      -0.81785
                        -----------------------------------------
Total Dipole Moment    :      0.02684      -0.00575      -0.11080
                        -----------------------------------------
Magnitude (a.u.)       :      0.11415
Magnitude (Debye)      :      0.29015

                             ****ORCA TERMINATED NORMALLY****
TOTAL RUN TIME: 0 days 0 hours 0 minutes 7 seconds 564 msec
