                         Program Version 3.0.3 - RELEASE   -
|  1> ! RI PBE def2-SVP def2-SVP/J NBO PAL2
|  2> % maxcore 2000
|  3> % output
|  4>     # printlevel mini
|  5>     print[ P_Basis ] 0
|  6>     print[ P_SCFInfo ] 1
|  7>     print[ P_SCFIterInfo ] 1
|  8>     print[ P_OrbEn ] 0
|  9>     print[ P_Cartesian ] 0
| 10> end
| 11> *xyz 0 1
| 12>  C        1.0736610000     3.9354890000     0.3388120000
| 13>  C        1.6817780000     2.9421340000    -0.6236070000
| 14>  O        3.0955690000     2.8777140000    -0.5226550000
| 15>  N        3.6491590000     3.9971700000    -1.1152120000
| 16>  C        4.9177560000     4.0188260000    -1.0035780000
| 17>  C        5.7039860000     2.9616960000    -0.2976770000
| 18>  C        5.6266770000     5.1729980000    -1.6267320000
| 19>  H       -0.0158460000     3.9288030000     0.2501170000
| 20>  H        1.4303110000     4.9435950000     0.1213470000
| 21>  H        1.3362510000     3.6871790000     1.3696030000
| 22>  H        1.4092780000     3.1794220000    -1.6569790000
| 23>  H        1.3473010000     1.9254490000    -0.4030370000
| 24>  H        5.3582250000     2.8530680000     0.7331800000
| 25>  H        6.7682130000     3.1967030000    -0.2965150000
| 26>  H        5.5536520000     1.9909010000    -0.7772090000
| 27>  H        6.1985500000     5.7246360000    -0.8737060000
| 28>  H        4.9159750000     5.8487250000    -2.1008980000
| 29>  H        6.3431050000     4.8237830000    -2.3772760000
| 30> *
| 31>
| 32>                          ****END OF INPUT****
 Total Charge           Charge          ....    0
 Multiplicity           Mult            ....    1
 Number of Electrons    NEL             ....   56
 Basis Dimension        Dim             ....  153

MULLIKEN ATOMIC CHARGES
-----------------------
   0 C :   -0.061073
   1 C :    0.177572
   2 O :   -0.288775
   3 N :    0.012451
   4 C :   -0.277325
   5 C :    0.081073
   6 C :    0.059240
   7 H :    0.026028
   8 H :    0.036562
   9 H :    0.025945
  10 H :    0.002975
  11 H :    0.012434
  12 H :    0.041874
  13 H :    0.013208
  14 H :    0.041849
  15 H :    0.034961
  16 H :    0.026177
  17 H :    0.034822
Sum of atomic charges:   -0.0000000

LOEWDIN ATOMIC CHARGES
----------------------
   0 C :   -0.087011
   1 C :    0.047563
   2 O :   -0.089362
   3 N :   -0.022880
   4 C :   -0.057025
   5 C :   -0.075916
   6 C :   -0.062682
   7 H :    0.032302
   8 H :    0.030032
   9 H :    0.026943
  10 H :    0.009759
  11 H :    0.019263
  12 H :    0.044345
  13 H :    0.029809
  14 H :    0.045066
  15 H :    0.037453
  16 H :    0.035127
  17 H :    0.037216

  Mayer bond orders larger than 0.1
B(  0-C ,  1-C ) :   1.1242 B(  0-C ,  7-H ) :   0.9555 B(  0-C ,  8-H ) :   0.9596
B(  0-C ,  9-H ) :   0.9599 B(  1-C ,  2-O ) :   0.9720 B(  1-C , 10-H ) :   0.9371
B(  1-C , 11-H ) :   0.9491 B(  2-O ,  3-N ) :   0.9628 B(  3-N ,  4-C ) :   1.9127
B(  4-C ,  5-C ) :   1.0662 B(  4-C ,  6-C ) :   1.0997 B(  5-C , 12-H ) :   0.9325
B(  5-C , 13-H ) :   0.9504 B(  5-C , 14-H ) :   0.9348 B(  6-C , 15-H ) :   0.9410
B(  6-C , 16-H ) :   0.9472 B(  6-C , 17-H ) :   0.9426

FINAL SINGLE POINT ENERGY      -326.419050314918

DIPOLE MOMENT
-------------
                                X             Y             Z
Electronic contribution:     -0.17622      -1.48636      -1.24961
Nuclear contribution   :      0.38757       1.42775       1.36239
                        -----------------------------------------
Total Dipole Moment    :      0.21134      -0.05861       0.11278
                        -----------------------------------------
Magnitude (a.u.)       :      0.24662
Magnitude (Debye)      :      0.62686

                             ****ORCA TERMINATED NORMALLY****
TOTAL RUN TIME: 0 days 0 hours 0 minutes 7 seconds 859 msec
