                         Program Version 3.0.3 - RELEASE   -
|  1> ! RI PBE def2-SVP def2-SVP/J NBO PAL2
|  2> % maxcore 2000
|  3> % output
|  4>     # printlevel mini
|  5>     print[ P_Basis ] 0
|  6>     print[ P_SCFInfo ] 1
|  7>     print[ P_SCFIterInfo ] 1
|  8>     print[ P_OrbEn ] 0
|  9>     print[ P_Cartesian ] 0
| 10> end
| 11> *xyz 0 1
| 12>  C        0.9549950000     0.0849630000    -0.4780020000
| 13>  C        2.4118460000    -0.2914500000    -0.5410130000
| 14>  O        3.0754230000     0.3894600000     0.5165540000
| 15>  N        4.4066620000     0.0821120000     0.5060350000
| 16>  C        5.0391870000     0.6744170000     1.4416720000
| 17>  C        6.4611820000     0.4662390000     1.5831420000
| 18>  C        7.1922380000     1.0476880000     2.5330130000
| 19>  H        0.4079030000    -0.4192790000    -1.2771460000
| 20>  H        0.8243490000     1.1620200000    -0.5992700000
| 21>  H        0.5164190000    -0.2099750000     0.4772420000
| 22>  H        2.8616650000     0.0032010000    -1.4949360000
| 23>  H        2.5534310000    -1.3702250000    -0.4172450000
| 24>  H        4.5170420000     1.3362830000     2.1353980000
| 25>  H        6.9166630000    -0.2035950000     0.8600730000
| 26>  H        6.7452200000     1.7183890000     3.2596300000
| 27>  H        8.2575550000     0.8721620000     2.6141450000
| 28> *
| 29>
| 30>                          ****END OF INPUT****
 Total Charge           Charge          ....    0
 Multiplicity           Mult            ....    1
 Number of Electrons    NEL             ....   54
 Basis Dimension        Dim             ....  143

MULLIKEN ATOMIC CHARGES
-----------------------
   0 C :   -0.045550
   1 C :    0.162636
   2 O :   -0.279884
   3 N :    0.004870
   4 C :   -0.006545
   5 C :    0.010751
   6 C :   -0.037946
   7 H :    0.030159
   8 H :    0.036606
   9 H :    0.034332
  10 H :    0.010193
  11 H :    0.019629
  12 H :   -0.006410
  13 H :    0.007847
  14 H :    0.024770
  15 H :    0.034541
Sum of atomic charges:   -0.0000000

LOEWDIN ATOMIC CHARGES
----------------------
   0 C :   -0.076193
   1 C :    0.053042
   2 O :   -0.077546
   3 N :    0.000934
   4 C :   -0.035247
   5 C :   -0.037875
   6 C :   -0.048040
   7 H :    0.036789
   8 H :    0.031992
   9 H :    0.031514
  10 H :    0.011307
  11 H :    0.012970
  12 H :    0.009000
  13 H :    0.034344
  14 H :    0.024414
  15 H :    0.028594

  Mayer bond orders larger than 0.1
B(  0-C ,  1-C ) :   1.1153 B(  0-C ,  7-H ) :   0.9569 B(  0-C ,  8-H ) :   0.9641
B(  0-C ,  9-H ) :   0.9635 B(  1-C ,  2-O ) :   0.9378 B(  1-C , 10-H ) :   0.9433
B(  1-C , 11-H ) :   0.9460 B(  2-O ,  3-N ) :   0.9753 B(  2-O ,  4-C ) :   0.1011
B(  3-N ,  4-C ) :   1.7777 B(  3-N ,  6-C ) :   0.1183 B(  4-C ,  5-C ) :   1.1262
B(  4-C , 12-H ) :   0.9478 B(  5-C ,  6-C ) :   1.8681 B(  5-C , 13-H ) :   0.9577
B(  6-C , 14-H ) :   0.9520 B(  6-C , 15-H ) :   0.9444

FINAL SINGLE POINT ENERGY      -325.193830015856

DIPOLE MOMENT
-------------
                                X             Y             Z
Electronic contribution:      3.16391       0.20846       1.18227
Nuclear contribution   :     -3.39161      -0.19461      -1.21888
                        -----------------------------------------
Total Dipole Moment    :     -0.22770       0.01385      -0.03661
                        -----------------------------------------
Magnitude (a.u.)       :      0.23104
Magnitude (Debye)      :      0.58727

                             ****ORCA TERMINATED NORMALLY****
TOTAL RUN TIME: 0 days 0 hours 0 minutes 6 seconds 846 msec
