                         Program Version 3.0.3 - RELEASE   -
|  1> ! RI PBE def2-SVP def2-SVP/J NBO PAL2
|  2> % maxcore 2000
|  3> % output
|  4>     # printlevel mini
|  5>     print[ P_Basis ] 0
|  6>     print[ P_SCFInfo ] 1
|  7>     print[ P_SCFIterInfo ] 1
|  8>     print[ P_OrbEn ] 0
|  9>     print[ P_Cartesian ] 0
| 10> end
| 11> *xyz 0 1
| 12>  C        0.7268970000    -0.0922050000     0.1772520000
| 13>  C        2.2323910000    -0.1056890000     0.1937220000
| 14>  O        2.6639710000    -0.9086620000    -0.9018510000
| 15>  N        4.0224310000    -0.9604880000    -0.9344970000
| 16>  C        4.4380340000    -1.6740090000    -1.9084270000
| 17>  C        5.8258930000    -1.8550660000    -2.1181870000
| 18>  C        6.9883940000    -2.0502730000    -2.3543310000
| 19>  H        0.3556230000     0.5159160000     1.0044110000
| 20>  H        0.3253870000    -1.1014000000     0.2862810000
| 21>  H        0.3497000000     0.3308710000    -0.7556570000
| 22>  H        2.6215660000    -0.5333790000     1.1228200000
| 23>  H        2.6456250000     0.9013830000     0.0808650000
| 24>  H        3.7354840000    -2.1534660000    -2.5913060000
| 25>  H        8.0224950000    -2.2117320000    -2.5481060000
| 26> *
| 27>
| 28>                          ****END OF INPUT****
 Total Charge           Charge          ....    0
 Multiplicity           Mult            ....    1
 Number of Electrons    NEL             ....   52
 Basis Dimension        Dim             ....  133

MULLIKEN ATOMIC CHARGES
-----------------------
   0 C :   -0.042572
   1 C :    0.166884
   2 O :   -0.277426
   3 N :    0.016349
   4 C :   -0.060615
   5 C :    0.400765
   6 C :   -0.387377
   7 H :    0.032386
   8 H :    0.035079
   9 H :    0.036119
  10 H :    0.015128
  11 H :    0.018619
  12 H :    0.033774
  13 H :    0.012887
Sum of atomic charges:   -0.0000000

LOEWDIN ATOMIC CHARGES
----------------------
   0 C :   -0.074624
   1 C :    0.056756
   2 O :   -0.071080
   3 N :    0.021783
   4 C :   -0.050978
   5 C :   -0.027841
   6 C :   -0.045557
   7 H :    0.037947
   8 H :    0.032046
   9 H :    0.032351
  10 H :    0.013970
  11 H :    0.014355
  12 H :    0.022305
  13 H :    0.038569

  Mayer bond orders larger than 0.1
B(  0-C ,  1-C ) :   1.1144 B(  0-C ,  7-H ) :   0.9578 B(  0-C ,  8-H ) :   0.9638
B(  0-C ,  9-H ) :   0.9639 B(  1-C ,  2-O ) :   0.9291 B(  1-C , 10-H ) :   0.9449
B(  1-C , 11-H ) :   0.9464 B(  2-O ,  3-N ) :   0.9926 B(  2-O ,  4-C ) :   0.1104
B(  3-N ,  4-C ) :   1.7881 B(  3-N ,  6-C ) :   0.1049 B(  4-C ,  5-C ) :   1.0225
B(  4-C , 12-H ) :   0.9385 B(  5-C ,  6-C ) :   2.2987 B(  6-C , 13-H ) :   1.0820

FINAL SINGLE POINT ENERGY      -323.942634463404

DIPOLE MOMENT
-------------
                                X             Y             Z
Electronic contribution:      7.04226      -2.81411      -3.69592
Nuclear contribution   :     -7.41288       2.88852       3.78659
                        -----------------------------------------
Total Dipole Moment    :     -0.37062       0.07442       0.09067
                        -----------------------------------------
Magnitude (a.u.)       :      0.38874
Magnitude (Debye)      :      0.98809

                             ****ORCA TERMINATED NORMALLY****
TOTAL RUN TIME: 0 days 0 hours 0 minutes 6 seconds 199 msec
