                         Program Version 3.0.3 - RELEASE   -
|  1> ! RI PBE def2-SVP def2-SVP/J NBO PAL2
|  2> % maxcore 2000
|  3> % output
|  4>     # printlevel mini
|  5>     print[ P_Basis ] 0
|  6>     print[ P_SCFInfo ] 1
|  7>     print[ P_SCFIterInfo ] 1
|  8>     print[ P_OrbEn ] 0
|  9>     print[ P_Cartesian ] 0
| 10> end
| 11> *xyz 0 1
| 12>  C        4.1565420000     3.5719880000     4.4351120000
| 13>  C        3.9716760000     2.4403840000     3.4533320000
| 14>  O        2.9618980000     1.7604840000     3.4445960000
| 15>  N        4.9987650000     2.2405430000     2.5965860000
| 16>  C        5.0027860000     1.1984250000     1.6054520000
| 17>  C        6.4039540000     0.6426650000     1.4390520000
| 18>  N        7.3310010000     1.7212450000     1.1185950000
| 19>  H        4.0474270000     3.1757750000     5.4456460000
| 20>  H        3.3570800000     4.2986540000     4.2817610000
| 21>  H        5.1202700000     4.0759160000     4.3480130000
| 22>  H        5.8192910000     2.8240930000     2.6258820000
| 23>  H        4.6388580000     1.5788730000     0.6402710000
| 24>  H        4.3045470000     0.4231890000     1.9245660000
| 25>  H        6.3791350000    -0.1625540000     0.6912220000
| 26>  H        6.7217610000     0.1976310000     2.3861820000
| 27>  H        7.1933360000     2.0400090000     0.1666910000
| 28>  H        8.2908630000     1.4117800000     1.1926600000
| 29> *
| 30>
| 31>                          ****END OF INPUT****
 Total Charge           Charge          ....    0
 Multiplicity           Mult            ....    1
 Number of Electrons    NEL             ....   56
 Basis Dimension        Dim             ....  148

MULLIKEN ATOMIC CHARGES
-----------------------
   0 C :    0.015820
   1 C :   -0.030080
   2 O :   -0.238198
   3 N :   -0.138659
   4 C :    0.118217
   5 C :    0.026355
   6 N :   -0.225803
   7 H :    0.045770
   8 H :    0.050644
   9 H :    0.004990
  10 H :    0.103829
  11 H :    0.013650
  12 H :    0.033639
  13 H :    0.013388
  14 H :    0.015262
  15 H :    0.093472
  16 H :    0.097704
Sum of atomic charges:    0.0000000

LOEWDIN ATOMIC CHARGES
----------------------
   0 C :   -0.090136
   1 C :    0.016728
   2 O :   -0.210140
   3 N :    0.003530
   4 C :    0.019003
   5 C :   -0.002111
   6 N :   -0.107450
   7 H :    0.046386
   8 H :    0.047636
   9 H :    0.022707
  10 H :    0.059233
  11 H :    0.017363
  12 H :    0.033418
  13 H :    0.009412
  14 H :    0.023496
  15 H :    0.054123
  16 H :    0.056803

  Mayer bond orders larger than 0.1
B(  0-C ,  1-C ) :   1.0232 B(  0-C ,  7-H ) :   0.9470 B(  0-C ,  8-H ) :   0.9469
B(  0-C ,  9-H ) :   0.9484 B(  1-C ,  2-O ) :   2.0409 B(  1-C ,  3-N ) :   1.2250
B(  3-N ,  4-C ) :   0.9941 B(  3-N , 10-H ) :   0.9020 B(  4-C ,  5-C ) :   1.0937
B(  4-C , 11-H ) :   0.9345 B(  4-C , 12-H ) :   0.9218 B(  5-C ,  6-N ) :   1.0682
B(  5-C , 13-H ) :   0.9332 B(  5-C , 14-H ) :   0.9377 B(  6-N , 15-H ) :   0.9689
B(  6-N , 16-H ) :   0.9664

FINAL SINGLE POINT ENERGY      -342.514155409681

DIPOLE MOMENT
-------------
                                X             Y             Z
Electronic contribution:     -3.87185      -0.28051       1.14025
Nuclear contribution   :      5.45909       0.44512      -1.85609
                        -----------------------------------------
Total Dipole Moment    :      1.58724       0.16461      -0.71584
                        -----------------------------------------
Magnitude (a.u.)       :      1.74896
Magnitude (Debye)      :      4.44549

                             ****ORCA TERMINATED NORMALLY****
TOTAL RUN TIME: 0 days 0 hours 0 minutes 6 seconds 600 msec
