                         Program Version 3.0.3 - RELEASE   -
|  1> ! RI PBE def2-SVP def2-SVP/J NBO PAL2
|  2> % maxcore 2000
|  3> % output
|  4>     # printlevel mini
|  5>     print[ P_Basis ] 0
|  6>     print[ P_SCFInfo ] 1
|  7>     print[ P_SCFIterInfo ] 1
|  8>     print[ P_OrbEn ] 0
|  9>     print[ P_Cartesian ] 0
| 10> end
| 11> *xyz 0 1
| 12>  C        0.8612050000    -0.1470010000     0.1667750000
| 13>  C        2.3139220000    -0.3511230000    -0.1682150000
| 14>  O        2.6840480000    -1.1316650000    -1.0183680000
| 15>  N        3.1919370000     0.4058730000     0.5534960000
| 16>  C        4.6108010000     0.2609360000     0.3756770000
| 17>  C        5.2881490000    -0.1446110000     1.6052140000
| 18>  N        5.8150080000    -0.4348350000     2.5843400000
| 19>  H        0.3143930000     0.0399480000    -0.7575060000
| 20>  H        0.6822690000     0.6702040000     0.8665020000
| 21>  H        0.4748740000    -1.0733950000     0.5957880000
| 22>  H        2.8492310000     1.0128060000     1.2771370000
| 23>  H        5.0727940000     1.1856970000     0.0149830000
| 24>  H        4.7510580000    -0.5061130000    -0.3914120000
| 25> *
| 26>
| 27>                          ****END OF INPUT****
 Total Charge           Charge          ....    0
 Multiplicity           Mult            ....    1
 Number of Electrons    NEL             ....   52
 Basis Dimension        Dim             ....  128

MULLIKEN ATOMIC CHARGES
-----------------------
   0 C :    0.016606
   1 C :   -0.009687
   2 O :   -0.214536
   3 N :   -0.157592
   4 C :    0.212780
   5 C :   -0.291354
   6 N :    0.046259
   7 H :    0.059442
   8 H :    0.015058
   9 H :    0.065370
  10 H :    0.122059
  11 H :    0.062138
  12 H :    0.073458
Sum of atomic charges:   -0.0000000

LOEWDIN ATOMIC CHARGES
----------------------
   0 C :   -0.084627
   1 C :    0.033953
   2 O :   -0.183076
   3 N :    0.002976
   4 C :    0.010159
   5 C :   -0.057140
   6 N :   -0.053559
   7 H :    0.053507
   8 H :    0.027502
   9 H :    0.056305
  10 H :    0.077081
  11 H :    0.053350
  12 H :    0.063568

  Mayer bond orders larger than 0.1
B(  0-C ,  1-C ) :   1.0346 B(  0-C ,  7-H ) :   0.9432 B(  0-C ,  8-H ) :   0.9471
B(  0-C ,  9-H ) :   0.9423 B(  1-C ,  2-O ) :   2.0495 B(  1-C ,  3-N ) :   1.1700
B(  3-N ,  4-C ) :   1.0106 B(  3-N , 10-H ) :   0.9240 B(  4-C ,  5-C ) :   1.0982
B(  4-C , 11-H ) :   0.9080 B(  4-C , 12-H ) :   0.8651 B(  5-C ,  6-N ) :   3.0572

FINAL SINGLE POINT ENERGY      -340.103609227410

DIPOLE MOMENT
-------------
                                X             Y             Z
Electronic contribution:      5.32642      -1.29515       1.36786
Nuclear contribution   :     -6.26111       2.48418      -1.54953
                        -----------------------------------------
Total Dipole Moment    :     -0.93470       1.18903      -0.18167
                        -----------------------------------------
Magnitude (a.u.)       :      1.52330
Magnitude (Debye)      :      3.87193

                             ****ORCA TERMINATED NORMALLY****
TOTAL RUN TIME: 0 days 0 hours 0 minutes 5 seconds 976 msec
