                         Program Version 3.0.3 - RELEASE   -
|  1> ! RI PBE def2-SVP def2-SVP/J NBO PAL2
|  2> % maxcore 2000
|  3> % output
|  4>     # printlevel mini
|  5>     print[ P_Basis ] 0
|  6>     print[ P_SCFInfo ] 1
|  7>     print[ P_SCFIterInfo ] 1
|  8>     print[ P_OrbEn ] 0
|  9>     print[ P_Cartesian ] 0
| 10> end
| 11> *xyz 0 1
| 12>  C        1.1126190000    -0.0606680000    -0.1437640000
| 13>  C        2.6156030000     0.0126910000     0.0524880000
| 14>  O        3.0378670000     1.2980110000     0.4916340000
| 15>  N        3.0693210000     2.1468470000    -0.5940730000
| 16>  C        3.3844970000     3.3238240000    -0.2602920000
| 17>  C        3.0731310000    -0.9402250000     1.0655220000
| 18>  N        3.4038210000    -1.7177740000     1.8434790000
| 19>  H        0.8225160000     0.6611410000    -0.9077060000
| 20>  H        0.5967180000     0.1717750000     0.7884820000
| 21>  H        0.8201920000    -1.0599760000    -0.4702200000
| 22>  H        3.1327410000    -0.2195480000    -0.8849900000
| 23>  H        3.4444880000     4.0505950000    -1.0610620000
| 24>  H        3.5925860000     3.6105070000     0.7690040000
| 25> *
| 26>
| 27>                          ****END OF INPUT****
 Total Charge           Charge          ....    0
 Multiplicity           Mult            ....    1
 Number of Electrons    NEL             ....   52
 Basis Dimension        Dim             ....  128

MULLIKEN ATOMIC CHARGES
-----------------------
   0 C :    0.010780
   1 C :    0.124499
   2 O :   -0.266741
   3 N :   -0.009054
   4 C :   -0.011446
   5 C :   -0.191950
   6 N :    0.051026
   7 H :    0.045947
   8 H :    0.045969
   9 H :    0.043974
  10 H :    0.047834
  11 H :    0.064273
  12 H :    0.044889
Sum of atomic charges:    0.0000000

LOEWDIN ATOMIC CHARGES
----------------------
   0 C :   -0.055375
   1 C :    0.021463
   2 O :   -0.068783
   3 N :    0.012672
   4 C :   -0.030609
   5 C :   -0.042694
   6 N :   -0.043919
   7 H :    0.037983
   8 H :    0.038629
   9 H :    0.042250
  10 H :    0.042129
  11 H :    0.032652
  12 H :    0.013602

  Mayer bond orders larger than 0.1
B(  0-C ,  1-C ) :   1.1139 B(  0-C ,  7-H ) :   0.9484 B(  0-C ,  8-H ) :   0.9497
B(  0-C ,  9-H ) :   0.9515 B(  1-C ,  2-O ) :   0.9913 B(  1-C ,  5-C ) :   1.0285
B(  1-C , 10-H ) :   0.8963 B(  2-O ,  3-N ) :   0.9624 B(  2-O ,  4-C ) :   0.1138
B(  3-N ,  4-C ) :   1.9435 B(  4-C , 11-H ) :   0.9515 B(  4-C , 12-H ) :   0.9336
B(  5-C ,  6-N ) :   3.0719

FINAL SINGLE POINT ENERGY      -340.008805693007

DIPOLE MOMENT
-------------
                                X             Y             Z
Electronic contribution:      3.58054      -2.20200       2.63218
Nuclear contribution   :     -4.07806       3.21040      -3.49691
                        -----------------------------------------
Total Dipole Moment    :     -0.49752       1.00839      -0.86472
                        -----------------------------------------
Magnitude (a.u.)       :      1.41850
Magnitude (Debye)      :      3.60553

                             ****ORCA TERMINATED NORMALLY****
TOTAL RUN TIME: 0 days 0 hours 0 minutes 5 seconds 520 msec
