                         Program Version 3.0.3 - RELEASE   -
|  1> ! RI PBE def2-SVP def2-SVP/J NBO PAL2
|  2> % maxcore 2000
|  3> % output
|  4>     # printlevel mini
|  5>     print[ P_Basis ] 0
|  6>     print[ P_SCFInfo ] 1
|  7>     print[ P_SCFIterInfo ] 1
|  8>     print[ P_OrbEn ] 0
|  9>     print[ P_Cartesian ] 0
| 10> end
| 11> *xyz 0 1
| 12>  C        1.1051280000    -0.2085290000    -0.4609150000
| 13>  C        2.5568710000    -0.2983930000    -0.0682210000
| 14>  O        3.0564180000    -1.5321800000    -0.5608890000
| 15>  N        4.3842970000    -1.6611560000    -0.2284370000
| 16>  C        4.8756910000    -2.7549720000    -0.6370530000
| 17>  C        6.3081990000    -3.0632310000    -0.3687260000
| 18>  N        6.4130790000    -4.3224660000     0.3544660000
| 19>  H        0.6808560000     0.7308320000    -0.1005050000
| 20>  H        0.5327060000    -1.0320720000    -0.0296300000
| 21>  H        0.9921750000    -0.2425040000    -1.5462790000
| 22>  H        2.6781210000    -0.2665440000     1.0201670000
| 23>  H        3.1380540000     0.5250670000    -0.4974390000
| 24>  H        4.2665840000    -3.4912160000    -1.1643190000
| 25>  H        6.7603170000    -2.1967490000     0.1315090000
| 26>  H        6.8201360000    -3.1903350000    -1.3296800000
| 27>  H        6.0645070000    -4.2145240000     1.2989460000
| 28>  H        7.3782500000    -4.6184280000     0.4198240000
| 29> *
| 30>
| 31>                          ****END OF INPUT****
 Total Charge           Charge          ....    0
 Multiplicity           Mult            ....    1
 Number of Electrons    NEL             ....   56
 Basis Dimension        Dim             ....  148

MULLIKEN ATOMIC CHARGES
-----------------------
   0 C :   -0.047500
   1 C :    0.167910
   2 O :   -0.288162
   3 N :    0.009086
   4 C :   -0.075901
   5 C :    0.136637
   6 N :   -0.229405
   7 H :    0.025063
   8 H :    0.035356
   9 H :    0.036437
  10 H :    0.011539
  11 H :    0.004397
  12 H :    0.005884
  13 H :    0.001592
  14 H :    0.020846
  15 H :    0.093483
  16 H :    0.092738
Sum of atomic charges:   -0.0000000

LOEWDIN ATOMIC CHARGES
----------------------
   0 C :   -0.077087
   1 C :    0.051065
   2 O :   -0.091720
   3 N :   -0.004178
   4 C :   -0.036040
   5 C :   -0.002439
   6 N :   -0.109462
   7 H :    0.034830
   8 H :    0.031363
   9 H :    0.031444
  10 H :    0.009429
  11 H :    0.008655
  12 H :    0.006807
  13 H :    0.007960
  14 H :    0.032883
  15 H :    0.053065
  16 H :    0.053425

  Mayer bond orders larger than 0.1
B(  0-C ,  1-C ) :   1.1146 B(  0-C ,  7-H ) :   0.9572 B(  0-C ,  8-H ) :   0.9632
B(  0-C ,  9-H ) :   0.9643 B(  1-C ,  2-O ) :   0.9493 B(  1-C , 10-H ) :   0.9449
B(  1-C , 11-H ) :   0.9412 B(  2-O ,  3-N ) :   0.9566 B(  2-O ,  4-C ) :   0.1114
B(  3-N ,  4-C ) :   1.8874 B(  4-C ,  5-C ) :   1.0492 B(  4-C , 12-H ) :   0.9414
B(  5-C ,  6-N ) :   1.0666 B(  5-C , 13-H ) :   0.9184 B(  5-C , 14-H ) :   0.9161
B(  6-N , 15-H ) :   0.9718 B(  6-N , 16-H ) :   0.9654

FINAL SINGLE POINT ENERGY      -342.421873534653

DIPOLE MOMENT
-------------
                                X             Y             Z
Electronic contribution:      1.79013      -1.55429      -0.57401
Nuclear contribution   :     -1.52213       1.70650       0.83502
                        -----------------------------------------
Total Dipole Moment    :      0.26800       0.15221       0.26100
                        -----------------------------------------
Magnitude (a.u.)       :      0.40387
Magnitude (Debye)      :      1.02656

                             ****ORCA TERMINATED NORMALLY****
TOTAL RUN TIME: 0 days 0 hours 0 minutes 7 seconds 170 msec
