                         Program Version 3.0.3 - RELEASE   -
|  1> ! RI PBE def2-SVP def2-SVP/J NBO PAL2
|  2> % maxcore 2000
|  3> % output
|  4>     # printlevel mini
|  5>     print[ P_Basis ] 0
|  6>     print[ P_SCFInfo ] 1
|  7>     print[ P_SCFIterInfo ] 1
|  8>     print[ P_OrbEn ] 0
|  9>     print[ P_Cartesian ] 0
| 10> end
| 11> *xyz 0 1
| 12>  C        0.3048910000     0.0309660000    -0.6960020000
| 13>  C        1.7934120000     0.1955340000    -0.5533360000
| 14>  O        2.1861030000    -0.4942680000     0.6391030000
| 15>  N        3.5142680000    -0.3861590000     0.8277360000
| 16>  C        3.8963070000    -0.9915040000     1.8836970000
| 17>  C        5.2774140000    -0.9695850000     2.2208030000
| 18>  N        6.3818240000    -0.9875670000     2.5460140000
| 19>  H       -0.0337180000     0.5464180000    -1.5966520000
| 20>  H       -0.2206110000     0.4571230000     0.1604260000
| 21>  H        0.0330250000    -1.0225740000    -0.7816490000
| 22>  H        2.0793560000     1.2466310000    -0.4585310000
| 23>  H        2.3336730000    -0.2363810000    -1.4001650000
| 24>  H        3.2070560000    -1.5243430000     2.5367650000
| 25> *
| 26>
| 27>                          ****END OF INPUT****
 Total Charge           Charge          ....    0
 Multiplicity           Mult            ....    1
 Number of Electrons    NEL             ....   52
 Basis Dimension        Dim             ....  128

MULLIKEN ATOMIC CHARGES
-----------------------
   0 C :   -0.046738
   1 C :    0.156258
   2 O :   -0.264857
   3 N :    0.037772
   4 C :   -0.099774
   5 C :   -0.056770
   6 N :    0.042719
   7 H :    0.037767
   8 H :    0.042487
   9 H :    0.040262
  10 H :    0.031128
  11 H :    0.025252
  12 H :    0.054494
Sum of atomic charges:   -0.0000000

LOEWDIN ATOMIC CHARGES
----------------------
   0 C :   -0.073985
   1 C :    0.060760
   2 O :   -0.055030
   3 N :    0.041611
   4 C :   -0.066951
   5 C :   -0.049105
   6 N :   -0.037094
   7 H :    0.041307
   8 H :    0.034905
   9 H :    0.034275
  10 H :    0.019351
  11 H :    0.018691
  12 H :    0.031265

  Mayer bond orders larger than 0.1
B(  0-C ,  1-C ) :   1.1169 B(  0-C ,  7-H ) :   0.9561 B(  0-C ,  8-H ) :   0.9636
B(  0-C ,  9-H ) :   0.9645 B(  1-C ,  2-O ) :   0.9110 B(  1-C , 10-H ) :   0.9491
B(  1-C , 11-H ) :   0.9458 B(  2-O ,  3-N ) :   1.0286 B(  2-O ,  4-C ) :   0.1243
B(  3-N ,  4-C ) :   1.8207 B(  4-C ,  5-C ) :   1.0926 B(  4-C , 12-H ) :   0.9466
B(  5-C ,  6-N ) :   2.9638

FINAL SINGLE POINT ENERGY      -340.016806508526

DIPOLE MOMENT
-------------
                                X             Y             Z
Electronic contribution:      9.47426      -2.15931       5.96204
Nuclear contribution   :    -11.21149       2.28176      -6.61708
                        -----------------------------------------
Total Dipole Moment    :     -1.73722       0.12245      -0.65503
                        -----------------------------------------
Magnitude (a.u.)       :      1.86065
Magnitude (Debye)      :      4.72939

                             ****ORCA TERMINATED NORMALLY****
TOTAL RUN TIME: 0 days 0 hours 0 minutes 5 seconds 578 msec
