                         Program Version 3.0.3 - RELEASE   -
|  1> ! RI PBE def2-SVP def2-SVP/J NBO PAL2
|  2> % maxcore 2000
|  3> % output
|  4>     # printlevel mini
|  5>     print[ P_Basis ] 0
|  6>     print[ P_SCFInfo ] 1
|  7>     print[ P_SCFIterInfo ] 1
|  8>     print[ P_OrbEn ] 0
|  9>     print[ P_Cartesian ] 0
| 10> end
| 11> *xyz 0 1
| 12>  C        7.1547720000     2.5046080000     1.9957800000
| 13>  C        6.8643600000     1.1439590000     2.5730460000
| 14>  O        7.3664170000     0.1761210000     1.6548380000
| 15>  N        7.1262040000    -1.1069760000     2.1335080000
| 16>  C        6.1208400000    -1.7791790000     1.3452430000
| 17>  C        8.2815910000    -1.7885870000     2.4754430000
| 18>  N        9.4527420000    -1.3362590000     2.6180320000
| 19>  H        6.7811210000     3.2793350000     2.6681940000
| 20>  H        6.6702540000     2.6276700000     1.0254130000
| 21>  H        8.2285000000     2.6526900000     1.8659200000
| 22>  H        5.7867850000     0.9932290000     2.7080920000
| 23>  H        7.3501930000     1.0081950000     3.5452150000
| 24>  H        5.1675800000    -1.2581540000     1.4438210000
| 25>  H        5.9990960000    -2.7923570000     1.7309490000
| 26>  H        6.3949580000    -1.8280260000     0.2851020000
| 27>  H        8.0731380000    -2.8393070000     2.6875560000
| 28>  H        9.4804590000    -0.3514620000     2.3527280000
| 29> *
| 30>
| 31>                          ****END OF INPUT****
 Total Charge           Charge          ....    0
 Multiplicity           Mult            ....    1
 Number of Electrons    NEL             ....   56
 Basis Dimension        Dim             ....  148

MULLIKEN ATOMIC CHARGES
-----------------------
   0 C :   -0.043551
   1 C :    0.147391
   2 O :   -0.297935
   3 N :   -0.117154
   4 C :    0.105155
   5 C :    0.007381
   6 N :   -0.132792
   7 H :    0.034664
   8 H :    0.033471
   9 H :    0.037797
  10 H :    0.014865
  11 H :    0.020662
  12 H :    0.031312
  13 H :    0.035287
  14 H :    0.034086
  15 H :    0.007710
  16 H :    0.081651
Sum of atomic charges:    0.0000000

LOEWDIN ATOMIC CHARGES
----------------------
   0 C :   -0.075345
   1 C :    0.055511
   2 O :   -0.105323
   3 N :    0.018397
   4 C :    0.005794
   5 C :   -0.003216
   6 N :   -0.149561
   7 H :    0.038381
   8 H :    0.032186
   9 H :    0.032665
  10 H :    0.008631
  11 H :    0.011866
  12 H :    0.024264
  13 H :    0.033791
  14 H :    0.018999
  15 H :    0.015170
  16 H :    0.037790

  Mayer bond orders larger than 0.1
B(  0-C ,  1-C ) :   1.1197 B(  0-C ,  7-H ) :   0.9564 B(  0-C ,  8-H ) :   0.9607
B(  0-C ,  9-H ) :   0.9649 B(  1-C ,  2-O ) :   0.9317 B(  1-C , 10-H ) :   0.9438
B(  1-C , 11-H ) :   0.9451 B(  2-O ,  3-N ) :   0.9215 B(  3-N ,  4-C ) :   0.9951
B(  3-N ,  5-C ) :   1.0759 B(  3-N ,  6-N ) :   0.1034 B(  4-C , 12-H ) :   0.9665
B(  4-C , 13-H ) :   0.9556 B(  4-C , 14-H ) :   0.9570 B(  5-C ,  6-N ) :   2.0340
B(  5-C , 15-H ) :   0.9340 B(  6-N , 16-H ) :   0.9361

FINAL SINGLE POINT ENERGY      -342.420954129834

DIPOLE MOMENT
-------------
                                X             Y             Z
Electronic contribution:      3.08503      -3.62762       0.46002
Nuclear contribution   :     -4.37135       4.05344      -0.62826
                        -----------------------------------------
Total Dipole Moment    :     -1.28632       0.42581      -0.16825
                        -----------------------------------------
Magnitude (a.u.)       :      1.36537
Magnitude (Debye)      :      3.47050

                             ****ORCA TERMINATED NORMALLY****
TOTAL RUN TIME: 0 days 0 hours 0 minutes 7 seconds 596 msec
