                         Program Version 3.0.3 - RELEASE   -
|  1> ! RI PBE def2-SVP def2-SVP/J NBO PAL2
|  2> % maxcore 2000
|  3> % output
|  4>     # printlevel mini
|  5>     print[ P_Basis ] 0
|  6>     print[ P_SCFInfo ] 1
|  7>     print[ P_SCFIterInfo ] 1
|  8>     print[ P_OrbEn ] 0
|  9>     print[ P_Cartesian ] 0
| 10> end
| 11> *xyz 0 1
| 12>  C        0.8811690000    -1.2591140000    -2.9936660000
| 13>  C        2.2468300000    -1.5958370000    -2.4548770000
| 14>  O        2.9998890000    -0.3866650000    -2.4210000000
| 15>  N        4.2844740000    -0.6399130000    -1.9610700000
| 16>  C        5.2973150000    -0.3506830000    -2.8786330000
| 17>  C        6.6532560000    -0.3269170000    -2.2441660000
| 18>  N        5.1433820000    -0.1833870000    -4.1238960000
| 19>  H        0.2641920000    -2.1592360000    -3.0271570000
| 20>  H        0.9486450000    -0.8520300000    -4.0043270000
| 21>  H        0.3827350000    -0.5240200000    -2.3589560000
| 22>  H        2.7611140000    -2.3258620000    -3.0892640000
| 23>  H        2.1832890000    -2.0120550000    -1.4427540000
| 24>  H        4.4055240000    -0.1940950000    -1.0590110000
| 25>  H        6.8428260000    -1.2470340000    -1.6864920000
| 26>  H        6.7427220000     0.5118720000    -1.5470150000
| 27>  H        7.4009990000    -0.2140290000    -3.0254110000
| 28>  H        4.1500510000    -0.1991960000    -4.3543150000
| 29> *
| 30>
| 31>                          ****END OF INPUT****
 Total Charge           Charge          ....    0
 Multiplicity           Mult            ....    1
 Number of Electrons    NEL             ....   56
 Basis Dimension        Dim             ....  148

MULLIKEN ATOMIC CHARGES
-----------------------
   0 C :   -0.052347
   1 C :    0.156934
   2 O :   -0.315210
   3 N :    0.009007
   4 C :   -0.182003
   5 C :    0.022024
   6 N :   -0.088323
   7 H :    0.035628
   8 H :    0.037181
   9 H :    0.039279
  10 H :    0.019652
  11 H :    0.004087
  12 H :    0.118940
  13 H :    0.040392
  14 H :    0.035764
  15 H :    0.039710
  16 H :    0.079286
Sum of atomic charges:   -0.0000000

LOEWDIN ATOMIC CHARGES
----------------------
   0 C :   -0.078414
   1 C :    0.053846
   2 O :   -0.115411
   3 N :    0.044403
   4 C :   -0.020457
   5 C :   -0.072081
   6 N :   -0.150813
   7 H :    0.038222
   8 H :    0.032860
   9 H :    0.032727
  10 H :    0.010785
  11 H :    0.006741
  12 H :    0.060886
  13 H :    0.037713
  14 H :    0.036864
  15 H :    0.046140
  16 H :    0.035989

  Mayer bond orders larger than 0.1
B(  0-C ,  1-C ) :   1.1208 B(  0-C ,  7-H ) :   0.9565 B(  0-C ,  8-H ) :   0.9612
B(  0-C ,  9-H ) :   0.9613 B(  1-C ,  2-O ) :   0.9335 B(  1-C , 10-H ) :   0.9484
B(  1-C , 11-H ) :   0.9417 B(  2-O ,  3-N ) :   0.9520 B(  3-N ,  4-C ) :   1.0658
B(  3-N , 12-H ) :   0.9246 B(  4-C ,  5-C ) :   1.0335 B(  4-C ,  6-N ) :   2.0773
B(  5-C , 13-H ) :   0.9551 B(  5-C , 14-H ) :   0.9495 B(  5-C , 15-H ) :   0.9450
B(  6-N , 16-H ) :   0.9213

FINAL SINGLE POINT ENERGY      -342.432660276023

DIPOLE MOMENT
-------------
                                X             Y             Z
Electronic contribution:      2.14101       1.94378      -0.36891
Nuclear contribution   :     -2.66783      -2.26052       1.40790
                        -----------------------------------------
Total Dipole Moment    :     -0.52683      -0.31674       1.03899
                        -----------------------------------------
Magnitude (a.u.)       :      1.20722
Magnitude (Debye)      :      3.06850

                             ****ORCA TERMINATED NORMALLY****
TOTAL RUN TIME: 0 days 0 hours 0 minutes 7 seconds 467 msec
