                         Program Version 3.0.3 - RELEASE   -
|  1> ! RI PBE def2-SVP def2-SVP/J NBO PAL2
|  2> % maxcore 2000
|  3> % output
|  4>     # printlevel mini
|  5>     print[ P_Basis ] 0
|  6>     print[ P_SCFInfo ] 1
|  7>     print[ P_SCFIterInfo ] 1
|  8>     print[ P_OrbEn ] 0
|  9>     print[ P_Cartesian ] 0
| 10> end
| 11> *xyz 0 1
| 12>  C        0.3906560000    -0.0422020000    -0.1618670000
| 13>  C        1.8015690000    -0.2878390000     0.3123810000
| 14>  O        2.0403710000    -0.8934660000     1.3381940000
| 15>  N        2.7862260000     0.2138840000    -0.4781690000
| 16>  C        4.1823440000     0.1320690000    -0.1061600000
| 17>  C        4.8309920000    -1.1654730000    -0.5535790000
| 18>  O        4.7933280000    -1.3297740000    -1.9552590000
| 19>  H       -0.1332070000    -0.9974430000    -0.2094230000
| 20>  H        0.3314230000     0.4499790000    -1.1338970000
| 21>  H       -0.1209280000     0.5734490000     0.5800840000
| 22>  H        2.5303640000     0.7582400000    -1.2818630000
| 23>  H        4.2553640000     0.2171950000     0.9812150000
| 24>  H        4.7042700000     0.9769790000    -0.5610650000
| 25>  H        4.3527020000    -2.0070130000    -0.0393740000
| 26>  H        5.8862130000    -1.1543600000    -0.2701730000
| 27>  H        3.8831240000    -1.5127160000    -2.2017260000
| 28> *
| 29>
| 30>                          ****END OF INPUT****
 Total Charge           Charge          ....    0
 Multiplicity           Mult            ....    1
 Number of Electrons    NEL             ....   56
 Basis Dimension        Dim             ....  143

MULLIKEN ATOMIC CHARGES
-----------------------
   0 C :    0.022666
   1 C :   -0.026535
   2 O :   -0.228463
   3 N :   -0.149984
   4 C :    0.073768
   5 C :    0.160809
   6 O :   -0.296536
   7 H :    0.052751
   8 H :    0.001101
   9 H :    0.058084
  10 H :    0.109929
  11 H :    0.028551
  12 H :    0.013188
  13 H :    0.019770
  14 H :    0.016328
  15 H :    0.144573
Sum of atomic charges:   -0.0000000

LOEWDIN ATOMIC CHARGES
----------------------
   0 C :   -0.089568
   1 C :    0.021432
   2 O :   -0.199731
   3 N :   -0.002513
   4 C :    0.001482
   5 C :    0.048452
   6 O :   -0.126547
   7 H :    0.049232
   8 H :    0.022497
   9 H :    0.051628
  10 H :    0.069155
  11 H :    0.032159
  12 H :    0.024758
  13 H :    0.013247
  14 H :    0.024043
  15 H :    0.060274

  Mayer bond orders larger than 0.1
B(  0-C ,  1-C ) :   1.0337 B(  0-C ,  7-H ) :   0.9447 B(  0-C ,  8-H ) :   0.9438
B(  0-C ,  9-H ) :   0.9436 B(  1-C ,  2-O ) :   2.0368 B(  1-C ,  3-N ) :   1.1972
B(  3-N ,  4-C ) :   1.0061 B(  3-N , 10-H ) :   0.9248 B(  4-C ,  5-C ) :   1.0706
B(  4-C , 11-H ) :   0.9144 B(  4-C , 12-H ) :   0.9347 B(  5-C ,  6-O ) :   1.0541
B(  5-C , 13-H ) :   0.9357 B(  5-C , 14-H ) :   0.9387 B(  6-O , 15-H ) :   0.9842

FINAL SINGLE POINT ENERGY      -362.350583286309

DIPOLE MOMENT
-------------
                                X             Y             Z
Electronic contribution:      0.71663      -0.96751       0.89139
Nuclear contribution   :     -1.17581       1.68739      -1.68417
                        -----------------------------------------
Total Dipole Moment    :     -0.45918       0.71987      -0.79278
                        -----------------------------------------
Magnitude (a.u.)       :      1.16515
Magnitude (Debye)      :      2.96156

                             ****ORCA TERMINATED NORMALLY****
TOTAL RUN TIME: 0 days 0 hours 0 minutes 7 seconds 268 msec
