                         Program Version 3.0.3 - RELEASE   -
|  1> ! RI PBE def2-SVP def2-SVP/J NBO PAL2
|  2> % maxcore 2000
|  3> % output
|  4>     # printlevel mini
|  5>     print[ P_Basis ] 0
|  6>     print[ P_SCFInfo ] 1
|  7>     print[ P_SCFIterInfo ] 1
|  8>     print[ P_OrbEn ] 0
|  9>     print[ P_Cartesian ] 0
| 10> end
| 11> *xyz 0 1
| 12>  C        3.3850250000     1.1946730000     1.1966380000
| 13>  C        2.6149790000     0.2768670000     0.3046040000
| 14>  O        1.4087470000     0.2363050000     0.2657620000
| 15>  N        3.3207730000    -0.5884110000    -0.5370420000
| 16>  C        4.6819630000    -0.7608810000    -0.7053790000
| 17>  C        5.0550240000    -1.8082250000    -1.7238950000
| 18>  O        5.5152600000    -0.1349550000    -0.0971910000
| 19>  H        2.6688730000     1.7813900000     1.7674600000
| 20>  H        4.0395430000     1.8421990000     0.6115810000
| 21>  H        4.0401440000     0.6283320000     1.8600030000
| 22>  H        2.7020130000    -1.1600860000    -1.0925870000
| 23>  H        4.2020730000    -2.2949710000    -2.1967910000
| 24>  H        5.6714740000    -2.5615150000    -1.2308490000
| 25>  H        5.6709210000    -1.3362430000    -2.4910040000
| 26> *
| 27>
| 28>                          ****END OF INPUT****
 Total Charge           Charge          ....    0
 Multiplicity           Mult            ....    1
 Number of Electrons    NEL             ....   54
 Basis Dimension        Dim             ....  133

MULLIKEN ATOMIC CHARGES
-----------------------
   0 C :    0.040734
   1 C :   -0.025780
   2 O :   -0.173555
   3 N :   -0.060208
   4 C :   -0.004218
   5 C :    0.010156
   6 O :   -0.195720
   7 H :    0.036265
   8 H :    0.053378
   9 H :    0.053189
  10 H :    0.120388
  11 H :    0.015400
  12 H :    0.064979
  13 H :    0.064991
Sum of atomic charges:   -0.0000000

LOEWDIN ATOMIC CHARGES
----------------------
   0 C :   -0.083811
   1 C :    0.060188
   2 O :   -0.151733
   3 N :    0.011976
   4 C :    0.043052
   5 C :   -0.086243
   6 O :   -0.156654
   7 H :    0.039940
   8 H :    0.050905
   9 H :    0.050820
  10 H :    0.082302
  11 H :    0.028125
  12 H :    0.055559
  13 H :    0.055574

  Mayer bond orders larger than 0.1
B(  0-C ,  1-C ) :   1.0666 B(  0-C ,  7-H ) :   0.9419 B(  0-C ,  8-H ) :   0.9270
B(  0-C ,  9-H ) :   0.9273 B(  1-C ,  2-O ) :   2.1476 B(  1-C ,  3-N ) :   1.0524
B(  3-N ,  4-C ) :   1.1121 B(  3-N , 10-H ) :   0.8972 B(  4-C ,  5-C ) :   1.0323
B(  4-C ,  6-O ) :   2.0754 B(  5-C , 11-H ) :   0.9486 B(  5-C , 12-H ) :   0.9435
B(  5-C , 13-H ) :   0.9435

FINAL SINGLE POINT ENERGY      -361.185840612282

DIPOLE MOMENT
-------------
                                X             Y             Z
Electronic contribution:     -2.47547       0.77539       0.75483
Nuclear contribution   :      2.80009      -1.41363      -1.37579
                        -----------------------------------------
Total Dipole Moment    :      0.32462      -0.63824      -0.62096
                        -----------------------------------------
Magnitude (a.u.)       :      0.94780
Magnitude (Debye)      :      2.40911

                             ****ORCA TERMINATED NORMALLY****
TOTAL RUN TIME: 0 days 0 hours 0 minutes 6 seconds 731 msec
