                         Program Version 3.0.3 - RELEASE   -
|  1> ! RI PBE def2-SVP def2-SVP/J NBO PAL2
|  2> % maxcore 2000
|  3> % output
|  4>     # printlevel mini
|  5>     print[ P_Basis ] 0
|  6>     print[ P_SCFInfo ] 1
|  7>     print[ P_SCFIterInfo ] 1
|  8>     print[ P_OrbEn ] 0
|  9>     print[ P_Cartesian ] 0
| 10> end
| 11> *xyz 0 1
| 12>  C        1.1121070000     0.4977650000     0.1638950000
| 13>  C        2.5993660000     0.3596820000     0.3711990000
| 14>  O        3.1851770000     0.8197380000     1.3315960000
| 15>  N        3.2541740000    -0.3226520000    -0.6010520000
| 16>  C        4.6629710000    -0.5345270000    -0.5445850000
| 17>  C        5.1336320000    -1.3102390000    -1.7331270000
| 18>  O        4.4079720000    -1.6957510000    -2.6100230000
| 19>  H        0.6929050000     1.0581550000     0.9959170000
| 20>  H        0.6357260000    -0.4843160000     0.1121250000
| 21>  H        0.8985180000     1.0226090000    -0.7704640000
| 22>  H        2.7736020000    -0.7059640000    -1.4002220000
| 23>  H        4.9642590000    -1.0775630000     0.3627130000
| 24>  H        5.2228920000     0.4109080000    -0.5062070000
| 25>  H        6.2226180000    -1.5132650000    -1.7573660000
| 26> *
| 27>
| 28>                          ****END OF INPUT****
 Total Charge           Charge          ....    0
 Multiplicity           Mult            ....    1
 Number of Electrons    NEL             ....   54
 Basis Dimension        Dim             ....  133

MULLIKEN ATOMIC CHARGES
-----------------------
   0 C :    0.000684
   1 C :   -0.011849
   2 O :   -0.225667
   3 N :   -0.153619
   4 C :    0.136804
   5 C :    0.063170
   6 O :   -0.171644
   7 H :    0.043277
   8 H :    0.043022
   9 H :    0.043126
  10 H :    0.111173
  11 H :    0.052696
  12 H :    0.054241
  13 H :    0.014587
Sum of atomic charges:   -0.0000000

LOEWDIN ATOMIC CHARGES
----------------------
   0 C :   -0.090458
   1 C :    0.025447
   2 O :   -0.195883
   3 N :   -0.006287
   4 C :   -0.011184
   5 C :    0.092538
   6 O :   -0.107493
   7 H :    0.043954
   8 H :    0.041429
   9 H :    0.041339
  10 H :    0.064500
  11 H :    0.050184
  12 H :    0.050783
  13 H :    0.001131

  Mayer bond orders larger than 0.1
B(  0-C ,  1-C ) :   1.0280 B(  0-C ,  7-H ) :   0.9503 B(  0-C ,  8-H ) :   0.9483
B(  0-C ,  9-H ) :   0.9488 B(  1-C ,  2-O ) :   2.0683 B(  1-C ,  3-N ) :   1.1904
B(  3-N ,  4-C ) :   1.0254 B(  3-N , 10-H ) :   0.9100 B(  4-C ,  5-C ) :   0.9752
B(  4-C , 11-H ) :   0.9046 B(  4-C , 12-H ) :   0.9027 B(  5-C ,  6-O ) :   2.1428
B(  5-C , 13-H ) :   0.9267

FINAL SINGLE POINT ENERGY      -361.155803243408

DIPOLE MOMENT
-------------
                                X             Y             Z
Electronic contribution:      2.80828      -1.14496      -1.12186
Nuclear contribution   :     -2.69671       0.84516       0.64478
                        -----------------------------------------
Total Dipole Moment    :      0.11157      -0.29980      -0.47708
                        -----------------------------------------
Magnitude (a.u.)       :      0.57439
Magnitude (Debye)      :      1.45999

                             ****ORCA TERMINATED NORMALLY****
TOTAL RUN TIME: 0 days 0 hours 0 minutes 6 seconds 78 msec
