                         Program Version 3.0.3 - RELEASE   -
|  1> ! RI PBE def2-SVP def2-SVP/J NBO PAL2
|  2> % maxcore 2000
|  3> % output
|  4>     # printlevel mini
|  5>     print[ P_Basis ] 0
|  6>     print[ P_SCFInfo ] 1
|  7>     print[ P_SCFIterInfo ] 1
|  8>     print[ P_OrbEn ] 0
|  9>     print[ P_Cartesian ] 0
| 10> end
| 11> *xyz 0 1
| 12>  C        0.5885310000     0.0938660000    -2.1364110000
| 13>  C        1.8472560000    -0.5148720000    -1.5555300000
| 14>  O        1.8746510000    -0.1846890000    -0.1767870000
| 15>  N        3.0310120000    -0.6795970000     0.3848900000
| 16>  C        3.1423720000    -0.3643350000     1.6034450000
| 17>  C        1.8367190000    -2.0179060000    -1.7493130000
| 18>  O        2.0818420000    -2.5457910000    -2.7961370000
| 19>  H        0.5976030000     1.1759240000    -1.9984210000
| 20>  H       -0.3006020000    -0.3109040000    -1.6477540000
| 21>  H        0.5368480000    -0.1297330000    -3.2022480000
| 22>  H        2.7365190000    -0.1137640000    -2.0531180000
| 23>  H        4.0267680000    -0.7218740000     2.1163730000
| 24>  H        2.3990320000     0.2346560000     2.1273900000
| 25>  H        1.5457480000    -2.6003610000    -0.8489990000
| 26> *
| 27>
| 28>                          ****END OF INPUT****
 Total Charge           Charge          ....    0
 Multiplicity           Mult            ....    1
 Number of Electrons    NEL             ....   54
 Basis Dimension        Dim             ....  133

MULLIKEN ATOMIC CHARGES
-----------------------
   0 C :    0.002490
   1 C :    0.094704
   2 O :   -0.272458
   3 N :   -0.015316
   4 C :   -0.016139
   5 C :    0.104903
   6 O :   -0.153642
   7 H :    0.049583
   8 H :    0.028082
   9 H :    0.049755
  10 H :    0.031030
  11 H :    0.060321
  12 H :    0.039815
  13 H :   -0.003128
Sum of atomic charges:   -0.0000000

LOEWDIN ATOMIC CHARGES
----------------------
   0 C :   -0.057171
   1 C :   -0.002427
   2 O :   -0.077180
   3 N :    0.011915
   4 C :   -0.037635
   5 C :    0.086699
   6 O :   -0.098352
   7 H :    0.038263
   8 H :    0.033341
   9 H :    0.043096
  10 H :    0.028567
  11 H :    0.030791
  12 H :    0.010146
  13 H :   -0.010052

  Mayer bond orders larger than 0.1
B(  0-C ,  1-C ) :   1.0831 B(  0-C ,  7-H ) :   0.9571 B(  0-C ,  8-H ) :   0.9513
B(  0-C ,  9-H ) :   0.9529 B(  1-C ,  2-O ) :   0.9470 B(  1-C ,  5-C ) :   0.9147
B(  1-C , 10-H ) :   0.9073 B(  2-O ,  3-N ) :   0.9601 B(  2-O ,  4-C ) :   0.1160
B(  3-N ,  4-C ) :   1.9432 B(  4-C , 11-H ) :   0.9515 B(  4-C , 12-H ) :   0.9330
B(  5-C ,  6-O ) :   2.1822 B(  5-C , 13-H ) :   0.9185

FINAL SINGLE POINT ENERGY      -361.059838110225

DIPOLE MOMENT
-------------
                                X             Y             Z
Electronic contribution:      2.31507      -2.80465      -0.21110
Nuclear contribution   :     -2.57794       3.47761       0.91838
                        -----------------------------------------
Total Dipole Moment    :     -0.26287       0.67296       0.70729
                        -----------------------------------------
Magnitude (a.u.)       :      1.01105
Magnitude (Debye)      :      2.56989

                             ****ORCA TERMINATED NORMALLY****
TOTAL RUN TIME: 0 days 0 hours 0 minutes 6 seconds 493 msec
