                         Program Version 3.0.3 - RELEASE   -
|  1> ! RI PBE def2-SVP def2-SVP/J NBO PAL2
|  2> % maxcore 2000
|  3> % output
|  4>     # printlevel mini
|  5>     print[ P_Basis ] 0
|  6>     print[ P_SCFInfo ] 1
|  7>     print[ P_SCFIterInfo ] 1
|  8>     print[ P_OrbEn ] 0
|  9>     print[ P_Cartesian ] 0
| 10> end
| 11> *xyz 0 1
| 12>  C        0.0368020000     1.2224280000     0.4996670000
| 13>  C        1.0610090000     0.1905710000     0.1060620000
| 14>  O        1.9614690000     0.8084630000    -0.8038810000
| 15>  N        2.9248420000    -0.0874680000    -1.1869530000
| 16>  C        3.7563070000     0.4146250000    -2.0017210000
| 17>  C        4.8604090000    -0.4380560000    -2.5271150000
| 18>  O        4.7965070000    -0.5697780000    -3.9338770000
| 19>  H       -0.6767220000     0.7862930000     1.2016070000
| 20>  H       -0.5139900000     1.5787620000    -0.3729160000
| 21>  H        0.5117000000     2.0795770000     0.9807820000
| 22>  H        0.5928280000    -0.6725780000    -0.3791970000
| 23>  H        1.6196170000    -0.1708590000     0.9758270000
| 24>  H        3.6627800000     1.4456760000    -2.3477680000
| 25>  H        4.8360030000    -1.4077050000    -2.0173290000
| 26>  H        5.8260120000     0.0314950000    -2.3204500000
| 27>  H        3.9668280000    -1.0034570000    -4.1518180000
| 28> *
| 29>
| 30>                          ****END OF INPUT****
 Total Charge           Charge          ....    0
 Multiplicity           Mult            ....    1
 Number of Electrons    NEL             ....   56
 Basis Dimension        Dim             ....  143

MULLIKEN ATOMIC CHARGES
-----------------------
   0 C :   -0.050836
   1 C :    0.172520
   2 O :   -0.286226
   3 N :    0.009503
   4 C :   -0.112369
   5 C :    0.252489
   6 O :   -0.294629
   7 H :    0.031622
   8 H :    0.034911
   9 H :    0.036141
  10 H :    0.008111
  11 H :    0.009790
  12 H :    0.009062
  13 H :    0.005727
  14 H :    0.019659
  15 H :    0.154526
Sum of atomic charges:   -0.0000000

LOEWDIN ATOMIC CHARGES
----------------------
   0 C :   -0.077184
   1 C :    0.053447
   2 O :   -0.087866
   3 N :   -0.000026
   4 C :   -0.055659
   5 C :    0.047412
   6 O :   -0.118696
   7 H :    0.036502
   8 H :    0.031912
   9 H :    0.031914
  10 H :    0.009620
  11 H :    0.010755
  12 H :    0.006787
  13 H :    0.012204
  14 H :    0.029885
  15 H :    0.068993

  Mayer bond orders larger than 0.1
B(  0-C ,  1-C ) :   1.1173 B(  0-C ,  7-H ) :   0.9584 B(  0-C ,  8-H ) :   0.9622
B(  0-C ,  9-H ) :   0.9636 B(  1-C ,  2-O ) :   0.9435 B(  1-C , 10-H ) :   0.9441
B(  1-C , 11-H ) :   0.9434 B(  2-O ,  3-N ) :   0.9638 B(  2-O ,  4-C ) :   0.1135
B(  3-N ,  4-C ) :   1.8733 B(  4-C ,  5-C ) :   1.0409 B(  4-C , 12-H ) :   0.9403
B(  5-C ,  6-O ) :   1.0260 B(  5-C , 13-H ) :   0.9284 B(  5-C , 14-H ) :   0.9212
B(  6-O , 15-H ) :   0.9848

FINAL SINGLE POINT ENERGY      -362.261640867781

DIPOLE MOMENT
-------------
                                X             Y             Z
Electronic contribution:      4.23588      -0.79029      -3.84055
Nuclear contribution   :     -4.77942       0.69879       4.18567
                        -----------------------------------------
Total Dipole Moment    :     -0.54354      -0.09150       0.34512
                        -----------------------------------------
Magnitude (a.u.)       :      0.65032
Magnitude (Debye)      :      1.65298

                             ****ORCA TERMINATED NORMALLY****
TOTAL RUN TIME: 0 days 0 hours 0 minutes 6 seconds 474 msec
