                         Program Version 3.0.3 - RELEASE   -
|  1> ! RI PBE def2-SVP def2-SVP/J NBO PAL2
|  2> % maxcore 2000
|  3> % output
|  4>     # printlevel mini
|  5>     print[ P_Basis ] 0
|  6>     print[ P_SCFInfo ] 1
|  7>     print[ P_SCFIterInfo ] 1
|  8>     print[ P_OrbEn ] 0
|  9>     print[ P_Cartesian ] 0
| 10> end
| 11> *xyz 0 1
| 12>  C        0.7090040000    -0.0078860000     0.0010250000
| 13>  C        2.2130410000     0.0002810000     0.0442380000
| 14>  O        2.6776100000    -0.7099200000    -1.1080380000
| 15>  N        4.0223220000    -0.7419310000    -1.1341920000
| 16>  C        4.4893340000    -1.3650530000    -2.1439700000
| 17>  C        5.9499040000    -1.4440110000    -2.2447090000
| 18>  O        6.5198850000    -2.0026070000    -3.1471190000
| 19>  H        0.3151070000     0.5266800000     0.8675150000
| 20>  H        0.3221850000    -1.0282540000     0.0228290000
| 21>  H        0.3405290000     0.4832570000    -0.9013390000
| 22>  H        2.5962790000    -0.4969590000     0.9398420000
| 23>  H        2.6146680000     1.0171420000     0.0140430000
| 24>  H        3.8617800000    -1.8241000000    -2.9067390000
| 25>  H        6.4927510000    -0.9450510000    -1.4184860000
| 26> *
| 27>
| 28>                          ****END OF INPUT****
 Total Charge           Charge          ....    0
 Multiplicity           Mult            ....    1
 Number of Electrons    NEL             ....   54
 Basis Dimension        Dim             ....  133

MULLIKEN ATOMIC CHARGES
-----------------------
   0 C :   -0.043574
   1 C :    0.159170
   2 O :   -0.259164
   3 N :    0.031238
   4 C :   -0.027481
   5 C :    0.142301
   6 O :   -0.168165
   7 H :    0.036168
   8 H :    0.038916
   9 H :    0.040726
  10 H :    0.021904
  11 H :    0.024982
  12 H :    0.016281
  13 H :   -0.013299
Sum of atomic charges:   -0.0000000

LOEWDIN ATOMIC CHARGES
----------------------
   0 C :   -0.073606
   1 C :    0.059435
   2 O :   -0.052060
   3 N :    0.031449
   4 C :   -0.065336
   5 C :    0.059846
   6 O :   -0.110922
   7 H :    0.040148
   8 H :    0.033899
   9 H :    0.034393
  10 H :    0.017106
  11 H :    0.017403
  12 H :    0.016747
  13 H :   -0.008502

  Mayer bond orders larger than 0.1
B(  0-C ,  1-C ) :   1.1161 B(  0-C ,  7-H ) :   0.9567 B(  0-C ,  8-H ) :   0.9642
B(  0-C ,  9-H ) :   0.9642 B(  1-C ,  2-O ) :   0.9160 B(  1-C , 10-H ) :   0.9462
B(  1-C , 11-H ) :   0.9475 B(  2-O ,  3-N ) :   1.0205 B(  2-O ,  4-C ) :   0.1165
B(  3-N ,  4-C ) :   1.7497 B(  4-C ,  5-C ) :   1.0192 B(  4-C , 12-H ) :   0.9435
B(  5-C ,  6-O ) :   2.0946 B(  5-C , 13-H ) :   0.9269

FINAL SINGLE POINT ENERGY      -361.070579518009

DIPOLE MOMENT
-------------
                                X             Y             Z
Electronic contribution:      7.98193      -3.15233      -5.00037
Nuclear contribution   :     -9.17832       3.69972       5.86998
                        -----------------------------------------
Total Dipole Moment    :     -1.19639       0.54739       0.86962
                        -----------------------------------------
Magnitude (a.u.)       :      1.57709
Magnitude (Debye)      :      4.00864

                             ****ORCA TERMINATED NORMALLY****
TOTAL RUN TIME: 0 days 0 hours 0 minutes 6 seconds 247 msec
