                         Program Version 3.0.3 - RELEASE   -
|  1> ! RI PBE def2-SVP def2-SVP/J NBO PAL2
|  2> % maxcore 2000
|  3> % output
|  4>     # printlevel mini
|  5>     print[ P_Basis ] 0
|  6>     print[ P_SCFInfo ] 1
|  7>     print[ P_SCFIterInfo ] 1
|  8>     print[ P_OrbEn ] 0
|  9>     print[ P_Cartesian ] 0
| 10> end
| 11> *xyz 0 1
| 12>  C        0.8859380000    -0.3092510000     0.1569310000
| 13>  C        2.2931500000     0.1249460000    -0.1562490000
| 14>  O        3.1703660000    -0.8809810000     0.3515070000
| 15>  N        4.4908890000    -0.5373480000     0.1481310000
| 16>  C        5.1489810000     0.1037510000     1.2519020000
| 17>  C        5.1473940000    -1.2367070000    -0.8116670000
| 18>  O        6.3422600000    -1.2032380000    -0.9910300000
| 19>  H        0.1775770000     0.4307510000    -0.2204050000
| 20>  H        0.7397660000    -0.4084580000     1.2339290000
| 21>  H        0.6627380000    -1.2693150000    -0.3118480000
| 22>  H        2.5254080000     1.0861730000     0.3165830000
| 23>  H        2.4512360000     0.2287210000    -1.2354680000
| 24>  H        4.7296260000     1.0954660000     1.4333610000
| 25>  H        6.1997690000     0.1997830000     0.9817170000
| 26>  H        5.0576130000    -0.4996360000     2.1596300000
| 27>  H        4.4419890000    -1.8240470000    -1.4252330000
| 28> *
| 29>
| 30>                          ****END OF INPUT****
 Total Charge           Charge          ....    0
 Multiplicity           Mult            ....    1
 Number of Electrons    NEL             ....   56
 Basis Dimension        Dim             ....  143

MULLIKEN ATOMIC CHARGES
-----------------------
   0 C :   -0.044487
   1 C :    0.143142
   2 O :   -0.282995
   3 N :   -0.112732
   4 C :    0.097057
   5 C :    0.166918
   6 O :   -0.228219
   7 H :    0.036820
   8 H :    0.039112
   9 H :    0.038150
  10 H :    0.012877
  11 H :    0.019438
  12 H :    0.031862
  13 H :    0.052865
  14 H :    0.042289
  15 H :   -0.012098
Sum of atomic charges:   -0.0000000

LOEWDIN ATOMIC CHARGES
----------------------
   0 C :   -0.074258
   1 C :    0.056212
   2 O :   -0.098529
   3 N :    0.044613
   4 C :    0.006820
   5 C :    0.037790
   6 O :   -0.179356
   7 H :    0.039256
   8 H :    0.033598
   9 H :    0.034219
  10 H :    0.008790
  11 H :    0.010153
  12 H :    0.024377
  13 H :    0.041021
  14 H :    0.027418
  15 H :   -0.012124

  Mayer bond orders larger than 0.1
B(  0-C ,  1-C ) :   1.1221 B(  0-C ,  7-H ) :   0.9559 B(  0-C ,  8-H ) :   0.9641
B(  0-C ,  9-H ) :   0.9619 B(  1-C ,  2-O ) :   0.9400 B(  1-C , 10-H ) :   0.9399
B(  1-C , 11-H ) :   0.9455 B(  2-O ,  3-N ) :   0.9132 B(  3-N ,  4-C ) :   0.9863
B(  3-N ,  5-C ) :   1.1543 B(  3-N ,  6-O ) :   0.1139 B(  4-C , 12-H ) :   0.9615
B(  4-C , 13-H ) :   0.9445 B(  4-C , 14-H ) :   0.9639 B(  5-C ,  6-O ) :   2.0222
B(  5-C , 15-H ) :   0.9215

FINAL SINGLE POINT ENERGY      -362.287921070897

DIPOLE MOMENT
-------------
                                X             Y             Z
Electronic contribution:      6.53594      -3.13045      -2.24929
Nuclear contribution   :     -7.74683       3.80604       2.73455
                        -----------------------------------------
Total Dipole Moment    :     -1.21089       0.67559       0.48526
                        -----------------------------------------
Magnitude (a.u.)       :      1.46907
Magnitude (Debye)      :      3.73407

                             ****ORCA TERMINATED NORMALLY****
TOTAL RUN TIME: 0 days 0 hours 0 minutes 6 seconds 938 msec
