                         Program Version 3.0.3 - RELEASE   -
|  1> ! RI PBE def2-SVP def2-SVP/J NBO PAL2
|  2> % maxcore 2000
|  3> % output
|  4>     # printlevel mini
|  5>     print[ P_Basis ] 0
|  6>     print[ P_SCFInfo ] 1
|  7>     print[ P_SCFIterInfo ] 1
|  8>     print[ P_OrbEn ] 0
|  9>     print[ P_Cartesian ] 0
| 10> end
| 11> *xyz 0 1
| 12>  C        0.9745080000     1.3263580000     0.3236290000
| 13>  C        1.0059020000    -0.0551460000    -0.2746590000
| 14>  O        2.3166290000    -0.2633510000    -0.7962050000
| 15>  N        2.4186940000    -1.5172230000    -1.3656940000
| 16>  C        2.7608740000    -1.6140170000    -2.6936220000
| 17>  C        2.5169740000    -0.3921700000    -3.5305530000
| 18>  O        3.1962260000    -2.6588390000    -3.1236410000
| 19>  H       -0.0127540000     1.5249960000     0.7451230000
| 20>  H        1.1838080000     2.0844280000    -0.4333950000
| 21>  H        1.7141200000     1.4215090000     1.1206410000
| 22>  H        0.2726280000    -0.1630500000    -1.0817620000
| 23>  H        0.7908540000    -0.8206230000     0.4803040000
| 24>  H        2.8630870000    -2.1935790000    -0.7568690000
| 25>  H        1.4990580000    -0.0193730000    -3.4037680000
| 26>  H        2.6928560000    -0.6527230000    -4.5714630000
| 27>  H        3.1944260000     0.4089930000    -3.2277450000
| 28> *
| 29>
| 30>                          ****END OF INPUT****
 Total Charge           Charge          ....    0
 Multiplicity           Mult            ....    1
 Number of Electrons    NEL             ....   56
 Basis Dimension        Dim             ....  143

MULLIKEN ATOMIC CHARGES
-----------------------
   0 C :   -0.045259
   1 C :    0.150475
   2 O :   -0.303906
   3 N :    0.020239
   4 C :   -0.016828
   5 C :   -0.002732
   6 O :   -0.195496
   7 H :    0.032627
   8 H :    0.038614
   9 H :    0.040193
  10 H :    0.015274
  11 H :    0.009108
  12 H :    0.125612
  13 H :    0.037072
  14 H :    0.042022
  15 H :    0.052984
Sum of atomic charges:   -0.0000000

LOEWDIN ATOMIC CHARGES
----------------------
   0 C :   -0.075688
   1 C :    0.053879
   2 O :   -0.111778
   3 N :    0.069494
   4 C :    0.015632
   5 C :   -0.091701
   6 O :   -0.175733
   7 H :    0.038251
   8 H :    0.033318
   9 H :    0.033708
  10 H :    0.007233
  11 H :    0.008782
  12 H :    0.063986
  13 H :    0.040157
  14 H :    0.042377
  15 H :    0.048083

  Mayer bond orders larger than 0.1
B(  0-C ,  1-C ) :   1.1175 B(  0-C ,  7-H ) :   0.9559 B(  0-C ,  8-H ) :   0.9632
B(  0-C ,  9-H ) :   0.9631 B(  1-C ,  2-O ) :   0.9396 B(  1-C , 10-H ) :   0.9427
B(  1-C , 11-H ) :   0.9420 B(  2-O ,  3-N ) :   0.9446 B(  3-N ,  4-C ) :   1.1323
B(  3-N , 12-H ) :   0.9176 B(  4-C ,  5-C ) :   1.0346 B(  4-C ,  6-O ) :   2.1167
B(  5-C , 13-H ) :   0.9430 B(  5-C , 14-H ) :   0.9503 B(  5-C , 15-H ) :   0.9313

FINAL SINGLE POINT ENERGY      -362.297719428197

DIPOLE MOMENT
-------------
                                X             Y             Z
Electronic contribution:      4.30752      -6.73496      -2.41018
Nuclear contribution   :     -4.96686       7.62599       3.24346
                        -----------------------------------------
Total Dipole Moment    :     -0.65934       0.89103       0.83328
                        -----------------------------------------
Magnitude (a.u.)       :      1.38673
Magnitude (Debye)      :      3.52480

                             ****ORCA TERMINATED NORMALLY****
TOTAL RUN TIME: 0 days 0 hours 0 minutes 7 seconds 149 msec
