                         Program Version 3.0.3 - RELEASE   -
|  1> ! RI PBE def2-SVP def2-SVP/J NBO PAL2
|  2> % maxcore 2000
|  3> % output
|  4>     # printlevel mini
|  5>     print[ P_Basis ] 0
|  6>     print[ P_SCFInfo ] 1
|  7>     print[ P_SCFIterInfo ] 1
|  8>     print[ P_OrbEn ] 0
|  9>     print[ P_Cartesian ] 0
| 10> end
| 11> *xyz 0 1
| 12>  C        1.0083810000     1.5638420000    -0.9461560000
| 13>  C        2.2191190000     2.0456490000    -0.1883770000
| 14>  O        3.2350860000     2.3110990000    -1.1313110000
| 15>  N        4.3724950000     2.7597390000    -0.4545270000
| 16>  C        5.3057650000     3.0076570000    -1.2889950000
| 17>  N        6.5170060000     3.4581700000    -0.8854110000
| 18>  C        6.8208780000     3.6820870000     0.5001840000
| 19>  H        0.1950440000     1.3461410000    -0.2505210000
| 20>  H        1.2352060000     0.6534480000    -1.5048910000
| 21>  H        0.6629240000     2.3223630000    -1.6516780000
| 22>  H        2.5682920000     1.2885550000     0.5247690000
| 23>  H        1.9956510000     2.9583740000     0.3779370000
| 24>  H        5.1707430000     2.8687520000    -2.3615140000
| 25>  H        7.2106540000     3.6358380000    -1.5836600000
| 26>  H        6.1439640000     4.4232940000     0.9368140000
| 27>  H        7.8456560000     4.0412820000     0.5887950000
| 28>  H        6.7145270000     2.7600110000     1.0804520000
| 29> *
| 30>
| 31>                          ****END OF INPUT****
 Total Charge           Charge          ....    0
 Multiplicity           Mult            ....    1
 Number of Electrons    NEL             ....   56
 Basis Dimension        Dim             ....  148

MULLIKEN ATOMIC CHARGES
-----------------------
   0 C :   -0.051313
   1 C :    0.179669
   2 O :   -0.307172
   3 N :   -0.084212
   4 C :    0.064659
   5 N :   -0.171243
   6 C :    0.091388
   7 H :    0.024313
   8 H :    0.029373
   9 H :    0.031176
  10 H :   -0.002016
  11 H :   -0.005065
  12 H :   -0.003522
  13 H :    0.122094
  14 H :    0.032364
  15 H :    0.016986
  16 H :    0.032522
Sum of atomic charges:   -0.0000000

LOEWDIN ATOMIC CHARGES
----------------------
   0 C :   -0.079226
   1 C :    0.047826
   2 O :   -0.112100
   3 N :   -0.088684
   4 C :   -0.016281
   5 N :   -0.007613
   6 C :    0.009012
   7 H :    0.033171
   8 H :    0.028722
   9 H :    0.028779
  10 H :    0.003234
  11 H :    0.002735
  12 H :    0.000972
  13 H :    0.074995
  14 H :    0.024443
  15 H :    0.025389
  16 H :    0.024625

  Mayer bond orders larger than 0.1
B(  0-C ,  1-C ) :   1.1119 B(  0-C ,  7-H ) :   0.9581 B(  0-C ,  8-H ) :   0.9623
B(  0-C ,  9-H ) :   0.9639 B(  1-C ,  2-O ) :   0.9724 B(  1-C , 10-H ) :   0.9394
B(  1-C , 11-H ) :   0.9378 B(  2-O ,  3-N ) :   0.9138 B(  3-N ,  4-C ) :   1.7392
B(  4-C ,  5-N ) :   1.2210 B(  4-C , 12-H ) :   0.9361 B(  5-N ,  6-C ) :   1.0375
B(  5-N , 13-H ) :   0.9491 B(  6-C , 14-H ) :   0.9609 B(  6-C , 15-H ) :   0.9692
B(  6-C , 16-H ) :   0.9608

FINAL SINGLE POINT ENERGY      -342.431098847110

DIPOLE MOMENT
-------------
                                X             Y             Z
Electronic contribution:      2.92211       0.78632      -2.44023
Nuclear contribution   :     -2.09911      -0.52275       2.25050
                        -----------------------------------------
Total Dipole Moment    :      0.82300       0.26356      -0.18972
                        -----------------------------------------
Magnitude (a.u.)       :      0.88476
Magnitude (Debye)      :      2.24887

                             ****ORCA TERMINATED NORMALLY****
TOTAL RUN TIME: 0 days 0 hours 0 minutes 7 seconds 286 msec
