                         Program Version 3.0.3 - RELEASE   -
|  1> ! RI PBE def2-SVP def2-SVP/J NBO PAL2
|  2> % maxcore 2000
|  3> % output
|  4>     # printlevel mini
|  5>     print[ P_Basis ] 0
|  6>     print[ P_SCFInfo ] 1
|  7>     print[ P_SCFIterInfo ] 1
|  8>     print[ P_OrbEn ] 0
|  9>     print[ P_Cartesian ] 0
| 10> end
| 11> *xyz 0 1
| 12>  C        0.8300390000    -0.7419660000    -0.6785030000
| 13>  C        1.8459280000     0.3350220000    -0.3985490000
| 14>  O        3.0957980000    -0.3005820000    -0.2026880000
| 15>  N        4.0587510000     0.6631970000     0.0587970000
| 16>  C        5.1925960000     0.1273320000     0.2391810000
| 17>  O        6.2862900000     0.8372600000     0.5070620000
| 18>  C        6.1126400000     2.2441240000     0.5807020000
| 19>  H       -0.1527130000    -0.2929070000    -0.8363770000
| 20>  H        0.7588840000    -1.4381810000     0.1594690000
| 21>  H        1.0972990000    -1.3068760000    -1.5737270000
| 22>  H        1.5831000000     0.9069350000     0.4990620000
| 23>  H        1.9218360000     1.0384100000    -1.2360230000
| 24>  H        5.3762330000    -0.9436840000     0.1932730000
| 25>  H        7.0950680000     2.6549900000     0.8040130000
| 26>  H        5.4005700000     2.5031040000     1.3676380000
| 27>  H        5.7396800000     2.6358310000    -0.3684300000
| 28> *
| 29>
| 30>                          ****END OF INPUT****
 Total Charge           Charge          ....    0
 Multiplicity           Mult            ....    1
 Number of Electrons    NEL             ....   56
 Basis Dimension        Dim             ....  143

MULLIKEN ATOMIC CHARGES
-----------------------
   0 C :   -0.046191
   1 C :    0.170920
   2 O :   -0.300924
   3 N :   -0.073681
   4 C :    0.149441
   5 O :   -0.261301
   6 C :    0.144824
   7 H :    0.025057
   8 H :    0.035327
   9 H :    0.032311
  10 H :    0.002901
  11 H :    0.005812
  12 H :    0.017703
  13 H :    0.037743
  14 H :    0.030318
  15 H :    0.029739
Sum of atomic charges:   -0.0000000

LOEWDIN ATOMIC CHARGES
----------------------
   0 C :   -0.076808
   1 C :    0.050207
   2 O :   -0.100693
   3 N :   -0.069679
   4 C :    0.014885
   5 O :   -0.058750
   6 C :    0.063491
   7 H :    0.034692
   8 H :    0.030925
   9 H :    0.030524
  10 H :    0.006139
  11 H :    0.006754
  12 H :    0.004850
  13 H :    0.024633
  14 H :    0.019436
  15 H :    0.019392

  Mayer bond orders larger than 0.1
B(  0-C ,  1-C ) :   1.1131 B(  0-C ,  7-H ) :   0.9575 B(  0-C ,  8-H ) :   0.9644
B(  0-C ,  9-H ) :   0.9632 B(  1-C ,  2-O ) :   0.9567 B(  1-C , 10-H ) :   0.9413
B(  1-C , 11-H ) :   0.9417 B(  2-O ,  3-N ) :   0.9317 B(  3-N ,  4-C ) :   1.7369
B(  4-C ,  5-O ) :   1.1838 B(  4-C , 12-H ) :   0.9494 B(  5-O ,  6-C ) :   0.9595
B(  6-C , 13-H ) :   0.9737 B(  6-C , 14-H ) :   0.9654 B(  6-C , 15-H ) :   0.9647

FINAL SINGLE POINT ENERGY      -362.263841100672

DIPOLE MOMENT
-------------
                                X             Y             Z
Electronic contribution:      5.91953      -1.21539       1.05957
Nuclear contribution   :     -6.01237       1.52626      -1.05700
                        -----------------------------------------
Total Dipole Moment    :     -0.09284       0.31087       0.00257
                        -----------------------------------------
Magnitude (a.u.)       :      0.32445
Magnitude (Debye)      :      0.82469

                             ****ORCA TERMINATED NORMALLY****
TOTAL RUN TIME: 0 days 0 hours 0 minutes 7 seconds 115 msec
