                         Program Version 3.0.3 - RELEASE   -
|  1> ! RI PBE def2-SVP def2-SVP/J NBO PAL2
|  2> % maxcore 2000
|  3> % output
|  4>     # printlevel mini
|  5>     print[ P_Basis ] 0
|  6>     print[ P_SCFInfo ] 1
|  7>     print[ P_SCFIterInfo ] 1
|  8>     print[ P_OrbEn ] 0
|  9>     print[ P_Cartesian ] 0
| 10> end
| 11> *xyz 0 1
| 12>  C        2.6856130000    -1.3367170000    -0.8009040000
| 13>  C        2.0321910000    -0.1182410000    -0.2125910000
| 14>  O        0.8349550000    -0.0135610000    -0.0378130000
| 15>  N        2.8603990000     0.9066580000     0.1341190000
| 16>  N        4.2321010000     0.8639400000    -0.0481430000
| 17>  C        4.8610680000     2.1213680000    -0.4095950000
| 18>  C        5.0231160000     1.5558460000     0.9527560000
| 19>  H        1.9066480000    -2.0646940000    -1.0146120000
| 20>  H        3.4162590000    -1.7578780000    -0.1083570000
| 21>  H        3.2247050000    -1.0829820000    -1.7152980000
| 22>  H        2.4208610000     1.7334280000     0.5230170000
| 23>  H        4.2126510000     2.9862890000    -0.5125790000
| 24>  H        5.6601850000     2.0535090000    -1.1389740000
| 25>  H        4.4828330000     2.0436220000     1.7585420000
| 26>  H        5.9439040000     1.0641240000     1.2452510000
| 27> *
| 28>
| 29>                          ****END OF INPUT****
 Total Charge           Charge          ....    0
 Multiplicity           Mult            ....    1
 Number of Electrons    NEL             ....   54
 Basis Dimension        Dim             ....  138

MULLIKEN ATOMIC CHARGES
-----------------------
   0 C :    0.011240
   1 C :   -0.018357
   2 O :   -0.210084
   3 N :   -0.052778
   4 N :   -0.170409
   5 C :    0.017418
   6 C :    0.022393
   7 H :    0.035699
   8 H :    0.042499
   9 H :    0.040284
  10 H :    0.096042
  11 H :    0.038765
  12 H :    0.055134
  13 H :    0.040617
  14 H :    0.051538
Sum of atomic charges:   -0.0000000

LOEWDIN ATOMIC CHARGES
----------------------
   0 C :   -0.090955
   1 C :    0.021590
   2 O :   -0.193874
   3 N :    0.035903
   4 N :   -0.049307
   5 C :    0.000591
   6 C :    0.002179
   7 H :    0.039161
   8 H :    0.043396
   9 H :    0.043602
  10 H :    0.054398
  11 H :    0.018884
  12 H :    0.027842
  13 H :    0.019404
  14 H :    0.027185

  Mayer bond orders larger than 0.1
B(  0-C ,  1-C ) :   1.0541 B(  0-C ,  7-H ) :   0.9478 B(  0-C ,  8-H ) :   0.9348
B(  0-C ,  9-H ) :   0.9335 B(  1-C ,  2-O ) :   2.1014 B(  1-C ,  3-N ) :   1.1536
B(  3-N ,  4-N ) :   0.9832 B(  3-N , 10-H ) :   0.9017 B(  4-N ,  5-C ) :   0.9502
B(  4-N ,  6-C ) :   0.9494 B(  5-C ,  6-C ) :   1.0686 B(  5-C , 11-H ) :   0.9464
B(  5-C , 12-H ) :   0.9497 B(  6-C , 13-H ) :   0.9475 B(  6-C , 14-H ) :   0.9499

FINAL SINGLE POINT ENERGY      -341.246079430150

DIPOLE MOMENT
-------------
                                X             Y             Z
Electronic contribution:     -3.95027       0.30338       0.60087
Nuclear contribution   :      5.34524       0.44313      -0.45068
                        -----------------------------------------
Total Dipole Moment    :      1.39498       0.74651       0.15019
                        -----------------------------------------
Magnitude (a.u.)       :      1.58928
Magnitude (Debye)      :      4.03962

                             ****ORCA TERMINATED NORMALLY****
TOTAL RUN TIME: 0 days 0 hours 0 minutes 6 seconds 931 msec
