                         Program Version 3.0.3 - RELEASE   -
|  1> ! RI PBE def2-SVP def2-SVP/J NBO PAL2
|  2> % maxcore 2000
|  3> % output
|  4>     # printlevel mini
|  5>     print[ P_Basis ] 0
|  6>     print[ P_SCFInfo ] 1
|  7>     print[ P_SCFIterInfo ] 1
|  8>     print[ P_OrbEn ] 0
|  9>     print[ P_Cartesian ] 0
| 10> end
| 11> *xyz 0 1
| 12>  C        3.3293760000    -0.2141800000     1.3208530000
| 13>  C        2.5821820000    -0.2878350000     0.0156470000
| 14>  O        1.3854390000    -0.4861510000    -0.0331020000
| 15>  N        3.3016400000    -0.1208990000    -1.1489050000
| 16>  N        2.6114870000    -0.1883710000    -2.3603590000
| 17>  C        4.6719710000     0.1115200000    -1.2161560000
| 18>  C        5.3743360000     0.2736860000    -2.3320200000
| 19>  H        2.6052330000    -0.3669220000     2.1173670000
| 20>  H        3.8098910000     0.7574860000     1.4545700000
| 21>  H        4.1015450000    -0.9838840000     1.3857990000
| 22>  H        1.8710500000     0.5061490000    -2.3308040000
| 23>  H        2.1379570000    -1.0862050000    -2.3941540000
| 24>  H        5.1525910000     0.1535700000    -0.2484860000
| 25>  H        4.9068210000     0.2340580000    -3.3055120000
| 26>  H        6.4387610000     0.4493890000    -2.2633280000
| 27> *
| 28>
| 29>                          ****END OF INPUT****
 Total Charge           Charge          ....    0
 Multiplicity           Mult            ....    1
 Number of Electrons    NEL             ....   54
 Basis Dimension        Dim             ....  138

MULLIKEN ATOMIC CHARGES
-----------------------
   0 C :   -0.013166
   1 C :    0.002835
   2 O :   -0.206783
   3 N :   -0.181669
   4 N :   -0.030731
   5 C :    0.052819
   6 C :   -0.054134
   7 H :    0.042216
   8 H :    0.053106
   9 H :    0.055707
  10 H :    0.110420
  11 H :    0.108409
  12 H :    0.005326
  13 H :    0.031641
  14 H :    0.024004
Sum of atomic charges:   -0.0000000

LOEWDIN ATOMIC CHARGES
----------------------
   0 C :   -0.090990
   1 C :    0.020193
   2 O :   -0.183147
   3 N :    0.029928
   4 N :   -0.003504
   5 C :   -0.005391
   6 C :   -0.102447
   7 H :    0.046355
   8 H :    0.044433
   9 H :    0.044847
  10 H :    0.058736
  11 H :    0.058452
  12 H :    0.028048
  13 H :    0.025574
  14 H :    0.028915

  Mayer bond orders larger than 0.1
B(  0-C ,  1-C ) :   1.0359 B(  0-C ,  7-H ) :   0.9408 B(  0-C ,  8-H ) :   0.9383
B(  0-C ,  9-H ) :   0.9387 B(  1-C ,  2-O ) :   2.0922 B(  1-C ,  3-N ) :   1.0885
B(  3-N ,  4-N ) :   1.0499 B(  3-N ,  5-C ) :   1.0622 B(  4-N , 10-H ) :   0.9653
B(  4-N , 11-H ) :   0.9648 B(  5-C ,  6-C ) :   1.9167 B(  5-C , 12-H ) :   0.9474
B(  6-C , 13-H ) :   0.9339 B(  6-C , 14-H ) :   0.9342

FINAL SINGLE POINT ENERGY      -341.269350659531

DIPOLE MOMENT
-------------
                                X             Y             Z
Electronic contribution:     -3.97633      -0.63289      -0.69031
Nuclear contribution   :      4.49142       0.71750       0.89981
                        -----------------------------------------
Total Dipole Moment    :      0.51509       0.08461       0.20950
                        -----------------------------------------
Magnitude (a.u.)       :      0.56247
Magnitude (Debye)      :      1.42968

                             ****ORCA TERMINATED NORMALLY****
TOTAL RUN TIME: 0 days 0 hours 0 minutes 6 seconds 985 msec
