                         Program Version 3.0.3 - RELEASE   -
|  1> ! RI PBE def2-SVP def2-SVP/J NBO PAL2
|  2> % maxcore 2000
|  3> % output
|  4>     # printlevel mini
|  5>     print[ P_Basis ] 0
|  6>     print[ P_SCFInfo ] 1
|  7>     print[ P_SCFIterInfo ] 1
|  8>     print[ P_OrbEn ] 0
|  9>     print[ P_Cartesian ] 0
| 10> end
| 11> *xyz 0 1
| 12>  C        3.2233210000    -1.3062800000    -0.0845450000
| 13>  C        2.5432660000     0.0254870000     0.0216290000
| 14>  O        1.3266980000     0.1656700000     0.0367900000
| 15>  N        3.3160650000     1.1408600000     0.1058100000
| 16>  O        2.6148090000     2.3155850000     0.1997400000
| 17>  C        4.6895040000     1.2501080000     0.1095770000
| 18>  C        5.3596290000     2.3947150000     0.1963510000
| 19>  H        2.4463890000    -2.0649700000    -0.1407820000
| 20>  H        3.8532740000    -1.5041960000     0.7851160000
| 21>  H        3.8468250000    -1.3668280000    -0.9789180000
| 22>  H        1.6952180000     1.9685910000     0.1756930000
| 23>  H        5.1890910000     0.2940550000     0.0331640000
| 24>  H        4.8538440000     3.3465350000     0.2722450000
| 25>  H        6.4399480000     2.3760790000     0.1909210000
| 26> *
| 27>
| 28>                          ****END OF INPUT****
 Total Charge           Charge          ....    0
 Multiplicity           Mult            ....    1
 Number of Electrons    NEL             ....   54
 Basis Dimension        Dim             ....  133

MULLIKEN ATOMIC CHARGES
-----------------------
   0 C :   -0.010464
   1 C :    0.047949
   2 O :   -0.252918
   3 N :   -0.039259
   4 O :   -0.153590
   5 C :    0.043356
   6 C :   -0.056691
   7 H :    0.050785
   8 H :    0.059011
   9 H :    0.058585
  10 H :    0.164923
  11 H :    0.011653
  12 H :    0.044116
  13 H :    0.032543
Sum of atomic charges:   -0.0000000

LOEWDIN ATOMIC CHARGES
----------------------
   0 C :   -0.082760
   1 C :    0.016637
   2 O :   -0.187401
   3 N :    0.108406
   4 O :   -0.048281
   5 C :   -0.013693
   6 C :   -0.096760
   7 H :    0.051601
   8 H :    0.047089
   9 H :    0.047142
  10 H :    0.059507
  11 H :    0.033820
  12 H :    0.032290
  13 H :    0.032403

  Mayer bond orders larger than 0.1
B(  0-C ,  1-C ) :   1.0686 B(  0-C ,  7-H ) :   0.9375 B(  0-C ,  8-H ) :   0.9405
B(  0-C ,  9-H ) :   0.9402 B(  1-C ,  2-O ) :   1.9337 B(  1-C ,  3-N ) :   1.1336
B(  2-O , 10-H ) :   0.1372 B(  3-N ,  4-O ) :   1.0265 B(  3-N ,  5-C ) :   1.0901
B(  4-O , 10-H ) :   0.9076 B(  5-C ,  6-C ) :   1.8735 B(  5-C , 11-H ) :   0.9481
B(  6-C , 12-H ) :   0.9402 B(  6-C , 13-H ) :   0.9398

FINAL SINGLE POINT ENERGY      -361.092053558851

DIPOLE MOMENT
-------------
                                X             Y             Z
Electronic contribution:     -4.42504       2.18892       0.18513
Nuclear contribution   :      5.22964      -2.78702      -0.23606
                        -----------------------------------------
Total Dipole Moment    :      0.80460      -0.59810      -0.05092
                        -----------------------------------------
Magnitude (a.u.)       :      1.00385
Magnitude (Debye)      :      2.55157

                             ****ORCA TERMINATED NORMALLY****
TOTAL RUN TIME: 0 days 0 hours 0 minutes 6 seconds 421 msec
