                         Program Version 3.0.3 - RELEASE   -
|  1> ! RI PBE def2-SVP def2-SVP/J NBO PAL2
|  2> % maxcore 2000
|  3> % output
|  4>     # printlevel mini
|  5>     print[ P_Basis ] 0
|  6>     print[ P_SCFInfo ] 1
|  7>     print[ P_SCFIterInfo ] 1
|  8>     print[ P_OrbEn ] 0
|  9>     print[ P_Cartesian ] 0
| 10> end
| 11> *xyz 0 1
| 12>  C        1.5564930000     0.4353320000     3.5128430000
| 13>  C        2.8327550000    -0.0961580000     2.9349450000
| 14>  O        3.2018250000    -1.2379240000     3.0024460000
| 15>  O        3.5180800000     0.8769690000     2.3153630000
| 16>  C        4.7570240000     0.5039450000     1.7075910000
| 17>  C        5.9031280000     0.5976130000     2.6945990000
| 18>  N        7.1325030000     0.2187590000     2.0194870000
| 19>  H        1.0341680000    -0.3613960000     4.0362040000
| 20>  H        0.9271060000     0.8323660000     2.7139820000
| 21>  H        1.7703810000     1.2585080000     4.1967900000
| 22>  H        4.9088470000     1.2013150000     0.8840970000
| 23>  H        4.6742100000    -0.5111350000     1.3130220000
| 24>  H        5.6619200000    -0.0125490000     3.5761310000
| 25>  H        5.9946150000     1.6346810000     3.0292240000
| 26>  H        7.1617400000    -0.7825490000     1.8705300000
| 27>  H        7.9388940000     0.4575130000     2.5806670000
| 28> *
| 29>
| 30>                          ****END OF INPUT****
 Total Charge           Charge          ....    0
 Multiplicity           Mult            ....    1
 Number of Electrons    NEL             ....   56
 Basis Dimension        Dim             ....  143

MULLIKEN ATOMIC CHARGES
-----------------------
   0 C :    0.018834
   1 C :    0.054121
   2 O :   -0.198770
   3 O :   -0.260290
   4 C :    0.160967
   5 C :    0.057483
   6 N :   -0.230455
   7 H :    0.043386
   8 H :    0.052312
   9 H :    0.051194
  10 H :    0.024720
  11 H :    0.015925
  12 H :    0.009758
  13 H :    0.011421
  14 H :    0.095721
  15 H :    0.093672
Sum of atomic charges:   -0.0000000

LOEWDIN ATOMIC CHARGES
----------------------
   0 C :   -0.086065
   1 C :    0.040331
   2 O :   -0.155844
   3 O :   -0.067277
   4 C :    0.062882
   5 C :   -0.004073
   6 N :   -0.107808
   7 H :    0.042259
   8 H :    0.050615
   9 H :    0.048579
  10 H :    0.024321
  11 H :    0.014344
  12 H :    0.005436
  13 H :    0.022169
  14 H :    0.054718
  15 H :    0.055413

  Mayer bond orders larger than 0.1
B(  0-C ,  1-C ) :   1.0448 B(  0-C ,  7-H ) :   0.9540 B(  0-C ,  8-H ) :   0.9393
B(  0-C ,  9-H ) :   0.9432 B(  1-C ,  2-O ) :   2.0611 B(  1-C ,  3-O ) :   1.1743
B(  3-O ,  4-C ) :   0.9277 B(  4-C ,  5-C ) :   1.0912 B(  4-C , 10-H ) :   0.9406
B(  4-C , 11-H ) :   0.9305 B(  5-C ,  6-N ) :   1.0898 B(  5-C , 12-H ) :   0.9337
B(  5-C , 13-H ) :   0.9300 B(  6-N , 14-H ) :   0.9712 B(  6-N , 15-H ) :   0.9663

FINAL SINGLE POINT ENERGY      -362.346523315565

DIPOLE MOMENT
-------------
                                X             Y             Z
Electronic contribution:     -2.30614      -1.58446      -0.48114
Nuclear contribution   :      2.49606       1.97488       0.75255
                        -----------------------------------------
Total Dipole Moment    :      0.18992       0.39042       0.27141
                        -----------------------------------------
Magnitude (a.u.)       :      0.51202
Magnitude (Debye)      :      1.30144

                             ****ORCA TERMINATED NORMALLY****
TOTAL RUN TIME: 0 days 0 hours 0 minutes 6 seconds 671 msec
