                         Program Version 3.0.3 - RELEASE   -
|  1> ! RI PBE def2-SVP def2-SVP/J NBO PAL2
|  2> % maxcore 2000
|  3> % output
|  4>     # printlevel mini
|  5>     print[ P_Basis ] 0
|  6>     print[ P_SCFInfo ] 1
|  7>     print[ P_SCFIterInfo ] 1
|  8>     print[ P_OrbEn ] 0
|  9>     print[ P_Cartesian ] 0
| 10> end
| 11> *xyz 0 1
| 12>  C        0.6797460000     0.0371860000    -0.0615040000
| 13>  N        2.1233100000     0.0694530000     0.0473690000
| 14>  C        2.9698290000    -0.8765360000    -0.6398330000
| 15>  C        2.4226960000    -1.6202690000    -1.8295360000
| 16>  O        1.8475480000    -0.6503700000    -2.6863440000
| 17>  C        2.4168360000     0.6183830000    -2.4183900000
| 18>  C        2.9661210000     0.5589470000    -1.0174370000
| 19>  H        0.2960480000    -0.6824710000     0.6650570000
| 20>  H        0.2935070000    -0.2252500000    -1.0528190000
| 21>  H        0.2918450000     1.0198200000     0.2159700000
| 22>  H        3.7597600000    -1.3395280000    -0.0561130000
| 23>  H        1.6400270000    -2.3444760000    -1.5811970000
| 24>  H        3.2409480000    -2.1603970000    -2.3275550000
| 25>  H        1.6302970000     1.3672100000    -2.5574550000
| 26>  H        3.2330270000     0.8475760000    -3.1188130000
| 27>  H        3.7530550000     1.2530420000    -0.7380810000
| 28> *
| 29>
| 30>                          ****END OF INPUT****
 Total Charge           Charge          ....    0
 Multiplicity           Mult            ....    1
 Number of Electrons    NEL             ....   54
 Basis Dimension        Dim             ....  143

MULLIKEN ATOMIC CHARGES
-----------------------
   0 C :    0.083080
   1 N :   -0.254349
   2 C :   -0.096245
   3 C :    0.277873
   4 O :   -0.359106
   5 C :    0.271615
   6 C :   -0.100962
   7 H :    0.024163
   8 H :    0.028217
   9 H :    0.022370
  10 H :    0.022801
  11 H :    0.019903
  12 H :    0.006161
  13 H :    0.021755
  14 H :    0.007849
  15 H :    0.024874
Sum of atomic charges:   -0.0000000

LOEWDIN ATOMIC CHARGES
----------------------
   0 C :   -0.006201
   1 N :   -0.096472
   2 C :   -0.014935
   3 C :    0.059395
   4 O :   -0.153308
   5 C :    0.058615
   6 C :   -0.016591
   7 H :    0.026301
   8 H :    0.006677
   9 H :    0.025920
  10 H :    0.020812
  11 H :    0.020243
  12 H :    0.013624
  13 H :    0.020600
  14 H :    0.014187
  15 H :    0.021133

  Mayer bond orders larger than 0.1
B(  0-C ,  1-N ) :   1.0183 B(  0-C ,  7-H ) :   0.9700 B(  0-C ,  8-H ) :   0.9281
B(  0-C ,  9-H ) :   0.9698 B(  1-N ,  2-C ) :   0.9766 B(  1-N ,  6-C ) :   0.9731
B(  2-C ,  3-C ) :   1.0405 B(  2-C ,  6-C ) :   0.9875 B(  2-C , 10-H ) :   0.9396
B(  3-C ,  4-O ) :   1.0039 B(  3-C , 11-H ) :   0.9236 B(  3-C , 12-H ) :   0.9181
B(  4-O ,  5-C ) :   1.0050 B(  5-C ,  6-C ) :   1.0407 B(  5-C , 13-H ) :   0.9245
B(  5-C , 14-H ) :   0.9171 B(  6-C , 15-H ) :   0.9390

FINAL SINGLE POINT ENERGY      -325.215579977961

DIPOLE MOMENT
-------------
                                X             Y             Z
Electronic contribution:      1.53566      -0.18999      -0.72498
Nuclear contribution   :     -1.31509       0.18148       0.70149
                        -----------------------------------------
Total Dipole Moment    :      0.22058      -0.00851      -0.02349
                        -----------------------------------------
Magnitude (a.u.)       :      0.22199
Magnitude (Debye)      :      0.56425

                             ****ORCA TERMINATED NORMALLY****
TOTAL RUN TIME: 0 days 0 hours 0 minutes 7 seconds 139 msec
