                         Program Version 3.0.3 - RELEASE   -
|  1> ! RI PBE def2-SVP def2-SVP/J NBO PAL2
|  2> % maxcore 2000
|  3> % output
|  4>     # printlevel mini
|  5>     print[ P_Basis ] 0
|  6>     print[ P_SCFInfo ] 1
|  7>     print[ P_SCFIterInfo ] 1
|  8>     print[ P_OrbEn ] 0
|  9>     print[ P_Cartesian ] 0
| 10> end
| 11> *xyz 0 1
| 12>  C        1.0899100000    -0.1515690000     0.0099720000
| 13>  N        2.5289820000    -0.1339750000    -0.1202830000
| 14>  C        3.0636570000    -0.5044150000    -1.4107840000
| 15>  C        3.0847090000     0.9076350000    -0.9575650000
| 16>  C        4.3311100000     1.5591120000    -0.4918810000
| 17>  C        4.8870460000     2.7206130000    -1.1776840000
| 18>  O        4.2010000000     2.8651120000     0.0538810000
| 19>  H        0.7629950000    -1.1593770000     0.2757730000
| 20>  H        0.5697090000     0.1488330000    -0.9136960000
| 21>  H        0.7913260000     0.5282610000     0.8105080000
| 22>  H        2.3619870000    -0.7541040000    -2.2038660000
| 23>  H        3.9719510000    -1.0987370000    -1.3970560000
| 24>  H        2.3774810000     1.5811330000    -1.4413220000
| 25>  H        5.0050440000     0.9071400000     0.0615810000
| 26>  H        4.3709510000     3.1236950000    -2.0466000000
| 27>  H        5.9578320000     2.9058520000    -1.1423970000
| 28> *
| 29>
| 30>                          ****END OF INPUT****
 Total Charge           Charge          ....    0
 Multiplicity           Mult            ....    1
 Number of Electrons    NEL             ....   54
 Basis Dimension        Dim             ....  143

MULLIKEN ATOMIC CHARGES
-----------------------
   0 C :    0.092163
   1 N :   -0.290786
   2 C :    0.085328
   3 C :    0.006603
   4 C :    0.078143
   5 C :    0.158523
   6 O :   -0.287915
   7 H :    0.026534
   8 H :   -0.003560
   9 H :    0.035392
  10 H :    0.021742
  11 H :    0.028438
  12 H :   -0.005022
  13 H :    0.005422
  14 H :    0.018321
  15 H :    0.030674
Sum of atomic charges:    0.0000000

LOEWDIN ATOMIC CHARGES
----------------------
   0 C :    0.003380
   1 N :   -0.103186
   2 C :    0.009089
   3 C :   -0.009502
   4 C :    0.040516
   5 C :    0.055465
   6 O :   -0.153592
   7 H :    0.025317
   8 H :    0.002159
   9 H :    0.028542
  10 H :    0.014025
  11 H :    0.020568
  12 H :    0.016750
  13 H :    0.020908
  14 H :    0.012844
  15 H :    0.016717

  Mayer bond orders larger than 0.1
B(  0-C ,  1-N ) :   1.0227 B(  0-C ,  7-H ) :   0.9699 B(  0-C ,  8-H ) :   0.9374
B(  0-C ,  9-H ) :   0.9717 B(  1-N ,  2-C ) :   0.9879 B(  1-N ,  3-C ) :   0.8850
B(  2-C ,  3-C ) :   1.0132 B(  2-C , 10-H ) :   0.9292 B(  2-C , 11-H ) :   0.9389
B(  3-C ,  4-C ) :   1.0632 B(  3-C , 12-H ) :   0.9111 B(  4-C ,  5-C ) :   1.0702
B(  4-C ,  6-O ) :   0.9687 B(  4-C , 13-H ) :   0.9224 B(  5-C ,  6-O ) :   1.0036
B(  5-C , 14-H ) :   0.9296 B(  5-C , 15-H ) :   0.9340

FINAL SINGLE POINT ENERGY      -325.186583107399

DIPOLE MOMENT
-------------
                                X             Y             Z
Electronic contribution:      3.16791       2.75642       1.81646
Nuclear contribution   :     -3.26351      -3.09034      -2.61343
                        -----------------------------------------
Total Dipole Moment    :     -0.09559      -0.33392      -0.79698
                        -----------------------------------------
Magnitude (a.u.)       :      0.86937
Magnitude (Debye)      :      2.20977

                             ****ORCA TERMINATED NORMALLY****
TOTAL RUN TIME: 0 days 0 hours 0 minutes 7 seconds 88 msec
