                         Program Version 3.0.3 - RELEASE   -
|  1> ! RI PBE def2-SVP def2-SVP/J NBO PAL2
|  2> % maxcore 2000
|  3> % output
|  4>     # printlevel mini
|  5>     print[ P_Basis ] 0
|  6>     print[ P_SCFInfo ] 1
|  7>     print[ P_SCFIterInfo ] 1
|  8>     print[ P_OrbEn ] 0
|  9>     print[ P_Cartesian ] 0
| 10> end
| 11> *xyz 0 1
| 12>  C        1.2613780000    -0.4176880000     0.0084890000
| 13>  N        2.6440510000    -0.5468300000    -0.3906040000
| 14>  C        2.8864950000    -0.5716790000    -1.8188980000
| 15>  C        3.2521530000     0.6144140000    -1.0119960000
| 16>  C        4.6718980000     0.9345550000    -0.6399370000
| 17>  C        4.7985690000     1.5561740000     0.7404840000
| 18>  O        4.1478140000     2.8084000000     0.8497920000
| 19>  H        0.7930510000    -1.4046380000     0.0253710000
| 20>  H        0.6757730000     0.2294330000    -0.6644760000
| 21>  H        1.2083860000    -0.0026840000     1.0183720000
| 22>  H        2.0262390000    -0.4860460000    -2.4792700000
| 23>  H        3.6595470000    -1.2544130000    -2.1576260000
| 24>  H        2.5974290000     1.4764990000    -1.1491910000
| 25>  H        5.0978880000     1.6166320000    -1.3834030000
| 26>  H        5.2604410000     0.0116810000    -0.6616410000
| 27>  H        5.8506110000     1.7471100000     0.9643520000
| 28>  H        4.4237990000     0.8514850000     1.4939110000
| 29>  H        3.2010880000     2.6559950000     0.8848730000
| 30> *
| 31>
| 32>                          ****END OF INPUT****
 Total Charge           Charge          ....    0
 Multiplicity           Mult            ....    1
 Number of Electrons    NEL             ....   56
 Basis Dimension        Dim             ....  153

MULLIKEN ATOMIC CHARGES
-----------------------
   0 C :    0.091095
   1 N :   -0.291251
   2 C :    0.081035
   3 C :   -0.125104
   4 C :    0.120866
   5 C :    0.132415
   6 O :   -0.291747
   7 H :    0.028958
   8 H :   -0.002339
   9 H :    0.019173
  10 H :    0.018583
  11 H :    0.027137
  12 H :    0.005965
  13 H :    0.014209
  14 H :   -0.006111
  15 H :    0.015028
  16 H :    0.010549
  17 H :    0.151538
Sum of atomic charges:   -0.0000000

LOEWDIN ATOMIC CHARGES
----------------------
   0 C :   -0.000733
   1 N :   -0.112795
   2 C :    0.008352
   3 C :   -0.009871
   4 C :   -0.060206
   5 C :    0.056331
   6 O :   -0.123620
   7 H :    0.025813
   8 H :    0.001585
   9 H :    0.021365
  10 H :    0.012609
  11 H :    0.019954
  12 H :    0.006019
  13 H :    0.030543
  14 H :    0.033166
  15 H :    0.020780
  16 H :    0.008041
  17 H :    0.062666

  Mayer bond orders larger than 0.1
B(  0-C ,  1-N ) :   1.0264 B(  0-C ,  7-H ) :   0.9697 B(  0-C ,  8-H ) :   0.9368
B(  0-C ,  9-H ) :   0.9696 B(  1-N ,  2-C ) :   0.9773 B(  1-N ,  3-C ) :   0.9141
B(  2-C ,  3-C ) :   1.0518 B(  2-C , 10-H ) :   0.9322 B(  2-C , 11-H ) :   0.9356
B(  3-C ,  4-C ) :   1.0531 B(  3-C , 12-H ) :   0.9205 B(  4-C ,  5-C ) :   1.0686
B(  4-C , 13-H ) :   0.9136 B(  4-C , 14-H ) :   0.8943 B(  5-C ,  6-O ) :   1.0608
B(  5-C , 15-H ) :   0.9420 B(  5-C , 16-H ) :   0.9429 B(  6-O , 17-H ) :   0.9897

FINAL SINGLE POINT ENERGY      -326.415168126366

DIPOLE MOMENT
-------------
                                X             Y             Z
Electronic contribution:      1.61082       1.55147       0.63666
Nuclear contribution   :     -2.15086      -1.82561      -0.90942
                        -----------------------------------------
Total Dipole Moment    :     -0.54004      -0.27413      -0.27276
                        -----------------------------------------
Magnitude (a.u.)       :      0.66422
Magnitude (Debye)      :      1.68833

                             ****ORCA TERMINATED NORMALLY****
TOTAL RUN TIME: 0 days 0 hours 0 minutes 7 seconds 844 msec
