                         Program Version 3.0.3 - RELEASE   -
|  1> ! RI PBE def2-SVP def2-SVP/J NBO PAL2
|  2> % maxcore 2000
|  3> % output
|  4>     # printlevel mini
|  5>     print[ P_Basis ] 0
|  6>     print[ P_SCFInfo ] 1
|  7>     print[ P_SCFIterInfo ] 1
|  8>     print[ P_OrbEn ] 0
|  9>     print[ P_Cartesian ] 0
| 10> end
| 11> *xyz 0 1
| 12>  C        0.6927780000    -0.0280550000    -0.3656130000
| 13>  N        2.0719990000     0.1101000000     0.0452920000
| 14>  C        3.0586210000    -0.6947570000    -0.6480030000
| 15>  C        3.0402760000     0.7771250000    -0.8228700000
| 16>  C        2.6327230000     1.3911320000    -2.1344930000
| 17>  C        3.9998060000     1.6100480000    -0.0062040000
| 18>  O        3.3542520000     2.7290400000     0.5582520000
| 19>  H        0.2203820000    -0.7920680000     0.2562170000
| 20>  H        0.5577260000    -0.3208550000    -1.4157090000
| 21>  H        0.1629240000     0.9132610000    -0.2014850000
| 22>  H        2.7099900000    -1.2920240000    -1.4885750000
| 23>  H        3.8127400000    -1.1746170000    -0.0307350000
| 24>  H        1.8899920000     0.7968450000    -2.6661690000
| 25>  H        3.5058220000     1.4857190000    -2.7851020000
| 26>  H        2.2284530000     2.3937530000    -1.9736410000
| 27>  H        4.8050460000     1.9991270000    -0.6353540000
| 28>  H        4.4489830000     0.9823680000     0.7741250000
| 29>  H        2.6377080000     2.3740660000     1.0954580000
| 30> *
| 31>
| 32>                          ****END OF INPUT****
 Total Charge           Charge          ....    0
 Multiplicity           Mult            ....    1
 Number of Electrons    NEL             ....   56
 Basis Dimension        Dim             ....  153

MULLIKEN ATOMIC CHARGES
-----------------------
   0 C :    0.101123
   1 N :   -0.308409
   2 C :    0.106520
   3 C :   -0.326298
   4 C :    0.119713
   5 C :    0.327250
   6 O :   -0.292405
   7 H :    0.029112
   8 H :   -0.002326
   9 H :    0.022284
  10 H :    0.015303
  11 H :    0.026102
  12 H :    0.004273
  13 H :    0.026414
  14 H :    0.023429
  15 H :    0.000137
  16 H :   -0.023560
  17 H :    0.151338
Sum of atomic charges:   -0.0000000

LOEWDIN ATOMIC CHARGES
----------------------
   0 C :   -0.001017
   1 N :   -0.115015
   2 C :    0.011815
   3 C :   -0.049177
   4 C :   -0.058713
   5 C :    0.065982
   6 O :   -0.120532
   7 H :    0.026897
   8 H :    0.002416
   9 H :    0.023575
  10 H :    0.012689
  11 H :    0.017659
  12 H :    0.025290
  13 H :    0.035894
  14 H :    0.032162
  15 H :    0.019275
  16 H :    0.006107
  17 H :    0.064693

  Mayer bond orders larger than 0.1
B(  0-C ,  1-N ) :   1.0317 B(  0-C ,  7-H ) :   0.9675 B(  0-C ,  8-H ) :   0.9399
B(  0-C ,  9-H ) :   0.9701 B(  1-N ,  2-C ) :   0.9791 B(  1-N ,  3-C ) :   0.8745
B(  2-C ,  3-C ) :   1.0217 B(  2-C , 10-H ) :   0.9299 B(  2-C , 11-H ) :   0.9237
B(  3-C ,  4-C ) :   1.0803 B(  3-C ,  5-C ) :   1.0336 B(  4-C , 12-H ) :   0.9370
B(  4-C , 13-H ) :   0.9451 B(  4-C , 14-H ) :   0.9417 B(  5-C ,  6-O ) :   1.0581
B(  5-C , 15-H ) :   0.9300 B(  5-C , 16-H ) :   0.9062 B(  6-O , 17-H ) :   0.9760

FINAL SINGLE POINT ENERGY      -326.419736146797

DIPOLE MOMENT
-------------
                                X             Y             Z
Electronic contribution:      2.04321       1.60620       3.26350
Nuclear contribution   :     -2.34329      -2.18064      -3.66142
                        -----------------------------------------
Total Dipole Moment    :     -0.30008      -0.57444      -0.39792
                        -----------------------------------------
Magnitude (a.u.)       :      0.76051
Magnitude (Debye)      :      1.93305

                             ****ORCA TERMINATED NORMALLY****
TOTAL RUN TIME: 0 days 0 hours 0 minutes 8 seconds 116 msec
