                         Program Version 3.0.3 - RELEASE   -
|  1> ! RI PBE def2-SVP def2-SVP/J NBO PAL2
|  2> % maxcore 2000
|  3> % output
|  4>     # printlevel mini
|  5>     print[ P_Basis ] 0
|  6>     print[ P_SCFInfo ] 1
|  7>     print[ P_SCFIterInfo ] 1
|  8>     print[ P_OrbEn ] 0
|  9>     print[ P_Cartesian ] 0
| 10> end
| 11> *xyz 0 1
| 12>  C        1.7341950000    -0.2511490000     0.1809300000
| 13>  N        2.9904010000    -0.0526310000    -0.5085630000
| 14>  C        3.0145610000    -0.3702860000    -1.9076910000
| 15>  C        3.0289700000     1.0508760000    -1.4487940000
| 16>  C        4.2595010000     1.8920680000    -1.5328840000
| 17>  C        5.5217530000     1.3519200000    -0.9256410000
| 18>  O        4.2070250000     2.9707200000    -2.0747070000
| 19>  H        1.6732740000    -1.2862380000     0.5234310000
| 20>  H        0.8587210000    -0.0417250000    -0.4527330000
| 21>  H        1.6933930000     0.4023940000     1.0544460000
| 22>  H        2.0933300000    -0.7066800000    -2.3785940000
| 23>  H        3.9213620000    -0.8325260000    -2.2834970000
| 24>  H        2.1130800000     1.6121540000    -1.6225030000
| 25>  H        5.7366300000     0.3418410000    -1.2816520000
| 26>  H        5.3942850000     1.2708590000     0.1567620000
| 27>  H        6.3492110000     2.0189020000    -1.1592110000
| 28> *
| 29>
| 30>                          ****END OF INPUT****
 Total Charge           Charge          ....    0
 Multiplicity           Mult            ....    1
 Number of Electrons    NEL             ....   54
 Basis Dimension        Dim             ....  143

MULLIKEN ATOMIC CHARGES
-----------------------
   0 C :    0.101903
   1 N :   -0.279057
   2 C :    0.084441
   3 C :   -0.056948
   4 C :    0.011317
   5 C :    0.029154
   6 O :   -0.163190
   7 H :    0.029322
   8 H :    0.003186
   9 H :    0.033329
  10 H :    0.032999
  11 H :    0.041971
  12 H :    0.014366
  13 H :    0.031043
  14 H :    0.053745
  15 H :    0.032422
Sum of atomic charges:   -0.0000000

LOEWDIN ATOMIC CHARGES
----------------------
   0 C :    0.006356
   1 N :   -0.098487
   2 C :    0.024539
   3 C :   -0.024204
   4 C :    0.049621
   5 C :   -0.087018
   6 O :   -0.126354
   7 H :    0.027446
   8 H :    0.006398
   9 H :    0.028411
  10 H :    0.018186
  11 H :    0.020641
  12 H :    0.021682
  13 H :    0.042580
  14 H :    0.053367
  15 H :    0.036837

  Mayer bond orders larger than 0.1
B(  0-C ,  1-N ) :   1.0144 B(  0-C ,  7-H ) :   0.9690 B(  0-C ,  8-H ) :   0.9399
B(  0-C ,  9-H ) :   0.9709 B(  1-N ,  2-C ) :   0.9800 B(  1-N ,  3-C ) :   0.9177
B(  2-C ,  3-C ) :   0.9844 B(  2-C , 10-H ) :   0.9331 B(  2-C , 11-H ) :   0.9413
B(  3-C ,  4-C ) :   0.9569 B(  3-C , 12-H ) :   0.9303 B(  4-C ,  5-C ) :   1.0618
B(  4-C ,  6-O ) :   2.1701 B(  5-C , 13-H ) :   0.9338 B(  5-C , 14-H ) :   0.9249
B(  5-C , 15-H ) :   0.9422

FINAL SINGLE POINT ENERGY      -325.232010407038

DIPOLE MOMENT
-------------
                                X             Y             Z
Electronic contribution:      1.40006       4.35293      -2.52793
Nuclear contribution   :     -1.82941      -5.35040       2.84364
                        -----------------------------------------
Total Dipole Moment    :     -0.42935      -0.99747       0.31572
                        -----------------------------------------
Magnitude (a.u.)       :      1.13092
Magnitude (Debye)      :      2.87457

                             ****ORCA TERMINATED NORMALLY****
TOTAL RUN TIME: 0 days 0 hours 0 minutes 7 seconds 586 msec
