                         Program Version 3.0.3 - RELEASE   -
|  1> ! RI PBE def2-SVP def2-SVP/J NBO PAL2
|  2> % maxcore 2000
|  3> % output
|  4>     # printlevel mini
|  5>     print[ P_Basis ] 0
|  6>     print[ P_SCFInfo ] 1
|  7>     print[ P_SCFIterInfo ] 1
|  8>     print[ P_OrbEn ] 0
|  9>     print[ P_Cartesian ] 0
| 10> end
| 11> *xyz 0 1
| 12>  C        0.8277460000     0.1447000000    -0.7533650000
| 13>  N        2.1238060000     0.0351010000    -0.1232250000
| 14>  C        2.9128660000    -1.1238100000    -0.4885020000
| 15>  C        3.2732360000     0.2232440000    -0.9822640000
| 16>  C        4.4218420000     0.9991610000    -0.4143200000
| 17>  C        5.7217440000     0.8131230000    -1.1368670000
| 18>  O        5.8701990000     0.1580560000    -2.1319140000
| 19>  H        0.0931610000    -0.4165330000    -0.1712980000
| 20>  H        0.8163610000    -0.2383390000    -1.7861020000
| 21>  H        0.5183720000     1.1923630000    -0.7714320000
| 22>  H        2.4915530000    -1.8197920000    -1.2098830000
| 23>  H        3.4839450000    -1.5826160000     0.3126470000
| 24>  H        3.0733320000     0.4007210000    -2.0373910000
| 25>  H        4.5758050000     0.7443280000     0.6411580000
| 26>  H        4.2088810000     2.0779330000    -0.4133600000
| 27>  H        6.5838610000     1.3505600000    -0.6828720000
| 28> *
| 29>
| 30>                          ****END OF INPUT****
 Total Charge           Charge          ....    0
 Multiplicity           Mult            ....    1
 Number of Electrons    NEL             ....   54
 Basis Dimension        Dim             ....  143

MULLIKEN ATOMIC CHARGES
-----------------------
   0 C :    0.096680
   1 N :   -0.291318
   2 C :    0.087219
   3 C :   -0.094731
   4 C :    0.097315
   5 C :    0.078202
   6 O :   -0.159021
   7 H :    0.027016
   8 H :   -0.003733
   9 H :    0.024964
  10 H :    0.026460
  11 H :    0.024801
  12 H :    0.021911
  13 H :    0.028092
  14 H :    0.045599
  15 H :   -0.009456
Sum of atomic charges:    0.0000000

LOEWDIN ATOMIC CHARGES
----------------------
   0 C :    0.001982
   1 N :   -0.109264
   2 C :    0.010816
   3 C :    0.000649
   4 C :   -0.083783
   5 C :    0.092240
   6 O :   -0.109526
   7 H :    0.025161
   8 H :    0.002712
   9 H :    0.024061
  10 H :    0.016387
  11 H :    0.019183
  12 H :    0.017211
  13 H :    0.051679
  14 H :    0.053050
  15 H :   -0.012559

  Mayer bond orders larger than 0.1
B(  0-C ,  1-N ) :   1.0234 B(  0-C ,  7-H ) :   0.9697 B(  0-C ,  8-H ) :   0.9377
B(  0-C ,  9-H ) :   0.9716 B(  1-N ,  2-C ) :   0.9819 B(  1-N ,  3-C ) :   0.9189
B(  2-C ,  3-C ) :   1.0589 B(  2-C , 10-H ) :   0.9331 B(  2-C , 11-H ) :   0.9360
B(  3-C ,  4-C ) :   1.0322 B(  3-C , 12-H ) :   0.9312 B(  4-C ,  5-C ) :   0.9614
B(  4-C , 13-H ) :   0.8903 B(  4-C , 14-H ) :   0.8948 B(  5-C ,  6-O ) :   2.1938
B(  5-C , 15-H ) :   0.9254

FINAL SINGLE POINT ENERGY      -325.219807664576

DIPOLE MOMENT
-------------
                                X             Y             Z
Electronic contribution:      5.64734       0.18501      -1.34396
Nuclear contribution   :     -6.03155       0.11725       1.68516
                        -----------------------------------------
Total Dipole Moment    :     -0.38421       0.30226       0.34121
                        -----------------------------------------
Magnitude (a.u.)       :      0.59615
Magnitude (Debye)      :      1.51530

                             ****ORCA TERMINATED NORMALLY****
TOTAL RUN TIME: 0 days 0 hours 0 minutes 7 seconds 60 msec
