                         Program Version 3.0.3 - RELEASE   -
|  1> ! RI PBE def2-SVP def2-SVP/J NBO PAL2
|  2> % maxcore 2000
|  3> % output
|  4>     # printlevel mini
|  5>     print[ P_Basis ] 0
|  6>     print[ P_SCFInfo ] 1
|  7>     print[ P_SCFIterInfo ] 1
|  8>     print[ P_OrbEn ] 0
|  9>     print[ P_Cartesian ] 0
| 10> end
| 11> *xyz 0 1
| 12>  C        1.0387760000     0.1917220000    -0.2274910000
| 13>  N        2.4636150000    -0.0072150000    -0.0881990000
| 14>  C        3.0750770000    -0.9434910000    -0.9960270000
| 15>  C        3.2869270000     0.5207720000    -1.1633790000
| 16>  C        4.5458810000     1.1655270000    -0.7747390000
| 17>  N        4.9932510000     2.1275990000    -1.4658800000
| 18>  O        6.1908620000     2.6051360000    -0.9672980000
| 19>  H        0.5116790000    -0.5613460000     0.3626950000
| 20>  H        0.6932180000     0.1191370000    -1.2706980000
| 21>  H        0.7709600000     1.1776510000     0.1577670000
| 22>  H        2.4429460000    -1.4265720000    -1.7383300000
| 23>  H        3.8630270000    -1.5654340000    -0.5837350000
| 24>  H        2.7790600000     0.9878010000    -2.0042020000
| 25>  H        5.0729390000     0.8010890000     0.1086490000
| 26>  H        6.4061810000     3.3226130000    -1.5693320000
| 27> *
| 28>
| 29>                          ****END OF INPUT****
 Total Charge           Charge          ....    0
 Multiplicity           Mult            ....    1
 Number of Electrons    NEL             ....   54
 Basis Dimension        Dim             ....  138

MULLIKEN ATOMIC CHARGES
-----------------------
   0 C :    0.094218
   1 N :   -0.294406
   2 C :    0.091624
   3 C :   -0.026290
   4 C :    0.079934
   5 N :   -0.057846
   6 O :   -0.172150
   7 H :    0.030821
   8 H :   -0.003364
   9 H :    0.029635
  10 H :    0.024940
  11 H :    0.031111
  12 H :    0.009258
  13 H :   -0.007387
  14 H :    0.169902
Sum of atomic charges:   -0.0000000

LOEWDIN ATOMIC CHARGES
----------------------
   0 C :    0.003807
   1 N :   -0.103271
   2 C :    0.014155
   3 C :   -0.007273
   4 C :   -0.030569
   5 N :   -0.019849
   6 O :   -0.053390
   7 H :    0.026519
   8 H :    0.002598
   9 H :    0.027225
  10 H :    0.015176
  11 H :    0.021261
  12 H :    0.019183
  13 H :    0.010795
  14 H :    0.073634

  Mayer bond orders larger than 0.1
B(  0-C ,  1-N ) :   1.0230 B(  0-C ,  7-H ) :   0.9694 B(  0-C ,  8-H ) :   0.9388
B(  0-C ,  9-H ) :   0.9711 B(  1-N ,  2-C ) :   0.9788 B(  1-N ,  3-C ) :   0.8665
B(  2-C ,  3-C ) :   1.0061 B(  2-C , 10-H ) :   0.9295 B(  2-C , 11-H ) :   0.9369
B(  3-C ,  4-C ) :   1.0607 B(  3-C , 12-H ) :   0.9341 B(  4-C ,  5-N ) :   1.8661
B(  4-C ,  6-O ) :   0.1152 B(  4-C , 13-H ) :   0.9330 B(  5-N ,  6-O ) :   0.9910
B(  6-O , 14-H ) :   0.9758

FINAL SINGLE POINT ENERGY      -341.195210407949

DIPOLE MOMENT
-------------
                                X             Y             Z
Electronic contribution:      6.27713       3.63699      -0.36478
Nuclear contribution   :     -6.53069      -3.70143      -0.00223
                        -----------------------------------------
Total Dipole Moment    :     -0.25357      -0.06444      -0.36701
                        -----------------------------------------
Magnitude (a.u.)       :      0.45072
Magnitude (Debye)      :      1.14564

                             ****ORCA TERMINATED NORMALLY****
TOTAL RUN TIME: 0 days 0 hours 0 minutes 6 seconds 782 msec
