                         Program Version 3.0.3 - RELEASE   -
|  1> ! RI PBE def2-SVP def2-SVP/J NBO PAL2
|  2> % maxcore 2000
|  3> % output
|  4>     # printlevel mini
|  5>     print[ P_Basis ] 0
|  6>     print[ P_SCFInfo ] 1
|  7>     print[ P_SCFIterInfo ] 1
|  8>     print[ P_OrbEn ] 0
|  9>     print[ P_Cartesian ] 0
| 10> end
| 11> *xyz 0 1
| 12>  C        1.5940190000    -0.3172360000     0.2169420000
| 13>  N        2.8312820000    -0.1274910000    -0.5088280000
| 14>  C        2.7937030000    -0.3632620000    -1.9315190000
| 15>  C        2.8906910000     1.0193280000    -1.3913420000
| 16>  C        4.1718040000     1.7944850000    -1.4681300000
| 17>  N        5.2027480000     1.2230780000    -0.8091690000
| 18>  O        4.2468230000     2.8272790000    -2.1014370000
| 19>  H        1.5016820000    -1.3666350000     0.5045100000
| 20>  H        0.7073400000    -0.0385370000    -0.3716470000
| 21>  H        1.6103390000     0.2882080000     1.1253640000
| 22>  H        1.8432320000    -0.6468110000    -2.3771300000
| 23>  H        3.6708290000    -0.8335790000    -2.3627040000
| 24>  H        2.0069040000     1.6431220000    -1.4937730000
| 25>  H        5.0150210000     0.4384190000    -0.2066000000
| 26>  H        6.0867830000     1.6988120000    -0.7838460000
| 27> *
| 28>
| 29>                          ****END OF INPUT****
 Total Charge           Charge          ....    0
 Multiplicity           Mult            ....    1
 Number of Electrons    NEL             ....   54
 Basis Dimension        Dim             ....  138

MULLIKEN ATOMIC CHARGES
-----------------------
   0 C :    0.102159
   1 N :   -0.307407
   2 C :    0.094400
   3 C :   -0.068876
   4 C :    0.046641
   5 N :   -0.055795
   6 O :   -0.200945
   7 H :    0.028997
   8 H :    0.005486
   9 H :    0.031292
  10 H :    0.033337
  11 H :    0.038050
  12 H :    0.022567
  13 H :    0.116219
  14 H :    0.113875
Sum of atomic charges:   -0.0000000

LOEWDIN ATOMIC CHARGES
----------------------
   0 C :    0.005960
   1 N :   -0.107685
   2 C :    0.024367
   3 C :   -0.020903
   4 C :    0.011998
   5 N :    0.016259
   6 O :   -0.195070
   7 H :    0.026467
   8 H :    0.008031
   9 H :    0.027885
  10 H :    0.018116
  11 H :    0.022260
  12 H :    0.025581
  13 H :    0.065215
  14 H :    0.071518

  Mayer bond orders larger than 0.1
B(  0-C ,  1-N ) :   1.0172 B(  0-C ,  7-H ) :   0.9699 B(  0-C ,  8-H ) :   0.9428
B(  0-C ,  9-H ) :   0.9702 B(  1-N ,  2-C ) :   0.9695 B(  1-N ,  3-C ) :   0.9005
B(  2-C ,  3-C ) :   1.0034 B(  2-C , 10-H ) :   0.9390 B(  2-C , 11-H ) :   0.9428
B(  3-C ,  4-C ) :   0.9272 B(  3-C , 12-H ) :   0.9322 B(  4-C ,  5-N ) :   1.2939
B(  4-C ,  6-O ) :   2.1175 B(  5-N ,  6-O ) :   0.1017 B(  5-N , 13-H ) :   0.9123
B(  5-N , 14-H ) :   0.9377

FINAL SINGLE POINT ENERGY      -341.283650902797

DIPOLE MOMENT
-------------
                                X             Y             Z
Electronic contribution:      4.21679       4.28910      -2.15465
Nuclear contribution   :     -4.46068      -5.41626       2.86725
                        -----------------------------------------
Total Dipole Moment    :     -0.24389      -1.12716       0.71260
                        -----------------------------------------
Magnitude (a.u.)       :      1.35564
Magnitude (Debye)      :      3.44577

                             ****ORCA TERMINATED NORMALLY****
TOTAL RUN TIME: 0 days 0 hours 0 minutes 7 seconds 109 msec
