                         Program Version 3.0.3 - RELEASE   -
|  1> ! RI PBE def2-SVP def2-SVP/J NBO PAL2
|  2> % maxcore 2000
|  3> % output
|  4>     # printlevel mini
|  5>     print[ P_Basis ] 0
|  6>     print[ P_SCFInfo ] 1
|  7>     print[ P_SCFIterInfo ] 1
|  8>     print[ P_OrbEn ] 0
|  9>     print[ P_Cartesian ] 0
| 10> end
| 11> *xyz 0 1
| 12>  C        1.3044930000    -0.1612970000     0.0481370000
| 13>  N        2.7323850000    -0.1482470000    -0.1865990000
| 14>  C        3.1847370000    -0.7130560000    -1.4249150000
| 15>  C        3.1789780000     0.7638610000    -1.2228120000
| 16>  C        4.4285950000     1.5385380000    -1.0195750000
| 17>  O        5.3437650000     0.8923560000    -0.2853870000
| 18>  O        4.6153180000     2.6302700000    -1.4890590000
| 19>  H        1.0321340000    -1.1094890000     0.5159900000
| 20>  H        0.7135600000    -0.0451920000    -0.8736950000
| 21>  H        1.0433510000     0.6471300000     0.7334440000
| 22>  H        2.4422740000    -1.0995420000    -2.1200890000
| 23>  H        4.1251370000    -1.2510220000    -1.3866380000
| 24>  H        2.4268040000     1.3319030000    -1.7622620000
| 25>  H        6.1100680000     1.4798870000    -0.2313400000
| 26> *
| 27>
| 28>                          ****END OF INPUT****
 Total Charge           Charge          ....    0
 Multiplicity           Mult            ....    1
 Number of Electrons    NEL             ....   54
 Basis Dimension        Dim             ....  133

MULLIKEN ATOMIC CHARGES
-----------------------
   0 C :    0.088599
   1 N :   -0.271991
   2 C :    0.093661
   3 C :   -0.080139
   4 C :    0.123647
   5 O :   -0.120943
   6 O :   -0.173724
   7 H :    0.033815
   8 H :    0.000749
   9 H :    0.037733
  10 H :    0.031916
  11 H :    0.045453
  12 H :    0.023989
  13 H :    0.167235
Sum of atomic charges:   -0.0000000

LOEWDIN ATOMIC CHARGES
----------------------
   0 C :    0.004531
   1 N :   -0.087816
   2 C :    0.024003
   3 C :   -0.028344
   4 C :    0.030430
   5 O :   -0.003771
   6 O :   -0.156102
   7 H :    0.028796
   8 H :    0.004666
   9 H :    0.029293
  10 H :    0.016306
  11 H :    0.025828
  12 H :    0.025551
  13 H :    0.086628

  Mayer bond orders larger than 0.1
B(  0-C ,  1-N ) :   1.0165 B(  0-C ,  7-H ) :   0.9702 B(  0-C ,  8-H ) :   0.9370
B(  0-C ,  9-H ) :   0.9717 B(  1-N ,  2-C ) :   0.9923 B(  1-N ,  3-C ) :   0.8844
B(  2-C ,  3-C ) :   0.9915 B(  2-C , 10-H ) :   0.9324 B(  2-C , 11-H ) :   0.9382
B(  3-C ,  4-C ) :   0.9651 B(  3-C , 12-H ) :   0.9349 B(  4-C ,  5-O ) :   1.3047
B(  4-C ,  6-O ) :   2.1149 B(  5-O , 13-H ) :   0.9482

FINAL SINGLE POINT ENERGY      -361.120671807006

DIPOLE MOMENT
-------------
                                X             Y             Z
Electronic contribution:      6.32661       4.04860      -0.35906
Nuclear contribution   :     -6.62047      -4.65390       0.36548
                        -----------------------------------------
Total Dipole Moment    :     -0.29387      -0.60530       0.00642
                        -----------------------------------------
Magnitude (a.u.)       :      0.67290
Magnitude (Debye)      :      1.71037

                             ****ORCA TERMINATED NORMALLY****
TOTAL RUN TIME: 0 days 0 hours 0 minutes 6 seconds 597 msec
