                         Program Version 3.0.3 - RELEASE   -
|  1> ! RI PBE def2-SVP def2-SVP/J NBO PAL2
|  2> % maxcore 2000
|  3> % output
|  4>     # printlevel mini
|  5>     print[ P_Basis ] 0
|  6>     print[ P_SCFInfo ] 1
|  7>     print[ P_SCFIterInfo ] 1
|  8>     print[ P_OrbEn ] 0
|  9>     print[ P_Cartesian ] 0
| 10> end
| 11> *xyz 0 1
| 12>  C        1.3531420000     0.1781260000     0.8453580000
| 13>  N        2.3022450000    -0.0890450000    -0.1952470000
| 14>  C        2.2970310000    -1.4420100000    -0.7166080000
| 15>  C        2.9896250000    -1.3192060000    -2.0451310000
| 16>  O        4.1858970000    -0.5545260000    -2.0105640000
| 17>  C        2.9859420000     0.0912720000    -2.4106250000
| 18>  C        2.2910710000     0.8404190000    -1.3080490000
| 19>  H        1.5028460000    -0.5181140000     1.6743970000
| 20>  H        0.3019260000     0.0889640000     0.5118620000
| 21>  H        1.4983860000     1.1900900000     1.2317540000
| 22>  H        1.2785270000    -1.8348300000    -0.9015370000
| 23>  H        2.7970860000    -2.1250990000    -0.0216280000
| 24>  H        2.9594560000    -2.1302190000    -2.7654120000
| 25>  H        2.9527190000     0.4502660000    -3.4340880000
| 26>  H        1.2708940000     1.0890070000    -1.6591850000
| 27>  H        2.7868960000     1.7774960000    -1.0328990000
| 28> *
| 29>
| 30>                          ****END OF INPUT****
 Total Charge           Charge          ....    0
 Multiplicity           Mult            ....    1
 Number of Electrons    NEL             ....   54
 Basis Dimension        Dim             ....  143

MULLIKEN ATOMIC CHARGES
-----------------------
   0 C :    0.097761
   1 N :   -0.392814
   2 C :    0.243816
   3 C :   -0.011970
   4 O :   -0.266787
   5 C :   -0.010272
   6 C :    0.253899
   7 H :    0.023552
   8 H :   -0.007222
   9 H :    0.020002
  10 H :   -0.014562
  11 H :    0.020755
  12 H :    0.023250
  13 H :    0.019413
  14 H :   -0.017678
  15 H :    0.018859
Sum of atomic charges:   -0.0000000

LOEWDIN ATOMIC CHARGES
----------------------
   0 C :    0.002884
   1 N :   -0.114160
   2 C :    0.017561
   3 C :    0.037823
   4 O :   -0.141524
   5 C :    0.038839
   6 C :    0.019196
   7 H :    0.024491
   8 H :   -0.004223
   9 H :    0.024064
  10 H :    0.005582
  11 H :    0.024888
  12 H :    0.017860
  13 H :    0.017053
  14 H :    0.005048
  15 H :    0.024620

  Mayer bond orders larger than 0.1
B(  0-C ,  1-N ) :   1.0535 B(  0-C ,  7-H ) :   0.9658 B(  0-C ,  8-H ) :   0.9417
B(  0-C ,  9-H ) :   0.9655 B(  1-N ,  2-C ) :   1.0112 B(  1-N ,  6-C ) :   1.0089
B(  2-C ,  3-C ) :   1.0234 B(  2-C , 10-H ) :   0.8958 B(  2-C , 11-H ) :   0.9167
B(  3-C ,  4-O ) :   0.9896 B(  3-C ,  5-C ) :   1.0451 B(  3-C , 12-H ) :   0.9536
B(  4-O ,  5-C ) :   0.9899 B(  5-C ,  6-C ) :   1.0231 B(  5-C , 13-H ) :   0.9566
B(  6-C , 14-H ) :   0.8960 B(  6-C , 15-H ) :   0.9155

FINAL SINGLE POINT ENERGY      -325.221370389956

DIPOLE MOMENT
-------------
                                X             Y             Z
Electronic contribution:      5.01992      -0.86882      -3.41461
Nuclear contribution   :     -5.83397       0.83393       3.27701
                        -----------------------------------------
Total Dipole Moment    :     -0.81405      -0.03489      -0.13760
                        -----------------------------------------
Magnitude (a.u.)       :      0.82634
Magnitude (Debye)      :      2.10038

                             ****ORCA TERMINATED NORMALLY****
TOTAL RUN TIME: 0 days 0 hours 0 minutes 7 seconds 96 msec
