                         Program Version 3.0.3 - RELEASE   -
|  1> ! RI PBE def2-SVP def2-SVP/J NBO PAL2
|  2> % maxcore 2000
|  3> % output
|  4>     # printlevel mini
|  5>     print[ P_Basis ] 0
|  6>     print[ P_SCFInfo ] 1
|  7>     print[ P_SCFIterInfo ] 1
|  8>     print[ P_OrbEn ] 0
|  9>     print[ P_Cartesian ] 0
| 10> end
| 11> *xyz 0 1
| 12>  C        1.0305600000    -0.1374000000     0.0085460000
| 13>  N        2.4636780000    -0.1116860000     0.0887650000
| 14>  C        3.1101030000     0.9530920000     0.8555690000
| 15>  C        4.1811640000    -0.0569130000     1.2908380000
| 16>  C        3.1564080000    -1.1284640000     0.8845530000
| 17>  C        3.6332190000    -2.3576210000     0.1536530000
| 18>  O        2.5814570000    -3.2187720000    -0.2346720000
| 19>  H        0.6754080000     0.7332620000    -0.5489290000
| 20>  H        0.5480710000    -0.1259270000     1.0037020000
| 21>  H        0.7074530000    -1.0345180000    -0.5223830000
| 22>  H        2.5021000000     1.2919240000     1.7105720000
| 23>  H        3.4192220000     1.8256770000     0.2737460000
| 24>  H        4.5066000000    -0.0366730000     2.3291890000
| 25>  H        5.0497730000    -0.0526280000     0.6304550000
| 26>  H        2.5535840000    -1.4348180000     1.7625840000
| 27>  H        4.3705710000    -2.8850890000     0.7779390000
| 28>  H        4.1298420000    -2.0519880000    -0.7699480000
| 29>  H        2.1592880000    -3.5553580000     0.5601210000
| 30> *
| 31>
| 32>                          ****END OF INPUT****
 Total Charge           Charge          ....    0
 Multiplicity           Mult            ....    1
 Number of Electrons    NEL             ....   56
 Basis Dimension        Dim             ....  153

MULLIKEN ATOMIC CHARGES
-----------------------
   0 C :    0.091837
   1 N :   -0.332880
   2 C :    0.150525
   3 C :   -0.012792
   4 C :   -0.058891
   5 C :    0.273187
   6 O :   -0.281959
   7 H :    0.022943
   8 H :   -0.017011
   9 H :    0.026214
  10 H :   -0.013972
  11 H :    0.010785
  12 H :    0.021231
  13 H :    0.014496
  14 H :   -0.036509
  15 H :   -0.002899
  16 H :   -0.004790
  17 H :    0.150485
Sum of atomic charges:   -0.0000000

LOEWDIN ATOMIC CHARGES
----------------------
   0 C :   -0.008341
   1 N :   -0.111484
   2 C :    0.035040
   3 C :   -0.033008
   4 C :   -0.000191
   5 C :    0.047393
   6 O :   -0.118358
   7 H :    0.023802
   8 H :   -0.006284
   9 H :    0.023731
  10 H :    0.000133
  11 H :    0.010793
  12 H :    0.020551
  13 H :    0.027559
  14 H :   -0.005276
  15 H :    0.006250
  16 H :    0.021826
  17 H :    0.065864

  Mayer bond orders larger than 0.1
B(  0-C ,  1-N ) :   1.0347 B(  0-C ,  7-H ) :   0.9684 B(  0-C ,  8-H ) :   0.9366
B(  0-C ,  9-H ) :   0.9661 B(  1-N ,  2-C ) :   1.0163 B(  1-N ,  4-C ) :   1.0061
B(  2-C ,  3-C ) :   1.1080 B(  2-C , 10-H ) :   0.9122 B(  2-C , 11-H ) :   0.9398
B(  3-C ,  4-C ) :   1.0499 B(  3-C , 12-H ) :   0.9415 B(  3-C , 13-H ) :   0.9106
B(  4-C ,  5-C ) :   1.0489 B(  4-C , 14-H ) :   0.8729 B(  5-C ,  6-O ) :   1.0662
B(  5-C , 15-H ) :   0.9327 B(  5-C , 16-H ) :   0.9015 B(  6-O , 17-H ) :   0.9835

FINAL SINGLE POINT ENERGY      -326.422648282502

DIPOLE MOMENT
-------------
                                X             Y             Z
Electronic contribution:      0.71601      -2.51644      -1.59982
Nuclear contribution   :     -0.67950       2.60660       2.35181
                        -----------------------------------------
Total Dipole Moment    :      0.03651       0.09016       0.75200
                        -----------------------------------------
Magnitude (a.u.)       :      0.75826
Magnitude (Debye)      :      1.92735

                             ****ORCA TERMINATED NORMALLY****
TOTAL RUN TIME: 0 days 0 hours 0 minutes 8 seconds 39 msec
