                         Program Version 3.0.3 - RELEASE   -
|  1> ! RI PBE def2-SVP def2-SVP/J NBO PAL2
|  2> % maxcore 2000
|  3> % output
|  4>     # printlevel mini
|  5>     print[ P_Basis ] 0
|  6>     print[ P_SCFInfo ] 1
|  7>     print[ P_SCFIterInfo ] 1
|  8>     print[ P_OrbEn ] 0
|  9>     print[ P_Cartesian ] 0
| 10> end
| 11> *xyz 0 1
| 12>  C        1.0265270000    -0.1066570000     0.0142390000
| 13>  N        2.4611370000    -0.1080600000     0.0458970000
| 14>  C        3.1549620000     0.9811240000     0.7281220000
| 15>  C        4.2209520000    -0.0292310000     1.2096130000
| 16>  C        3.1497610000    -1.0924520000     0.8764770000
| 17>  C        5.3985390000    -0.0977530000     0.2928830000
| 18>  O        6.5441660000    -0.0748410000     0.6528930000
| 19>  H        0.6688510000     0.7366090000    -0.5815230000
| 20>  H        0.5775640000    -0.0337930000     1.0211320000
| 21>  H        0.6643080000    -1.0239780000    -0.4561620000
| 22>  H        2.5934150000     1.3909630000     1.5820880000
| 23>  H        3.4793180000     1.8061620000     0.0862190000
| 24>  H        4.5549600000     0.0438350000     2.2425190000
| 25>  H        2.5864810000    -1.3736700000     1.7799050000
| 26>  H        3.4697200000    -2.0021150000     0.3587120000
| 27>  H        5.1385390000    -0.1743420000    -0.7860250000
| 28> *
| 29>
| 30>                          ****END OF INPUT****
 Total Charge           Charge          ....    0
 Multiplicity           Mult            ....    1
 Number of Electrons    NEL             ....   54
 Basis Dimension        Dim             ....  143

MULLIKEN ATOMIC CHARGES
-----------------------
   0 C :    0.083316
   1 N :   -0.359802
   2 C :    0.190902
   3 C :   -0.212318
   4 C :    0.191782
   5 C :    0.146621
   6 O :   -0.151487
   7 H :    0.030812
   8 H :   -0.005519
   9 H :    0.029492
  10 H :   -0.000605
  11 H :    0.022815
  12 H :    0.020938
  13 H :    0.000287
  14 H :    0.021560
  15 H :   -0.008794
Sum of atomic charges:    0.0000000

LOEWDIN ATOMIC CHARGES
----------------------
   0 C :   -0.005690
   1 N :   -0.119136
   2 C :    0.049836
   3 C :   -0.075894
   4 C :    0.049960
   5 C :    0.089577
   6 O :   -0.105742
   7 H :    0.027271
   8 H :   -0.001794
   9 H :    0.027149
  10 H :    0.008352
  11 H :    0.013643
  12 H :    0.028386
  13 H :    0.008381
  14 H :    0.013497
  15 H :   -0.007795

  Mayer bond orders larger than 0.1
B(  0-C ,  1-N ) :   1.0410 B(  0-C ,  7-H ) :   0.9691 B(  0-C ,  8-H ) :   0.9403
B(  0-C ,  9-H ) :   0.9691 B(  1-N ,  2-C ) :   1.0053 B(  1-N ,  4-C ) :   1.0035
B(  2-C ,  3-C ) :   1.0080 B(  2-C , 10-H ) :   0.9076 B(  2-C , 11-H ) :   0.9401
B(  3-C ,  4-C ) :   1.0078 B(  3-C ,  5-C ) :   0.9372 B(  3-C , 12-H ) :   0.9253
B(  4-C , 13-H ) :   0.9090 B(  4-C , 14-H ) :   0.9405 B(  5-C ,  6-O ) :   2.1876
B(  5-C , 15-H ) :   0.9264

FINAL SINGLE POINT ENERGY      -325.223304265757

DIPOLE MOMENT
-------------
                                X             Y             Z
Electronic contribution:      7.75968      -0.03577      -0.20248
Nuclear contribution   :     -8.93157       0.04641       0.33322
                        -----------------------------------------
Total Dipole Moment    :     -1.17189       0.01064       0.13074
                        -----------------------------------------
Magnitude (a.u.)       :      1.17921
Magnitude (Debye)      :      2.99731

                             ****ORCA TERMINATED NORMALLY****
TOTAL RUN TIME: 0 days 0 hours 0 minutes 6 seconds 984 msec
