                         Program Version 3.0.3 - RELEASE   -
|  1> ! RI PBE def2-SVP def2-SVP/J NBO PAL2
|  2> % maxcore 2000
|  3> % output
|  4>     # printlevel mini
|  5>     print[ P_Basis ] 0
|  6>     print[ P_SCFInfo ] 1
|  7>     print[ P_SCFIterInfo ] 1
|  8>     print[ P_OrbEn ] 0
|  9>     print[ P_Cartesian ] 0
| 10> end
| 11> *xyz 0 1
| 12>  C        1.3353180000     0.5227090000    -0.4478880000
| 13>  N        2.5821540000     0.2769750000     0.2229050000
| 14>  C        2.7235840000     0.6740850000     1.6254290000
| 15>  C        3.5809360000    -0.5773310000     1.8560820000
| 16>  C        2.9473820000    -1.1005120000     0.5444760000
| 17>  C        3.8921950000    -1.7648180000    -0.4149060000
| 18>  O        3.9597530000    -2.9500860000    -0.5899000000
| 19>  H        1.1821700000     1.5989620000    -0.5580630000
| 20>  H        0.4688290000     0.1042740000     0.0930890000
| 21>  H        1.3570830000     0.0854520000    -1.4490200000
| 22>  H        1.7727980000     0.6247130000     2.1787290000
| 23>  H        3.1800290000     1.6537730000     1.7886800000
| 24>  H        4.6481890000    -0.3796110000     1.7489260000
| 25>  H        3.4019560000    -1.1680800000     2.7511550000
| 26>  H        2.0920210000    -1.7645720000     0.7398630000
| 27>  H        4.5697130000    -1.0553240000    -0.9403550000
| 28> *
| 29>
| 30>                          ****END OF INPUT****
 Total Charge           Charge          ....    0
 Multiplicity           Mult            ....    1
 Number of Electrons    NEL             ....   54
 Basis Dimension        Dim             ....  143

MULLIKEN ATOMIC CHARGES
-----------------------
   0 C :    0.094536
   1 N :   -0.347514
   2 C :    0.160772
   3 C :   -0.009951
   4 C :   -0.018666
   5 C :    0.161401
   6 O :   -0.146117
   7 H :    0.030720
   8 H :   -0.002131
   9 H :    0.025054
  10 H :   -0.005482
  11 H :    0.013781
  12 H :    0.025650
  13 H :    0.041389
  14 H :   -0.001517
  15 H :   -0.021925
Sum of atomic charges:   -0.0000000

LOEWDIN ATOMIC CHARGES
----------------------
   0 C :   -0.003875
   1 N :   -0.113063
   2 C :    0.039661
   3 C :   -0.016631
   4 C :   -0.016154
   5 C :    0.080423
   6 O :   -0.100628
   7 H :    0.027167
   8 H :    0.000274
   9 H :    0.026563
  10 H :    0.004673
  11 H :    0.012474
  12 H :    0.030769
  13 H :    0.028271
  14 H :    0.013884
  15 H :   -0.013809

  Mayer bond orders larger than 0.1
B(  0-C ,  1-N ) :   1.0341 B(  0-C ,  7-H ) :   0.9694 B(  0-C ,  8-H ) :   0.9431
B(  0-C ,  9-H ) :   0.9683 B(  1-N ,  2-C ) :   1.0107 B(  1-N ,  4-C ) :   0.9708
B(  2-C ,  3-C ) :   1.1048 B(  2-C , 10-H ) :   0.9141 B(  2-C , 11-H ) :   0.9413
B(  3-C ,  4-C ) :   1.0453 B(  3-C , 12-H ) :   0.9124 B(  3-C , 13-H ) :   0.9445
B(  4-C ,  5-C ) :   0.9554 B(  4-C , 14-H ) :   0.8873 B(  5-C ,  6-O ) :   2.1973
B(  5-C , 15-H ) :   0.9097

FINAL SINGLE POINT ENERGY      -325.224474039733

DIPOLE MOMENT
-------------
                                X             Y             Z
Electronic contribution:      3.55708      -4.87127      -2.19383
Nuclear contribution   :     -3.95283       5.70354       2.70139
                        -----------------------------------------
Total Dipole Moment    :     -0.39575       0.83227       0.50756
                        -----------------------------------------
Magnitude (a.u.)       :      1.05210
Magnitude (Debye)      :      2.67422

                             ****ORCA TERMINATED NORMALLY****
TOTAL RUN TIME: 0 days 0 hours 0 minutes 6 seconds 965 msec
