                         Program Version 3.0.3 - RELEASE   -
|  1> ! RI PBE def2-SVP def2-SVP/J NBO PAL2
|  2> % maxcore 2000
|  3> % output
|  4>     # printlevel mini
|  5>     print[ P_Basis ] 0
|  6>     print[ P_SCFInfo ] 1
|  7>     print[ P_SCFIterInfo ] 1
|  8>     print[ P_OrbEn ] 0
|  9>     print[ P_Cartesian ] 0
| 10> end
| 11> *xyz 0 1
| 12>  C        0.9538550000     0.0346160000     0.0603500000
| 13>  N        2.3925180000     0.0479250000     0.0652200000
| 14>  C        3.2041710000     1.1603180000     0.0700150000
| 15>  C        4.5037570000     0.7399370000     0.0737560000
| 16>  C        4.4994080000    -0.6819620000     0.0711860000
| 17>  C        3.1798920000    -1.0561660000     0.0659700000
| 18>  O        2.5606370000    -2.2597510000     0.0617230000
| 19>  H        0.5980690000     1.0636190000     0.0603910000
| 20>  H        0.5628730000    -0.4740290000     0.9442630000
| 21>  H        0.5689070000    -0.4718670000    -0.8274380000
| 22>  H        2.7756530000     2.1491710000     0.0703070000
| 23>  H        5.3728600000     1.3786580000     0.0778890000
| 24>  H        5.3521890000    -1.3430880000     0.0729550000
| 25>  H        3.2331920000    -2.9447020000     0.0623130000
| 26> *
| 27>
| 28>                          ****END OF INPUT****
 Total Charge           Charge          ....    0
 Multiplicity           Mult            ....    1
 Number of Electrons    NEL             ....   52
 Basis Dimension        Dim             ....  133

MULLIKEN ATOMIC CHARGES
-----------------------
   0 C :    0.112493
   1 N :   -0.210998
   2 C :    0.050015
   3 C :   -0.022998
   4 C :   -0.110863
   5 C :    0.149268
   6 O :   -0.170412
   7 H :    0.029977
   8 H :    0.041684
   9 H :    0.041593
  10 H :   -0.017817
  11 H :   -0.024211
  12 H :   -0.047109
  13 H :    0.179378
Sum of atomic charges:   -0.0000000

LOEWDIN ATOMIC CHARGES
----------------------
   0 C :    0.026240
   1 N :    0.045414
   2 C :   -0.054242
   3 C :   -0.083173
   4 C :   -0.152311
   5 C :    0.013470
   6 O :   -0.038916
   7 H :    0.033601
   8 H :    0.031003
   9 H :    0.030996
  10 H :    0.013502
  11 H :    0.021718
  12 H :    0.016681
  13 H :    0.096015

  Mayer bond orders larger than 0.1
B(  0-C ,  1-N ) :   0.9877 B(  0-C ,  7-H ) :   0.9677 B(  0-C ,  8-H ) :   0.9669
B(  0-C ,  9-H ) :   0.9669 B(  1-N ,  2-C ) :   1.1422 B(  1-N ,  5-C ) :   1.2170
B(  2-C ,  3-C ) :   1.5080 B(  2-C , 10-H ) :   0.9886 B(  3-C ,  4-C ) :   1.2530
B(  3-C , 11-H ) :   1.0022 B(  4-C ,  5-C ) :   1.4201 B(  4-C , 12-H ) :   1.0144
B(  5-C ,  6-O ) :   1.1908 B(  6-O , 13-H ) :   0.9672

FINAL SINGLE POINT ENERGY      -324.069769108832

DIPOLE MOMENT
-------------
                                X             Y             Z
Electronic contribution:      1.79898      -2.03397       0.00264
Nuclear contribution   :     -2.25451       1.65474      -0.00502
                        -----------------------------------------
Total Dipole Moment    :     -0.45553      -0.37923      -0.00238
                        -----------------------------------------
Magnitude (a.u.)       :      0.59272
Magnitude (Debye)      :      1.50659

                             ****ORCA TERMINATED NORMALLY****
TOTAL RUN TIME: 0 days 0 hours 0 minutes 6 seconds 540 msec
