                         Program Version 3.0.3 - RELEASE   -
|  1> ! RI PBE def2-SVP def2-SVP/J NBO PAL2
|  2> % maxcore 2000
|  3> % output
|  4>     # printlevel mini
|  5>     print[ P_Basis ] 0
|  6>     print[ P_SCFInfo ] 1
|  7>     print[ P_SCFIterInfo ] 1
|  8>     print[ P_OrbEn ] 0
|  9>     print[ P_Cartesian ] 0
| 10> end
| 11> *xyz 0 1
| 12>  C        1.0581110000     0.1128180000    -0.1387220000
| 13>  N        2.4748730000     0.0727220000     0.1032840000
| 14>  C        3.2687760000    -1.0681410000     0.2298690000
| 15>  C        4.5466500000    -0.7593610000     0.4509790000
| 16>  C        4.6633900000     0.7306930000     0.4830160000
| 17>  C        3.2377340000     1.2074650000     0.2429150000
| 18>  O        2.8153020000     2.3388650000     0.1798410000
| 19>  H        0.6775440000    -0.9052760000    -0.2114870000
| 20>  H        0.8394390000     0.6433220000    -1.0683080000
| 21>  H        0.5416740000     0.6301770000     0.6730660000
| 22>  H        2.8082570000    -2.0423910000     0.1432220000
| 23>  H        5.3541420000    -1.4616640000     0.5834600000
| 24>  H        5.3175140000     1.1411870000    -0.2923380000
| 25>  H        5.0214050000     1.1271740000     1.4381020000
| 26> *
| 27>
| 28>                          ****END OF INPUT****
 Total Charge           Charge          ....    0
 Multiplicity           Mult            ....    1
 Number of Electrons    NEL             ....   52
 Basis Dimension        Dim             ....  133

MULLIKEN ATOMIC CHARGES
-----------------------
   0 C :    0.109968
   1 N :   -0.248348
   2 C :    0.127225
   3 C :   -0.142813
   4 C :    0.087055
   5 C :    0.023252
   6 O :   -0.193119
   7 H :    0.026453
   8 H :    0.044055
   9 H :    0.047168
  10 H :    0.001049
  11 H :    0.001114
  12 H :    0.060333
  13 H :    0.056608
Sum of atomic charges:    0.0000000

LOEWDIN ATOMIC CHARGES
----------------------
   0 C :    0.023568
   1 N :   -0.007646
   2 C :    0.014134
   3 C :   -0.090108
   4 C :   -0.057723
   5 C :    0.034337
   6 O :   -0.176952
   7 H :    0.030141
   8 H :    0.033136
   9 H :    0.033584
  10 H :    0.023329
  11 H :    0.025864
  12 H :    0.057584
  13 H :    0.056752

  Mayer bond orders larger than 0.1
B(  0-C ,  1-N ) :   0.9795 B(  0-C ,  7-H ) :   0.9673 B(  0-C ,  8-H ) :   0.9654
B(  0-C ,  9-H ) :   0.9659 B(  1-N ,  2-C ) :   1.0551 B(  1-N ,  5-C ) :   1.1338
B(  2-C ,  3-C ) :   1.7435 B(  2-C , 10-H ) :   0.9837 B(  3-C ,  4-C ) :   1.0532
B(  3-C , 11-H ) :   0.9924 B(  4-C ,  5-C ) :   0.9743 B(  4-C , 12-H ) :   0.8964
B(  4-C , 13-H ) :   0.8967 B(  5-C ,  6-O ) :   2.1213

FINAL SINGLE POINT ENERGY      -324.084622430618

DIPOLE MOMENT
-------------
                                X             Y             Z
Electronic contribution:      1.05961       2.33889       0.20155
Nuclear contribution   :     -1.13484      -3.50890      -0.22225
                        -----------------------------------------
Total Dipole Moment    :     -0.07523      -1.17001      -0.02071
                        -----------------------------------------
Magnitude (a.u.)       :      1.17261
Magnitude (Debye)      :      2.98054

                             ****ORCA TERMINATED NORMALLY****
TOTAL RUN TIME: 0 days 0 hours 0 minutes 6 seconds 752 msec
