                         Program Version 3.0.3 - RELEASE   -
|  1> ! RI PBE def2-SVP def2-SVP/J NBO PAL2
|  2> % maxcore 2000
|  3> % output
|  4>     # printlevel mini
|  5>     print[ P_Basis ] 0
|  6>     print[ P_SCFInfo ] 1
|  7>     print[ P_SCFIterInfo ] 1
|  8>     print[ P_OrbEn ] 0
|  9>     print[ P_Cartesian ] 0
| 10> end
| 11> *xyz 0 1
| 12>  C        1.0534480000     0.0689790000     0.2001080000
| 13>  N        2.4657320000     0.0346990000    -0.0592020000
| 14>  C        3.2548150000    -1.1578960000    -0.1641110000
| 15>  C        4.6249960000    -0.6284220000    -0.4352780000
| 16>  C        4.5988390000     0.7001200000    -0.4760690000
| 17>  C        3.2097150000     1.1684530000    -0.2355670000
| 18>  O        2.7829400000     2.3037040000    -0.1958610000
| 19>  H        0.6815480000    -0.9502780000     0.3047330000
| 20>  H        0.5162290000     0.5587650000    -0.6164540000
| 21>  H        0.8365160000     0.6200520000     1.1190750000
| 22>  H        2.9089030000    -1.8115810000    -0.9771900000
| 23>  H        3.2297600000    -1.7520950000     0.7602010000
| 24>  H        5.4817110000    -1.2746510000    -0.5713080000
| 25>  H        5.4186290000     1.3812410000    -0.6508680000
| 26> *
| 27>
| 28>                          ****END OF INPUT****
 Total Charge           Charge          ....    0
 Multiplicity           Mult            ....    1
 Number of Electrons    NEL             ....   52
 Basis Dimension        Dim             ....  133

MULLIKEN ATOMIC CHARGES
-----------------------
   0 C :    0.110052
   1 N :   -0.322012
   2 C :    0.218096
   3 C :   -0.101125
   4 C :   -0.023072
   5 C :    0.125497
   6 O :   -0.207289
   7 H :    0.021668
   8 H :    0.042406
   9 H :    0.039190
  10 H :    0.044922
  11 H :    0.042608
  12 H :    0.012219
  13 H :   -0.003161
Sum of atomic charges:   -0.0000000

LOEWDIN ATOMIC CHARGES
----------------------
   0 C :    0.019483
   1 N :   -0.038478
   2 C :    0.035036
   3 C :   -0.017538
   4 C :   -0.045763
   5 C :    0.012457
   6 O :   -0.192781
   7 H :    0.027954
   8 H :    0.031362
   9 H :    0.030906
  10 H :    0.037235
  11 H :    0.036918
  12 H :    0.029079
  13 H :    0.034131

  Mayer bond orders larger than 0.1
B(  0-C ,  1-N ) :   0.9895 B(  0-C ,  7-H ) :   0.9674 B(  0-C ,  8-H ) :   0.9652
B(  0-C ,  9-H ) :   0.9646 B(  1-N ,  2-C ) :   1.0100 B(  1-N ,  5-C ) :   1.1350
B(  2-C ,  3-C ) :   1.0196 B(  2-C , 10-H ) :   0.9081 B(  2-C , 11-H ) :   0.9074
B(  3-C ,  4-C ) :   1.7707 B(  3-C , 12-H ) :   0.9871 B(  4-C ,  5-C ) :   0.9662
B(  4-C , 13-H ) :   1.0124 B(  5-C ,  6-O ) :   2.0859

FINAL SINGLE POINT ENERGY      -324.082809379087

DIPOLE MOMENT
-------------
                                X             Y             Z
Electronic contribution:      2.43198       3.81007      -0.58280
Nuclear contribution   :     -2.35792      -5.43016       0.62111
                        -----------------------------------------
Total Dipole Moment    :      0.07406      -1.62008       0.03831
                        -----------------------------------------
Magnitude (a.u.)       :      1.62223
Magnitude (Debye)      :      4.12338

                             ****ORCA TERMINATED NORMALLY****
TOTAL RUN TIME: 0 days 0 hours 0 minutes 6 seconds 770 msec
