                         Program Version 3.0.3 - RELEASE   -
|  1> ! RI PBE def2-SVP def2-SVP/J NBO PAL2
|  2> % maxcore 2000
|  3> % output
|  4>     # printlevel mini
|  5>     print[ P_Basis ] 0
|  6>     print[ P_SCFInfo ] 1
|  7>     print[ P_SCFIterInfo ] 1
|  8>     print[ P_OrbEn ] 0
|  9>     print[ P_Cartesian ] 0
| 10> end
| 11> *xyz 0 1
| 12>  C        1.1537100000    -0.0142440000     0.1033510000
| 13>  N        2.5337480000     0.0322280000    -0.2794920000
| 14>  C        3.3465290000     1.2103150000    -0.1008370000
| 15>  C        4.6471960000     0.8557700000    -0.8268070000
| 16>  C        4.6921050000    -0.6667690000    -0.7704670000
| 17>  C        3.2417500000    -1.0828900000    -0.6108680000
| 18>  O        2.7866280000    -2.1998150000    -0.7283330000
| 19>  H        0.5636920000     0.7068860000    -0.4702770000
| 20>  H        1.0276020000     0.2072650000     1.1695620000
| 21>  H        0.7853020000    -1.0205070000    -0.0949520000
| 22>  H        3.5144470000     1.4116730000     0.9672900000
| 23>  H        2.8549040000     2.0906600000    -0.5256380000
| 24>  H        5.5143490000     1.3366840000    -0.3742510000
| 25>  H        4.5860820000     1.1889680000    -1.8651450000
| 26>  H        5.2357860000    -1.0358250000     0.1052060000
| 27>  H        5.1298700000    -1.1411070000    -1.6480610000
| 28> *
| 29>
| 30>                          ****END OF INPUT****
 Total Charge           Charge          ....    0
 Multiplicity           Mult            ....    1
 Number of Electrons    NEL             ....   54
 Basis Dimension        Dim             ....  143

MULLIKEN ATOMIC CHARGES
-----------------------
   0 C :    0.101248
   1 N :   -0.306792
   2 C :    0.144757
   3 C :   -0.032067
   4 C :   -0.005389
   5 C :    0.051988
   6 O :   -0.207166
   7 H :    0.027063
   8 H :    0.022762
   9 H :    0.047868
  10 H :    0.017214
  11 H :    0.014554
  12 H :    0.016831
  13 H :    0.030104
  14 H :    0.042375
  15 H :    0.034649
Sum of atomic charges:    0.0000000

LOEWDIN ATOMIC CHARGES
----------------------
   0 C :    0.015219
   1 N :   -0.034693
   2 C :    0.034296
   3 C :   -0.040303
   4 C :   -0.062608
   5 C :    0.021618
   6 O :   -0.191599
   7 H :    0.023524
   8 H :    0.021746
   9 H :    0.035264
  10 H :    0.014430
  11 H :    0.019549
  12 H :    0.028374
  13 H :    0.031669
  14 H :    0.043806
  15 H :    0.039710

  Mayer bond orders larger than 0.1
B(  0-C ,  1-N ) :   1.0011 B(  0-C ,  7-H ) :   0.9670 B(  0-C ,  8-H ) :   0.9623
B(  0-C ,  9-H ) :   0.9513 B(  1-N ,  2-C ) :   0.9850 B(  1-N ,  5-C ) :   1.1711
B(  2-C ,  3-C ) :   1.0841 B(  2-C , 10-H ) :   0.9296 B(  2-C , 11-H ) :   0.9407
B(  3-C ,  4-C ) :   1.1091 B(  3-C , 12-H ) :   0.9340 B(  3-C , 13-H ) :   0.9374
B(  4-C ,  5-C ) :   0.9642 B(  4-C , 14-H ) :   0.9136 B(  4-C , 15-H ) :   0.9267
B(  5-C ,  6-O ) :   2.0994

FINAL SINGLE POINT ENERGY      -325.302497989458

DIPOLE MOMENT
-------------
                                X             Y             Z
Electronic contribution:     -0.36719      -4.45480      -0.98100
Nuclear contribution   :      0.59390       5.81503       1.24706
                        -----------------------------------------
Total Dipole Moment    :      0.22671       1.36023       0.26605
                        -----------------------------------------
Magnitude (a.u.)       :      1.40443
Magnitude (Debye)      :      3.56977

                             ****ORCA TERMINATED NORMALLY****
TOTAL RUN TIME: 0 days 0 hours 0 minutes 7 seconds 782 msec
