                         Program Version 3.0.3 - RELEASE   -
|  1> ! RI PBE def2-SVP def2-SVP/J NBO PAL2
|  2> % maxcore 2000
|  3> % output
|  4>     # printlevel mini
|  5>     print[ P_Basis ] 0
|  6>     print[ P_SCFInfo ] 1
|  7>     print[ P_SCFIterInfo ] 1
|  8>     print[ P_OrbEn ] 0
|  9>     print[ P_Cartesian ] 0
| 10> end
| 11> *xyz 0 1
| 12>  C        0.9535320000     0.1049660000    -0.0137650000
| 13>  N        2.3903970000     0.0856240000    -0.0076910000
| 14>  C        3.1968850000     1.1748570000    -0.0047170000
| 15>  C        4.5076070000     0.7545070000     0.0010970000
| 16>  C        4.4739570000    -0.6586340000     0.0015590000
| 17>  O        5.5231910000    -1.5226090000     0.0063650000
| 18>  C        3.1581940000    -1.0514240000    -0.0039240000
| 19>  H        0.6125850000     1.1395910000    -0.0155900000
| 20>  H        0.5507450000    -0.3914000000     0.8729820000
| 21>  H        0.5582480000    -0.3920600000    -0.9035150000
| 22>  H        2.7831160000     2.1709410000    -0.0069220000
| 23>  H        5.3806950000     1.3897160000     0.0045420000
| 24>  H        6.3370760000    -1.0145410000     0.0102700000
| 25>  H        2.7214810000    -2.0362440000    -0.0053890000
| 26> *
| 27>
| 28>                          ****END OF INPUT****
 Total Charge           Charge          ....    0
 Multiplicity           Mult            ....    1
 Number of Electrons    NEL             ....   52
 Basis Dimension        Dim             ....  133

MULLIKEN ATOMIC CHARGES
-----------------------
   0 C :    0.104356
   1 N :   -0.183065
   2 C :    0.054050
   3 C :   -0.103577
   4 C :    0.120200
   5 O :   -0.179839
   6 C :   -0.011142
   7 H :    0.030943
   8 H :    0.039614
   9 H :    0.039539
  10 H :   -0.011535
  11 H :   -0.039076
  12 H :    0.165143
  13 H :   -0.025611
Sum of atomic charges:   -0.0000000

LOEWDIN ATOMIC CHARGES
----------------------
   0 C :    0.025960
   1 N :    0.067944
   2 C :   -0.036232
   3 C :   -0.139528
   4 C :   -0.014340
   5 O :   -0.045926
   6 C :   -0.085133
   7 H :    0.033095
   8 H :    0.029387
   9 H :    0.029377
  10 H :    0.015181
  11 H :    0.019390
  12 H :    0.084524
  13 H :    0.016302

  Mayer bond orders larger than 0.1
B(  0-C ,  1-N ) :   0.9995 B(  0-C ,  7-H ) :   0.9688 B(  0-C ,  8-H ) :   0.9650
B(  0-C ,  9-H ) :   0.9650 B(  1-N ,  2-C ) :   1.2455 B(  1-N ,  6-C ) :   1.1547
B(  2-C ,  3-C ) :   1.4071 B(  2-C ,  6-C ) :   0.1034 B(  2-C , 10-H ) :   0.9782
B(  3-C ,  4-C ) :   1.2880 B(  3-C , 11-H ) :   1.0074 B(  4-C ,  5-O ) :   1.1870
B(  4-C ,  6-C ) :   1.4269 B(  5-O , 12-H ) :   0.9739 B(  6-C , 13-H ) :   0.9960

FINAL SINGLE POINT ENERGY      -324.065914019339

DIPOLE MOMENT
-------------
                                X             Y             Z
Electronic contribution:      4.49492      -1.57442       0.01969
Nuclear contribution   :     -4.96457       2.03804      -0.02140
                        -----------------------------------------
Total Dipole Moment    :     -0.46965       0.46362      -0.00171
                        -----------------------------------------
Magnitude (a.u.)       :      0.65994
Magnitude (Debye)      :      1.67742

                             ****ORCA TERMINATED NORMALLY****
TOTAL RUN TIME: 0 days 0 hours 0 minutes 6 seconds 674 msec
