                         Program Version 3.0.3 - RELEASE   -
|  1> ! RI PBE def2-SVP def2-SVP/J NBO PAL2
|  2> % maxcore 2000
|  3> % output
|  4>     # printlevel mini
|  5>     print[ P_Basis ] 0
|  6>     print[ P_SCFInfo ] 1
|  7>     print[ P_SCFIterInfo ] 1
|  8>     print[ P_OrbEn ] 0
|  9>     print[ P_Cartesian ] 0
| 10> end
| 11> *xyz 0 1
| 12>  C        1.0848900000     0.0131650000     0.0968230000
| 13>  N        2.5162280000     0.0087340000     0.0283570000
| 14>  C        3.2527440000     1.0602930000     0.7276810000
| 15>  C        4.3039970000     0.0114880000     1.1597920000
| 16>  C        4.7695880000     0.0338170000     2.5953070000
| 17>  O        5.3972060000    -0.0845190000     0.2723610000
| 18>  C        3.2494040000    -1.0299420000     0.7536960000
| 19>  H        0.6890100000     0.8899660000    -0.4222040000
| 20>  H        0.7008620000     0.0272040000     1.1347060000
| 21>  H        0.6848380000    -0.8745990000    -0.3998140000
| 22>  H        2.7076430000     1.4751740000     1.5908630000
| 23>  H        3.6056960000     1.8803840000     0.0939040000
| 24>  H        5.3904480000     0.9160250000     2.7861510000
| 25>  H        5.3692170000    -0.8540670000     2.8096850000
| 26>  H        3.9281130000     0.0636200000     3.2898730000
| 27>  H        5.9795850000     0.6642040000     0.4302590000
| 28>  H        2.7039360000    -1.4210730000     1.6267330000
| 29>  H        3.6092730000    -1.8610040000     0.1417380000
| 30> *
| 31>
| 32>                          ****END OF INPUT****
 Total Charge           Charge          ....    0
 Multiplicity           Mult            ....    1
 Number of Electrons    NEL             ....   56
 Basis Dimension        Dim             ....  153

MULLIKEN ATOMIC CHARGES
-----------------------
   0 C :    0.088755
   1 N :   -0.363757
   2 C :    0.282506
   3 C :   -0.298271
   4 C :    0.069290
   5 O :   -0.241306
   6 C :    0.278970
   7 H :    0.023592
   8 H :   -0.015824
   9 H :    0.024707
  10 H :   -0.030818
  11 H :   -0.006971
  12 H :    0.011326
  13 H :    0.030777
  14 H :    0.011723
  15 H :    0.150686
  16 H :   -0.026209
  17 H :    0.010826
Sum of atomic charges:   -0.0000000

LOEWDIN ATOMIC CHARGES
----------------------
   0 C :   -0.007994
   1 N :   -0.114733
   2 C :    0.024916
   3 C :    0.010605
   4 C :   -0.074694
   5 O :   -0.097112
   6 C :    0.039175
   7 H :    0.024100
   8 H :   -0.007487
   9 H :    0.024500
  10 H :   -0.000119
  11 H :    0.009852
  12 H :    0.024530
  13 H :    0.031685
  14 H :    0.027141
  15 H :    0.066109
  16 H :    0.002162
  17 H :    0.017365

  Mayer bond orders larger than 0.1
B(  0-C ,  1-N ) :   1.0457 B(  0-C ,  7-H ) :   0.9690 B(  0-C ,  8-H ) :   0.9347
B(  0-C ,  9-H ) :   0.9689 B(  1-N ,  2-C ) :   1.0358 B(  1-N ,  6-C ) :   1.0305
B(  2-C ,  3-C ) :   1.0203 B(  2-C , 10-H ) :   0.8978 B(  2-C , 11-H ) :   0.9107
B(  3-C ,  4-C ) :   1.0604 B(  3-C ,  5-O ) :   1.0376 B(  3-C ,  6-C ) :   1.0288
B(  4-C , 12-H ) :   0.9488 B(  4-C , 13-H ) :   0.9531 B(  4-C , 14-H ) :   0.9332
B(  5-O , 15-H ) :   0.9814 B(  6-C , 16-H ) :   0.9050 B(  6-C , 17-H ) :   0.9104

FINAL SINGLE POINT ENERGY      -326.425644848387

DIPOLE MOMENT
-------------
                                X             Y             Z
Electronic contribution:      3.25346      -0.36744      -3.29028
Nuclear contribution   :     -3.25613       0.77196       3.89468
                        -----------------------------------------
Total Dipole Moment    :     -0.00267       0.40452       0.60441
                        -----------------------------------------
Magnitude (a.u.)       :      0.72729
Magnitude (Debye)      :      1.84862

                             ****ORCA TERMINATED NORMALLY****
TOTAL RUN TIME: 0 days 0 hours 0 minutes 8 seconds 48 msec
