                         Program Version 3.0.3 - RELEASE   -
|  1> ! RI PBE def2-SVP def2-SVP/J NBO PAL2
|  2> % maxcore 2000
|  3> % output
|  4>     # printlevel mini
|  5>     print[ P_Basis ] 0
|  6>     print[ P_SCFInfo ] 1
|  7>     print[ P_SCFIterInfo ] 1
|  8>     print[ P_OrbEn ] 0
|  9>     print[ P_Cartesian ] 0
| 10> end
| 11> *xyz 0 1
| 12>  C        0.9771070000    -0.2096030000     0.5216230000
| 13>  N        2.2232300000     0.1994400000    -0.0606500000
| 14>  C        3.1279100000     1.0318590000     0.7403130000
| 15>  C        4.3152670000     0.2600970000     0.1434010000
| 16>  C        5.4849650000    -0.1054900000     1.0279790000
| 17>  O        5.1253510000    -0.7052630000     2.2540310000
| 18>  C        3.2710140000    -0.8053080000    -0.2356400000
| 19>  H        0.3350060000     0.6614140000     0.6746520000
| 20>  H        1.1042640000    -0.7172620000     1.4954370000
| 21>  H        0.4557420000    -0.8930540000    -0.1538190000
| 22>  H        3.0390060000     0.8412700000     1.8205180000
| 23>  H        3.0593420000     2.1068690000     0.5522990000
| 24>  H        4.6936300000     0.7562410000    -0.7540550000
| 25>  H        6.0340270000     0.8017430000     1.2952860000
| 26>  H        6.1802230000    -0.7476950000     0.4679250000
| 27>  H        4.7120330000    -1.5522210000     2.0682030000
| 28>  H        3.2058390000    -1.6121360000     0.5169730000
| 29>  H        3.3265550000    -1.2615810000    -1.2281660000
| 30> *
| 31>
| 32>                          ****END OF INPUT****
 Total Charge           Charge          ....    0
 Multiplicity           Mult            ....    1
 Number of Electrons    NEL             ....   56
 Basis Dimension        Dim             ....  153

MULLIKEN ATOMIC CHARGES
-----------------------
   0 C :    0.076838
   1 N :   -0.356608
   2 C :    0.186603
   3 C :   -0.251958
   4 C :    0.228838
   5 O :   -0.279332
   6 C :    0.179475
   7 H :    0.027403
   8 H :   -0.006582
   9 H :    0.025836
  10 H :   -0.005337
  11 H :    0.018467
  12 H :    0.012889
  13 H :    0.015314
  14 H :    0.003931
  15 H :    0.148373
  16 H :   -0.036912
  17 H :    0.012762
Sum of atomic charges:   -0.0000000

LOEWDIN ATOMIC CHARGES
----------------------
   0 C :   -0.010996
   1 N :   -0.116902
   2 C :    0.034198
   3 C :   -0.062040
   4 C :    0.053392
   5 O :   -0.116900
   6 C :    0.032334
   7 H :    0.025449
   8 H :   -0.003790
   9 H :    0.023968
  10 H :    0.003553
  11 H :    0.011886
  12 H :    0.032081
  13 H :    0.025605
  14 H :    0.008373
  15 H :    0.057925
  16 H :   -0.009450
  17 H :    0.011314

  Mayer bond orders larger than 0.1
B(  0-C ,  1-N ) :   1.0423 B(  0-C ,  7-H ) :   0.9687 B(  0-C ,  8-H ) :   0.9372
B(  0-C ,  9-H ) :   0.9691 B(  1-N ,  2-C ) :   1.0085 B(  1-N ,  6-C ) :   1.0159
B(  2-C ,  3-C ) :   1.0572 B(  2-C , 10-H ) :   0.9094 B(  2-C , 11-H ) :   0.9360
B(  3-C ,  4-C ) :   1.0376 B(  3-C ,  6-C ) :   1.0706 B(  3-C , 12-H ) :   0.8870
B(  4-C ,  5-O ) :   1.0601 B(  4-C , 13-H ) :   0.9295 B(  4-C , 14-H ) :   0.9338
B(  5-O , 15-H ) :   0.9805 B(  6-C , 16-H ) :   0.8984 B(  6-C , 17-H ) :   0.9335

FINAL SINGLE POINT ENERGY      -326.420174430408

DIPOLE MOMENT
-------------
                                X             Y             Z
Electronic contribution:      2.37250       0.37880       0.34168
Nuclear contribution   :     -2.38178      -0.70198      -0.62363
                        -----------------------------------------
Total Dipole Moment    :     -0.00928      -0.32319      -0.28195
                        -----------------------------------------
Magnitude (a.u.)       :      0.42899
Magnitude (Debye)      :      1.09041

                             ****ORCA TERMINATED NORMALLY****
TOTAL RUN TIME: 0 days 0 hours 0 minutes 8 seconds 80 msec
