                         Program Version 3.0.3 - RELEASE   -
|  1> ! RI PBE def2-SVP def2-SVP/J NBO PAL2
|  2> % maxcore 2000
|  3> % output
|  4>     # printlevel mini
|  5>     print[ P_Basis ] 0
|  6>     print[ P_SCFInfo ] 1
|  7>     print[ P_SCFIterInfo ] 1
|  8>     print[ P_OrbEn ] 0
|  9>     print[ P_Cartesian ] 0
| 10> end
| 11> *xyz 0 1
| 12>  C        1.0328520000    -0.0472050000     0.0018080000
| 13>  N        2.4506530000    -0.0794310000     0.2342630000
| 14>  C        2.9555620000     1.0288500000     1.0294930000
| 15>  C        4.3841760000     0.6164990000     1.3386240000
| 16>  C        4.2968770000    -0.8969150000     1.4059310000
| 17>  O        5.1322360000    -1.6482480000     1.8241390000
| 18>  C        2.9345480000    -1.2858860000     0.8640730000
| 19>  H        0.7600230000     0.8867990000    -0.4952060000
| 20>  H        0.4465320000    -0.1235080000     0.9358430000
| 21>  H        0.7400230000    -0.8732090000    -0.6501380000
| 22>  H        2.3835600000     1.1518260000     1.9687600000
| 23>  H        2.8773210000     1.9636690000     0.4701020000
| 24>  H        4.8005310000     1.0274480000     2.2582060000
| 25>  H        5.0588900000     0.8719140000     0.5154470000
| 26>  H        2.3169520000    -1.6032830000     1.7292610000
| 27>  H        2.9987740000    -2.1317000000     0.1756950000
| 28> *
| 29>
| 30>                          ****END OF INPUT****
 Total Charge           Charge          ....    0
 Multiplicity           Mult            ....    1
 Number of Electrons    NEL             ....   54
 Basis Dimension        Dim             ....  143

MULLIKEN ATOMIC CHARGES
-----------------------
   0 C :    0.108227
   1 N :   -0.387178
   2 C :    0.110537
   3 C :    0.052294
   4 C :   -0.122619
   5 O :   -0.142531
   6 C :    0.199046
   7 H :    0.021293
   8 H :   -0.008404
   9 H :    0.027392
  10 H :   -0.010635
  11 H :    0.014741
  12 H :    0.036538
  13 H :    0.054187
  14 H :    0.008909
  15 H :    0.038202
Sum of atomic charges:   -0.0000000

LOEWDIN ATOMIC CHARGES
----------------------
   0 C :    0.002517
   1 N :   -0.117711
   2 C :    0.023916
   3 C :   -0.070157
   4 C :    0.057275
   5 O :   -0.108830
   6 C :   -0.008614
   7 H :    0.024040
   8 H :   -0.000667
   9 H :    0.025317
  10 H :   -0.001009
  11 H :    0.021601
  12 H :    0.042680
  13 H :    0.054605
  14 H :    0.019795
  15 H :    0.035240

  Mayer bond orders larger than 0.1
B(  0-C ,  1-N ) :   1.0354 B(  0-C ,  7-H ) :   0.9660 B(  0-C ,  8-H ) :   0.9390
B(  0-C ,  9-H ) :   0.9684 B(  1-N ,  2-C ) :   0.9931 B(  1-N ,  6-C ) :   1.0069
B(  2-C ,  3-C ) :   1.0889 B(  2-C , 10-H ) :   0.9066 B(  2-C , 11-H ) :   0.9334
B(  3-C ,  4-C ) :   0.9904 B(  3-C , 12-H ) :   0.9201 B(  3-C , 13-H ) :   0.8943
B(  4-C ,  5-O ) :   2.2226 B(  4-C ,  6-C ) :   0.9575 B(  6-C , 14-H ) :   0.8747
B(  6-C , 15-H ) :   0.9215

FINAL SINGLE POINT ENERGY      -325.262436087190

DIPOLE MOMENT
-------------
                                X             Y             Z
Electronic contribution:      6.02330      -3.26909       1.40364
Nuclear contribution   :     -6.78107       3.91815      -1.61544
                        -----------------------------------------
Total Dipole Moment    :     -0.75778       0.64906      -0.21180
                        -----------------------------------------
Magnitude (a.u.)       :      1.01998
Magnitude (Debye)      :      2.59258

                             ****ORCA TERMINATED NORMALLY****
TOTAL RUN TIME: 0 days 0 hours 0 minutes 7 seconds 802 msec
