                         Program Version 3.0.3 - RELEASE   -
|  1> ! RI PBE def2-SVP def2-SVP/J NBO PAL2
|  2> % maxcore 2000
|  3> % output
|  4>     # printlevel mini
|  5>     print[ P_Basis ] 0
|  6>     print[ P_SCFInfo ] 1
|  7>     print[ P_SCFIterInfo ] 1
|  8>     print[ P_OrbEn ] 0
|  9>     print[ P_Cartesian ] 0
| 10> end
| 11> *xyz 0 1
| 12>  C        1.1138510000    -0.0969260000    -0.1317660000
| 13>  N        2.5008700000    -0.1443970000     0.2438090000
| 14>  C        2.9801130000     1.0481610000     0.9272630000
| 15>  C        4.2998510000     0.6077810000     1.5789360000
| 16>  C        4.3335540000    -0.9192120000     1.3817840000
| 17>  O        5.1306650000    -1.2962960000     0.2791100000
| 18>  C        2.8708760000    -1.2391170000     1.1203840000
| 19>  H        0.9387920000     0.7402810000    -0.8118430000
| 20>  H        0.4438730000     0.0256510000     0.7385350000
| 21>  H        0.8337960000    -1.0164840000    -0.6503880000
| 22>  H        2.2599020000     1.3706770000     1.7007610000
| 23>  H        3.0924880000     1.8752560000     0.2216950000
| 24>  H        4.3221960000     0.8723820000     2.6376660000
| 25>  H        5.1781990000     1.0508580000     1.1085100000
| 26>  H        4.7406540000    -1.4464300000     2.2453620000
| 27>  H        4.6737220000    -0.9617410000    -0.5019690000
| 28>  H        2.2904420000    -1.2335590000     2.0634750000
| 29>  H        2.7363670000    -2.2076950000     0.6338650000
| 30> *
| 31>
| 32>                          ****END OF INPUT****
 Total Charge           Charge          ....    0
 Multiplicity           Mult            ....    1
 Number of Electrons    NEL             ....   56
 Basis Dimension        Dim             ....  153

MULLIKEN ATOMIC CHARGES
-----------------------
   0 C :    0.106377
   1 N :   -0.391020
   2 C :    0.125617
   3 C :    0.043542
   4 C :    0.051664
   5 O :   -0.269887
   6 C :    0.151876
   7 H :    0.025002
   8 H :   -0.008545
   9 H :    0.021988
  10 H :   -0.019646
  11 H :    0.014748
  12 H :    0.007832
  13 H :    0.005740
  14 H :    0.000097
  15 H :    0.143866
  16 H :   -0.021914
  17 H :    0.012663
Sum of atomic charges:   -0.0000000

LOEWDIN ATOMIC CHARGES
----------------------
   0 C :    0.000735
   1 N :   -0.117602
   2 C :    0.018857
   3 C :   -0.057141
   4 C :    0.046904
   5 O :   -0.114184
   6 C :    0.006385
   7 H :    0.024021
   8 H :    0.000112
   9 H :    0.024172
  10 H :   -0.000575
  11 H :    0.019134
  12 H :    0.028227
  13 H :    0.028919
  14 H :    0.019071
  15 H :    0.055838
  16 H :   -0.001633
  17 H :    0.018760

  Mayer bond orders larger than 0.1
B(  0-C ,  1-N ) :   1.0391 B(  0-C ,  7-H ) :   0.9680 B(  0-C ,  8-H ) :   0.9376
B(  0-C ,  9-H ) :   0.9681 B(  1-N ,  2-C ) :   1.0383 B(  1-N ,  6-C ) :   0.9593
B(  2-C ,  3-C ) :   1.1161 B(  2-C , 10-H ) :   0.9046 B(  2-C , 11-H ) :   0.9347
B(  3-C ,  4-C ) :   1.0646 B(  3-C , 12-H ) :   0.9181 B(  3-C , 13-H ) :   0.9036
B(  4-C ,  5-O ) :   1.0701 B(  4-C ,  6-C ) :   1.0640 B(  4-C , 14-H ) :   0.9186
B(  5-O , 15-H ) :   0.9708 B(  6-C , 16-H ) :   0.8951 B(  6-C , 17-H ) :   0.9325

FINAL SINGLE POINT ENERGY      -326.453046430490

DIPOLE MOMENT
-------------
                                X             Y             Z
Electronic contribution:      4.06705      -1.90977      -0.96375
Nuclear contribution   :     -4.71987       2.26547       1.05035
                        -----------------------------------------
Total Dipole Moment    :     -0.65282       0.35570       0.08660
                        -----------------------------------------
Magnitude (a.u.)       :      0.74846
Magnitude (Debye)      :      1.90244

                             ****ORCA TERMINATED NORMALLY****
TOTAL RUN TIME: 0 days 0 hours 0 minutes 8 seconds 205 msec
