                         Program Version 3.0.3 - RELEASE   -
|  1> ! RI PBE def2-SVP def2-SVP/J NBO PAL2
|  2> % maxcore 2000
|  3> % output
|  4>     # printlevel mini
|  5>     print[ P_Basis ] 0
|  6>     print[ P_SCFInfo ] 1
|  7>     print[ P_SCFIterInfo ] 1
|  8>     print[ P_OrbEn ] 0
|  9>     print[ P_Cartesian ] 0
| 10> end
| 11> *xyz 0 1
| 12>  C        0.9452660000     0.0973130000    -0.0550690000
| 13>  N        2.3753980000     0.0116960000    -0.0516430000
| 14>  N        3.1846330000     1.1124000000    -0.0476550000
| 15>  C        4.5332870000     0.7588870000    -0.0439340000
| 16>  O        5.4471360000     1.5651560000    -0.0401000000
| 17>  C        4.4872660000    -0.6887480000    -0.0459910000
| 18>  C        3.1791460000    -1.0670210000    -0.0504700000
| 19>  H        0.6535480000     1.1469540000    -0.0571600000
| 20>  H        0.5160740000    -0.3690100000     0.8360400000
| 21>  H        0.5205700000    -0.3711980000    -0.9471440000
| 22>  H        2.8060930000     2.0422240000    -0.0474230000
| 23>  H        5.3505260000    -1.3314140000    -0.0442370000
| 24>  H        2.7391550000    -2.0536290000    -0.0530430000
| 25> *
| 26>
| 27>                          ****END OF INPUT****
 Total Charge           Charge          ....    0
 Multiplicity           Mult            ....    1
 Number of Electrons    NEL             ....   52
 Basis Dimension        Dim             ....  128

MULLIKEN ATOMIC CHARGES
-----------------------
   0 C :    0.102866
   1 N :   -0.148629
   2 N :   -0.082639
   3 C :    0.160938
   4 O :   -0.226451
   5 C :   -0.194243
   6 C :    0.135713
   7 H :    0.038023
   8 H :    0.052265
   9 H :    0.052208
  10 H :    0.110274
  11 H :   -0.002867
  12 H :    0.002543
Sum of atomic charges:   -0.0000000

LOEWDIN ATOMIC CHARGES
----------------------
   0 C :    0.021722
   1 N :    0.060761
   2 N :    0.055513
   3 C :   -0.005639
   4 O :   -0.234240
   5 C :   -0.134640
   6 C :    0.000131
   7 H :    0.038713
   8 H :    0.034565
   9 H :    0.034647
  10 H :    0.070334
  11 H :    0.031792
  12 H :    0.026338

  Mayer bond orders larger than 0.1
B(  0-C ,  1-N ) :   0.9898 B(  0-C ,  7-H ) :   0.9667 B(  0-C ,  8-H ) :   0.9633
B(  0-C ,  9-H ) :   0.9633 B(  1-N ,  2-N ) :   1.0028 B(  1-N ,  5-C ) :   0.1130
B(  1-N ,  6-C ) :   1.2057 B(  2-N ,  3-C ) :   1.0082 B(  2-N , 10-H ) :   0.9410
B(  3-C ,  4-O ) :   2.0956 B(  3-C ,  5-C ) :   1.1016 B(  5-C ,  6-C ) :   1.4870
B(  5-C , 11-H ) :   1.0016 B(  6-C , 12-H ) :   0.9802

FINAL SINGLE POINT ENERGY      -340.079040258992

DIPOLE MOMENT
-------------
                                X             Y             Z
Electronic contribution:      4.96813       1.90542       0.01606
Nuclear contribution   :     -7.42519      -2.52263      -0.02410
                        -----------------------------------------
Total Dipole Moment    :     -2.45706      -0.61722      -0.00804
                        -----------------------------------------
Magnitude (a.u.)       :      2.53341
Magnitude (Debye)      :      6.43941

                             ****ORCA TERMINATED NORMALLY****
TOTAL RUN TIME: 0 days 0 hours 0 minutes 6 seconds 206 msec
