                         Program Version 3.0.3 - RELEASE   -
|  1> ! RI PBE def2-SVP def2-SVP/J NBO PAL2
|  2> % maxcore 2000
|  3> % output
|  4>     # printlevel mini
|  5>     print[ P_Basis ] 0
|  6>     print[ P_SCFInfo ] 1
|  7>     print[ P_SCFIterInfo ] 1
|  8>     print[ P_OrbEn ] 0
|  9>     print[ P_Cartesian ] 0
| 10> end
| 11> *xyz 0 1
| 12>  C        0.9630400000    -0.0452350000     0.0139680000
| 13>  N        2.4088990000    -0.0406680000     0.0302520000
| 14>  C        2.9478760000     1.1023440000     0.7725760000
| 15>  C        4.3103100000     0.6236800000     1.2320970000
| 16>  C        4.1118030000    -0.8740860000     1.3603760000
| 17>  O        4.8638390000    -1.6893180000     1.8363260000
| 18>  N        2.8974760000    -1.1472520000     0.7899640000
| 19>  H        0.6261760000     0.8482080000    -0.5149000000
| 20>  H        0.5313010000    -0.0522630000     1.0265120000
| 21>  H        0.5969720000    -0.9157920000    -0.5340810000
| 22>  H        2.3151590000     1.3224620000     1.6479100000
| 23>  H        2.9681880000     1.9803330000     0.1267330000
| 24>  H        4.6558630000     1.0634880000     2.1658420000
| 25>  H        5.0821020000     0.7793640000     0.4724150000
| 26>  H        2.7750070000    -2.0523650000     0.3593200000
| 27> *
| 28>
| 29>                          ****END OF INPUT****
 Total Charge           Charge          ....    0
 Multiplicity           Mult            ....    1
 Number of Electrons    NEL             ....   54
 Basis Dimension        Dim             ....  138

MULLIKEN ATOMIC CHARGES
-----------------------
   0 C :    0.101754
   1 N :   -0.290210
   2 C :    0.129795
   3 C :   -0.032415
   4 C :    0.028770
   5 O :   -0.182542
   6 N :   -0.065189
   7 H :    0.031224
   8 H :    0.003801
   9 H :    0.028094
  10 H :    0.005101
  11 H :    0.026106
  12 H :    0.042898
  13 H :    0.046824
  14 H :    0.125988
Sum of atomic charges:    0.0000000

LOEWDIN ATOMIC CHARGES
----------------------
   0 C :   -0.007848
   1 N :   -0.070888
   2 C :    0.018886
   3 C :   -0.069440
   4 C :    0.012167
   5 O :   -0.175087
   6 N :    0.035389
   7 H :    0.030100
   8 H :    0.002291
   9 H :    0.023268
  10 H :    0.007465
  11 H :    0.027054
  12 H :    0.044127
  13 H :    0.048853
  14 H :    0.073660

  Mayer bond orders larger than 0.1
B(  0-C ,  1-N ) :   1.0089 B(  0-C ,  7-H ) :   0.9639 B(  0-C ,  8-H ) :   0.9399
B(  0-C ,  9-H ) :   0.9718 B(  1-N ,  2-C ) :   0.9636 B(  1-N ,  6-N ) :   0.9392
B(  2-C ,  3-C ) :   1.0972 B(  2-C , 10-H ) :   0.9225 B(  2-C , 11-H ) :   0.9348
B(  3-C ,  4-C ) :   0.9765 B(  3-C , 12-H ) :   0.9311 B(  3-C , 13-H ) :   0.8908
B(  4-C ,  5-O ) :   2.1553 B(  4-C ,  6-N ) :   1.1554 B(  6-N , 14-H ) :   0.9276

FINAL SINGLE POINT ENERGY      -341.279200172118

DIPOLE MOMENT
-------------
                                X             Y             Z
Electronic contribution:      4.65250      -4.33890       1.41145
Nuclear contribution   :     -5.62619       5.08844      -1.99939
                        -----------------------------------------
Total Dipole Moment    :     -0.97369       0.74953      -0.58794
                        -----------------------------------------
Magnitude (a.u.)       :      1.36219
Magnitude (Debye)      :      3.46240

                             ****ORCA TERMINATED NORMALLY****
TOTAL RUN TIME: 0 days 0 hours 0 minutes 7 seconds 165 msec
