                         Program Version 3.0.3 - RELEASE   -
|  1> ! RI PBE def2-SVP def2-SVP/J NBO PAL2
|  2> % maxcore 2000
|  3> % output
|  4>     # printlevel mini
|  5>     print[ P_Basis ] 0
|  6>     print[ P_SCFInfo ] 1
|  7>     print[ P_SCFIterInfo ] 1
|  8>     print[ P_OrbEn ] 0
|  9>     print[ P_Cartesian ] 0
| 10> end
| 11> *xyz 0 1
| 12>  C        0.9118910000     0.0801530000     0.0042750000
| 13>  N        2.3392350000    -0.0244320000     0.0053790000
| 14>  O        3.0500370000     1.1432000000     0.0083510000
| 15>  C        4.4330150000     0.8006120000     0.0096810000
| 16>  O        5.2507820000     1.6750020000     0.0122010000
| 17>  C        4.4654440000    -0.6302950000     0.0073970000
| 18>  C        3.1748790000    -1.0606260000     0.0049330000
| 19>  H        0.6641010000     1.1394980000     0.0042250000
| 20>  H        0.4800170000    -0.3792940000     0.8972230000
| 21>  H        0.4816330000    -0.3789700000    -0.8896000000
| 22>  H        5.3615660000    -1.2246190000     0.0076350000
| 23>  H        2.7766190000    -2.0656190000     0.0028110000
| 24> *
| 25>
| 26>                          ****END OF INPUT****
 Total Charge           Charge          ....    0
 Multiplicity           Mult            ....    1
 Number of Electrons    NEL             ....   52
 Basis Dimension        Dim             ....  123

MULLIKEN ATOMIC CHARGES
-----------------------
   0 C :    0.102602
   1 N :   -0.073696
   2 O :   -0.211135
   3 C :    0.213638
   4 O :   -0.174666
   5 C :   -0.199477
   6 C :    0.149429
   7 H :    0.063775
   8 H :    0.052745
   9 H :    0.052704
  10 H :    0.010795
  11 H :    0.013285
Sum of atomic charges:   -0.0000000

LOEWDIN ATOMIC CHARGES
----------------------
   0 C :    0.017778
   1 N :    0.103671
   2 O :   -0.045490
   3 C :    0.024378
   4 O :   -0.160019
   5 C :   -0.149788
   6 C :    0.015196
   7 H :    0.051364
   8 H :    0.035552
   9 H :    0.035591
  10 H :    0.037579
  11 H :    0.034188

  Mayer bond orders larger than 0.1
B(  0-C ,  1-N ) :   0.9840 B(  0-C ,  7-H ) :   0.9585 B(  0-C ,  8-H ) :   0.9638
B(  0-C ,  9-H ) :   0.9638 B(  1-N ,  2-O ) :   0.9760 B(  1-N ,  5-C ) :   0.1162
B(  1-N ,  6-C ) :   1.2504 B(  2-O ,  3-C ) :   0.9076 B(  3-C ,  4-O ) :   2.1443
B(  3-C ,  5-C ) :   1.1412 B(  5-C ,  6-C ) :   1.4557 B(  5-C , 10-H ) :   0.9986
B(  6-C , 11-H ) :   0.9753

FINAL SINGLE POINT ENERGY      -359.904606456155

DIPOLE MOMENT
-------------
                                X             Y             Z
Electronic contribution:      4.66777       2.76905       0.00948
Nuclear contribution   :     -6.50886      -4.21779      -0.01416
                        -----------------------------------------
Total Dipole Moment    :     -1.84109      -1.44874      -0.00468
                        -----------------------------------------
Magnitude (a.u.)       :      2.34276
Magnitude (Debye)      :      5.95482

                             ****ORCA TERMINATED NORMALLY****
TOTAL RUN TIME: 0 days 0 hours 0 minutes 6 seconds 212 msec
