                         Program Version 3.0.3 - RELEASE   -
|  1> ! RI PBE def2-SVP def2-SVP/J NBO PAL2
|  2> % maxcore 2000
|  3> % output
|  4>     # printlevel mini
|  5>     print[ P_Basis ] 0
|  6>     print[ P_SCFInfo ] 1
|  7>     print[ P_SCFIterInfo ] 1
|  8>     print[ P_OrbEn ] 0
|  9>     print[ P_Cartesian ] 0
| 10> end
| 11> *xyz 0 1
| 12>  C        0.9161890000     0.0040770000    -0.0646050000
| 13>  N        2.3530970000     0.0216530000    -0.0598020000
| 14>  C        3.1843940000     1.1278940000    -0.0565100000
| 15>  C        4.4550340000     0.6879050000    -0.0523400000
| 16>  N        4.4019600000    -0.6940990000    -0.0531150000
| 17>  C        3.0975000000    -1.1396320000    -0.0577660000
| 18>  O        2.6839180000    -2.2833580000    -0.0596130000
| 19>  H        0.5489960000     1.0293070000    -0.0656410000
| 20>  H        0.5351770000    -0.5138570000     0.8176810000
| 21>  H        0.5411130000    -0.5135170000    -0.9496270000
| 22>  H        2.7994700000     2.1331880000    -0.0574080000
| 23>  H        5.3801950000     1.2367160000    -0.0489370000
| 24>  H        5.1783380000    -1.3291880000    -0.0507080000
| 25> *
| 26>
| 27>                          ****END OF INPUT****
 Total Charge           Charge          ....    0
 Multiplicity           Mult            ....    1
 Number of Electrons    NEL             ....   52
 Basis Dimension        Dim             ....  128

MULLIKEN ATOMIC CHARGES
-----------------------
   0 C :    0.121987
   1 N :   -0.259831
   2 C :    0.056141
   3 C :    0.038747
   4 N :   -0.111204
   5 C :    0.133900
   6 O :   -0.230595
   7 H :    0.025660
   8 H :    0.045112
   9 H :    0.045048
  10 H :    0.005174
  11 H :    0.006231
  12 H :    0.123629
Sum of atomic charges:   -0.0000000

LOEWDIN ATOMIC CHARGES
----------------------
   0 C :    0.028379
   1 N :    0.002599
   2 C :   -0.037827
   3 C :   -0.042591
   4 N :    0.041725
   5 C :    0.008043
   6 O :   -0.232569
   7 H :    0.030230
   8 H :    0.033674
   9 H :    0.033670
  10 H :    0.024529
  11 H :    0.025650
  12 H :    0.084488

  Mayer bond orders larger than 0.1
B(  0-C ,  1-N ) :   0.9864 B(  0-C ,  7-H ) :   0.9683 B(  0-C ,  8-H ) :   0.9658
B(  0-C ,  9-H ) :   0.9658 B(  1-N ,  2-C ) :   1.1274 B(  1-N ,  5-C ) :   1.0731
B(  2-C ,  3-C ) :   1.6159 B(  2-C , 10-H ) :   0.9868 B(  3-C ,  4-N ) :   1.1380
B(  3-C , 11-H ) :   0.9880 B(  4-N ,  5-C ) :   1.1000 B(  4-N , 12-H ) :   0.9372
B(  5-C ,  6-O ) :   2.0895

FINAL SINGLE POINT ENERGY      -340.130286805004

DIPOLE MOMENT
-------------
                                X             Y             Z
Electronic contribution:      3.09679      -2.67643       0.00930
Nuclear contribution   :     -2.73342       3.93788      -0.00739
                        -----------------------------------------
Total Dipole Moment    :      0.36337       1.26145       0.00191
                        -----------------------------------------
Magnitude (a.u.)       :      1.31275
Magnitude (Debye)      :      3.33673

                             ****ORCA TERMINATED NORMALLY****
TOTAL RUN TIME: 0 days 0 hours 0 minutes 6 seconds 109 msec
