                         Program Version 3.0.3 - RELEASE   -
|  1> ! RI PBE def2-SVP def2-SVP/J NBO PAL2
|  2> % maxcore 2000
|  3> % output
|  4>     # printlevel mini
|  5>     print[ P_Basis ] 0
|  6>     print[ P_SCFInfo ] 1
|  7>     print[ P_SCFIterInfo ] 1
|  8>     print[ P_OrbEn ] 0
|  9>     print[ P_Cartesian ] 0
| 10> end
| 11> *xyz 0 1
| 12>  C        1.1040120000     0.0506310000     0.4084640000
| 13>  N        2.4390370000     0.0305400000    -0.1017350000
| 14>  C        3.3646180000     1.0952960000    -0.4574270000
| 15>  C        4.3870340000    -0.0044110000    -0.8348800000
| 16>  N        4.9381970000     0.0453790000    -2.1600520000
| 17>  C        3.2499830000    -0.9947280000    -0.4861340000
| 18>  O        3.0839550000    -2.1854010000    -0.5360700000
| 19>  H        1.0585850000     0.5335630000     1.3896620000
| 20>  H        0.7690310000    -0.9824900000     0.5094260000
| 21>  H        0.4227350000     0.5759870000    -0.2688850000
| 22>  H        3.6429540000     1.7516610000     0.3723750000
| 23>  H        3.0410680000     1.6997640000    -1.3110890000
| 24>  H        5.2005290000    -0.0728520000    -0.1090110000
| 25>  H        4.2112830000    -0.0636170000    -2.8579590000
| 26>  H        5.5923690000    -0.7148420000    -2.2968830000
| 27> *
| 28>
| 29>                          ****END OF INPUT****
 Total Charge           Charge          ....    0
 Multiplicity           Mult            ....    1
 Number of Electrons    NEL             ....   54
 Basis Dimension        Dim             ....  138

MULLIKEN ATOMIC CHARGES
-----------------------
   0 C :    0.097249
   1 N :   -0.317278
   2 C :    0.245642
   3 C :   -0.185948
   4 N :   -0.138109
   5 C :    0.122065
   6 O :   -0.185411
   7 H :    0.029579
   8 H :    0.049246
   9 H :    0.031414
  10 H :    0.015881
  11 H :    0.005972
  12 H :    0.035266
  13 H :    0.090497
  14 H :    0.103935
Sum of atomic charges:   -0.0000000

LOEWDIN ATOMIC CHARGES
----------------------
   0 C :    0.008323
   1 N :   -0.034343
   2 C :    0.042324
   3 C :   -0.023561
   4 N :   -0.081595
   5 C :   -0.008028
   6 O :   -0.176768
   7 H :    0.025879
   8 H :    0.039959
   9 H :    0.024849
  10 H :    0.016197
  11 H :    0.014890
  12 H :    0.033342
  13 H :    0.055546
  14 H :    0.062987

  Mayer bond orders larger than 0.1
B(  0-C ,  1-N ) :   0.9929 B(  0-C ,  7-H ) :   0.9639 B(  0-C ,  8-H ) :   0.9601
B(  0-C ,  9-H ) :   0.9645 B(  1-N ,  2-C ) :   1.0157 B(  1-N ,  5-C ) :   1.1648
B(  1-N ,  6-O ) :   0.1121 B(  2-C ,  3-C ) :   1.0358 B(  2-C , 10-H ) :   0.9232
B(  2-C , 11-H ) :   0.9200 B(  3-C ,  4-N ) :   1.1459 B(  3-C ,  5-C ) :   0.8701
B(  3-C , 12-H ) :   0.8848 B(  4-N , 13-H ) :   0.9642 B(  4-N , 14-H ) :   0.9647
B(  5-C ,  6-O ) :   2.1607

FINAL SINGLE POINT ENERGY      -341.291733006812

DIPOLE MOMENT
-------------
                                X             Y             Z
Electronic contribution:      1.41993      -3.82372      -0.24541
Nuclear contribution   :     -1.69173       4.73732       0.30258
                        -----------------------------------------
Total Dipole Moment    :     -0.27181       0.91360       0.05717
                        -----------------------------------------
Magnitude (a.u.)       :      0.95489
Magnitude (Debye)      :      2.42714

                             ****ORCA TERMINATED NORMALLY****
TOTAL RUN TIME: 0 days 0 hours 0 minutes 6 seconds 804 msec
