                         Program Version 3.0.3 - RELEASE   -
|  1> ! RI PBE def2-SVP def2-SVP/J NBO PAL2
|  2> % maxcore 2000
|  3> % output
|  4>     # printlevel mini
|  5>     print[ P_Basis ] 0
|  6>     print[ P_SCFInfo ] 1
|  7>     print[ P_SCFIterInfo ] 1
|  8>     print[ P_OrbEn ] 0
|  9>     print[ P_Cartesian ] 0
| 10> end
| 11> *xyz 0 1
| 12>  C        1.1008590000    -0.0061800000     0.3166190000
| 13>  N        2.4846810000     0.0883760000    -0.0493740000
| 14>  C        3.2190590000     1.3217870000    -0.1624650000
| 15>  C        4.6362680000     0.8614890000    -0.5759910000
| 16>  N        4.4981290000    -0.5691030000    -0.6354960000
| 17>  C        3.2406910000    -1.0153500000    -0.3277680000
| 18>  O        2.8607810000    -2.1673370000    -0.3039890000
| 19>  H        0.7108410000     0.9970790000     0.4899840000
| 20>  H        0.9682930000    -0.5939410000     1.2291380000
| 21>  H        0.5100820000    -0.4778570000    -0.4734600000
| 22>  H        3.2373390000     1.8683130000     0.7872350000
| 23>  H        2.7786010000     1.9853410000    -0.9152010000
| 24>  H        5.3833490000     1.1714780000     0.1608640000
| 25>  H        4.9237970000     1.2867040000    -1.5422880000
| 26>  H        5.2272510000    -1.2123820000    -0.8757070000
| 27> *
| 28>
| 29>                          ****END OF INPUT****
 Total Charge           Charge          ....    0
 Multiplicity           Mult            ....    1
 Number of Electrons    NEL             ....   54
 Basis Dimension        Dim             ....  138

MULLIKEN ATOMIC CHARGES
-----------------------
   0 C :    0.122371
   1 N :   -0.357764
   2 C :    0.118186
   3 C :    0.127541
   4 N :   -0.227219
   5 C :    0.157834
   6 O :   -0.230480
   7 H :    0.018795
   8 H :    0.032916
   9 H :    0.036804
  10 H :    0.019246
  11 H :    0.022555
  12 H :    0.022116
  13 H :    0.018846
  14 H :    0.118254
Sum of atomic charges:   -0.0000000

LOEWDIN ATOMIC CHARGES
----------------------
   0 C :    0.020224
   1 N :   -0.070419
   2 C :    0.035407
   3 C :    0.031535
   4 N :   -0.036086
   5 C :    0.017898
   6 O :   -0.225355
   7 H :    0.027174
   8 H :    0.027461
   9 H :    0.028152
  10 H :    0.016777
  11 H :    0.017369
  12 H :    0.018584
  13 H :    0.017949
  14 H :    0.073329

  Mayer bond orders larger than 0.1
B(  0-C ,  1-N ) :   1.0015 B(  0-C ,  7-H ) :   0.9669 B(  0-C ,  8-H ) :   0.9649
B(  0-C ,  9-H ) :   0.9657 B(  1-N ,  2-C ) :   1.0320 B(  1-N ,  5-C ) :   1.0820
B(  2-C ,  3-C ) :   1.0934 B(  2-C , 10-H ) :   0.9354 B(  2-C , 11-H ) :   0.9368
B(  3-C ,  4-N ) :   1.0419 B(  3-C , 12-H ) :   0.9388 B(  3-C , 13-H ) :   0.9385
B(  4-N ,  5-C ) :   1.1031 B(  4-N , 14-H ) :   0.9388 B(  5-C ,  6-O ) :   2.1035

FINAL SINGLE POINT ENERGY      -341.324899429457

DIPOLE MOMENT
-------------
                                X             Y             Z
Electronic contribution:      1.73929      -4.86579      -0.80066
Nuclear contribution   :     -1.26708       6.36360       0.77382
                        -----------------------------------------
Total Dipole Moment    :      0.47221       1.49780      -0.02684
                        -----------------------------------------
Magnitude (a.u.)       :      1.57071
Magnitude (Debye)      :      3.99242

                             ****ORCA TERMINATED NORMALLY****
TOTAL RUN TIME: 0 days 0 hours 0 minutes 6 seconds 900 msec
