                         Program Version 3.0.3 - RELEASE   -
|  1> ! RI PBE def2-SVP def2-SVP/J NBO PAL2
|  2> % maxcore 2000
|  3> % output
|  4>     # printlevel mini
|  5>     print[ P_Basis ] 0
|  6>     print[ P_SCFInfo ] 1
|  7>     print[ P_SCFIterInfo ] 1
|  8>     print[ P_OrbEn ] 0
|  9>     print[ P_Cartesian ] 0
| 10> end
| 11> *xyz 0 1
| 12>  C        0.9376910000    -0.0680670000    -0.0578140000
| 13>  N        2.3725580000    -0.0360740000    -0.0543800000
| 14>  C        3.2100940000     1.0649580000    -0.0502140000
| 15>  C        4.4618330000     0.6069960000    -0.0481760000
| 16>  O        4.4430490000    -0.7686590000    -0.0509520000
| 17>  C        3.1346570000    -1.1752670000    -0.0548410000
| 18>  N        2.6886530000    -2.3601680000    -0.0582380000
| 19>  H        0.5594820000     0.9534350000    -0.0568670000
| 20>  H        0.5648190000    -0.5945000000     0.8238480000
| 21>  H        0.5690030000    -0.5913170000    -0.9431200000
| 22>  H        2.8369040000     2.0749040000    -0.0490850000
| 23>  H        5.4229780000     1.0879640000    -0.0449560000
| 24>  H        3.4439690000    -3.0356160000    -0.0578040000
| 25> *
| 26>
| 27>                          ****END OF INPUT****
 Total Charge           Charge          ....    0
 Multiplicity           Mult            ....    1
 Number of Electrons    NEL             ....   52
 Basis Dimension        Dim             ....  128

MULLIKEN ATOMIC CHARGES
-----------------------
   0 C :    0.124055
   1 N :   -0.248555
   2 C :    0.072318
   3 C :    0.093766
   4 O :   -0.215773
   5 C :    0.069165
   6 N :   -0.139257
   7 H :    0.024394
   8 H :    0.046253
   9 H :    0.046179
  10 H :    0.014970
  11 H :    0.015491
  12 H :    0.096993
Sum of atomic charges:    0.0000000

LOEWDIN ATOMIC CHARGES
----------------------
   0 C :    0.031159
   1 N :    0.005314
   2 C :   -0.029836
   3 C :   -0.003109
   4 O :   -0.032396
   5 C :    0.028221
   6 N :   -0.209265
   7 H :    0.029725
   8 H :    0.034241
   9 H :    0.034233
  10 H :    0.031035
  11 H :    0.025563
  12 H :    0.055116

  Mayer bond orders larger than 0.1
B(  0-C ,  1-N ) :   0.9922 B(  0-C ,  7-H ) :   0.9661 B(  0-C ,  8-H ) :   0.9635
B(  0-C ,  9-H ) :   0.9635 B(  1-N ,  2-C ) :   1.1066 B(  1-N ,  5-C ) :   1.1041
B(  2-C ,  3-C ) :   1.6687 B(  2-C , 10-H ) :   0.9802 B(  3-C ,  4-O ) :   1.0628
B(  3-C , 11-H ) :   0.9948 B(  4-O ,  5-C ) :   1.0721 B(  5-C ,  6-N ) :   1.9112
B(  6-N , 12-H ) :   0.9227

FINAL SINGLE POINT ENERGY      -340.086687011822

DIPOLE MOMENT
-------------
                                X             Y             Z
Electronic contribution:      4.35383      -1.07858       0.00822
Nuclear contribution   :     -4.43045       2.22969      -0.00600
                        -----------------------------------------
Total Dipole Moment    :     -0.07661       1.15111       0.00222
                        -----------------------------------------
Magnitude (a.u.)       :      1.15366
Magnitude (Debye)      :      2.93238

                             ****ORCA TERMINATED NORMALLY****
TOTAL RUN TIME: 0 days 0 hours 0 minutes 6 seconds 207 msec
