                         Program Version 3.0.3 - RELEASE   -
|  1> ! RI PBE def2-SVP def2-SVP/J NBO PAL2
|  2> % maxcore 2000
|  3> % output
|  4>     # printlevel mini
|  5>     print[ P_Basis ] 0
|  6>     print[ P_SCFInfo ] 1
|  7>     print[ P_SCFIterInfo ] 1
|  8>     print[ P_OrbEn ] 0
|  9>     print[ P_Cartesian ] 0
| 10> end
| 11> *xyz 0 1
| 12>  C        1.1088110000    -0.0429160000     0.2034510000
| 13>  N        2.4943960000     0.0579480000    -0.1551700000
| 14>  C        3.2135750000     1.2858750000    -0.3275650000
| 15>  C        4.6123030000     0.7724130000    -0.6973620000
| 16>  O        4.5261380000    -0.6491080000    -0.6883230000
| 17>  C        3.2631000000    -1.0407580000    -0.3652210000
| 18>  N        2.8574750000    -2.2359970000    -0.2721170000
| 19>  H        0.6980660000     0.9600680000     0.3204080000
| 20>  H        0.9842150000    -0.5896740000     1.1423250000
| 21>  H        0.5406580000    -0.5720040000    -0.5667410000
| 22>  H        3.2279170000     1.8856410000     0.5907480000
| 23>  H        2.7823860000     1.9059050000    -1.1230390000
| 24>  H        5.3717110000     1.0795660000     0.0244960000
| 25>  H        4.9236010000     1.0958590000    -1.6926770000
| 26>  H        3.6116380000    -2.8827090000    -0.4741030000
| 27> *
| 28>
| 29>                          ****END OF INPUT****
 Total Charge           Charge          ....    0
 Multiplicity           Mult            ....    1
 Number of Electrons    NEL             ....   54
 Basis Dimension        Dim             ....  138

MULLIKEN ATOMIC CHARGES
-----------------------
   0 C :    0.126784
   1 N :   -0.339946
   2 C :    0.117316
   3 C :    0.168056
   4 O :   -0.289300
   5 C :    0.080580
   6 N :   -0.151981
   7 H :    0.018481
   8 H :    0.034526
   9 H :    0.038608
  10 H :    0.022324
  11 H :    0.023882
  12 H :    0.030919
  13 H :    0.026590
  14 H :    0.093162
Sum of atomic charges:   -0.0000000

LOEWDIN ATOMIC CHARGES
----------------------
   0 C :    0.024250
   1 N :   -0.056325
   2 C :    0.022371
   3 C :    0.080014
   4 O :   -0.100451
   5 C :    0.024844
   6 N :   -0.210646
   7 H :    0.026378
   8 H :    0.029094
   9 H :    0.029749
  10 H :    0.017606
  11 H :    0.017914
  12 H :    0.021971
  13 H :    0.021160
  14 H :    0.052071

  Mayer bond orders larger than 0.1
B(  0-C ,  1-N ) :   1.0056 B(  0-C ,  7-H ) :   0.9650 B(  0-C ,  8-H ) :   0.9633
B(  0-C ,  9-H ) :   0.9641 B(  1-N ,  2-C ) :   1.0279 B(  1-N ,  5-C ) :   1.1213
B(  2-C ,  3-C ) :   1.0960 B(  2-C , 10-H ) :   0.9345 B(  2-C , 11-H ) :   0.9353
B(  3-C ,  4-O ) :   0.9898 B(  3-C , 12-H ) :   0.9449 B(  3-C , 13-H ) :   0.9446
B(  4-O ,  5-C ) :   1.0810 B(  5-C ,  6-N ) :   1.9145 B(  6-N , 14-H ) :   0.9250

FINAL SINGLE POINT ENERGY      -341.291052285902

DIPOLE MOMENT
-------------
                                X             Y             Z
Electronic contribution:      3.06887      -3.26297      -0.83080
Nuclear contribution   :     -2.91728       4.65974       0.80443
                        -----------------------------------------
Total Dipole Moment    :      0.15159       1.39677      -0.02637
                        -----------------------------------------
Magnitude (a.u.)       :      1.40522
Magnitude (Debye)      :      3.57180

                             ****ORCA TERMINATED NORMALLY****
TOTAL RUN TIME: 0 days 0 hours 0 minutes 7 seconds 148 msec
