                         Program Version 3.0.3 - RELEASE   -
|  1> ! RI PBE def2-SVP def2-SVP/J NBO PAL2
|  2> % maxcore 2000
|  3> % output
|  4>     # printlevel mini
|  5>     print[ P_Basis ] 0
|  6>     print[ P_SCFInfo ] 1
|  7>     print[ P_SCFIterInfo ] 1
|  8>     print[ P_OrbEn ] 0
|  9>     print[ P_Cartesian ] 0
| 10> end
| 11> *xyz 0 1
| 12>  C        1.0488150000     0.0698620000     0.0291690000
| 13>  N        2.4873540000     0.1003490000     0.0330930000
| 14>  C        3.3218570000     1.2055950000     0.0365190000
| 15>  C        4.5725700000     0.7417390000     0.0394830000
| 16>  O        4.5524240000    -0.6275280000     0.0380100000
| 17>  C        3.2447800000    -1.0389470000     0.0339920000
| 18>  O        2.8837760000    -2.1832260000     0.0318430000
| 19>  H        0.6728980000     1.0917090000     0.0288420000
| 20>  H        0.6739680000    -0.4500010000     0.9128460000
| 21>  H        0.6788150000    -0.4487850000    -0.8572560000
| 22>  H        2.9486920000     2.2155130000     0.0365370000
| 23>  H        5.5339400000     1.2229110000     0.0426220000
| 24> *
| 25>
| 26>                          ****END OF INPUT****
 Total Charge           Charge          ....    0
 Multiplicity           Mult            ....    1
 Number of Electrons    NEL             ....   52
 Basis Dimension        Dim             ....  123

MULLIKEN ATOMIC CHARGES
-----------------------
   0 C :    0.111439
   1 N :   -0.266878
   2 C :    0.068958
   3 C :    0.093716
   4 O :   -0.202144
   5 C :    0.203030
   6 O :   -0.190603
   7 H :    0.031858
   8 H :    0.053505
   9 H :    0.053449
  10 H :    0.018934
  11 H :    0.024737
Sum of atomic charges:   -0.0000000

LOEWDIN ATOMIC CHARGES
----------------------
   0 C :    0.031183
   1 N :   -0.000969
   2 C :   -0.033602
   3 C :    0.004480
   4 O :   -0.015363
   5 C :    0.024359
   6 O :   -0.176384
   7 H :    0.033146
   8 H :    0.036844
   9 H :    0.036844
  10 H :    0.031279
  11 H :    0.028182

  Mayer bond orders larger than 0.1
B(  0-C ,  1-N ) :   0.9774 B(  0-C ,  7-H ) :   0.9682 B(  0-C ,  8-H ) :   0.9671
B(  0-C ,  9-H ) :   0.9671 B(  1-N ,  2-C ) :   1.0982 B(  1-N ,  5-C ) :   1.1033
B(  2-C ,  3-C ) :   1.6658 B(  2-C , 10-H ) :   0.9814 B(  3-C ,  4-O ) :   1.0911
B(  3-C , 11-H ) :   0.9941 B(  4-O ,  5-C ) :   1.0638 B(  5-C ,  6-O ) :   2.1267

FINAL SINGLE POINT ENERGY      -359.958373390990

DIPOLE MOMENT
-------------
                                X             Y             Z
Electronic contribution:      4.31062      -2.99083       0.00871
Nuclear contribution   :     -4.84078       4.70859      -0.00830
                        -----------------------------------------
Total Dipole Moment    :     -0.53015       1.71775       0.00040
                        -----------------------------------------
Magnitude (a.u.)       :      1.79770
Magnitude (Debye)      :      4.56940

                             ****ORCA TERMINATED NORMALLY****
TOTAL RUN TIME: 0 days 0 hours 0 minutes 5 seconds 467 msec
