                         Program Version 3.0.3 - RELEASE   -
|  1> ! RI PBE def2-SVP def2-SVP/J NBO PAL2
|  2> % maxcore 2000
|  3> % output
|  4>     # printlevel mini
|  5>     print[ P_Basis ] 0
|  6>     print[ P_SCFInfo ] 1
|  7>     print[ P_SCFIterInfo ] 1
|  8>     print[ P_OrbEn ] 0
|  9>     print[ P_Cartesian ] 0
| 10> end
| 11> *xyz 0 1
| 12>  C        1.0839620000     0.1258480000     0.5249710000
| 13>  N        2.4329930000     0.1310090000     0.0500720000
| 14>  C        3.3655170000     1.2157100000    -0.2343980000
| 15>  C        4.3794000000     0.1397470000    -0.6689330000
| 16>  O        4.7998290000     0.2511640000    -1.9958770000
| 17>  C        3.2422370000    -0.8626900000    -0.3996510000
| 18>  O        3.0906350000    -2.0471640000    -0.5477060000
| 19>  H        1.0145280000     0.5573750000     1.5280620000
| 20>  H        0.7452220000    -0.9099670000     0.5625750000
| 21>  H        0.4239090000     0.6876480000    -0.1435710000
| 22>  H        3.6402130000     1.8150820000     0.6378330000
| 23>  H        3.0567260000     1.8624020000    -1.0600660000
| 24>  H        5.2201980000     0.0280440000     0.0267320000
| 25>  H        5.0157310000    -0.6321980000    -2.3110440000
| 26> *
| 27>
| 28>                          ****END OF INPUT****
 Total Charge           Charge          ....    0
 Multiplicity           Mult            ....    1
 Number of Electrons    NEL             ....   54
 Basis Dimension        Dim             ....  133

MULLIKEN ATOMIC CHARGES
-----------------------
   0 C :    0.096018
   1 N :   -0.315575
   2 C :    0.226601
   3 C :   -0.028153
   4 O :   -0.251058
   5 C :    0.106084
   6 O :   -0.185402
   7 H :    0.031546
   8 H :    0.052175
   9 H :    0.036330
  10 H :    0.018202
  11 H :    0.023062
  12 H :    0.020479
  13 H :    0.169691
Sum of atomic charges:    0.0000000

LOEWDIN ATOMIC CHARGES
----------------------
   0 C :    0.009392
   1 N :   -0.026515
   2 C :    0.042887
   3 C :    0.023753
   4 O :   -0.099561
   5 C :   -0.006127
   6 O :   -0.173231
   7 H :    0.027076
   8 H :    0.041536
   9 H :    0.027452
  10 H :    0.016748
  11 H :    0.022433
  12 H :    0.013673
  13 H :    0.080483

  Mayer bond orders larger than 0.1
B(  0-C ,  1-N ) :   0.9869 B(  0-C ,  7-H ) :   0.9640 B(  0-C ,  8-H ) :   0.9614
B(  0-C ,  9-H ) :   0.9643 B(  1-N ,  2-C ) :   1.0163 B(  1-N ,  5-C ) :   1.1908
B(  1-N ,  6-O ) :   0.1175 B(  2-C ,  3-C ) :   1.0506 B(  2-C , 10-H ) :   0.9247
B(  2-C , 11-H ) :   0.9136 B(  3-C ,  4-O ) :   1.0855 B(  3-C ,  5-C ) :   0.8941
B(  3-C , 12-H ) :   0.8774 B(  4-O , 13-H ) :   0.9739 B(  5-C ,  6-O ) :   2.1469

FINAL SINGLE POINT ENERGY      -361.129777283895

DIPOLE MOMENT
-------------
                                X             Y             Z
Electronic contribution:      2.87657      -3.38953      -2.08255
Nuclear contribution   :     -3.13045       4.21883       2.52198
                        -----------------------------------------
Total Dipole Moment    :     -0.25388       0.82930       0.43943
                        -----------------------------------------
Magnitude (a.u.)       :      0.97226
Magnitude (Debye)      :      2.47130

                             ****ORCA TERMINATED NORMALLY****
TOTAL RUN TIME: 0 days 0 hours 0 minutes 6 seconds 163 msec
