                         Program Version 3.0.3 - RELEASE   -
|  1> ! RI PBE def2-SVP def2-SVP/J NBO PAL2
|  2> % maxcore 2000
|  3> % output
|  4>     # printlevel mini
|  5>     print[ P_Basis ] 0
|  6>     print[ P_SCFInfo ] 1
|  7>     print[ P_SCFIterInfo ] 1
|  8>     print[ P_OrbEn ] 0
|  9>     print[ P_Cartesian ] 0
| 10> end
| 11> *xyz 0 1
| 12>  C        1.1528160000    -0.0896850000     0.2517340000
| 13>  N        2.5034730000     0.0118970000    -0.2206050000
| 14>  C        3.3364120000     1.1522010000     0.0483630000
| 15>  C        4.6403180000     0.6944040000    -0.5972170000
| 16>  O        4.5546920000    -0.7260470000    -0.6202420000
| 17>  C        3.2584890000    -1.1027660000    -0.4602250000
| 18>  O        2.8893670000    -2.2403440000    -0.5303820000
| 19>  H        0.5157690000     0.6501850000    -0.2391040000
| 20>  H        1.0927760000     0.0619670000     1.3367240000
| 21>  H        0.7880260000    -1.0886760000     0.0166730000
| 22>  H        3.4424450000     1.3264980000     1.1289080000
| 23>  H        2.9453270000     2.0648400000    -0.4083940000
| 24>  H        5.5286650000     0.9822120000    -0.0363970000
| 25>  H        4.7281450000     1.0576930000    -1.6252460000
| 26> *
| 27>
| 28>                          ****END OF INPUT****
 Total Charge           Charge          ....    0
 Multiplicity           Mult            ....    1
 Number of Electrons    NEL             ....   54
 Basis Dimension        Dim             ....  133

MULLIKEN ATOMIC CHARGES
-----------------------
   0 C :    0.102307
   1 N :   -0.357022
   2 C :    0.114060
   3 C :    0.166031
   4 O :   -0.275498
   5 C :    0.216847
   6 O :   -0.187323
   7 H :    0.029469
   8 H :    0.024944
   9 H :    0.053686
  10 H :    0.023342
  11 H :    0.023805
  12 H :    0.032579
  13 H :    0.032772
Sum of atomic charges:   -0.0000000

LOEWDIN ATOMIC CHARGES
----------------------
   0 C :    0.018331
   1 N :   -0.062933
   2 C :    0.020768
   3 C :    0.077599
   4 O :   -0.083691
   5 C :    0.026354
   6 O :   -0.170452
   7 H :    0.024464
   8 H :    0.020003
   9 H :    0.039567
  10 H :    0.016205
  11 H :    0.025511
  12 H :    0.026423
  13 H :    0.021853

  Mayer bond orders larger than 0.1
B(  0-C ,  1-N ) :   1.0061 B(  0-C ,  7-H ) :   0.9692 B(  0-C ,  8-H ) :   0.9629
B(  0-C ,  9-H ) :   0.9545 B(  1-N ,  2-C ) :   1.0034 B(  1-N ,  5-C ) :   1.0948
B(  2-C ,  3-C ) :   1.0950 B(  2-C , 10-H ) :   0.9238 B(  2-C , 11-H ) :   0.9377
B(  3-C ,  4-O ) :   0.9830 B(  3-C , 12-H ) :   0.9497 B(  3-C , 13-H ) :   0.9358
B(  4-O ,  5-C ) :   1.0841 B(  5-C ,  6-O ) :   2.1255

FINAL SINGLE POINT ENERGY      -361.166269446917

DIPOLE MOMENT
-------------
                                X             Y             Z
Electronic contribution:      2.86137      -5.10991      -1.78098
Nuclear contribution   :     -3.04907       6.94090       2.13075
                        -----------------------------------------
Total Dipole Moment    :     -0.18770       1.83099       0.34977
                        -----------------------------------------
Magnitude (a.u.)       :      1.87352
Magnitude (Debye)      :      4.76212

                             ****ORCA TERMINATED NORMALLY****
TOTAL RUN TIME: 0 days 0 hours 0 minutes 6 seconds 132 msec
