                         Program Version 3.0.3 - RELEASE   -
|  1> ! RI PBE def2-SVP def2-SVP/J NBO PAL2
|  2> % maxcore 2000
|  3> % output
|  4>     # printlevel mini
|  5>     print[ P_Basis ] 0
|  6>     print[ P_SCFInfo ] 1
|  7>     print[ P_SCFIterInfo ] 1
|  8>     print[ P_OrbEn ] 0
|  9>     print[ P_Cartesian ] 0
| 10> end
| 11> *xyz 0 1
| 12>  C        0.9464410000     0.0559040000     0.0942670000
| 13>  N        2.3691480000    -0.0058020000    -0.1537140000
| 14>  C        2.8517900000    -1.3284010000    -0.5182500000
| 15>  C        2.5758230000    -1.6821910000    -1.9702950000
| 16>  O        3.1117770000    -0.7030980000    -2.8360320000
| 17>  C        2.5712240000     0.5718990000    -2.5575420000
| 18>  C        2.8470950000     0.9726370000    -1.1177270000
| 19>  H        0.6896890000    -0.6496470000     0.8887660000
| 20>  H        0.3035260000    -0.1709680000    -0.7716610000
| 21>  H        0.6862190000     1.0584220000     0.4438310000
| 22>  H        2.4035800000    -2.0717600000     0.1478140000
| 23>  H        3.9363600000    -1.3499420000    -0.3585790000
| 24>  H        1.4937140000    -1.7826400000    -2.1490770000
| 25>  H        3.0499280000    -2.6296940000    -2.2368940000
| 26>  H        1.4889180000     0.5682100000    -2.7615320000
| 27>  H        3.0419700000     1.2706800000    -3.2530380000
| 28>  H        2.3953830000     1.9447760000    -0.8985940000
| 29>  H        3.9314150000     1.0734950000    -0.9899430000
| 30> *
| 31>
| 32>                          ****END OF INPUT****
 Total Charge           Charge          ....    0
 Multiplicity           Mult            ....    1
 Number of Electrons    NEL             ....   56
 Basis Dimension        Dim             ....  153

MULLIKEN ATOMIC CHARGES
-----------------------
   0 C :    0.094030
   1 N :   -0.336172
   2 C :    0.075960
   3 C :    0.187344
   4 O :   -0.348344
   5 C :    0.175563
   6 C :    0.083970
   7 H :    0.018504
   8 H :    0.000552
   9 H :    0.016545
  10 H :    0.006109
  11 H :    0.011351
  12 H :   -0.012284
  13 H :    0.009892
  14 H :   -0.012353
  15 H :    0.013852
  16 H :    0.004242
  17 H :    0.011237
Sum of atomic charges:   -0.0000000

LOEWDIN ATOMIC CHARGES
----------------------
   0 C :   -0.000851
   1 N :   -0.115444
   2 C :   -0.001967
   3 C :    0.044335
   4 O :   -0.151438
   5 C :    0.043174
   6 C :   -0.001416
   7 H :    0.022930
   8 H :   -0.005512
   9 H :    0.022779
  10 H :    0.023541
  11 H :    0.022265
  12 H :    0.003804
  13 H :    0.022040
  14 H :    0.003466
  15 H :    0.023002
  16 H :    0.022873
  17 H :    0.022417

  Mayer bond orders larger than 0.1
B(  0-C ,  1-N ) :   1.0327 B(  0-C ,  7-H ) :   0.9647 B(  0-C ,  8-H ) :   0.9420
B(  0-C ,  9-H ) :   0.9641 B(  1-N ,  2-C ) :   1.0486 B(  1-N ,  6-C ) :   1.0462
B(  2-C ,  3-C ) :   1.0857 B(  2-C , 10-H ) :   0.9268 B(  2-C , 11-H ) :   0.9188
B(  3-C ,  4-O ) :   1.0119 B(  3-C , 12-H ) :   0.9092 B(  3-C , 13-H ) :   0.9353
B(  4-O ,  5-C ) :   1.0179 B(  5-C ,  6-C ) :   1.0860 B(  5-C , 14-H ) :   0.9102
B(  5-C , 15-H ) :   0.9350 B(  6-C , 16-H ) :   0.9276 B(  6-C , 17-H ) :   0.9178

FINAL SINGLE POINT ENERGY      -326.439401818416

DIPOLE MOMENT
-------------
                                X             Y             Z
Electronic contribution:      2.94238      -0.54307      -2.11069
Nuclear contribution   :     -3.34277       0.59181       2.29775
                        -----------------------------------------
Total Dipole Moment    :     -0.40040       0.04874       0.18706
                        -----------------------------------------
Magnitude (a.u.)       :      0.44462
Magnitude (Debye)      :      1.13014

                             ****ORCA TERMINATED NORMALLY****
TOTAL RUN TIME: 0 days 0 hours 0 minutes 7 seconds 930 msec
