                         Program Version 3.0.3 - RELEASE   -
|  1> ! RI PBE def2-SVP def2-SVP/J NBO PAL2
|  2> % maxcore 2000
|  3> % output
|  4>     # printlevel mini
|  5>     print[ P_Basis ] 0
|  6>     print[ P_SCFInfo ] 1
|  7>     print[ P_SCFIterInfo ] 1
|  8>     print[ P_OrbEn ] 0
|  9>     print[ P_Cartesian ] 0
| 10> end
| 11> *xyz 0 1
| 12>  C        0.9461110000     0.0544670000    -0.0174880000
| 13>  N        2.3829260000     0.1008440000    -0.0119200000
| 14>  C        3.1703090000     1.2058230000    -0.0095710000
| 15>  C        4.4691150000     0.7450310000    -0.0041900000
| 16>  O        5.6405050000     1.4272560000    -0.0000760000
| 17>  C        4.3571120000    -0.6518790000    -0.0037000000
| 18>  N        3.0824570000    -1.0227510000    -0.0084380000
| 19>  H        0.5600050000     1.0727580000    -0.0197090000
| 20>  H        0.5812090000    -0.4661760000     0.8694720000
| 21>  H        0.5881350000    -0.4674250000    -0.9065330000
| 22>  H        2.7602020000     2.2034620000    -0.0118410000
| 23>  H        5.4621680000     2.3703730000    -0.0012880000
| 24>  H        5.1466370000    -1.3873940000    -0.0001280000
| 25> *
| 26>
| 27>                          ****END OF INPUT****
 Total Charge           Charge          ....    0
 Multiplicity           Mult            ....    1
 Number of Electrons    NEL             ....   52
 Basis Dimension        Dim             ....  128

MULLIKEN ATOMIC CHARGES
-----------------------
   0 C :    0.122016
   1 N :   -0.151417
   2 C :    0.018205
   3 C :    0.041937
   4 O :   -0.169316
   5 C :   -0.012912
   6 N :   -0.113740
   7 H :    0.026576
   8 H :    0.048599
   9 H :    0.048550
  10 H :   -0.016563
  11 H :    0.167949
  12 H :   -0.009883
Sum of atomic charges:   -0.0000000

LOEWDIN ATOMIC CHARGES
----------------------
   0 C :    0.023245
   1 N :    0.093906
   2 C :   -0.093016
   3 C :   -0.038091
   4 O :   -0.038065
   5 C :   -0.078202
   6 N :   -0.095744
   7 H :    0.031143
   8 H :    0.034743
   9 H :    0.034739
  10 H :    0.016560
  11 H :    0.087803
  12 H :    0.020979

  Mayer bond orders larger than 0.1
B(  0-C ,  1-N ) :   0.9841 B(  0-C ,  7-H ) :   0.9649 B(  0-C ,  8-H ) :   0.9650
B(  0-C ,  9-H ) :   0.9650 B(  1-N ,  2-C ) :   1.1521 B(  1-N ,  6-N ) :   1.1932
B(  2-C ,  3-C ) :   1.3622 B(  2-C ,  6-N ) :   0.1390 B(  2-C , 10-H ) :   0.9834
B(  3-C ,  4-O ) :   1.1930 B(  3-C ,  5-C ) :   1.3138 B(  4-O , 11-H ) :   0.9710
B(  5-C ,  6-N ) :   1.5357 B(  5-C , 12-H ) :   0.9957

FINAL SINGLE POINT ENERGY      -340.080795163105

DIPOLE MOMENT
-------------
                                X             Y             Z
Electronic contribution:      4.43935      -0.23747       0.01745
Nuclear contribution   :     -5.17360       1.43390      -0.02104
                        -----------------------------------------
Total Dipole Moment    :     -0.73425       1.19643      -0.00359
                        -----------------------------------------
Magnitude (a.u.)       :      1.40377
Magnitude (Debye)      :      3.56811

                             ****ORCA TERMINATED NORMALLY****
TOTAL RUN TIME: 0 days 0 hours 0 minutes 6 seconds 146 msec
