                         Program Version 3.0.3 - RELEASE   -
|  1> ! RI PBE def2-SVP def2-SVP/J NBO PAL2
|  2> % maxcore 2000
|  3> % output
|  4>     # printlevel mini
|  5>     print[ P_Basis ] 0
|  6>     print[ P_SCFInfo ] 1
|  7>     print[ P_SCFIterInfo ] 1
|  8>     print[ P_OrbEn ] 0
|  9>     print[ P_Cartesian ] 0
| 10> end
| 11> *xyz 0 1
| 12>  C        1.1688220000    -0.0789560000    -0.3334670000
| 13>  N        2.6044850000    -0.1502550000    -0.3743010000
| 14>  C        3.2537770000    -1.2913180000     0.2531950000
| 15>  C        4.6768570000    -0.7857030000     0.4681960000
| 16>  O        5.5747100000    -1.0980230000    -0.5822280000
| 17>  C        4.3825070000     0.6914840000     0.5298970000
| 18>  N        3.2439390000     0.9896500000     0.0293000000
| 19>  H        0.7505960000    -0.9300800000    -0.8738700000
| 20>  H        0.8469680000     0.8402010000    -0.8216310000
| 21>  H        0.7762280000    -0.0889830000     0.6950420000
| 22>  H        3.2157710000    -2.1857590000    -0.3703300000
| 23>  H        2.7828290000    -1.5057120000     1.2253870000
| 24>  H        5.1337680000    -1.1936030000     1.3694880000
| 25>  H        5.2653690000    -0.6538290000    -1.3782190000
| 26>  H        5.0774840000     1.4662660000     0.8257610000
| 27> *
| 28>
| 29>                          ****END OF INPUT****
 Total Charge           Charge          ....    0
 Multiplicity           Mult            ....    1
 Number of Electrons    NEL             ....   54
 Basis Dimension        Dim             ....  138

MULLIKEN ATOMIC CHARGES
-----------------------
   0 C :    0.118159
   1 N :   -0.283632
   2 C :    0.187863
   3 C :    0.058662
   4 O :   -0.263213
   5 C :   -0.060474
   6 N :   -0.046864
   7 H :    0.024743
   8 H :    0.039444
   9 H :    0.008934
  10 H :    0.018684
  11 H :    0.006420
  12 H :    0.015549
  13 H :    0.161388
  14 H :    0.014336
Sum of atomic charges:   -0.0000000

LOEWDIN ATOMIC CHARGES
----------------------
   0 C :    0.002422
   1 N :   -0.042300
   2 C :    0.002568
   3 C :    0.023373
   4 O :   -0.105659
   5 C :   -0.084966
   6 N :   -0.028307
   7 H :    0.025497
   8 H :    0.032623
   9 H :    0.008569
  10 H :    0.028263
  11 H :    0.019432
  12 H :    0.026636
  13 H :    0.072401
  14 H :    0.019448

  Mayer bond orders larger than 0.1
B(  0-C ,  1-N ) :   1.0117 B(  0-C ,  7-H ) :   0.9671 B(  0-C ,  8-H ) :   0.9655
B(  0-C ,  9-H ) :   0.9516 B(  1-N ,  2-C ) :   0.9555 B(  1-N ,  5-C ) :   0.1134
B(  1-N ,  6-N ) :   1.0725 B(  2-C ,  3-C ) :   1.0290 B(  2-C , 10-H ) :   0.9190
B(  2-C , 11-H ) :   0.9095 B(  3-C ,  4-O ) :   1.0450 B(  3-C ,  5-C ) :   0.9825
B(  3-C , 12-H ) :   0.9218 B(  4-O , 13-H ) :   0.9794 B(  5-C ,  6-N ) :   1.8133
B(  5-C , 14-H ) :   0.9787

FINAL SINGLE POINT ENERGY      -341.250570070477

DIPOLE MOMENT
-------------
                                X             Y             Z
Electronic contribution:      3.90751       1.54066      -0.73763
Nuclear contribution   :     -4.37075      -1.91775       0.80363
                        -----------------------------------------
Total Dipole Moment    :     -0.46324      -0.37708       0.06600
                        -----------------------------------------
Magnitude (a.u.)       :      0.60095
Magnitude (Debye)      :      1.52749

                             ****ORCA TERMINATED NORMALLY****
TOTAL RUN TIME: 0 days 0 hours 0 minutes 6 seconds 919 msec
