                         Program Version 3.0.3 - RELEASE   -
|  1> ! RI PBE def2-SVP def2-SVP/J NBO PAL2
|  2> % maxcore 2000
|  3> % output
|  4>     # printlevel mini
|  5>     print[ P_Basis ] 0
|  6>     print[ P_SCFInfo ] 1
|  7>     print[ P_SCFIterInfo ] 1
|  8>     print[ P_OrbEn ] 0
|  9>     print[ P_Cartesian ] 0
| 10> end
| 11> *xyz 0 1
| 12>  C        0.9466970000    -0.0460820000     0.1458620000
| 13>  N        2.3688920000     0.0796420000     0.3524910000
| 14>  C        2.9774510000     1.1897080000    -0.3390570000
| 15>  C        4.4445560000     1.2189090000     0.0188480000
| 16>  O        5.0531240000    -0.0305600000    -0.2837060000
| 17>  C        4.2386620000    -1.1005350000    -0.1688890000
| 18>  N        3.0044000000    -1.1238500000     0.1173150000
| 19>  H        0.4522700000     0.8595790000     0.5035120000
| 20>  H        0.5841570000    -0.8984220000     0.7189880000
| 21>  H        0.6837710000    -0.1997180000    -0.9123120000
| 22>  H        2.4979030000     2.1211970000    -0.0287990000
| 23>  H        2.8649560000     1.0937930000    -1.4329800000
| 24>  H        4.5706000000     1.4253670000     1.0854570000
| 25>  H        4.9820720000     1.9746390000    -0.5561090000
| 26>  H        4.7617890000    -2.0332770000    -0.3404100000
| 27> *
| 28>
| 29>                          ****END OF INPUT****
 Total Charge           Charge          ....    0
 Multiplicity           Mult            ....    1
 Number of Electrons    NEL             ....   54
 Basis Dimension        Dim             ....  138

MULLIKEN ATOMIC CHARGES
-----------------------
   0 C :    0.133788
   1 N :   -0.278573
   2 C :    0.058911
   3 C :    0.212977
   4 O :   -0.276195
   5 C :    0.081744
   6 N :   -0.085600
   7 H :    0.013530
   8 H :    0.035044
   9 H :   -0.001559
  10 H :    0.018483
  11 H :    0.017107
  12 H :    0.028583
  13 H :    0.022367
  14 H :    0.019393
Sum of atomic charges:   -0.0000000

LOEWDIN ATOMIC CHARGES
----------------------
   0 C :    0.002780
   1 N :   -0.051861
   2 C :   -0.006782
   3 C :    0.070037
   4 O :   -0.082725
   5 C :   -0.009211
   6 N :   -0.090914
   7 H :    0.020730
   8 H :    0.029521
   9 H :    0.004488
  10 H :    0.031337
  11 H :    0.012175
  12 H :    0.023144
  13 H :    0.027246
  14 H :    0.020035

  Mayer bond orders larger than 0.1
B(  0-C ,  1-N ) :   1.0152 B(  0-C ,  7-H ) :   0.9647 B(  0-C ,  8-H ) :   0.9664
B(  0-C ,  9-H ) :   0.9494 B(  1-N ,  2-C ) :   0.9884 B(  1-N ,  6-N ) :   1.0061
B(  2-C ,  3-C ) :   1.0827 B(  2-C , 10-H ) :   0.9270 B(  2-C , 11-H ) :   0.9139
B(  3-C ,  4-O ) :   0.9710 B(  3-C , 12-H ) :   0.9401 B(  3-C , 13-H ) :   0.9382
B(  4-O ,  5-C ) :   1.1246 B(  4-O ,  6-N ) :   0.1002 B(  5-C ,  6-N ) :   1.8529
B(  5-C , 14-H ) :   0.9645

FINAL SINGLE POINT ENERGY      -341.253862187459

DIPOLE MOMENT
-------------
                                X             Y             Z
Electronic contribution:      4.44811      -2.86809       0.52318
Nuclear contribution   :     -4.57663       3.73592      -0.67522
                        -----------------------------------------
Total Dipole Moment    :     -0.12853       0.86783      -0.15204
                        -----------------------------------------
Magnitude (a.u.)       :      0.89037
Magnitude (Debye)      :      2.26314

                             ****ORCA TERMINATED NORMALLY****
TOTAL RUN TIME: 0 days 0 hours 0 minutes 6 seconds 917 msec
