                         Program Version 3.0.3 - RELEASE   -
|  1> ! RI PBE def2-SVP def2-SVP/J NBO PAL2
|  2> % maxcore 2000
|  3> % output
|  4>     # printlevel mini
|  5>     print[ P_Basis ] 0
|  6>     print[ P_SCFInfo ] 1
|  7>     print[ P_SCFIterInfo ] 1
|  8>     print[ P_OrbEn ] 0
|  9>     print[ P_Cartesian ] 0
| 10> end
| 11> *xyz 0 1
| 12>  C        1.0081930000     0.0734060000    -0.2241790000
| 13>  N        2.4286100000     0.0345650000     0.0075240000
| 14>  C        3.2518420000    -1.1457270000     0.0706080000
| 15>  C        4.6405950000    -0.5357410000     0.3380630000
| 16>  O        5.6533330000    -1.1671140000     0.4663450000
| 17>  N        4.5003830000     0.8522340000     0.4010380000
| 18>  C        3.2377450000     1.0845640000     0.2066590000
| 19>  H        0.6442310000    -0.9453020000    -0.3494320000
| 20>  H        0.7633490000     0.6318920000    -1.1320390000
| 21>  H        0.4743690000     0.5198270000     0.6195310000
| 22>  H        3.2519080000    -1.7077770000    -0.8675030000
| 23>  H        2.9621530000    -1.8162400000     0.8845200000
| 24>  H        2.8193000000     2.0876020000     0.1997530000
| 25> *
| 26>
| 27>                          ****END OF INPUT****
 Total Charge           Charge          ....    0
 Multiplicity           Mult            ....    1
 Number of Electrons    NEL             ....   52
 Basis Dimension        Dim             ....  128

MULLIKEN ATOMIC CHARGES
-----------------------
   0 C :    0.095528
   1 N :   -0.301713
   2 C :    0.128139
   3 C :   -0.029421
   4 O :   -0.149879
   5 N :   -0.169942
   6 C :    0.143161
   7 H :    0.044724
   8 H :    0.046327
   9 H :    0.048673
  10 H :    0.061496
  11 H :    0.064326
  12 H :    0.018582
Sum of atomic charges:   -0.0000000

LOEWDIN ATOMIC CHARGES
----------------------
   0 C :    0.019820
   1 N :   -0.016120
   2 C :   -0.004070
   3 C :    0.009877
   4 O :   -0.132278
   5 N :   -0.156740
   6 C :    0.062054
   7 H :    0.039148
   8 H :    0.032186
   9 H :    0.032468
  10 H :    0.045451
  11 H :    0.045918
  12 H :    0.022286

  Mayer bond orders larger than 0.1
B(  0-C ,  1-N ) :   0.9751 B(  0-C ,  7-H ) :   0.9700 B(  0-C ,  8-H ) :   0.9660
B(  0-C ,  9-H ) :   0.9665 B(  1-N ,  2-C ) :   0.9772 B(  1-N ,  5-N ) :   0.1136
B(  1-N ,  6-C ) :   1.2576 B(  2-C ,  3-C ) :   0.9108 B(  2-C , 10-H ) :   0.9211
B(  2-C , 11-H ) :   0.9215 B(  3-C ,  4-O ) :   2.1635 B(  3-C ,  5-N ) :   1.1875
B(  5-N ,  6-C ) :   1.6466 B(  6-C , 12-H ) :   0.9652

FINAL SINGLE POINT ENERGY      -340.104836434281

DIPOLE MOMENT
-------------
                                X             Y             Z
Electronic contribution:      6.93870       0.37866       1.17014
Nuclear contribution   :     -9.48344      -0.37211      -1.58938
                        -----------------------------------------
Total Dipole Moment    :     -2.54474       0.00655      -0.41924
                        -----------------------------------------
Magnitude (a.u.)       :      2.57906
Magnitude (Debye)      :      6.55544

                             ****ORCA TERMINATED NORMALLY****
TOTAL RUN TIME: 0 days 0 hours 0 minutes 6 seconds 823 msec
