                         Program Version 3.0.3 - RELEASE   -
|  1> ! RI PBE def2-SVP def2-SVP/J NBO PAL2
|  2> % maxcore 2000
|  3> % output
|  4>     # printlevel mini
|  5>     print[ P_Basis ] 0
|  6>     print[ P_SCFInfo ] 1
|  7>     print[ P_SCFIterInfo ] 1
|  8>     print[ P_OrbEn ] 0
|  9>     print[ P_Cartesian ] 0
| 10> end
| 11> *xyz 0 1
| 12>  C        0.9642500000    -0.1637470000    -0.1062650000
| 13>  N        2.3953430000    -0.0601310000    -0.1003630000
| 14>  C        3.0066290000     1.1819200000     0.2884690000
| 15>  C        4.4719050000     1.0891350000    -0.0830560000
| 16>  O        5.0589550000    -0.0555850000     0.4863930000
| 17>  N        4.4406900000    -1.2568490000     0.1046570000
| 18>  C        3.1852760000    -1.1659540000    -0.1305060000
| 19>  H        0.5293590000     0.6215990000    -0.7321670000
| 20>  H        0.5349350000    -0.0739970000     0.9007160000
| 21>  H        0.6670770000    -1.1291760000    -0.5181990000
| 22>  H        2.8998110000     1.3679140000     1.3658490000
| 23>  H        2.5245060000     2.0095890000    -0.2454870000
| 24>  H        5.0318860000     1.9413790000     0.3041870000
| 25>  H        4.5771990000     1.0603440000    -1.1758820000
| 26>  H        2.6986980000    -2.0968400000    -0.4058450000
| 27> *
| 28>
| 29>                          ****END OF INPUT****
 Total Charge           Charge          ....    0
 Multiplicity           Mult            ....    1
 Number of Electrons    NEL             ....   54
 Basis Dimension        Dim             ....  138

MULLIKEN ATOMIC CHARGES
-----------------------
   0 C :    0.107897
   1 N :   -0.296208
   2 C :    0.122037
   3 C :    0.149220
   4 O :   -0.286216
   5 N :   -0.028014
   6 C :    0.039509
   7 H :    0.028409
   8 H :    0.027488
   9 H :    0.035667
  10 H :    0.026531
  11 H :    0.008308
  12 H :    0.023372
  13 H :    0.024558
  14 H :    0.017441
Sum of atomic charges:   -0.0000000

LOEWDIN ATOMIC CHARGES
----------------------
   0 C :    0.021386
   1 N :   -0.048156
   2 C :    0.011589
   3 C :    0.043383
   4 O :   -0.107100
   5 N :   -0.074391
   6 C :   -0.037827
   7 H :    0.023906
   8 H :    0.018924
   9 H :    0.032483
  10 H :    0.019902
  11 H :    0.024355
  12 H :    0.029811
  13 H :    0.015044
  14 H :    0.026689

  Mayer bond orders larger than 0.1
B(  0-C ,  1-N ) :   1.0127 B(  0-C ,  7-H ) :   0.9630 B(  0-C ,  8-H ) :   0.9593
B(  0-C ,  9-H ) :   0.9625 B(  1-N ,  2-C ) :   0.9977 B(  1-N ,  5-N ) :   0.1265
B(  1-N ,  6-C ) :   1.1449 B(  2-C ,  3-C ) :   1.0746 B(  2-C , 10-H ) :   0.9288
B(  2-C , 11-H ) :   0.9207 B(  3-C ,  4-O ) :   1.0102 B(  3-C , 12-H ) :   0.9382
B(  3-C , 13-H ) :   0.9319 B(  4-O ,  5-N ) :   0.9191 B(  5-N ,  6-C ) :   1.8366
B(  6-C , 14-H ) :   0.9483

FINAL SINGLE POINT ENERGY      -341.231673129345

DIPOLE MOMENT
-------------
                                X             Y             Z
Electronic contribution:      5.41682      -2.88716       0.73485
Nuclear contribution   :     -6.89974       3.78733      -0.99140
                        -----------------------------------------
Total Dipole Moment    :     -1.48291       0.90018      -0.25655
                        -----------------------------------------
Magnitude (a.u.)       :      1.75362
Magnitude (Debye)      :      4.45734

                             ****ORCA TERMINATED NORMALLY****
TOTAL RUN TIME: 0 days 0 hours 0 minutes 6 seconds 895 msec
