                         Program Version 3.0.3 - RELEASE   -
|  1> ! RI PBE def2-SVP def2-SVP/J NBO PAL2
|  2> % maxcore 2000
|  3> % output
|  4>     # printlevel mini
|  5>     print[ P_Basis ] 0
|  6>     print[ P_SCFInfo ] 1
|  7>     print[ P_SCFIterInfo ] 1
|  8>     print[ P_OrbEn ] 0
|  9>     print[ P_Cartesian ] 0
| 10> end
| 11> *xyz 0 1
| 12>  C        0.9229820000     0.0349710000    -0.0576490000
| 13>  N        2.3623290000     0.0283360000    -0.0537050000
| 14>  C        3.2090380000     1.1016080000    -0.0500320000
| 15>  N        4.4593090000     0.7399880000    -0.0469450000
| 16>  C        4.4528350000    -0.6314190000    -0.0486610000
| 17>  C        3.1598080000    -1.0754570000    -0.0528330000
| 18>  O        2.5653220000    -2.2873040000    -0.0559630000
| 19>  H        0.5817860000     1.0692250000    -0.0576890000
| 20>  H        0.5294360000    -0.4683990000     0.8274070000
| 21>  H        0.5343400000    -0.4668440000    -0.9457470000
| 22>  H        2.8351860000     2.1151210000    -0.0498350000
| 23>  H        5.3617350000    -1.2135300000    -0.0468250000
| 24>  H        3.2476140000    -2.9633070000    -0.0553230000
| 25> *
| 26>
| 27>                          ****END OF INPUT****
 Total Charge           Charge          ....    0
 Multiplicity           Mult            ....    1
 Number of Electrons    NEL             ....   52
 Basis Dimension        Dim             ....  128

MULLIKEN ATOMIC CHARGES
-----------------------
   0 C :    0.106057
   1 N :   -0.210654
   2 C :    0.072401
   3 N :   -0.132503
   4 C :   -0.094687
   5 C :    0.139246
   6 O :   -0.165802
   7 H :    0.036672
   8 H :    0.047890
   9 H :    0.047814
  10 H :   -0.000913
  11 H :   -0.030383
  12 H :    0.184862
Sum of atomic charges:   -0.0000000

LOEWDIN ATOMIC CHARGES
----------------------
   0 C :    0.027177
   1 N :    0.038531
   2 C :   -0.028542
   3 N :   -0.104986
   4 C :   -0.122516
   5 C :   -0.002215
   6 O :   -0.033299
   7 H :    0.036606
   8 H :    0.033931
   9 H :    0.033922
  10 H :    0.010230
  11 H :    0.011185
  12 H :    0.099977

  Mayer bond orders larger than 0.1
B(  0-C ,  1-N ) :   0.9751 B(  0-C ,  7-H ) :   0.9666 B(  0-C ,  8-H ) :   0.9671
B(  0-C ,  9-H ) :   0.9671 B(  1-N ,  2-C ) :   1.1584 B(  1-N ,  5-C ) :   1.1959
B(  2-C ,  3-N ) :   1.6786 B(  2-C , 10-H ) :   0.9708 B(  3-N ,  4-C ) :   1.3738
B(  4-C ,  5-C ) :   1.4260 B(  4-C , 11-H ) :   1.0008 B(  5-C ,  6-O ) :   1.1935
B(  6-O , 12-H ) :   0.9652

FINAL SINGLE POINT ENERGY      -340.099602927859

DIPOLE MOMENT
-------------
                                X             Y             Z
Electronic contribution:      3.31493      -0.94801       0.00817
Nuclear contribution   :     -4.40872       0.15770      -0.01237
                        -----------------------------------------
Total Dipole Moment    :     -1.09379      -0.79031      -0.00420
                        -----------------------------------------
Magnitude (a.u.)       :      1.34944
Magnitude (Debye)      :      3.43001

                             ****ORCA TERMINATED NORMALLY****
TOTAL RUN TIME: 0 days 0 hours 0 minutes 6 seconds 408 msec
