                         Program Version 3.0.3 - RELEASE   -
|  1> ! RI PBE def2-SVP def2-SVP/J NBO PAL2
|  2> % maxcore 2000
|  3> % output
|  4>     # printlevel mini
|  5>     print[ P_Basis ] 0
|  6>     print[ P_SCFInfo ] 1
|  7>     print[ P_SCFIterInfo ] 1
|  8>     print[ P_OrbEn ] 0
|  9>     print[ P_Cartesian ] 0
| 10> end
| 11> *xyz 0 1
| 12>  C        1.0820920000     0.0138200000    -0.0572990000
| 13>  N        2.4981350000     0.0065430000     0.1934770000
| 14>  C        3.3292780000    -1.0894290000     0.3466340000
| 15>  N        4.5571090000    -0.8422810000     0.5626960000
| 16>  C        4.6636620000     0.6063070000     0.5736520000
| 17>  C        3.2673520000     1.1477450000     0.3234430000
| 18>  O        2.8628830000     2.2803270000     0.2456410000
| 19>  H        0.7223140000    -1.0131240000    -0.1153670000
| 20>  H        0.8618430000     0.5238760000    -0.9971510000
| 21>  H        0.5534900000     0.5334360000     0.7443040000
| 22>  H        2.9102280000    -2.0889940000     0.2778950000
| 23>  H        5.3551560000     0.9566120000    -0.1981040000
| 24>  H        5.0487700000     0.9660620000     1.5321690000
| 25> *
| 26>
| 27>                          ****END OF INPUT****
 Total Charge           Charge          ....    0
 Multiplicity           Mult            ....    1
 Number of Electrons    NEL             ....   52
 Basis Dimension        Dim             ....  128

MULLIKEN ATOMIC CHARGES
-----------------------
   0 C :    0.104747
   1 N :   -0.256321
   2 C :    0.133588
   3 N :   -0.205160
   4 C :    0.101789
   5 C :    0.012110
   6 O :   -0.175658
   7 H :    0.034388
   8 H :    0.050209
   9 H :    0.053451
  10 H :    0.017224
  11 H :    0.066904
  12 H :    0.062726
Sum of atomic charges:    0.0000000

LOEWDIN ATOMIC CHARGES
----------------------
   0 C :    0.025402
   1 N :   -0.018703
   2 C :    0.037118
   3 N :   -0.126741
   4 C :   -0.016732
   5 C :    0.025580
   6 O :   -0.160482
   7 H :    0.033563
   8 H :    0.036123
   9 H :    0.036566
  10 H :    0.018453
  11 H :    0.055344
  12 H :    0.054509

  Mayer bond orders larger than 0.1
B(  0-C ,  1-N ) :   0.9698 B(  0-C ,  7-H ) :   0.9665 B(  0-C ,  8-H ) :   0.9659
B(  0-C ,  9-H ) :   0.9663 B(  1-N ,  2-C ) :   1.0807 B(  1-N ,  5-C ) :   1.0965
B(  2-C ,  3-N ) :   1.8719 B(  2-C , 10-H ) :   0.9609 B(  3-N ,  4-C ) :   1.0921
B(  4-C ,  5-C ) :   0.9673 B(  4-C , 11-H ) :   0.9063 B(  4-C , 12-H ) :   0.9070
B(  5-C ,  6-O ) :   2.1396

FINAL SINGLE POINT ENERGY      -340.115814076645

DIPOLE MOMENT
-------------
                                X             Y             Z
Electronic contribution:      2.47128       1.29278       0.43081
Nuclear contribution   :     -3.20139      -1.97622      -0.55605
                        -----------------------------------------
Total Dipole Moment    :     -0.73011      -0.68344      -0.12525
                        -----------------------------------------
Magnitude (a.u.)       :      1.00789
Magnitude (Debye)      :      2.56185

                             ****ORCA TERMINATED NORMALLY****
TOTAL RUN TIME: 0 days 0 hours 0 minutes 6 seconds 14 msec
