                         Program Version 3.0.3 - RELEASE   -
|  1> ! RI PBE def2-SVP def2-SVP/J NBO PAL2
|  2> % maxcore 2000
|  3> % output
|  4>     # printlevel mini
|  5>     print[ P_Basis ] 0
|  6>     print[ P_SCFInfo ] 1
|  7>     print[ P_SCFIterInfo ] 1
|  8>     print[ P_OrbEn ] 0
|  9>     print[ P_Cartesian ] 0
| 10> end
| 11> *xyz 0 1
| 12>  C        0.9272760000    -0.0360270000    -0.0082530000
| 13>  N        2.3635970000    -0.1078630000    -0.0025470000
| 14>  C        3.2209210000     0.9289890000     0.0001500000
| 15>  N        4.4760180000     0.5344800000     0.0054400000
| 16>  C        4.4165130000    -0.8168960000     0.0060570000
| 17>  O        5.5299110000    -1.5707070000     0.0109740000
| 18>  C        3.1209350000    -1.2599590000     0.0011680000
| 19>  H        0.6266330000     1.0112330000    -0.0100500000
| 20>  H        0.5106950000    -0.5179540000     0.8790760000
| 21>  H        0.5177060000    -0.5189900000    -0.8982780000
| 22>  H        2.8831380000     1.9548920000    -0.0018560000
| 23>  H        6.2723730000    -0.9565200000     0.0136520000
| 24>  H        2.6881840000    -2.2450780000     0.0000650000
| 25> *
| 26>
| 27>                          ****END OF INPUT****
 Total Charge           Charge          ....    0
 Multiplicity           Mult            ....    1
 Number of Electrons    NEL             ....   52
 Basis Dimension        Dim             ....  128

MULLIKEN ATOMIC CHARGES
-----------------------
   0 C :    0.100608
   1 N :   -0.182694
   2 C :    0.085942
   3 N :   -0.179573
   4 C :    0.076586
   5 O :   -0.162910
   6 C :   -0.019135
   7 H :    0.037461
   8 H :    0.046419
   9 H :    0.046345
  10 H :    0.002276
  11 H :    0.165734
  12 H :   -0.017058
Sum of atomic charges:   -0.0000000

LOEWDIN ATOMIC CHARGES
----------------------
   0 C :    0.027164
   1 N :    0.064188
   2 C :   -0.014190
   3 N :   -0.148734
   4 C :   -0.011075
   5 O :   -0.035570
   6 C :   -0.100180
   7 H :    0.035865
   8 H :    0.032818
   9 H :    0.032807
  10 H :    0.012895
  11 H :    0.084485
  12 H :    0.019527

  Mayer bond orders larger than 0.1
B(  0-C ,  1-N ) :   0.9865 B(  0-C ,  7-H ) :   0.9674 B(  0-C ,  8-H ) :   0.9654
B(  0-C ,  9-H ) :   0.9654 B(  1-N ,  2-C ) :   1.2599 B(  1-N ,  6-C ) :   1.1423
B(  2-C ,  3-N ) :   1.5591 B(  2-C , 10-H ) :   0.9701 B(  3-N ,  4-C ) :   1.3797
B(  4-C ,  5-O ) :   1.2214 B(  4-C ,  6-C ) :   1.4276 B(  5-O , 11-H ) :   0.9565
B(  6-C , 12-H ) :   0.9897

FINAL SINGLE POINT ENERGY      -340.108001040795

DIPOLE MOMENT
-------------
                                X             Y             Z
Electronic contribution:      5.55524      -0.60735       0.02236
Nuclear contribution   :     -6.71274       0.78300      -0.02698
                        -----------------------------------------
Total Dipole Moment    :     -1.15750       0.17565      -0.00461
                        -----------------------------------------
Magnitude (a.u.)       :      1.17076
Magnitude (Debye)      :      2.97585

                             ****ORCA TERMINATED NORMALLY****
TOTAL RUN TIME: 0 days 0 hours 0 minutes 6 seconds 365 msec
