                         Program Version 3.0.3 - RELEASE   -
|  1> ! RI PBE def2-SVP def2-SVP/J NBO PAL2
|  2> % maxcore 2000
|  3> % output
|  4>     # printlevel mini
|  5>     print[ P_Basis ] 0
|  6>     print[ P_SCFInfo ] 1
|  7>     print[ P_SCFIterInfo ] 1
|  8>     print[ P_OrbEn ] 0
|  9>     print[ P_Cartesian ] 0
| 10> end
| 11> *xyz 0 1
| 12>  C        1.0625260000     0.0820800000    -0.0163250000
| 13>  N        2.4989130000     0.0292510000    -0.0202900000
| 14>  N        3.2379390000     1.1560420000    -0.0249450000
| 15>  C        4.4896830000     0.7389760000    -0.0275890000
| 16>  C        4.5865680000    -0.6642280000    -0.0247230000
| 17>  C        3.2706380000    -1.0695590000    -0.0200390000
| 18>  O        2.6690160000    -2.2738580000    -0.0156180000
| 19>  H        0.7841730000     1.1330740000    -0.0176440000
| 20>  H        0.6568710000    -0.4032270000     0.8737590000
| 21>  H        0.6518190000    -0.4067860000    -0.9021370000
| 22>  H        5.2921870000     1.4617720000    -0.0315050000
| 23>  H        5.4697580000    -1.2820930000    -0.0258690000
| 24>  H        3.3436970000    -2.9572240000    -0.0159530000
| 25> *
| 26>
| 27>                          ****END OF INPUT****
 Total Charge           Charge          ....    0
 Multiplicity           Mult            ....    1
 Number of Electrons    NEL             ....   52
 Basis Dimension        Dim             ....  128

MULLIKEN ATOMIC CHARGES
-----------------------
   0 C :    0.123744
   1 N :   -0.184045
   2 N :   -0.117743
   3 C :    0.035975
   4 C :   -0.160027
   5 C :    0.187712
   6 O :   -0.157725
   7 H :    0.043902
   8 H :    0.039986
   9 H :    0.040076
  10 H :   -0.007800
  11 H :   -0.028549
  12 H :    0.184495
Sum of atomic charges:   -0.0000000

LOEWDIN ATOMIC CHARGES
----------------------
   0 C :    0.020014
   1 N :    0.072744
   2 N :   -0.110033
   3 C :   -0.050261
   4 C :   -0.165387
   5 C :    0.016498
   6 O :   -0.025602
   7 H :    0.040097
   8 H :    0.031296
   9 H :    0.031309
  10 H :    0.017711
  11 H :    0.021797
  12 H :    0.099815

  Mayer bond orders larger than 0.1
B(  0-C ,  1-N ) :   0.9746 B(  0-C ,  7-H ) :   0.9600 B(  0-C ,  8-H ) :   0.9675
B(  0-C ,  9-H ) :   0.9675 B(  1-N ,  2-N ) :   1.1318 B(  1-N ,  5-C ) :   1.2093
B(  2-N ,  3-C ) :   1.6020 B(  3-C ,  4-C ) :   1.2854 B(  3-C , 10-H ) :   0.9851
B(  4-C ,  5-C ) :   1.3745 B(  4-C , 11-H ) :   0.9937 B(  5-C ,  6-O ) :   1.2171
B(  6-O , 12-H ) :   0.9632

FINAL SINGLE POINT ENERGY      -340.088002990892

DIPOLE MOMENT
-------------
                                X             Y             Z
Electronic contribution:      1.93557      -0.69770      -0.00403
Nuclear contribution   :     -2.04987      -0.41536       0.00680
                        -----------------------------------------
Total Dipole Moment    :     -0.11431      -1.11306       0.00277
                        -----------------------------------------
Magnitude (a.u.)       :      1.11891
Magnitude (Debye)      :      2.84405

                             ****ORCA TERMINATED NORMALLY****
TOTAL RUN TIME: 0 days 0 hours 0 minutes 6 seconds 379 msec
