                         Program Version 3.0.3 - RELEASE   -
|  1> ! RI PBE def2-SVP def2-SVP/J NBO PAL2
|  2> % maxcore 2000
|  3> % output
|  4>     # printlevel mini
|  5>     print[ P_Basis ] 0
|  6>     print[ P_SCFInfo ] 1
|  7>     print[ P_SCFIterInfo ] 1
|  8>     print[ P_OrbEn ] 0
|  9>     print[ P_Cartesian ] 0
| 10> end
| 11> *xyz 0 1
| 12>  C        1.0629510000     0.0502180000    -0.0366110000
| 13>  N        2.4793140000     0.0784830000     0.2008560000
| 14>  N        3.1915780000    -1.0829200000     0.3687530000
| 15>  C        4.4166590000    -0.7728850000     0.5624640000
| 16>  C        4.6494630000     0.6955040000     0.5412440000
| 17>  C        3.2438140000     1.2107990000     0.2830980000
| 18>  O        2.8438560000     2.3452080000     0.1690060000
| 19>  H        0.7479370000    -0.9906510000    -0.0470620000
| 20>  H        0.8239060000     0.5169680000    -0.9947450000
| 21>  H        0.5298810000     0.5884280000     0.7502760000
| 22>  H        5.1523480000    -1.5506220000     0.7184940000
| 23>  H        5.3311700000     1.0197580000    -0.2498820000
| 24>  H        5.0390210000     1.0911110000     1.4833090000
| 25> *
| 26>
| 27>                          ****END OF INPUT****
 Total Charge           Charge          ....    0
 Multiplicity           Mult            ....    1
 Number of Electrons    NEL             ....   52
 Basis Dimension        Dim             ....  128

MULLIKEN ATOMIC CHARGES
-----------------------
   0 C :    0.122669
   1 N :   -0.232082
   2 N :   -0.034685
   3 C :   -0.038920
   4 C :   -0.017971
   5 C :    0.079312
   6 O :   -0.180551
   7 H :    0.040951
   8 H :    0.042109
   9 H :    0.045493
  10 H :    0.023660
  11 H :    0.076855
  12 H :    0.073159
Sum of atomic charges:    0.0000000

LOEWDIN ATOMIC CHARGES
----------------------
   0 C :    0.018489
   1 N :    0.016307
   2 N :   -0.030211
   3 C :   -0.032610
   4 C :   -0.082063
   5 C :    0.021795
   6 O :   -0.169930
   7 H :    0.037162
   8 H :    0.033173
   9 H :    0.033642
  10 H :    0.023417
  11 H :    0.065771
  12 H :    0.065058

  Mayer bond orders larger than 0.1
B(  0-C ,  1-N ) :   0.9693 B(  0-C ,  7-H ) :   0.9626 B(  0-C ,  8-H ) :   0.9667
B(  0-C ,  9-H ) :   0.9672 B(  1-N ,  2-N ) :   1.0484 B(  1-N ,  5-C ) :   1.1011
B(  2-N ,  3-C ) :   1.8563 B(  3-C ,  4-C ) :   1.0310 B(  3-C , 10-H ) :   0.9742
B(  4-C ,  5-C ) :   0.9677 B(  4-C , 11-H ) :   0.8966 B(  4-C , 12-H ) :   0.8970
B(  5-C ,  6-O ) :   2.1445

FINAL SINGLE POINT ENERGY      -340.092789732341

DIPOLE MOMENT
-------------
                                X             Y             Z
Electronic contribution:      1.25191       0.97993       0.17208
Nuclear contribution   :     -0.87557      -1.54805      -0.08362
                        -----------------------------------------
Total Dipole Moment    :      0.37634      -0.56812       0.08847
                        -----------------------------------------
Magnitude (a.u.)       :      0.68718
Magnitude (Debye)      :      1.74667

                             ****ORCA TERMINATED NORMALLY****
TOTAL RUN TIME: 0 days 0 hours 0 minutes 5 seconds 786 msec
