                         Program Version 3.0.3 - RELEASE   -
|  1> ! RI PBE def2-SVP def2-SVP/J NBO PAL2
|  2> % maxcore 2000
|  3> % output
|  4>     # printlevel mini
|  5>     print[ P_Basis ] 0
|  6>     print[ P_SCFInfo ] 1
|  7>     print[ P_SCFIterInfo ] 1
|  8>     print[ P_OrbEn ] 0
|  9>     print[ P_Cartesian ] 0
| 10> end
| 11> *xyz 0 1
| 12>  C        1.2173350000    -0.0026750000     0.2097590000
| 13>  N        2.6281400000    -0.0423850000    -0.0147960000
| 14>  N        3.3827890000     1.1449590000     0.0852540000
| 15>  C        4.5981670000     0.8365360000    -0.6838500000
| 16>  C        4.7743180000    -0.6700050000    -0.5663160000
| 17>  C        3.3412790000    -1.1413710000    -0.3737040000
| 18>  O        2.8970840000    -2.2588160000    -0.5227650000
| 19>  H        0.7468620000     0.7351970000    -0.4445600000
| 20>  H        0.9822730000     0.2503030000     1.2492000000
| 21>  H        0.8289340000    -0.9974040000    -0.0082320000
| 22>  H        3.6441560000     1.2541950000     1.0656280000
| 23>  H        5.4318420000     1.4255440000    -0.3016390000
| 24>  H        4.4236290000     1.1209500000    -1.7251370000
| 25>  H        5.3585930000    -0.9628600000     0.3123480000
| 26>  H        5.2145990000    -1.1473690000    -1.4401720000
| 27> *
| 28>
| 29>                          ****END OF INPUT****
 Total Charge           Charge          ....    0
 Multiplicity           Mult            ....    1
 Number of Electrons    NEL             ....   54
 Basis Dimension        Dim             ....  138

MULLIKEN ATOMIC CHARGES
-----------------------
   0 C :    0.118268
   1 N :   -0.254086
   2 N :   -0.125329
   3 C :    0.087667
   4 C :   -0.042035
   5 C :    0.064497
   6 O :   -0.200671
   7 H :    0.037752
   8 H :    0.022484
   9 H :    0.045683
  10 H :    0.108596
  11 H :    0.021279
  12 H :    0.036178
  13 H :    0.039012
  14 H :    0.040704
Sum of atomic charges:   -0.0000000

LOEWDIN ATOMIC CHARGES
----------------------
   0 C :    0.014363
   1 N :    0.001112
   2 N :   -0.040000
   3 C :    0.013375
   4 C :   -0.079681
   5 C :    0.009601
   6 O :   -0.190875
   7 H :    0.028255
   8 H :    0.021312
   9 H :    0.037573
  10 H :    0.050290
  11 H :    0.025096
  12 H :    0.026466
  13 H :    0.040379
  14 H :    0.042734

  Mayer bond orders larger than 0.1
B(  0-C ,  1-N ) :   0.9933 B(  0-C ,  7-H ) :   0.9649 B(  0-C ,  8-H ) :   0.9646
B(  0-C ,  9-H ) :   0.9499 B(  1-N ,  2-N ) :   0.9774 B(  1-N ,  5-C ) :   1.1435
B(  1-N ,  6-O ) :   0.1069 B(  2-N ,  3-C ) :   1.0342 B(  2-N , 10-H ) :   0.9375
B(  3-C ,  4-C ) :   1.0774 B(  3-C , 11-H ) :   0.9434 B(  3-C , 12-H ) :   0.9442
B(  4-C ,  5-C ) :   0.9626 B(  4-C , 13-H ) :   0.9026 B(  4-C , 14-H ) :   0.9287
B(  5-C ,  6-O ) :   2.1080

FINAL SINGLE POINT ENERGY      -341.285738215901

DIPOLE MOMENT
-------------
                                X             Y             Z
Electronic contribution:     -0.19463      -2.82310      -0.26079
Nuclear contribution   :      0.63492       3.86004       0.71052
                        -----------------------------------------
Total Dipole Moment    :      0.44029       1.03694       0.44974
                        -----------------------------------------
Magnitude (a.u.)       :      1.21300
Magnitude (Debye)      :      3.08321

                             ****ORCA TERMINATED NORMALLY****
TOTAL RUN TIME: 0 days 0 hours 0 minutes 6 seconds 664 msec
