                         Program Version 3.0.3 - RELEASE   -
|  1> ! RI PBE def2-SVP def2-SVP/J NBO PAL2
|  2> % maxcore 2000
|  3> % output
|  4>     # printlevel mini
|  5>     print[ P_Basis ] 0
|  6>     print[ P_SCFInfo ] 1
|  7>     print[ P_SCFIterInfo ] 1
|  8>     print[ P_OrbEn ] 0
|  9>     print[ P_Cartesian ] 0
| 10> end
| 11> *xyz 0 1
| 12>  C        0.9633650000     0.1152980000    -0.0648650000
| 13>  N        2.3927840000     0.0396800000    -0.0600670000
| 14>  N        3.2052690000     1.1343390000    -0.0505010000
| 15>  C        4.4856110000     0.7152130000    -0.0482160000
| 16>  C        4.5211350000    -0.6437460000    -0.0561800000
| 17>  C        3.1543570000    -1.1237450000    -0.0641370000
| 18>  O        2.6579970000    -2.2401060000    -0.0726200000
| 19>  H        0.6526920000     1.1607060000    -0.0604940000
| 20>  H        0.5508990000    -0.3811420000     0.8163190000
| 21>  H        0.5574530000    -0.3717780000    -0.9542710000
| 22>  H        2.8331570000     2.0637450000    -0.0462910000
| 23>  H        5.2866170000     1.4383580000    -0.0409160000
| 24>  H        5.3946640000    -1.2723410000    -0.0566630000
| 25> *
| 26>
| 27>                          ****END OF INPUT****
 Total Charge           Charge          ....    0
 Multiplicity           Mult            ....    1
 Number of Electrons    NEL             ....   52
 Basis Dimension        Dim             ....  128

MULLIKEN ATOMIC CHARGES
-----------------------
   0 C :    0.108317
   1 N :   -0.216617
   2 N :   -0.008172
   3 C :    0.116043
   4 C :   -0.180391
   5 C :    0.172646
   6 O :   -0.240516
   7 H :    0.017168
   8 H :    0.054608
   9 H :    0.054469
  10 H :    0.120288
  11 H :    0.007599
  12 H :   -0.005442
Sum of atomic charges:    0.0000000

LOEWDIN ATOMIC CHARGES
----------------------
   0 C :    0.019855
   1 N :    0.018658
   2 N :    0.102913
   3 C :   -0.002718
   4 C :   -0.134870
   5 C :   -0.004318
   6 O :   -0.238798
   7 H :    0.027304
   8 H :    0.037473
   9 H :    0.037470
  10 H :    0.077511
  11 H :    0.028081
  12 H :    0.031440

  Mayer bond orders larger than 0.1
B(  0-C ,  1-N ) :   0.9829 B(  0-C ,  7-H ) :   0.9647 B(  0-C ,  8-H ) :   0.9635
B(  0-C ,  9-H ) :   0.9635 B(  1-N ,  2-N ) :   1.0099 B(  1-N ,  5-C ) :   1.0113
B(  2-N ,  3-C ) :   1.2057 B(  2-N ,  4-C ) :   0.1180 B(  2-N , 10-H ) :   0.9529
B(  3-C ,  4-C ) :   1.4976 B(  3-C , 11-H ) :   0.9810 B(  4-C ,  5-C ) :   1.1095
B(  4-C , 12-H ) :   1.0023 B(  5-C ,  6-O ) :   2.0636

FINAL SINGLE POINT ENERGY      -340.080804110359

DIPOLE MOMENT
-------------
                                X             Y             Z
Electronic contribution:      2.30135      -1.70657      -0.00151
Nuclear contribution   :     -2.54363       4.06121       0.01488
                        -----------------------------------------
Total Dipole Moment    :     -0.24228       2.35464       0.01337
                        -----------------------------------------
Magnitude (a.u.)       :      2.36711
Magnitude (Debye)      :      6.01671

                             ****ORCA TERMINATED NORMALLY****
TOTAL RUN TIME: 0 days 0 hours 0 minutes 6 seconds 454 msec
