                         Program Version 3.0.3 - RELEASE   -
|  1> ! RI PBE def2-SVP def2-SVP/J NBO PAL2
|  2> % maxcore 2000
|  3> % output
|  4>     # printlevel mini
|  5>     print[ P_Basis ] 0
|  6>     print[ P_SCFInfo ] 1
|  7>     print[ P_SCFIterInfo ] 1
|  8>     print[ P_OrbEn ] 0
|  9>     print[ P_Cartesian ] 0
| 10> end
| 11> *xyz 0 1
| 12>  C        0.9760840000    -0.0495210000    -0.0301750000
| 13>  N        2.3950490000    -0.1843380000    -0.0332880000
| 14>  O        3.1548380000     0.9718740000    -0.0373500000
| 15>  C        4.4295610000     0.5406810000    -0.0397780000
| 16>  C        4.5296680000    -0.7919970000    -0.0376180000
| 17>  C        3.1678480000    -1.3150310000    -0.0332860000
| 18>  N        2.6363970000    -2.4811870000    -0.0299320000
| 19>  H        0.7352260000     1.0121450000    -0.0306960000
| 20>  H        0.5484790000    -0.5207860000     0.8587140000
| 21>  H        0.5442520000    -0.5226250000    -0.9160490000
| 22>  H        5.1650410000     1.3305280000    -0.0430500000
| 23>  H        5.4329760000    -1.3782600000    -0.0388420000
| 24>  H        3.3554000000    -3.1951730000    -0.0304500000
| 25> *
| 26>
| 27>                          ****END OF INPUT****
 Total Charge           Charge          ....    0
 Multiplicity           Mult            ....    1
 Number of Electrons    NEL             ....   52
 Basis Dimension        Dim             ....  128

MULLIKEN ATOMIC CHARGES
-----------------------
   0 C :    0.120199
   1 N :   -0.139962
   2 O :   -0.156979
   3 C :    0.183641
   4 C :   -0.122324
   5 C :    0.030279
   6 N :   -0.150365
   7 H :    0.037896
   8 H :    0.047929
   9 H :    0.047963
  10 H :    0.027492
  11 H :   -0.006472
  12 H :    0.080704
Sum of atomic charges:   -0.0000000

LOEWDIN ATOMIC CHARGES
----------------------
   0 C :    0.018115
   1 N :    0.064824
   2 O :    0.014828
   3 C :    0.040058
   4 C :   -0.115087
   5 C :   -0.020322
   6 N :   -0.221942
   7 H :    0.038645
   8 H :    0.035265
   9 H :    0.035234
  10 H :    0.029758
  11 H :    0.035697
  12 H :    0.044927

  Mayer bond orders larger than 0.1
B(  0-C ,  1-N ) :   0.9975 B(  0-C ,  7-H ) :   0.9576 B(  0-C ,  8-H ) :   0.9618
B(  0-C ,  9-H ) :   0.9619 B(  1-N ,  2-O ) :   0.9501 B(  1-N ,  5-C ) :   1.0657
B(  2-O ,  3-C ) :   1.1159 B(  2-O ,  4-C ) :   0.1222 B(  3-C ,  4-C ) :   1.6207
B(  3-C , 10-H ) :   0.9757 B(  4-C ,  5-C ) :   1.0620 B(  4-C , 11-H ) :   0.9974
B(  5-C ,  6-N ) :   1.8558 B(  6-N , 12-H ) :   0.9234

FINAL SINGLE POINT ENERGY      -340.030233242818

DIPOLE MOMENT
-------------
                                X             Y             Z
Electronic contribution:      2.57852       1.33399      -0.00856
Nuclear contribution   :     -2.08015      -0.50729       0.00576
                        -----------------------------------------
Total Dipole Moment    :      0.49838       0.82670      -0.00279
                        -----------------------------------------
Magnitude (a.u.)       :      0.96531
Magnitude (Debye)      :      2.45362

                             ****ORCA TERMINATED NORMALLY****
TOTAL RUN TIME: 0 days 0 hours 0 minutes 5 seconds 730 msec
