                         Program Version 3.0.3 - RELEASE   -
|  1> ! RI PBE def2-SVP def2-SVP/J NBO PAL2
|  2> % maxcore 2000
|  3> % output
|  4>     # printlevel mini
|  5>     print[ P_Basis ] 0
|  6>     print[ P_SCFInfo ] 1
|  7>     print[ P_SCFIterInfo ] 1
|  8>     print[ P_OrbEn ] 0
|  9>     print[ P_Cartesian ] 0
| 10> end
| 11> *xyz 0 1
| 12>  C        1.2120540000    -0.0618240000     0.1928600000
| 13>  N        2.5017950000    -0.1119010000    -0.4275450000
| 14>  O        3.2764770000     1.0343290000    -0.1156310000
| 15>  C        4.5276470000     0.7405380000    -0.7140400000
| 16>  C        4.7299160000    -0.7393960000    -0.4361130000
| 17>  C        3.3031890000    -1.2317870000    -0.3418450000
| 18>  N        2.8258070000    -2.4016850000    -0.2216960000
| 19>  H        0.6203100000     0.7409260000    -0.2471070000
| 20>  H        1.2930100000     0.0916080000     1.2755990000
| 21>  H        0.7356790000    -1.0227010000     0.0036530000
| 22>  H        5.2642180000     1.3969200000    -0.2523760000
| 23>  H        4.4800670000     0.9356080000    -1.7924070000
| 24>  H        5.2215960000    -0.9116790000     0.5251390000
| 25>  H        5.2899830000    -1.2613630000    -1.2120600000
| 26>  H        3.5650410000    -3.0960030000    -0.2591420000
| 27> *
| 28>
| 29>                          ****END OF INPUT****
 Total Charge           Charge          ....    0
 Multiplicity           Mult            ....    1
 Number of Electrons    NEL             ....   54
 Basis Dimension        Dim             ....  138

MULLIKEN ATOMIC CHARGES
-----------------------
   0 C :    0.113474
   1 N :   -0.122341
   2 O :   -0.290577
   3 C :    0.207384
   4 C :    0.011103
   5 C :   -0.118552
   6 N :   -0.113124
   7 H :    0.035594
   8 H :    0.020339
   9 H :    0.053911
  10 H :    0.024785
  11 H :    0.016594
  12 H :    0.038236
  13 H :    0.038654
  14 H :    0.084519
Sum of atomic charges:   -0.0000000

LOEWDIN ATOMIC CHARGES
----------------------
   0 C :    0.005666
   1 N :    0.041391
   2 O :   -0.118681
   3 C :    0.061837
   4 C :   -0.074626
   5 C :   -0.009799
   6 N :   -0.167817
   7 H :    0.027970
   8 H :    0.018740
   9 H :    0.042480
  10 H :    0.026599
  11 H :    0.011276
  12 H :    0.043498
  13 H :    0.041656
  14 H :    0.049811

  Mayer bond orders larger than 0.1
B(  0-C ,  1-N ) :   1.0125 B(  0-C ,  7-H ) :   0.9676 B(  0-C ,  8-H ) :   0.9515
B(  0-C ,  9-H ) :   0.9479 B(  1-N ,  2-O ) :   0.8973 B(  1-N ,  5-C ) :   1.1202
B(  2-O ,  3-C ) :   0.9851 B(  3-C ,  4-C ) :   1.1015 B(  3-C , 10-H ) :   0.9389
B(  3-C , 11-H ) :   0.9376 B(  4-C ,  5-C ) :   0.9978 B(  4-C , 12-H ) :   0.8882
B(  4-C , 13-H ) :   0.9206 B(  5-C ,  6-N ) :   1.9637 B(  6-N , 14-H ) :   0.9253

FINAL SINGLE POINT ENERGY      -341.233920728943

DIPOLE MOMENT
-------------
                                X             Y             Z
Electronic contribution:     -0.08304       0.30806      -0.34114
Nuclear contribution   :      0.90434      -0.12354       0.30258
                        -----------------------------------------
Total Dipole Moment    :      0.82130       0.18452      -0.03856
                        -----------------------------------------
Magnitude (a.u.)       :      0.84266
Magnitude (Debye)      :      2.14186

                             ****ORCA TERMINATED NORMALLY****
TOTAL RUN TIME: 0 days 0 hours 0 minutes 7 seconds 98 msec
