                         Program Version 3.0.3 - RELEASE   -
|  1> ! RI PBE def2-SVP def2-SVP/J NBO PAL2
|  2> % maxcore 2000
|  3> % output
|  4>     # printlevel mini
|  5>     print[ P_Basis ] 0
|  6>     print[ P_SCFInfo ] 1
|  7>     print[ P_SCFIterInfo ] 1
|  8>     print[ P_OrbEn ] 0
|  9>     print[ P_Cartesian ] 0
| 10> end
| 11> *xyz 0 1
| 12>  C        1.0022790000    -0.0330250000     0.0600430000
| 13>  N        2.4245470000    -0.1786250000     0.0569900000
| 14>  O        3.1845580000     0.9699840000     0.0507150000
| 15>  C        4.4608500000     0.5378680000     0.0477620000
| 16>  C        4.5599530000    -0.7957670000     0.0514680000
| 17>  C        3.1955510000    -1.3156800000     0.0574550000
| 18>  O        2.7439300000    -2.4444190000     0.0620610000
| 19>  H        0.7700860000     1.0303170000     0.0622430000
| 20>  H        0.5724310000    -0.4996100000     0.9490240000
| 21>  H        0.5680590000    -0.4969560000    -0.8282590000
| 22>  H        5.1933870000     1.3306050000     0.0429660000
| 23>  H        5.4552580000    -1.3930910000     0.0502420000
| 24> *
| 25>
| 26>                          ****END OF INPUT****
 Total Charge           Charge          ....    0
 Multiplicity           Mult            ....    1
 Number of Electrons    NEL             ....   52
 Basis Dimension        Dim             ....  123

MULLIKEN ATOMIC CHARGES
-----------------------
   0 C :    0.108297
   1 N :   -0.144637
   2 O :   -0.156001
   3 C :    0.185011
   4 C :   -0.159420
   5 C :    0.173437
   6 O :   -0.211404
   7 H :    0.045338
   8 H :    0.056048
   9 H :    0.055959
  10 H :    0.033327
  11 H :    0.014044
Sum of atomic charges:   -0.0000000

LOEWDIN ATOMIC CHARGES
----------------------
   0 C :    0.017786
   1 N :    0.058328
   2 O :    0.017601
   3 C :    0.044677
   4 C :   -0.113780
   5 C :   -0.003578
   6 O :   -0.211676
   7 H :    0.041857
   8 H :    0.038621
   9 H :    0.038417
  10 H :    0.030604
  11 H :    0.041144

  Mayer bond orders larger than 0.1
B(  0-C ,  1-N ) :   0.9764 B(  0-C ,  7-H ) :   0.9592 B(  0-C ,  8-H ) :   0.9651
B(  0-C ,  9-H ) :   0.9652 B(  1-N ,  2-O ) :   0.9461 B(  1-N ,  5-C ) :   1.0493
B(  2-O ,  3-C ) :   1.1120 B(  2-O ,  4-C ) :   0.1129 B(  3-C ,  4-C ) :   1.6115
B(  3-C , 10-H ) :   0.9795 B(  4-C ,  5-C ) :   1.0481 B(  4-C , 11-H ) :   0.9937
B(  5-C ,  6-O ) :   2.0945

FINAL SINGLE POINT ENERGY      -359.900063638597

DIPOLE MOMENT
-------------
                                X             Y             Z
Electronic contribution:      2.50021      -0.73071      -0.00399
Nuclear contribution   :     -2.43586       2.11640      -0.00044
                        -----------------------------------------
Total Dipole Moment    :      0.06434       1.38569      -0.00443
                        -----------------------------------------
Magnitude (a.u.)       :      1.38719
Magnitude (Debye)      :      3.52595

                             ****ORCA TERMINATED NORMALLY****
TOTAL RUN TIME: 0 days 0 hours 0 minutes 5 seconds 833 msec
