                         Program Version 3.0.3 - RELEASE   -
|  1> ! RI PBE def2-SVP def2-SVP/J NBO PAL2
|  2> % maxcore 2000
|  3> % output
|  4>     # printlevel mini
|  5>     print[ P_Basis ] 0
|  6>     print[ P_SCFInfo ] 1
|  7>     print[ P_SCFIterInfo ] 1
|  8>     print[ P_OrbEn ] 0
|  9>     print[ P_Cartesian ] 0
| 10> end
| 11> *xyz 0 1
| 12>  C        1.1993370000    -0.0215230000     0.1421270000
| 13>  N        2.5315180000    -0.1560630000    -0.3516920000
| 14>  O        3.2288430000     1.0563320000    -0.4688340000
| 15>  C        4.4922800000     0.6600730000    -1.0041110000
| 16>  C        4.7695020000    -0.6863540000    -0.3677820000
| 17>  C        3.3663380000    -1.2045930000    -0.1118990000
| 18>  O        3.0213090000    -2.3156770000     0.2193850000
| 19>  H        1.1821920000     0.5552310000     1.0729140000
| 20>  H        0.8379420000    -1.0317210000     0.3334200000
| 21>  H        0.5619850000     0.4658480000    -0.5972470000
| 22>  H        5.1999830000     1.4474730000    -0.7493690000
| 23>  H        4.4122740000     0.5723320000    -2.0942160000
| 24>  H        5.2774600000    -0.6033850000     0.5972020000
| 25>  H        5.3299170000    -1.3764640000    -0.9960790000
| 26> *
| 27>
| 28>                          ****END OF INPUT****
 Total Charge           Charge          ....    0
 Multiplicity           Mult            ....    1
 Number of Electrons    NEL             ....   54
 Basis Dimension        Dim             ....  133

MULLIKEN ATOMIC CHARGES
-----------------------
   0 C :    0.105518
   1 N :   -0.119869
   2 O :   -0.282254
   3 C :    0.190204
   4 C :   -0.065660
   5 C :    0.065346
   6 O :   -0.192546
   7 H :    0.034243
   8 H :    0.054177
   9 H :    0.044801
  10 H :    0.033714
  11 H :    0.030066
  12 H :    0.050432
  13 H :    0.051828
Sum of atomic charges:   -0.0000000

LOEWDIN ATOMIC CHARGES
----------------------
   0 C :    0.010518
   1 N :    0.050262
   2 O :   -0.114773
   3 C :    0.064215
   4 C :   -0.080336
   5 C :    0.008578
   6 O :   -0.179801
   7 H :    0.026525
   8 H :    0.044123
   9 H :    0.030896
  10 H :    0.028458
  11 H :    0.015529
  12 H :    0.048082
  13 H :    0.047723

  Mayer bond orders larger than 0.1
B(  0-C ,  1-N ) :   1.0033 B(  0-C ,  7-H ) :   0.9548 B(  0-C ,  8-H ) :   0.9483
B(  0-C ,  9-H ) :   0.9667 B(  1-N ,  2-O ) :   0.9058 B(  1-N ,  5-C ) :   1.1486
B(  1-N ,  6-O ) :   0.1086 B(  2-O ,  3-C ) :   0.9579 B(  3-C ,  4-C ) :   1.1067
B(  3-C , 10-H ) :   0.9411 B(  3-C , 11-H ) :   0.9415 B(  4-C ,  5-C ) :   0.9771
B(  4-C , 12-H ) :   0.8889 B(  4-C , 13-H ) :   0.9259 B(  5-C ,  6-O ) :   2.1113

FINAL SINGLE POINT ENERGY      -361.101089658501

DIPOLE MOMENT
-------------
                                X             Y             Z
Electronic contribution:      0.00116      -1.61605       0.26551
Nuclear contribution   :      0.30670       2.44685      -0.49377
                        -----------------------------------------
Total Dipole Moment    :      0.30786       0.83080      -0.22825
                        -----------------------------------------
Magnitude (a.u.)       :      0.91493
Magnitude (Debye)      :      2.32558

                             ****ORCA TERMINATED NORMALLY****
TOTAL RUN TIME: 0 days 0 hours 0 minutes 6 seconds 714 msec
