                         Program Version 3.0.3 - RELEASE   -
|  1> ! RI PBE def2-SVP def2-SVP/J NBO PAL2
|  2> % maxcore 2000
|  3> % output
|  4>     # printlevel mini
|  5>     print[ P_Basis ] 0
|  6>     print[ P_SCFInfo ] 1
|  7>     print[ P_SCFIterInfo ] 1
|  8>     print[ P_OrbEn ] 0
|  9>     print[ P_Cartesian ] 0
| 10> end
| 11> *xyz 0 1
| 12>  C        1.0531720000     0.0468180000    -0.0336750000
| 13>  N        2.3958610000    -0.1462110000     0.4485810000
| 14>  O        3.0723100000     1.0648780000     0.5869860000
| 15>  C        4.1970150000     1.1248840000    -0.2859680000
| 16>  C        5.1126470000    -0.0400520000     0.0093980000
| 17>  N        4.4021640000    -1.2960590000    -0.0813680000
| 18>  C        3.1419940000    -1.2288800000     0.0697700000
| 19>  H        0.5155700000     0.7007200000     0.6535770000
| 20>  H        0.5537020000    -0.9227270000    -0.0558270000
| 21>  H        1.0282940000     0.4857740000    -1.0387140000
| 22>  H        4.6578970000     2.0924240000    -0.0841240000
| 23>  H        3.8618070000     1.0978680000    -1.3309060000
| 24>  H        5.5450290000     0.0760500000     1.0099740000
| 25>  H        5.9486500000    -0.0565020000    -0.6977850000
| 26>  H        2.5318770000    -2.1223740000    -0.0645300000
| 27> *
| 28>
| 29>                          ****END OF INPUT****
 Total Charge           Charge          ....    0
 Multiplicity           Mult            ....    1
 Number of Electrons    NEL             ....   54
 Basis Dimension        Dim             ....  138

MULLIKEN ATOMIC CHARGES
-----------------------
   0 C :    0.109867
   1 N :   -0.099143
   2 O :   -0.279933
   3 C :    0.117853
   4 C :    0.102695
   5 N :   -0.208533
   6 C :    0.053304
   7 H :    0.046020
   8 H :    0.037264
   9 H :    0.024781
  10 H :    0.026006
  11 H :    0.020009
  12 H :    0.028298
  13 H :    0.018137
  14 H :    0.003375
Sum of atomic charges:    0.0000000

LOEWDIN ATOMIC CHARGES
----------------------
   0 C :    0.008608
   1 N :    0.037394
   2 O :   -0.103626
   3 C :    0.040828
   4 C :   -0.016284
   5 N :   -0.153869
   6 C :   -0.012121
   7 H :    0.030609
   8 H :    0.035368
   9 H :    0.017043
  10 H :    0.028567
  11 H :    0.011534
  12 H :    0.029465
  13 H :    0.028025
  14 H :    0.018458

  Mayer bond orders larger than 0.1
B(  0-C ,  1-N ) :   0.9903 B(  0-C ,  7-H ) :   0.9659 B(  0-C ,  8-H ) :   0.9561
B(  0-C ,  9-H ) :   0.9539 B(  1-N ,  2-O ) :   0.9190 B(  1-N ,  5-N ) :   0.1301
B(  1-N ,  6-C ) :   1.1453 B(  2-O ,  3-C ) :   0.9535 B(  3-C ,  4-C ) :   1.0758
B(  3-C , 10-H ) :   0.9368 B(  3-C , 11-H ) :   0.9322 B(  4-C ,  5-N ) :   1.0681
B(  4-C , 12-H ) :   0.9209 B(  4-C , 13-H ) :   0.9246 B(  5-N ,  6-C ) :   1.8794
B(  6-C , 14-H ) :   0.9430

FINAL SINGLE POINT ENERGY      -341.224464722884

DIPOLE MOMENT
-------------
                                X             Y             Z
Electronic contribution:      1.12363      -0.98459       1.88806
Nuclear contribution   :     -1.72762       1.49896      -2.25231
                        -----------------------------------------
Total Dipole Moment    :     -0.60399       0.51437      -0.36424
                        -----------------------------------------
Magnitude (a.u.)       :      0.87296
Magnitude (Debye)      :      2.21888

                             ****ORCA TERMINATED NORMALLY****
TOTAL RUN TIME: 0 days 0 hours 0 minutes 7 seconds 106 msec
