                         Program Version 3.0.3 - RELEASE   -
|  1> ! RI PBE def2-SVP def2-SVP/J NBO PAL2
|  2> % maxcore 2000
|  3> % output
|  4>     # printlevel mini
|  5>     print[ P_Basis ] 0
|  6>     print[ P_SCFInfo ] 1
|  7>     print[ P_SCFIterInfo ] 1
|  8>     print[ P_OrbEn ] 0
|  9>     print[ P_Cartesian ] 0
| 10> end
| 11> *xyz 0 1
| 12>  C        1.6963760000     0.6334710000    -0.2580300000
| 13>  N        2.7542080000    -0.2851530000     0.1068640000
| 14>  C        3.1652670000    -0.1757350000     1.4687700000
| 15>  C        4.5864340000    -0.4068090000     1.8424140000
| 16>  C        3.9925630000     0.9757240000     1.9824480000
| 17>  C        3.7638460000     1.5406740000     3.3500960000
| 18>  O        4.9364880000     2.0708960000     3.9360860000
| 19>  H        1.4515090000     0.5096070000    -1.3146130000
| 20>  H        1.9398360000     1.6922400000    -0.0765240000
| 21>  H        0.7967830000     0.3982370000     0.3172320000
| 22>  H        3.5485350000    -0.1805230000    -0.5101060000
| 23>  H        2.4220570000    -0.5623960000     2.1626190000
| 24>  H        5.2985940000    -0.5744100000     1.0421440000
| 25>  H        4.7901200000    -0.9773730000     2.7422210000
| 26>  H        4.3089970000     1.6975850000     1.2344580000
| 27>  H        3.3225830000     0.7641650000     3.9937620000
| 28>  H        3.0535500000     2.3706480000     3.3097360000
| 29>  H        5.6252730000     1.4046520000     3.8585110000
| 30> *
| 31>
| 32>                          ****END OF INPUT****
 Total Charge           Charge          ....    0
 Multiplicity           Mult            ....    1
 Number of Electrons    NEL             ....   56
 Basis Dimension        Dim             ....  153

MULLIKEN ATOMIC CHARGES
-----------------------
   0 C :    0.068521
   1 N :   -0.166191
   2 C :   -0.054497
   3 C :   -0.007592
   4 C :   -0.191994
   5 C :    0.270017
   6 O :   -0.285937
   7 H :    0.023112
   8 H :    0.002827
   9 H :    0.016526
  10 H :    0.089295
  11 H :    0.017473
  12 H :    0.029413
  13 H :    0.026829
  14 H :    0.018816
  15 H :   -0.020893
  16 H :    0.015320
  17 H :    0.148956
Sum of atomic charges:    0.0000000

LOEWDIN ATOMIC CHARGES
----------------------
   0 C :   -0.004557
   1 N :   -0.080616
   2 C :    0.003450
   3 C :   -0.054189
   4 C :   -0.084600
   5 C :    0.057857
   6 O :   -0.125537
   7 H :    0.022947
   8 H :   -0.000447
   9 H :    0.022635
  10 H :    0.054292
  11 H :    0.020367
  12 H :    0.027273
  13 H :    0.025099
  14 H :    0.024999
  15 H :    0.002308
  16 H :    0.024370
  17 H :    0.064351

  Mayer bond orders larger than 0.1
B(  0-C ,  1-N ) :   1.0599 B(  0-C ,  7-H ) :   0.9724 B(  0-C ,  8-H ) :   0.9484
B(  0-C ,  9-H ) :   0.9651 B(  1-N ,  2-C ) :   1.1431 B(  1-N , 10-H ) :   0.9355
B(  2-C ,  3-C ) :   1.0111 B(  2-C ,  4-C ) :   0.8786 B(  2-C , 11-H ) :   0.9311
B(  3-C ,  4-C ) :   0.9632 B(  3-C , 12-H ) :   0.9380 B(  3-C , 13-H ) :   0.9370
B(  4-C ,  5-C ) :   1.0771 B(  4-C , 14-H ) :   0.9328 B(  5-C ,  6-O ) :   1.0598
B(  5-C , 15-H ) :   0.9163 B(  5-C , 16-H ) :   0.9315 B(  6-O , 17-H ) :   0.9862

FINAL SINGLE POINT ENERGY      -326.418206662467

DIPOLE MOMENT
-------------
                                X             Y             Z
Electronic contribution:      2.64684       0.36564       2.41341
Nuclear contribution   :     -2.52351      -0.63819      -2.83197
                        -----------------------------------------
Total Dipole Moment    :      0.12333      -0.27255      -0.41856
                        -----------------------------------------
Magnitude (a.u.)       :      0.51448
Magnitude (Debye)      :      1.30769

                             ****ORCA TERMINATED NORMALLY****
TOTAL RUN TIME: 0 days 0 hours 0 minutes 7 seconds 855 msec
