                         Program Version 3.0.3 - RELEASE   -
|  1> ! RI PBE def2-SVP def2-SVP/J NBO PAL2
|  2> % maxcore 2000
|  3> % output
|  4>     # printlevel mini
|  5>     print[ P_Basis ] 0
|  6>     print[ P_SCFInfo ] 1
|  7>     print[ P_SCFIterInfo ] 1
|  8>     print[ P_OrbEn ] 0
|  9>     print[ P_Cartesian ] 0
| 10> end
| 11> *xyz 0 1
| 12>  C        1.9498450000    -0.3502230000     0.4542100000
| 13>  N        2.8378620000     0.1728500000    -0.5613210000
| 14>  C        3.6437020000     1.2681340000    -0.1343060000
| 15>  C        4.0825430000     2.3112870000    -1.1150780000
| 16>  C        3.1723350000     2.7013190000     0.0050910000
| 17>  C        1.7549720000     3.1020950000    -0.2823710000
| 18>  O        3.8048650000     3.4770500000     0.9857870000
| 19>  H        1.3762770000    -1.1846920000     0.0456440000
| 20>  H        1.2436430000     0.3881140000     0.8644850000
| 21>  H        2.5429660000    -0.7386990000     1.2870360000
| 22>  H        2.3384750000     0.3931790000    -1.4112090000
| 23>  H        4.3931790000     0.9840190000     0.6014040000
| 24>  H        3.6575740000     2.2720630000    -2.1127370000
| 25>  H        5.1066510000     2.6583550000    -1.0680680000
| 26>  H        1.2889780000     2.4352440000    -1.0107360000
| 27>  H        1.7199370000     4.1194630000    -0.6801150000
| 28>  H        1.1488590000     3.0752690000     0.6285800000
| 29>  H        3.4020470000     3.2704040000     1.8345030000
| 30> *
| 31>
| 32>                          ****END OF INPUT****
 Total Charge           Charge          ....    0
 Multiplicity           Mult            ....    1
 Number of Electrons    NEL             ....   56
 Basis Dimension        Dim             ....  153

MULLIKEN ATOMIC CHARGES
-----------------------
   0 C :    0.081520
   1 N :   -0.161011
   2 C :   -0.068546
   3 C :    0.016306
   4 C :   -0.099979
   5 C :    0.105124
   6 O :   -0.238225
   7 H :    0.019641
   8 H :   -0.006940
   9 H :    0.014634
  10 H :    0.087638
  11 H :    0.012215
  12 H :    0.024360
  13 H :    0.036155
  14 H :   -0.013513
  15 H :    0.024057
  16 H :    0.012697
  17 H :    0.153866
Sum of atomic charges:    0.0000000

LOEWDIN ATOMIC CHARGES
----------------------
   0 C :   -0.002832
   1 N :   -0.079592
   2 C :   -0.018748
   3 C :   -0.047449
   4 C :   -0.013423
   5 C :   -0.064530
   6 O :   -0.094779
   7 H :    0.022627
   8 H :   -0.003043
   9 H :    0.021881
  10 H :    0.050735
  11 H :    0.021079
  12 H :    0.025638
  13 H :    0.034506
  14 H :    0.022174
  15 H :    0.031746
  16 H :    0.023535
  17 H :    0.070475

  Mayer bond orders larger than 0.1
B(  0-C ,  1-N ) :   1.0579 B(  0-C ,  7-H ) :   0.9725 B(  0-C ,  8-H ) :   0.9468
B(  0-C ,  9-H ) :   0.9653 B(  1-N ,  2-C ) :   1.1445 B(  1-N , 10-H ) :   0.9386
B(  2-C ,  3-C ) :   0.9923 B(  2-C ,  4-C ) :   0.8709 B(  2-C , 11-H ) :   0.9230
B(  3-C ,  4-C ) :   0.9535 B(  3-C , 12-H ) :   0.9427 B(  3-C , 13-H ) :   0.9217
B(  4-C ,  5-C ) :   1.0913 B(  4-C ,  6-O ) :   1.0830 B(  5-C , 14-H ) :   0.9262
B(  5-C , 15-H ) :   0.9468 B(  5-C , 16-H ) :   0.9461 B(  6-O , 17-H ) :   0.9811

FINAL SINGLE POINT ENERGY      -326.423393208098

DIPOLE MOMENT
-------------
                                X             Y             Z
Electronic contribution:      3.90755       2.07068       0.48911
Nuclear contribution   :     -4.57935      -2.21372      -0.33308
                        -----------------------------------------
Total Dipole Moment    :     -0.67180      -0.14305       0.15604
                        -----------------------------------------
Magnitude (a.u.)       :      0.70436
Magnitude (Debye)      :      1.79035

                             ****ORCA TERMINATED NORMALLY****
TOTAL RUN TIME: 0 days 0 hours 0 minutes 8 seconds 66 msec
