                         Program Version 3.0.3 - RELEASE   -
|  1> ! RI PBE def2-SVP def2-SVP/J NBO PAL2
|  2> % maxcore 2000
|  3> % output
|  4>     # printlevel mini
|  5>     print[ P_Basis ] 0
|  6>     print[ P_SCFInfo ] 1
|  7>     print[ P_SCFIterInfo ] 1
|  8>     print[ P_OrbEn ] 0
|  9>     print[ P_Cartesian ] 0
| 10> end
| 11> *xyz 0 1
| 12>  C        0.8350450000    -0.6007370000     0.5949290000
| 13>  N        1.9766790000    -0.5766690000    -0.3008890000
| 14>  C        2.9335470000    -1.5928420000    -0.0178070000
| 15>  C        2.7233760000    -2.9282330000    -0.6104640000
| 16>  C        3.8183890000    -2.0416430000    -1.1670000000
| 17>  C        5.2140320000    -2.3854970000    -0.8564070000
| 18>  O        5.5697940000    -2.9359110000     0.1561710000
| 19>  H        0.1581740000     0.2173890000     0.3421420000
| 20>  H        1.1002940000    -0.5152780000     1.6599160000
| 21>  H        0.2901920000    -1.5380890000     0.4623220000
| 22>  H        2.4201510000     0.3328560000    -0.2748400000
| 23>  H        3.4435800000    -1.5830170000     0.9480590000
| 24>  H        1.8563750000    -3.0610180000    -1.2447720000
| 25>  H        3.0602400000    -3.7909600000    -0.0496910000
| 26>  H        3.6295350000    -1.5653740000    -2.1208100000
| 27>  H        5.9591890000    -2.0947760000    -1.6267570000
| 28> *
| 29>
| 30>                          ****END OF INPUT****
 Total Charge           Charge          ....    0
 Multiplicity           Mult            ....    1
 Number of Electrons    NEL             ....   54
 Basis Dimension        Dim             ....  143

MULLIKEN ATOMIC CHARGES
-----------------------
   0 C :    0.067529
   1 N :   -0.204439
   2 C :   -0.042049
   3 C :    0.072401
   4 C :   -0.122162
   5 C :    0.141146
   6 O :   -0.181630
   7 H :    0.028013
   8 H :    0.005479
   9 H :    0.025132
  10 H :    0.105864
  11 H :    0.025598
  12 H :    0.034298
  13 H :    0.044988
  14 H :    0.017910
  15 H :   -0.018080
Sum of atomic charges:   -0.0000000

LOEWDIN ATOMIC CHARGES
----------------------
   0 C :   -0.002799
   1 N :   -0.086799
   2 C :    0.021933
   3 C :   -0.010496
   4 C :   -0.089598
   5 C :    0.086121
   6 O :   -0.131752
   7 H :    0.024704
   8 H :    0.003573
   9 H :    0.024039
  10 H :    0.060085
  11 H :    0.011859
  12 H :    0.034617
  13 H :    0.033903
  14 H :    0.030978
  15 H :   -0.010369

  Mayer bond orders larger than 0.1
B(  0-C ,  1-N ) :   1.0500 B(  0-C ,  7-H ) :   0.9713 B(  0-C ,  8-H ) :   0.9498
B(  0-C ,  9-H ) :   0.9692 B(  1-N ,  2-C ) :   1.1241 B(  1-N , 10-H ) :   0.9452
B(  2-C ,  3-C ) :   1.0322 B(  2-C ,  4-C ) :   0.8793 B(  2-C , 11-H ) :   0.9205
B(  3-C ,  4-C ) :   0.9648 B(  3-C , 12-H ) :   0.9251 B(  3-C , 13-H ) :   0.9323
B(  4-C ,  5-C ) :   0.9937 B(  4-C , 14-H ) :   0.9305 B(  5-C ,  6-O ) :   2.1315
B(  5-C , 15-H ) :   0.9363

FINAL SINGLE POINT ENERGY      -325.231207232963

DIPOLE MOMENT
-------------
                                X             Y             Z
Electronic contribution:      6.45048      -2.20824      -0.93514
Nuclear contribution   :     -7.12255       2.85850       0.63354
                        -----------------------------------------
Total Dipole Moment    :     -0.67207       0.65026      -0.30160
                        -----------------------------------------
Magnitude (a.u.)       :      0.98259
Magnitude (Debye)      :      2.49754

                             ****ORCA TERMINATED NORMALLY****
TOTAL RUN TIME: 0 days 0 hours 0 minutes 7 seconds 559 msec
