                         Program Version 3.0.3 - RELEASE   -
|  1> ! RI PBE def2-SVP def2-SVP/J NBO PAL2
|  2> % maxcore 2000
|  3> % output
|  4>     # printlevel mini
|  5>     print[ P_Basis ] 0
|  6>     print[ P_SCFInfo ] 1
|  7>     print[ P_SCFIterInfo ] 1
|  8>     print[ P_OrbEn ] 0
|  9>     print[ P_Cartesian ] 0
| 10> end
| 11> *xyz 0 1
| 12>  C        3.5983790000     0.3036950000    -1.9983420000
| 13>  N        3.1468930000     1.2749710000    -1.0235200000
| 14>  C        3.9447670000     1.3169360000     0.1566300000
| 15>  C        5.1855800000     2.1725330000     0.1326920000
| 16>  C        4.0087730000     2.5977480000     0.9315430000
| 17>  O        4.1392430000     2.5526730000     2.3095810000
| 18>  C        2.9028650000     2.3998950000     2.9588690000
| 19>  H        2.9325300000     0.3142580000    -2.8637830000
| 20>  H        3.6496980000    -0.7276500000    -1.6139090000
| 21>  H        4.5986530000     0.5764490000    -2.3435520000
| 22>  H        2.1767670000     1.1121910000    -0.7856810000
| 23>  H        4.0305240000     0.4090450000     0.7602720000
| 24>  H        5.3963600000     2.7191720000    -0.7776430000
| 25>  H        6.0466650000     1.8170200000     0.6839240000
| 26>  H        3.4088750000     3.4230000000     0.5490350000
| 27>  H        3.0977810000     2.3840780000     4.0313790000
| 28>  H        2.4096080000     1.4625630000     2.6701590000
| 29>  H        2.2252280000     3.2341220000     2.7328250000
| 30> *
| 31>
| 32>                          ****END OF INPUT****
 Total Charge           Charge          ....    0
 Multiplicity           Mult            ....    1
 Number of Electrons    NEL             ....   56
 Basis Dimension        Dim             ....  153

MULLIKEN ATOMIC CHARGES
-----------------------
   0 C :    0.075658
   1 N :   -0.202360
   2 C :   -0.094268
   3 C :    0.032710
   4 C :    0.080025
   5 O :   -0.302387
   6 C :    0.154524
   7 H :    0.022973
   8 H :   -0.003064
   9 H :    0.017404
  10 H :    0.103454
  11 H :    0.006726
  12 H :    0.025754
  13 H :    0.035822
  14 H :    0.002023
  15 H :    0.035856
  16 H :    0.003119
  17 H :    0.006028
Sum of atomic charges:   -0.0000000

LOEWDIN ATOMIC CHARGES
----------------------
   0 C :   -0.004611
   1 N :   -0.091193
   2 C :   -0.025908
   3 C :   -0.048871
   4 C :    0.032095
   5 O :   -0.125821
   6 C :    0.051736
   7 H :    0.021866
   8 H :   -0.000281
   9 H :    0.022423
  10 H :    0.057263
  11 H :    0.005093
  12 H :    0.031264
  13 H :    0.032753
  14 H :    0.008246
  15 H :    0.023041
  16 H :    0.004164
  17 H :    0.006742

  Mayer bond orders larger than 0.1
B(  0-C ,  1-N ) :   1.0567 B(  0-C ,  7-H ) :   0.9706 B(  0-C ,  8-H ) :   0.9493
B(  0-C ,  9-H ) :   0.9673 B(  1-N ,  2-C ) :   1.1040 B(  1-N , 10-H ) :   0.9450
B(  2-C ,  3-C ) :   0.9943 B(  2-C ,  4-C ) :   0.9322 B(  2-C , 11-H ) :   0.9111
B(  3-C ,  4-C ) :   1.0148 B(  3-C , 12-H ) :   0.9207 B(  3-C , 13-H ) :   0.9345
B(  4-C ,  5-O ) :   1.0884 B(  4-C , 14-H ) :   0.9238 B(  5-O ,  6-C ) :   1.0067
B(  6-C , 15-H ) :   0.9764 B(  6-C , 16-H ) :   0.9555 B(  6-C , 17-H ) :   0.9555

FINAL SINGLE POINT ENERGY      -326.409283250757

DIPOLE MOMENT
-------------
                                X             Y             Z
Electronic contribution:      1.37758       2.43017       2.34320
Nuclear contribution   :     -1.93056      -2.78279      -2.42043
                        -----------------------------------------
Total Dipole Moment    :     -0.55298      -0.35262      -0.07723
                        -----------------------------------------
Magnitude (a.u.)       :      0.66038
Magnitude (Debye)      :      1.67854

                             ****ORCA TERMINATED NORMALLY****
TOTAL RUN TIME: 0 days 0 hours 0 minutes 7 seconds 761 msec
