                         Program Version 3.0.3 - RELEASE   -
|  1> ! RI PBE def2-SVP def2-SVP/J NBO PAL2
|  2> % maxcore 2000
|  3> % output
|  4>     # printlevel mini
|  5>     print[ P_Basis ] 0
|  6>     print[ P_SCFInfo ] 1
|  7>     print[ P_SCFIterInfo ] 1
|  8>     print[ P_OrbEn ] 0
|  9>     print[ P_Cartesian ] 0
| 10> end
| 11> *xyz 0 1
| 12>  C        3.1374640000    -0.3261380000    -0.9912840000
| 13>  N        2.3247260000     0.0204310000     0.1583210000
| 14>  C        2.7855250000    -0.5354590000     1.3948540000
| 15>  C        1.9518950000    -0.2905120000     2.6625360000
| 16>  C        2.4221740000    -1.6594310000     3.1883450000
| 17>  C        2.7217030000    -2.0483110000     1.7312070000
| 18>  O        3.7808390000    -2.9088860000     1.4228900000
| 19>  H        2.7082300000     0.1214300000    -1.8899940000
| 20>  H        3.2500750000    -1.4069110000    -1.1595960000
| 21>  H        4.1394850000     0.0937280000    -0.8630520000
| 22>  H        1.3608590000    -0.2480990000     0.0010840000
| 23>  H        3.8162280000    -0.1923250000     1.5649840000
| 24>  H        0.8836840000    -0.2984010000     2.4291470000
| 25>  H        2.1739540000     0.5983990000     3.2515800000
| 26>  H        1.7238460000    -2.2748900000     3.7551600000
| 27>  H        3.3513190000    -1.5626720000     3.7581060000
| 28>  H        1.8326880000    -2.4860640000     1.2648520000
| 29>  H        4.5803990000    -2.5590070000     1.8255480000
| 30> *
| 31>
| 32>                          ****END OF INPUT****
 Total Charge           Charge          ....    0
 Multiplicity           Mult            ....    1
 Number of Electrons    NEL             ....   56
 Basis Dimension        Dim             ....  153

MULLIKEN ATOMIC CHARGES
-----------------------
   0 C :    0.073735
   1 N :   -0.194742
   2 C :   -0.074879
   3 C :    0.038437
   4 C :    0.016232
   5 C :    0.094619
   6 O :   -0.245406
   7 H :    0.016291
   8 H :    0.013308
   9 H :    0.009242
  10 H :    0.093679
  11 H :   -0.020631
  12 H :    0.009453
  13 H :    0.016543
  14 H :    0.018020
  15 H :    0.002002
  16 H :   -0.016925
  17 H :    0.151022
Sum of atomic charges:    0.0000000

LOEWDIN ATOMIC CHARGES
----------------------
   0 C :   -0.004465
   1 N :   -0.093916
   2 C :   -0.017265
   3 C :   -0.032579
   4 C :   -0.052240
   5 C :    0.021867
   6 O :   -0.103196
   7 H :    0.021174
   8 H :    0.004006
   9 H :    0.020392
  10 H :    0.051882
  11 H :    0.015474
  12 H :    0.024480
  13 H :    0.020671
  14 H :    0.019263
  15 H :    0.021886
  16 H :    0.017427
  17 H :    0.065139

  Mayer bond orders larger than 0.1
B(  0-C ,  1-N ) :   1.0571 B(  0-C ,  7-H ) :   0.9713 B(  0-C ,  8-H ) :   0.9535
B(  0-C ,  9-H ) :   0.9637 B(  1-N ,  2-C ) :   1.1287 B(  1-N , 10-H ) :   0.9314
B(  2-C ,  3-C ) :   1.0611 B(  2-C ,  5-C ) :   0.9754 B(  2-C , 11-H ) :   0.8797
B(  3-C ,  4-C ) :   1.1040 B(  3-C , 12-H ) :   0.9221 B(  3-C , 13-H ) :   0.9224
B(  4-C ,  5-C ) :   1.0619 B(  4-C , 14-H ) :   0.9279 B(  4-C , 15-H ) :   0.9168
B(  5-C ,  6-O ) :   1.1035 B(  5-C , 16-H ) :   0.8854 B(  6-O , 17-H ) :   0.9771

FINAL SINGLE POINT ENERGY      -326.429572142415

DIPOLE MOMENT
-------------
                                X             Y             Z
Electronic contribution:      0.55429      -1.98743       0.87275
Nuclear contribution   :     -0.52473       2.12194      -0.69733
                        -----------------------------------------
Total Dipole Moment    :      0.02956       0.13451       0.17541
                        -----------------------------------------
Magnitude (a.u.)       :      0.22302
Magnitude (Debye)      :      0.56687

                             ****ORCA TERMINATED NORMALLY****
TOTAL RUN TIME: 0 days 0 hours 0 minutes 7 seconds 997 msec
