                         Program Version 3.0.3 - RELEASE   -
|  1> ! RI PBE def2-SVP def2-SVP/J NBO PAL2
|  2> % maxcore 2000
|  3> % output
|  4>     # printlevel mini
|  5>     print[ P_Basis ] 0
|  6>     print[ P_SCFInfo ] 1
|  7>     print[ P_SCFIterInfo ] 1
|  8>     print[ P_OrbEn ] 0
|  9>     print[ P_Cartesian ] 0
| 10> end
| 11> *xyz 0 1
| 12>  C        1.2945740000     0.5300660000    -0.0868730000
| 13>  N        2.0600730000     0.2149800000    -1.2793820000
| 14>  C        2.9057760000    -0.9450610000    -1.1845890000
| 15>  C        3.8249020000    -1.0833460000     0.0000070000
| 16>  C        3.3743170000    -1.4772200000    -2.5171220000
| 17>  C        2.2614820000    -2.1668670000    -1.7843420000
| 18>  O        0.9646970000    -2.0644450000    -2.2564960000
| 19>  H        0.6157630000     1.3571190000    -0.3042770000
| 20>  H        1.9022260000     0.8084320000     0.7849210000
| 21>  H        0.6878250000    -0.3355270000     0.1889460000
| 22>  H        2.5845340000     1.0191240000    -1.5988910000
| 23>  H        3.2761000000    -1.0725360000     0.9450500000
| 24>  H        4.5621270000    -0.2735440000     0.0239390000
| 25>  H        4.3718420000    -2.0272120000    -0.0500290000
| 26>  H        4.3525180000    -1.9414050000    -2.5617110000
| 27>  H        3.0848550000    -0.9194700000    -3.4003300000
| 28>  H        2.4557250000    -3.1321800000    -1.3305180000
| 29>  H        0.7966720000    -1.1081970000    -2.2873920000
| 30> *
| 31>
| 32>                          ****END OF INPUT****
 Total Charge           Charge          ....    0
 Multiplicity           Mult            ....    1
 Number of Electrons    NEL             ....   56
 Basis Dimension        Dim             ....  153

MULLIKEN ATOMIC CHARGES
-----------------------
   0 C :    0.069653
   1 N :   -0.226603
   2 C :   -0.260130
   3 C :    0.122200
   4 C :    0.020599
   5 C :    0.109873
   6 O :   -0.230456
   7 H :    0.027040
   8 H :    0.012204
   9 H :    0.030081
  10 H :    0.109663
  11 H :    0.019299
  12 H :    0.013915
  13 H :    0.002620
  14 H :    0.017058
  15 H :    0.015460
  16 H :    0.008561
  17 H :    0.138965
Sum of atomic charges:   -0.0000000

LOEWDIN ATOMIC CHARGES
----------------------
   0 C :   -0.005069
   1 N :   -0.070359
   2 C :   -0.056329
   3 C :   -0.059497
   4 C :   -0.064349
   5 C :    0.041065
   6 O :   -0.097158
   7 H :    0.024926
   8 H :    0.004735
   9 H :    0.026328
  10 H :    0.058647
  11 H :    0.026428
  12 H :    0.025047
  13 H :    0.030499
  14 H :    0.024183
  15 H :    0.026815
  16 H :    0.015692
  17 H :    0.048397

  Mayer bond orders larger than 0.1
B(  0-C ,  1-N ) :   1.0359 B(  0-C ,  7-H ) :   0.9702 B(  0-C ,  8-H ) :   0.9511
B(  0-C ,  9-H ) :   0.9661 B(  1-N ,  2-C ) :   1.1065 B(  1-N , 10-H ) :   0.9405
B(  1-N , 17-H ) :   0.1103 B(  2-C ,  3-C ) :   1.0585 B(  2-C ,  4-C ) :   0.9606
B(  2-C ,  5-C ) :   0.8797 B(  3-C , 11-H ) :   0.9496 B(  3-C , 12-H ) :   0.9492
B(  3-C , 13-H ) :   0.9327 B(  4-C ,  5-C ) :   0.9708 B(  4-C , 14-H ) :   0.9305
B(  4-C , 15-H ) :   0.9222 B(  5-C ,  6-O ) :   1.1621 B(  5-C , 16-H ) :   0.9519
B(  6-O , 17-H ) :   0.9346

FINAL SINGLE POINT ENERGY      -326.428968119943

DIPOLE MOMENT
-------------
                                X             Y             Z
Electronic contribution:     -2.17289      -2.21136      -3.85222
Nuclear contribution   :      2.68421       2.98527       4.31573
                        -----------------------------------------
Total Dipole Moment    :      0.51132       0.77391       0.46351
                        -----------------------------------------
Magnitude (a.u.)       :      1.03694
Magnitude (Debye)      :      2.63569

                             ****ORCA TERMINATED NORMALLY****
TOTAL RUN TIME: 0 days 0 hours 0 minutes 7 seconds 968 msec
