                         Program Version 3.0.3 - RELEASE   -
|  1> ! RI PBE def2-SVP def2-SVP/J NBO PAL2
|  2> % maxcore 2000
|  3> % output
|  4>     # printlevel mini
|  5>     print[ P_Basis ] 0
|  6>     print[ P_SCFInfo ] 1
|  7>     print[ P_SCFIterInfo ] 1
|  8>     print[ P_OrbEn ] 0
|  9>     print[ P_Cartesian ] 0
| 10> end
| 11> *xyz 0 1
| 12>  C        2.6543820000    -0.3061600000     1.2835570000
| 13>  N        2.4525800000     0.3097290000    -0.0093420000
| 14>  C        3.3778510000     1.3533030000    -0.3052980000
| 15>  C        2.9657570000     2.5735830000    -1.0819920000
| 16>  C        1.5565090000     2.8012760000    -1.5529530000
| 17>  C        3.3386760000     2.7093210000     0.3570080000
| 18>  O        4.5150910000     3.4006600000     0.6388160000
| 19>  H        1.8914750000    -1.0688600000     1.4519130000
| 20>  H        2.6298750000     0.4027440000     2.1271180000
| 21>  H        3.6271040000    -0.8061030000     1.3016240000
| 22>  H        1.4994490000     0.6242770000    -0.1169410000
| 23>  H        4.3797400000     0.9910180000    -0.5272200000
| 24>  H        3.7332190000     2.9317160000    -1.7607010000
| 25>  H        1.3348670000     2.2170190000    -2.4499210000
| 26>  H        0.8183070000     2.5372000000    -0.7914160000
| 27>  H        1.4004380000     3.8560020000    -1.7925320000
| 28>  H        2.5154530000     2.8850800000     1.0510050000
| 29>  H        4.9438070000     2.9735650000     1.3853750000
| 30> *
| 31>
| 32>                          ****END OF INPUT****
 Total Charge           Charge          ....    0
 Multiplicity           Mult            ....    1
 Number of Electrons    NEL             ....   56
 Basis Dimension        Dim             ....  153

MULLIKEN ATOMIC CHARGES
-----------------------
   0 C :    0.076416
   1 N :   -0.169113
   2 C :   -0.037117
   3 C :   -0.119904
   4 C :    0.067885
   5 C :    0.049007
   6 O :   -0.230525
   7 H :    0.022374
   8 H :   -0.007135
   9 H :    0.014812
  10 H :    0.087018
  11 H :    0.004441
  12 H :    0.026531
  13 H :    0.029876
  14 H :    0.002163
  15 H :    0.026737
  16 H :   -0.000997
  17 H :    0.157532
Sum of atomic charges:   -0.0000000

LOEWDIN ATOMIC CHARGES
----------------------
   0 C :   -0.003923
   1 N :   -0.081733
   2 C :   -0.019728
   3 C :   -0.051221
   4 C :   -0.057294
   5 C :    0.008614
   6 O :   -0.100824
   7 H :    0.022564
   8 H :   -0.003988
   9 H :    0.020775
  10 H :    0.051225
  11 H :    0.018204
  12 H :    0.034164
  13 H :    0.031561
  14 H :    0.020461
  15 H :    0.035437
  16 H :    0.002670
  17 H :    0.073036

  Mayer bond orders larger than 0.1
B(  0-C ,  1-N ) :   1.0603 B(  0-C ,  7-H ) :   0.9727 B(  0-C ,  8-H ) :   0.9460
B(  0-C ,  9-H ) :   0.9656 B(  1-N ,  2-C ) :   1.1381 B(  1-N , 10-H ) :   0.9361
B(  2-C ,  3-C ) :   0.9503 B(  2-C ,  5-C ) :   0.8995 B(  2-C , 11-H ) :   0.9219
B(  3-C ,  4-C ) :   1.1065 B(  3-C ,  5-C ) :   0.9270 B(  3-C , 12-H ) :   0.9195
B(  4-C , 13-H ) :   0.9592 B(  4-C , 14-H ) :   0.9420 B(  4-C , 15-H ) :   0.9524
B(  5-C ,  6-O ) :   1.1441 B(  5-C , 16-H ) :   0.9361 B(  6-O , 17-H ) :   0.9817

FINAL SINGLE POINT ENERGY      -326.419576485029

DIPOLE MOMENT
-------------
                                X             Y             Z
Electronic contribution:      3.56206       2.31016      -0.02872
Nuclear contribution   :     -3.84521      -2.51414       0.47215
                        -----------------------------------------
Total Dipole Moment    :     -0.28316      -0.20398       0.44343
                        -----------------------------------------
Magnitude (a.u.)       :      0.56428
Magnitude (Debye)      :      1.43430

                             ****ORCA TERMINATED NORMALLY****
TOTAL RUN TIME: 0 days 0 hours 0 minutes 7 seconds 956 msec
