                         Program Version 3.0.3 - RELEASE   -
|  1> ! RI PBE def2-SVP def2-SVP/J NBO PAL2
|  2> % maxcore 2000
|  3> % output
|  4>     # printlevel mini
|  5>     print[ P_Basis ] 0
|  6>     print[ P_SCFInfo ] 1
|  7>     print[ P_SCFIterInfo ] 1
|  8>     print[ P_OrbEn ] 0
|  9>     print[ P_Cartesian ] 0
| 10> end
| 11> *xyz 0 1
| 12>  C        1.0174290000     0.1970440000     0.0069240000
| 13>  N        2.4064090000    -0.2105970000     0.1204070000
| 14>  C        2.8539910000    -1.0796410000    -0.9196530000
| 15>  C        4.3620860000    -1.4218390000    -1.0461870000
| 16>  C        4.0095400000    -2.8717670000    -1.4482600000
| 17>  C        2.6249790000    -2.6016910000    -0.8680880000
| 18>  O        1.8034810000    -3.2892500000    -0.3384440000
| 19>  H        0.7617510000     0.8423380000     0.8493890000
| 20>  H        0.3044880000    -0.6376000000    -0.0204940000
| 21>  H        0.8896820000     0.7841970000    -0.9069200000
| 22>  H        2.5675330000    -0.6421470000     1.0225940000
| 23>  H        2.4897000000    -0.7040430000    -1.8838580000
| 24>  H        4.8492520000    -1.3828030000    -0.0702630000
| 25>  H        4.9332530000    -0.8269260000    -1.7565760000
| 26>  H        4.5692120000    -3.6943740000    -1.0034820000
| 27>  H        3.9662130000    -3.0112100000    -2.5314900000
| 28> *
| 29>
| 30>                          ****END OF INPUT****
 Total Charge           Charge          ....    0
 Multiplicity           Mult            ....    1
 Number of Electrons    NEL             ....   54
 Basis Dimension        Dim             ....  143

MULLIKEN ATOMIC CHARGES
-----------------------
   0 C :    0.060511
   1 N :   -0.190015
   2 C :   -0.076670
   3 C :    0.066101
   4 C :   -0.021464
   5 C :   -0.021012
   6 O :   -0.121743
   7 H :    0.024470
   8 H :    0.023235
   9 H :    0.019929
  10 H :    0.098129
  11 H :    0.022409
  12 H :    0.016710
  13 H :    0.016568
  14 H :    0.034919
  15 H :    0.047923
Sum of atomic charges:    0.0000000

LOEWDIN ATOMIC CHARGES
----------------------
   0 C :   -0.002183
   1 N :   -0.081340
   2 C :   -0.029579
   3 C :   -0.029908
   4 C :   -0.067774
   5 C :    0.031247
   6 O :   -0.105685
   7 H :    0.024490
   8 H :    0.009498
   9 H :    0.022095
  10 H :    0.057385
  11 H :    0.037170
  12 H :    0.029458
  13 H :    0.025845
  14 H :    0.033542
  15 H :    0.045739

  Mayer bond orders larger than 0.1
B(  0-C ,  1-N ) :   1.0442 B(  0-C ,  7-H ) :   0.9717 B(  0-C ,  8-H ) :   0.9564
B(  0-C ,  9-H ) :   0.9659 B(  1-N ,  2-C ) :   1.1226 B(  1-N , 10-H ) :   0.9378
B(  2-C ,  3-C ) :   1.0536 B(  2-C ,  5-C ) :   0.8983 B(  2-C , 11-H ) :   0.8816
B(  3-C ,  4-C ) :   1.1061 B(  3-C , 12-H ) :   0.9241 B(  3-C , 13-H ) :   0.9057
B(  4-C ,  5-C ) :   0.9754 B(  4-C , 14-H ) :   0.9230 B(  4-C , 15-H ) :   0.9100
B(  5-C ,  6-O ) :   2.2498

FINAL SINGLE POINT ENERGY      -325.239614604829

DIPOLE MOMENT
-------------
                                X             Y             Z
Electronic contribution:     -0.61021      -4.35859       0.43551
Nuclear contribution   :      1.03657       4.76995      -0.67106
                        -----------------------------------------
Total Dipole Moment    :      0.42636       0.41135      -0.23555
                        -----------------------------------------
Magnitude (a.u.)       :      0.63756
Magnitude (Debye)      :      1.62054

                             ****ORCA TERMINATED NORMALLY****
TOTAL RUN TIME: 0 days 0 hours 0 minutes 7 seconds 121 msec
