                         Program Version 3.0.3 - RELEASE   -
|  1> ! RI PBE def2-SVP def2-SVP/J NBO PAL2
|  2> % maxcore 2000
|  3> % output
|  4>     # printlevel mini
|  5>     print[ P_Basis ] 0
|  6>     print[ P_SCFInfo ] 1
|  7>     print[ P_SCFIterInfo ] 1
|  8>     print[ P_OrbEn ] 0
|  9>     print[ P_Cartesian ] 0
| 10> end
| 11> *xyz 0 1
| 12>  C        1.7970010000    -0.7797690000     0.8848300000
| 13>  N        2.5920290000    -0.0100470000    -0.0310530000
| 14>  C        3.2209640000    -0.5499700000    -1.1076250000
| 15>  C        4.0078890000    -0.0260860000    -2.0932130000
| 16>  C        4.3540990000    -1.1330360000    -2.9279070000
| 17>  C        3.7653390000    -2.2261230000    -2.4025170000
| 18>  O        3.0625210000    -1.8751720000    -1.2760750000
| 19>  H        1.4075240000    -0.1114110000     1.6521140000
| 20>  H        2.3830150000    -1.5617430000     1.3788990000
| 21>  H        0.9478330000    -1.2598170000     0.3872770000
| 22>  H        2.6973920000     0.9744480000     0.1114130000
| 23>  H        4.2996980000     1.0049200000    -2.2073870000
| 24>  H        4.9694750000    -1.1079930000    -3.8136120000
| 25>  H        3.7321120000    -3.2678910000    -2.6681550000
| 26> *
| 27>
| 28>                          ****END OF INPUT****
 Total Charge           Charge          ....    0
 Multiplicity           Mult            ....    1
 Number of Electrons    NEL             ....   52
 Basis Dimension        Dim             ....  133

MULLIKEN ATOMIC CHARGES
-----------------------
   0 C :    0.094994
   1 N :   -0.154988
   2 C :    0.158432
   3 C :   -0.112631
   4 C :   -0.003058
   5 C :    0.090028
   6 O :   -0.203881
   7 H :    0.020283
   8 H :    0.031627
   9 H :    0.030257
  10 H :    0.119829
  11 H :   -0.044710
  12 H :   -0.014983
  13 H :   -0.011197
Sum of atomic charges:   -0.0000000

LOEWDIN ATOMIC CHARGES
----------------------
   0 C :    0.011328
   1 N :   -0.025798
   2 C :    0.041434
   3 C :   -0.155992
   4 C :   -0.072382
   5 C :   -0.018852
   6 O :    0.005706
   7 H :    0.029301
   8 H :    0.021701
   9 H :    0.021407
  10 H :    0.079478
  11 H :    0.020066
  12 H :    0.027818
  13 H :    0.014786

  Mayer bond orders larger than 0.1
B(  0-C ,  1-N ) :   1.0319 B(  0-C ,  7-H ) :   0.9710 B(  0-C ,  8-H ) :   0.9634
B(  0-C ,  9-H ) :   0.9635 B(  1-N ,  2-C ) :   1.1912 B(  1-N , 10-H ) :   0.9407
B(  2-C ,  3-C ) :   1.4597 B(  2-C ,  6-O ) :   1.1672 B(  3-C ,  4-C ) :   1.1838
B(  3-C , 11-H ) :   1.0189 B(  4-C ,  5-C ) :   1.5588 B(  4-C , 12-H ) :   0.9928
B(  5-C ,  6-O ) :   1.0663 B(  5-C , 13-H ) :   1.0087

FINAL SINGLE POINT ENERGY      -324.055776739847

DIPOLE MOMENT
-------------
                                X             Y             Z
Electronic contribution:      1.60546      -0.75293      -2.54617
Nuclear contribution   :     -1.91902       1.22252       3.13726
                        -----------------------------------------
Total Dipole Moment    :     -0.31356       0.46959       0.59109
                        -----------------------------------------
Magnitude (a.u.)       :      0.81745
Magnitude (Debye)      :      2.07779

                             ****ORCA TERMINATED NORMALLY****
TOTAL RUN TIME: 0 days 0 hours 0 minutes 6 seconds 669 msec
