                         Program Version 3.0.3 - RELEASE   -
|  1> ! RI PBE def2-SVP def2-SVP/J NBO PAL2
|  2> % maxcore 2000
|  3> % output
|  4>     # printlevel mini
|  5>     print[ P_Basis ] 0
|  6>     print[ P_SCFInfo ] 1
|  7>     print[ P_SCFIterInfo ] 1
|  8>     print[ P_OrbEn ] 0
|  9>     print[ P_Cartesian ] 0
| 10> end
| 11> *xyz 0 1
| 12>  C        0.9390020000     0.0619100000     0.1491100000
| 13>  N        2.3768120000     0.0609020000     0.0570890000
| 14>  C        2.8689950000    -0.0069190000    -1.1003660000
| 15>  O        4.2673160000    -0.0090070000    -1.2046280000
| 16>  N        4.5562660000    -0.0887410000    -2.5413960000
| 17>  C        3.4360280000    -0.1352200000    -3.2687520000
| 18>  C        2.3603020000    -0.0893700000    -2.4483880000
| 19>  H        0.6449340000     0.1220530000     1.1978420000
| 20>  H        0.4895240000    -0.8511830000    -0.2665580000
| 21>  H        0.4843960000     0.9180630000    -0.3694080000
| 22>  H        5.5292240000    -0.0984690000    -2.7735790000
| 23>  H        3.4958580000    -0.1994270000    -4.3456590000
| 24>  H        1.3228510000    -0.1093820000    -2.7300970000
| 25> *
| 26>
| 27>                          ****END OF INPUT****
 Total Charge           Charge          ....    0
 Multiplicity           Mult            ....    1
 Number of Electrons    NEL             ....   52
 Basis Dimension        Dim             ....  128

MULLIKEN ATOMIC CHARGES
-----------------------
   0 C :    0.074631
   1 N :   -0.179412
   2 C :    0.122259
   3 O :   -0.202603
   4 N :    0.047100
   5 C :    0.141121
   6 C :   -0.183629
   7 H :    0.020909
   8 H :    0.003913
   9 H :    0.005352
  10 H :    0.138202
  11 H :    0.015536
  12 H :   -0.003377
Sum of atomic charges:   -0.0000000

LOEWDIN ATOMIC CHARGES
----------------------
   0 C :   -0.009268
   1 N :   -0.172039
   2 C :    0.013081
   3 O :   -0.025512
   4 N :    0.136850
   5 C :    0.013261
   6 C :   -0.148083
   7 H :    0.019979
   8 H :    0.009981
   9 H :    0.010385
  10 H :    0.082308
  11 H :    0.035620
  12 H :    0.033436

  Mayer bond orders larger than 0.1
B(  0-C ,  1-N ) :   1.0507 B(  0-C ,  7-H ) :   0.9764 B(  0-C ,  8-H ) :   0.9505
B(  0-C ,  9-H ) :   0.9509 B(  1-N ,  2-C ) :   1.9063 B(  2-C ,  3-O ) :   0.9561
B(  2-C ,  6-C ) :   1.1152 B(  3-O ,  4-N ) :   0.9833 B(  4-N ,  5-C ) :   1.2290
B(  4-N ,  6-C ) :   0.1289 B(  4-N , 10-H ) :   0.9542 B(  5-C ,  6-C ) :   1.4914
B(  5-C , 11-H ) :   0.9712 B(  6-C , 12-H ) :   1.0003

FINAL SINGLE POINT ENERGY      -340.022587973050

DIPOLE MOMENT
-------------
                                X             Y             Z
Electronic contribution:      6.08963      -0.05850      -1.25953
Nuclear contribution   :     -5.54927      -0.04425      -0.47178
                        -----------------------------------------
Total Dipole Moment    :      0.54036      -0.10275      -1.73131
                        -----------------------------------------
Magnitude (a.u.)       :      1.81658
Magnitude (Debye)      :      4.61739

                             ****ORCA TERMINATED NORMALLY****
TOTAL RUN TIME: 0 days 0 hours 0 minutes 6 seconds 516 msec
