                         Program Version 3.0.3 - RELEASE   -
|  1> ! RI PBE def2-SVP def2-SVP/J NBO PAL2
|  2> % maxcore 2000
|  3> % output
|  4>     # printlevel mini
|  5>     print[ P_Basis ] 0
|  6>     print[ P_SCFInfo ] 1
|  7>     print[ P_SCFIterInfo ] 1
|  8>     print[ P_OrbEn ] 0
|  9>     print[ P_Cartesian ] 0
| 10> end
| 11> *xyz 0 1
| 12>  C        1.1526960000    -0.0206460000     0.5498480000
| 13>  N        2.5278760000    -0.0693820000     0.1561760000
| 14>  C        3.2102860000    -1.2468690000     0.0036600000
| 15>  C        4.5112660000    -1.4384480000    -0.3630400000
| 16>  O        4.7996020000    -2.7713410000    -0.3966480000
| 17>  C        3.6825620000    -3.4243140000    -0.0515640000
| 18>  C        2.6716050000    -2.5594260000     0.2069260000
| 19>  H        0.8342630000     1.0204860000     0.6029260000
| 20>  H        0.9867550000    -0.4688650000     1.5380880000
| 21>  H        0.4965730000    -0.5318720000    -0.1665320000
| 22>  H        3.0128650000     0.7887350000    -0.0147080000
| 23>  H        5.3139270000    -0.7683510000    -0.6184200000
| 24>  H        3.7437270000    -4.5000660000    -0.0293840000
| 25>  H        1.6681060000    -2.8174410000     0.5047710000
| 26> *
| 27>
| 28>                          ****END OF INPUT****
 Total Charge           Charge          ....    0
 Multiplicity           Mult            ....    1
 Number of Electrons    NEL             ....   52
 Basis Dimension        Dim             ....  133

MULLIKEN ATOMIC CHARGES
-----------------------
   0 C :    0.088187
   1 N :   -0.159330
   2 C :    0.094581
   3 C :   -0.005080
   4 O :   -0.164404
   5 C :    0.115575
   6 C :   -0.086502
   7 H :    0.020586
   8 H :    0.021439
   9 H :    0.025748
  10 H :    0.102918
  11 H :   -0.026454
  12 H :    0.003672
  13 H :   -0.030934
Sum of atomic charges:   -0.0000000

LOEWDIN ATOMIC CHARGES
----------------------
   0 C :    0.007397
   1 N :   -0.030713
   2 C :   -0.036137
   3 C :   -0.058453
   4 O :    0.031589
   5 C :    0.009367
   6 C :   -0.112406
   7 H :    0.029198
   8 H :    0.016341
   9 H :    0.016996
  10 H :    0.070376
  11 H :    0.011213
  12 H :    0.018546
  13 H :    0.026685

  Mayer bond orders larger than 0.1
B(  0-C ,  1-N ) :   1.0575 B(  0-C ,  7-H ) :   0.9710 B(  0-C ,  8-H ) :   0.9570
B(  0-C ,  9-H ) :   0.9582 B(  1-N ,  2-C ) :   1.1769 B(  1-N , 10-H ) :   0.9446
B(  2-C ,  3-C ) :   1.4363 B(  2-C ,  6-C ) :   1.2270 B(  3-C ,  4-O ) :   1.1064
B(  3-C ,  5-C ) :   0.1038 B(  3-C , 11-H ) :   1.0163 B(  4-O ,  5-C ) :   1.1918
B(  5-C ,  6-C ) :   1.4823 B(  5-C , 12-H ) :   0.9939 B(  6-C , 13-H ) :   1.0048

FINAL SINGLE POINT ENERGY      -324.049892346293

DIPOLE MOMENT
-------------
                                X             Y             Z
Electronic contribution:      5.46710      -3.13800      -1.45495
Nuclear contribution   :     -5.96660       3.78185       1.57552
                        -----------------------------------------
Total Dipole Moment    :     -0.49950       0.64385       0.12057
                        -----------------------------------------
Magnitude (a.u.)       :      0.82376
Magnitude (Debye)      :      2.09383

                             ****ORCA TERMINATED NORMALLY****
TOTAL RUN TIME: 0 days 0 hours 0 minutes 6 seconds 670 msec
