                         Program Version 3.0.3 - RELEASE   -
|  1> ! RI PBE def2-SVP def2-SVP/J NBO PAL2
|  2> % maxcore 2000
|  3> % output
|  4>     # printlevel mini
|  5>     print[ P_Basis ] 0
|  6>     print[ P_SCFInfo ] 1
|  7>     print[ P_SCFIterInfo ] 1
|  8>     print[ P_OrbEn ] 0
|  9>     print[ P_Cartesian ] 0
| 10> end
| 11> *xyz 0 1
| 12>  C        0.9848780000     0.1264490000     0.0839210000
| 13>  N        2.4250560000     0.0307680000    -0.0309230000
| 14>  C        2.8874900000    -0.7215370000    -1.1698390000
| 15>  C        4.4065650000    -0.7690560000    -1.2762660000
| 16>  C        4.6427500000    -1.9456340000    -2.2092120000
| 17>  O        3.4996880000    -2.7925980000    -2.1031060000
| 18>  C        2.5600700000    -2.2174270000    -1.2216180000
| 19>  H        0.7281130000     0.7278800000     0.9582530000
| 20>  H        0.4615970000    -0.8385240000     0.1694860000
| 21>  H        0.5867090000     0.6410120000    -0.7951980000
| 22>  H        2.8219410000    -0.3550740000     0.8179410000
| 23>  H        2.4771850000    -0.2457700000    -2.0696110000
| 24>  H        4.8261310000    -0.9674710000    -0.2839800000
| 25>  H        4.8356060000     0.1643900000    -1.6407740000
| 26>  H        5.5397880000    -2.5168690000    -1.9513680000
| 27>  H        4.7374270000    -1.6207030000    -3.2517690000
| 28>  H        2.6536430000    -2.6474740000    -0.2100800000
| 29>  H        1.5583460000    -2.4414630000    -1.5961490000
| 30> *
| 31>
| 32>                          ****END OF INPUT****
 Total Charge           Charge          ....    0
 Multiplicity           Mult            ....    1
 Number of Electrons    NEL             ....   56
 Basis Dimension        Dim             ....  153

MULLIKEN ATOMIC CHARGES
-----------------------
   0 C :    0.065980
   1 N :   -0.217939
   2 C :   -0.129000
   3 C :   -0.002792
   4 C :    0.218974
   5 O :   -0.370212
   6 C :    0.260052
   7 H :    0.024144
   8 H :    0.002190
   9 H :    0.019157
  10 H :    0.095833
  11 H :    0.009720
  12 H :    0.006132
  13 H :    0.021876
  14 H :    0.003279
  15 H :    0.006361
  16 H :   -0.021635
  17 H :    0.007880
Sum of atomic charges:    0.0000000

LOEWDIN ATOMIC CHARGES
----------------------
   0 C :   -0.006080
   1 N :   -0.091092
   2 C :   -0.016119
   3 C :   -0.052077
   4 C :    0.069782
   5 O :   -0.166686
   6 C :    0.049418
   7 H :    0.023803
   8 H :   -0.000969
   9 H :    0.023169
  10 H :    0.051053
  11 H :    0.023739
  12 H :    0.024042
  13 H :    0.031993
  14 H :    0.012928
  15 H :    0.010975
  16 H :   -0.002857
  17 H :    0.014978

  Mayer bond orders larger than 0.1
B(  0-C ,  1-N ) :   1.0657 B(  0-C ,  7-H ) :   0.9731 B(  0-C ,  8-H ) :   0.9476
B(  0-C ,  9-H ) :   0.9662 B(  1-N ,  2-C ) :   1.0823 B(  1-N , 10-H ) :   0.9336
B(  2-C ,  3-C ) :   1.0618 B(  2-C ,  6-C ) :   1.0147 B(  2-C , 11-H ) :   0.9011
B(  3-C ,  4-C ) :   1.0993 B(  3-C , 12-H ) :   0.9253 B(  3-C , 13-H ) :   0.9292
B(  4-C ,  5-O ) :   1.0027 B(  4-C , 14-H ) :   0.9386 B(  4-C , 15-H ) :   0.9402
B(  5-O ,  6-C ) :   1.0247 B(  6-C , 16-H ) :   0.9205 B(  6-C , 17-H ) :   0.9322

FINAL SINGLE POINT ENERGY      -326.440983114522

DIPOLE MOMENT
-------------
                                X             Y             Z
Electronic contribution:      2.02440      -2.52881      -1.95646
Nuclear contribution   :     -2.06241       2.83397       2.33697
                        -----------------------------------------
Total Dipole Moment    :     -0.03801       0.30515       0.38050
                        -----------------------------------------
Magnitude (a.u.)       :      0.48923
Magnitude (Debye)      :      1.24353

                             ****ORCA TERMINATED NORMALLY****
TOTAL RUN TIME: 0 days 0 hours 0 minutes 8 seconds 30 msec
