                         Program Version 3.0.3 - RELEASE   -
|  1> ! RI PBE def2-SVP def2-SVP/J NBO PAL2
|  2> % maxcore 2000
|  3> % output
|  4>     # printlevel mini
|  5>     print[ P_Basis ] 0
|  6>     print[ P_SCFInfo ] 1
|  7>     print[ P_SCFIterInfo ] 1
|  8>     print[ P_OrbEn ] 0
|  9>     print[ P_Cartesian ] 0
| 10> end
| 11> *xyz 0 1
| 12>  C        2.8357670000    -0.7817220000     0.8563510000
| 13>  N        2.3946070000     0.5049810000     0.3570440000
| 14>  C        3.0632400000     0.9740660000    -0.8299470000
| 15>  C        2.8052470000     0.0666320000    -2.0151240000
| 16>  C        2.8038170000     2.4543280000    -1.1419930000
| 17>  O        4.2027900000     2.7167790000    -1.2939240000
| 18>  C        4.5427230000     1.4388620000    -0.7433410000
| 19>  H        2.3712610000    -0.9666150000     1.8263020000
| 20>  H        3.9276180000    -0.8669990000     0.9811220000
| 21>  H        2.5130120000    -1.5814660000     0.1868820000
| 22>  H        2.4887560000     1.2011860000     1.0859600000
| 23>  H        3.2578990000    -0.9180270000    -1.8764170000
| 24>  H        1.7307880000    -0.0638320000    -2.1637120000
| 25>  H        3.2352350000     0.5026250000    -2.9191190000
| 26>  H        2.3737590000     3.0087970000    -0.2971170000
| 27>  H        2.2354180000     2.6808910000    -2.0488480000
| 28>  H        4.9165260000     1.5263640000     0.2858630000
| 29>  H        5.2813270000     0.9130410000    -1.3561730000
| 30> *
| 31>
| 32>                          ****END OF INPUT****
 Total Charge           Charge          ....    0
 Multiplicity           Mult            ....    1
 Number of Electrons    NEL             ....   56
 Basis Dimension        Dim             ....  153

MULLIKEN ATOMIC CHARGES
-----------------------
   0 C :    0.068083
   1 N :   -0.170168
   2 C :   -0.434089
   3 C :    0.095324
   4 C :    0.306994
   5 O :   -0.360269
   6 C :    0.315223
   7 H :    0.020661
   8 H :   -0.000943
   9 H :    0.024295
  10 H :    0.093787
  11 H :    0.019476
  12 H :    0.024885
  13 H :    0.017023
  14 H :   -0.011675
  15 H :    0.008879
  16 H :   -0.018224
  17 H :    0.000739
Sum of atomic charges:   -0.0000000

LOEWDIN ATOMIC CHARGES
----------------------
   0 C :   -0.004739
   1 N :   -0.085616
   2 C :   -0.044540
   3 C :   -0.051814
   4 C :    0.088514
   5 O :   -0.180699
   6 C :    0.071167
   7 H :    0.025632
   8 H :   -0.000281
   9 H :    0.021340
  10 H :    0.049945
  11 H :    0.025229
  12 H :    0.029883
  13 H :    0.031667
  14 H :    0.004682
  15 H :    0.010918
  16 H :    0.001745
  17 H :    0.006966

  Mayer bond orders larger than 0.1
B(  0-C ,  1-N ) :   1.0612 B(  0-C ,  7-H ) :   0.9704 B(  0-C ,  8-H ) :   0.9454
B(  0-C ,  9-H ) :   0.9652 B(  1-N ,  2-C ) :   1.0841 B(  1-N , 10-H ) :   0.9290
B(  2-C ,  3-C ) :   1.0306 B(  2-C ,  4-C ) :   1.0454 B(  2-C ,  6-C ) :   1.0213
B(  3-C , 11-H ) :   0.9493 B(  3-C , 12-H ) :   0.9510 B(  3-C , 13-H ) :   0.9441
B(  4-C ,  5-O ) :   1.0354 B(  4-C , 14-H ) :   0.9100 B(  4-C , 15-H ) :   0.9321
B(  5-O ,  6-C ) :   1.0388 B(  6-C , 16-H ) :   0.9068 B(  6-C , 17-H ) :   0.9301

FINAL SINGLE POINT ENERGY      -326.417263680118

DIPOLE MOMENT
-------------
                                X             Y             Z
Electronic contribution:      1.14273       5.14712      -0.72964
Nuclear contribution   :     -1.26406      -5.68206       1.08727
                        -----------------------------------------
Total Dipole Moment    :     -0.12133      -0.53493       0.35763
                        -----------------------------------------
Magnitude (a.u.)       :      0.65481
Magnitude (Debye)      :      1.66439

                             ****ORCA TERMINATED NORMALLY****
TOTAL RUN TIME: 0 days 0 hours 0 minutes 7 seconds 813 msec
