                         Program Version 3.0.3 - RELEASE   -
|  1> ! RI PBE def2-SVP def2-SVP/J NBO PAL2
|  2> % maxcore 2000
|  3> % output
|  4>     # printlevel mini
|  5>     print[ P_Basis ] 0
|  6>     print[ P_SCFInfo ] 1
|  7>     print[ P_SCFIterInfo ] 1
|  8>     print[ P_OrbEn ] 0
|  9>     print[ P_Cartesian ] 0
| 10> end
| 11> *xyz 0 1
| 12>  C        2.7160100000    -1.1807580000    -0.0126890000
| 13>  N        2.3355350000     0.2142550000     0.0399970000
| 14>  C        2.8209060000     0.9891460000    -1.0634650000
| 15>  C        2.5669130000     2.5085970000    -0.9809980000
| 16>  C        3.9988790000     2.7224890000    -1.4488500000
| 17>  O        4.5887160000     3.6598220000    -1.8947170000
| 18>  C        4.3534870000     1.2575610000    -1.2428860000
| 19>  H        2.3390200000    -1.6983980000     0.8710580000
| 20>  H        3.8030390000    -1.3504590000    -0.0741790000
| 21>  H        2.2584610000    -1.6483660000    -0.8889710000
| 22>  H        2.6360970000     0.6288700000     0.9141930000
| 23>  H        2.4044220000     0.5726850000    -1.9853930000
| 24>  H        2.4395370000     2.8458300000     0.0535860000
| 25>  H        1.7735930000     2.9454330000    -1.5882110000
| 26>  H        4.9086330000     1.1160170000    -0.3090500000
| 27>  H        4.8967530000     0.7706760000    -2.0542450000
| 28> *
| 29>
| 30>                          ****END OF INPUT****
 Total Charge           Charge          ....    0
 Multiplicity           Mult            ....    1
 Number of Electrons    NEL             ....   54
 Basis Dimension        Dim             ....  143

MULLIKEN ATOMIC CHARGES
-----------------------
   0 C :    0.068728
   1 N :   -0.192969
   2 C :   -0.200662
   3 C :    0.129689
   4 C :   -0.097059
   5 O :   -0.117333
   6 C :    0.123783
   7 H :    0.025548
   8 H :   -0.000156
   9 H :    0.020341
  10 H :    0.091309
  11 H :    0.014386
  12 H :    0.027929
  13 H :    0.043857
  14 H :    0.022053
  15 H :    0.040556
Sum of atomic charges:    0.0000000

LOEWDIN ATOMIC CHARGES
----------------------
   0 C :   -0.005003
   1 N :   -0.089820
   2 C :    0.006484
   3 C :   -0.062710
   4 C :    0.050157
   5 O :   -0.099527
   6 C :   -0.085955
   7 H :    0.024732
   8 H :   -0.001089
   9 H :    0.023678
  10 H :    0.051180
  11 H :    0.024523
  12 H :    0.045807
  13 H :    0.039035
  14 H :    0.043182
  15 H :    0.035326

  Mayer bond orders larger than 0.1
B(  0-C ,  1-N ) :   1.0610 B(  0-C ,  7-H ) :   0.9732 B(  0-C ,  8-H ) :   0.9460
B(  0-C ,  9-H ) :   0.9662 B(  1-N ,  2-C ) :   1.0824 B(  1-N , 10-H ) :   0.9363
B(  2-C ,  3-C ) :   1.0401 B(  2-C ,  6-C ) :   1.0205 B(  2-C , 11-H ) :   0.8923
B(  3-C ,  4-C ) :   0.9742 B(  3-C ,  6-C ) :  -0.1284 B(  3-C , 12-H ) :   0.8836
B(  3-C , 13-H ) :   0.9173 B(  4-C ,  5-O ) :   2.2405 B(  4-C ,  6-C ) :   0.9994
B(  6-C , 14-H ) :   0.8717 B(  6-C , 15-H ) :   0.9206

FINAL SINGLE POINT ENERGY      -325.238933448695

DIPOLE MOMENT
-------------
                                X             Y             Z
Electronic contribution:      2.22683       7.24095      -2.54281
Nuclear contribution   :     -2.45740      -8.09391       3.06971
                        -----------------------------------------
Total Dipole Moment    :     -0.23056      -0.85296       0.52690
                        -----------------------------------------
Magnitude (a.u.)       :      1.02875
Magnitude (Debye)      :      2.61487

                             ****ORCA TERMINATED NORMALLY****
TOTAL RUN TIME: 0 days 0 hours 0 minutes 7 seconds 653 msec
