                         Program Version 3.0.3 - RELEASE   -
|  1> ! RI PBE def2-SVP def2-SVP/J NBO PAL2
|  2> % maxcore 2000
|  3> % output
|  4>     # printlevel mini
|  5>     print[ P_Basis ] 0
|  6>     print[ P_SCFInfo ] 1
|  7>     print[ P_SCFIterInfo ] 1
|  8>     print[ P_OrbEn ] 0
|  9>     print[ P_Cartesian ] 0
| 10> end
| 11> *xyz 0 1
| 12>  C        2.9816540000     0.2043140000    -1.1671890000
| 13>  N        2.1860310000     0.0740880000     0.0348810000
| 14>  C        2.7747820000    -0.7718390000     1.0311100000
| 15>  C        1.9515050000    -1.0361520000     2.2999980000
| 16>  C        2.5210280000    -2.4687700000     2.3279880000
| 17>  O        3.7084170000    -2.5860550000     3.0835860000
| 18>  C        2.8914290000    -2.3141020000     0.8489130000
| 19>  H        2.4608140000     0.8376630000    -1.8880930000
| 20>  H        3.2195950000    -0.7522680000    -1.6595000000
| 21>  H        3.9288050000     0.6934060000    -0.9227990000
| 22>  H        1.2582810000    -0.2620330000    -0.1955280000
| 23>  H        3.7547080000    -0.3626500000     1.2920190000
| 24>  H        0.8808220000    -1.0434850000     2.0740230000
| 25>  H        2.1253380000    -0.4029160000     3.1724360000
| 26>  H        1.8199330000    -3.2715170000     2.5829630000
| 27>  H        3.4882320000    -2.4620250000     4.0105260000
| 28>  H        2.0986960000    -2.6943860000     0.1985790000
| 29>  H        3.8481610000    -2.7448830000     0.5517880000
| 30> *
| 31>
| 32>                          ****END OF INPUT****
 Total Charge           Charge          ....    0
 Multiplicity           Mult            ....    1
 Number of Electrons    NEL             ....   56
 Basis Dimension        Dim             ....  153

MULLIKEN ATOMIC CHARGES
-----------------------
   0 C :    0.060254
   1 N :   -0.188306
   2 C :   -0.123970
   3 C :    0.110373
   4 C :   -0.024220
   5 O :   -0.256311
   6 C :    0.130162
   7 H :    0.024099
   8 H :   -0.000981
   9 H :    0.018629
  10 H :    0.090201
  11 H :    0.006358
  12 H :   -0.002735
  13 H :    0.005845
  14 H :   -0.005807
  15 H :    0.153815
  16 H :   -0.011436
  17 H :    0.014028
Sum of atomic charges:   -0.0000000

LOEWDIN ATOMIC CHARGES
----------------------
   0 C :   -0.006937
   1 N :   -0.092041
   2 C :    0.006274
   3 C :   -0.052683
   4 C :    0.049626
   5 O :   -0.114598
   6 C :   -0.055881
   7 H :    0.022429
   8 H :   -0.000928
   9 H :    0.022602
  10 H :    0.049737
  11 H :    0.023381
  12 H :    0.024517
  13 H :    0.017269
  14 H :   -0.004422
  15 H :    0.068406
  16 H :    0.022083
  17 H :    0.021164

  Mayer bond orders larger than 0.1
B(  0-C ,  1-N ) :   1.0666 B(  0-C ,  7-H ) :   0.9734 B(  0-C ,  8-H ) :   0.9468
B(  0-C ,  9-H ) :   0.9652 B(  1-N ,  2-C ) :   1.1211 B(  1-N , 10-H ) :   0.9303
B(  2-C ,  3-C ) :   1.0619 B(  2-C ,  6-C ) :   1.0440 B(  2-C , 11-H ) :   0.8961
B(  3-C ,  4-C ) :   1.0599 B(  3-C , 12-H ) :   0.9002 B(  3-C , 13-H ) :   0.9121
B(  4-C ,  5-O ) :   1.0808 B(  4-C ,  6-C ) :   1.0937 B(  4-C , 14-H ) :   0.9233
B(  5-O , 15-H ) :   0.9829 B(  6-C , 16-H ) :   0.8968 B(  6-C , 17-H ) :   0.9134

FINAL SINGLE POINT ENERGY      -326.425707134261

DIPOLE MOMENT
-------------
                                X             Y             Z
Electronic contribution:      0.62622      -1.63398       3.99420
Nuclear contribution   :     -1.11715       1.51747      -3.90834
                        -----------------------------------------
Total Dipole Moment    :     -0.49093      -0.11651       0.08586
                        -----------------------------------------
Magnitude (a.u.)       :      0.51182
Magnitude (Debye)      :      1.30095

                             ****ORCA TERMINATED NORMALLY****
TOTAL RUN TIME: 0 days 0 hours 0 minutes 7 seconds 960 msec
