                         Program Version 3.0.3 - RELEASE   -
|  1> ! RI PBE def2-SVP def2-SVP/J NBO PAL2
|  2> % maxcore 2000
|  3> % output
|  4>     # printlevel mini
|  5>     print[ P_Basis ] 0
|  6>     print[ P_SCFInfo ] 1
|  7>     print[ P_SCFIterInfo ] 1
|  8>     print[ P_OrbEn ] 0
|  9>     print[ P_Cartesian ] 0
| 10> end
| 11> *xyz 0 1
| 12>  C        1.0407620000    -0.2192970000    -0.3212090000
| 13>  N        2.3844260000    -0.1043480000     0.1647630000
| 14>  C        3.1098710000    -1.1664210000     0.5927270000
| 15>  N        4.3398510000    -1.0230990000     1.0332990000
| 16>  O        4.7620030000    -2.2958630000     1.3781120000
| 17>  C        3.7830340000    -3.1580240000     1.1370980000
| 18>  C        2.6959610000    -2.5313410000     0.6373820000
| 19>  H        0.6813860000     0.7703940000    -0.6010200000
| 20>  H        0.3588970000    -0.6177100000     0.4394200000
| 21>  H        0.9759020000    -0.8596250000    -1.2088870000
| 22>  H        2.8299410000     0.7933350000     0.2011350000
| 23>  H        3.9914620000    -4.1919880000     1.3667710000
| 24>  H        1.7536050000    -2.9631120000     0.3470190000
| 25> *
| 26>
| 27>                          ****END OF INPUT****
 Total Charge           Charge          ....    0
 Multiplicity           Mult            ....    1
 Number of Electrons    NEL             ....   52
 Basis Dimension        Dim             ....  128

MULLIKEN ATOMIC CHARGES
-----------------------
   0 C :    0.085784
   1 N :   -0.143718
   2 C :    0.035543
   3 N :   -0.088320
   4 O :   -0.152103
   5 C :    0.186218
   6 C :   -0.129269
   7 H :    0.028826
   8 H :    0.032080
   9 H :    0.029848
  10 H :    0.116045
  11 H :    0.014831
  12 H :   -0.015765
Sum of atomic charges:   -0.0000000

LOEWDIN ATOMIC CHARGES
----------------------
   0 C :    0.010081
   1 N :   -0.015422
   2 C :   -0.028158
   3 N :   -0.110444
   4 O :    0.039570
   5 C :    0.029715
   6 C :   -0.134806
   7 H :    0.033631
   8 H :    0.020647
   9 H :    0.020280
  10 H :    0.077100
  11 H :    0.026432
  12 H :    0.031375

  Mayer bond orders larger than 0.1
B(  0-C ,  1-N ) :   1.0441 B(  0-C ,  7-H ) :   0.9710 B(  0-C ,  8-H ) :   0.9603
B(  0-C ,  9-H ) :   0.9599 B(  1-N ,  2-C ) :   1.2168 B(  1-N , 10-H ) :   0.9292
B(  2-C ,  3-N ) :   1.5581 B(  2-C ,  6-C ) :   1.1876 B(  3-N ,  4-O ) :   0.9727
B(  3-N ,  5-C ) :   0.1133 B(  4-O ,  5-C ) :   1.2101 B(  4-O ,  6-C ) :   0.1005
B(  5-C ,  6-C ) :   1.5341 B(  5-C , 11-H ) :   0.9725 B(  6-C , 12-H ) :   0.9827

FINAL SINGLE POINT ENERGY      -340.054926226500

DIPOLE MOMENT
-------------
                                X             Y             Z
Electronic contribution:      6.53704      -1.71588       2.70216
Nuclear contribution   :     -7.75119       1.66462      -3.14855
                        -----------------------------------------
Total Dipole Moment    :     -1.21415      -0.05126      -0.44639
                        -----------------------------------------
Magnitude (a.u.)       :      1.29462
Magnitude (Debye)      :      3.29067

                             ****ORCA TERMINATED NORMALLY****
TOTAL RUN TIME: 0 days 0 hours 0 minutes 6 seconds 328 msec
