                         Program Version 3.0.3 - RELEASE   -
|  1> ! RI PBE def2-SVP def2-SVP/J NBO PAL2
|  2> % maxcore 2000
|  3> % output
|  4>     # printlevel mini
|  5>     print[ P_Basis ] 0
|  6>     print[ P_SCFInfo ] 1
|  7>     print[ P_SCFIterInfo ] 1
|  8>     print[ P_OrbEn ] 0
|  9>     print[ P_Cartesian ] 0
| 10> end
| 11> *xyz 0 1
| 12>  C        1.1564410000     0.0113510000    -0.1184950000
| 13>  N        2.5768270000     0.1029860000     0.0778990000
| 14>  C        3.1088580000    -0.4726340000     1.0635470000
| 15>  C        2.5513420000    -1.3753750000     2.1453130000
| 16>  C        3.7833510000    -1.6070940000     3.0088860000
| 17>  O        4.8745180000    -1.4461380000     2.1208130000
| 18>  N        4.4687420000    -0.3247620000     1.3482970000
| 19>  H        0.9526870000    -0.3933870000    -1.1143300000
| 20>  H        0.7178350000     1.0139970000    -0.0941910000
| 21>  H        0.6272640000    -0.6097070000     0.6163330000
| 22>  H        2.1882510000    -2.3002460000     1.6897050000
| 23>  H        1.7255420000    -0.9133800000     2.6869510000
| 24>  H        3.8598350000    -2.6079970000     3.4319400000
| 25>  H        3.8428520000    -0.8606420000     3.8109460000
| 26>  H        5.0690440000    -0.2747810000     0.5350860000
| 27> *
| 28>
| 29>                          ****END OF INPUT****
 Total Charge           Charge          ....    0
 Multiplicity           Mult            ....    1
 Number of Electrons    NEL             ....   54
 Basis Dimension        Dim             ....  138

MULLIKEN ATOMIC CHARGES
-----------------------
   0 C :    0.076171
   1 N :   -0.172530
   2 C :   -0.113228
   3 C :   -0.023336
   4 C :    0.215436
   5 O :   -0.315370
   6 N :    0.021331
   7 H :    0.026726
   8 H :    0.029589
   9 H :   -0.003406
  10 H :    0.042704
  11 H :    0.049180
  12 H :    0.021735
  13 H :    0.019081
  14 H :    0.125917
Sum of atomic charges:    0.0000000

LOEWDIN ATOMIC CHARGES
----------------------
   0 C :   -0.007972
   1 N :   -0.143535
   2 C :   -0.015534
   3 C :   -0.077720
   4 C :    0.061661
   5 O :   -0.127750
   6 N :    0.060925
   7 H :    0.026830
   8 H :    0.027126
   9 H :    0.001589
  10 H :    0.044092
  11 H :    0.042681
  12 H :    0.026021
  13 H :    0.011615
  14 H :    0.069971

  Mayer bond orders larger than 0.1
B(  0-C ,  1-N ) :   1.0469 B(  0-C ,  7-H ) :   0.9619 B(  0-C ,  8-H ) :   0.9595
B(  0-C ,  9-H ) :   0.9421 B(  1-N ,  2-C ) :   1.9401 B(  2-C ,  3-C ) :   1.0046
B(  2-C ,  6-N ) :   1.1147 B(  3-C ,  4-C ) :   1.1041 B(  3-C , 10-H ) :   0.8897
B(  3-C , 11-H ) :   0.9199 B(  4-C ,  5-O ) :   0.9958 B(  4-C , 12-H ) :   0.9388
B(  4-C , 13-H ) :   0.9348 B(  5-O ,  6-N ) :   0.9214 B(  6-N , 14-H ) :   0.9326

FINAL SINGLE POINT ENERGY      -341.225100351853

DIPOLE MOMENT
-------------
                                X             Y             Z
Electronic contribution:      5.84012       0.41782      -0.07918
Nuclear contribution   :     -6.38535      -0.92723       0.44458
                        -----------------------------------------
Total Dipole Moment    :     -0.54523      -0.50941       0.36540
                        -----------------------------------------
Magnitude (a.u.)       :      0.83084
Magnitude (Debye)      :      2.11182

                             ****ORCA TERMINATED NORMALLY****
TOTAL RUN TIME: 0 days 0 hours 0 minutes 6 seconds 774 msec
