                         Program Version 3.0.3 - RELEASE   -
|  1> ! RI PBE def2-SVP def2-SVP/J NBO PAL2
|  2> % maxcore 2000
|  3> % output
|  4>     # printlevel mini
|  5>     print[ P_Basis ] 0
|  6>     print[ P_SCFInfo ] 1
|  7>     print[ P_SCFIterInfo ] 1
|  8>     print[ P_OrbEn ] 0
|  9>     print[ P_Cartesian ] 0
| 10> end
| 11> *xyz 0 1
| 12>  C        2.7395820000     1.2463840000     0.1321500000
| 13>  N        2.0411880000    -0.0148250000     0.0075560000
| 14>  C        2.6067990000    -1.0621870000     0.7871290000
| 15>  C        2.5615180000    -2.4710990000     0.2592510000
| 16>  N        2.0487540000    -2.6496790000    -1.0657470000
| 17>  C        3.8788470000    -1.7544880000     0.4052280000
| 18>  O        4.7438580000    -2.1111740000     1.4349360000
| 19>  H        2.2786390000     1.9855370000    -0.5261880000
| 20>  H        3.8137480000     1.1883730000    -0.1051230000
| 21>  H        2.6505130000     1.6168840000     1.1572590000
| 22>  H        1.9959620000    -0.3188800000    -0.9575130000
| 23>  H        2.4550100000    -0.9636650000     1.8589900000
| 24>  H        2.3742350000    -3.2401540000     1.0088480000
| 25>  H        1.0457210000    -2.7852850000    -1.0556040000
| 26>  H        2.4686730000    -3.4470810000    -1.5252220000
| 27>  H        4.3441230000    -1.4295140000    -0.5246560000
| 28>  H        5.1337190000    -2.9650360000     1.2269070000
| 29> *
| 30>
| 31>                          ****END OF INPUT****
 Total Charge           Charge          ....    0
 Multiplicity           Mult            ....    1
 Number of Electrons    NEL             ....   56
 Basis Dimension        Dim             ....  148

MULLIKEN ATOMIC CHARGES
-----------------------
   0 C :    0.078310
   1 N :   -0.174519
   2 C :   -0.023655
   3 C :   -0.055412
   4 N :   -0.148899
   5 C :    0.059876
   6 O :   -0.225953
   7 H :    0.015963
   8 H :   -0.001913
   9 H :    0.014303
  10 H :    0.083888
  11 H :    0.017859
  12 H :    0.003345
  13 H :    0.104766
  14 H :    0.095329
  15 H :    0.001208
  16 H :    0.155504
Sum of atomic charges:    0.0000000

LOEWDIN ATOMIC CHARGES
----------------------
   0 C :   -0.003243
   1 N :   -0.083166
   2 C :   -0.009252
   3 C :   -0.034496
   4 N :   -0.082178
   5 C :    0.005869
   6 O :   -0.098066
   7 H :    0.020385
   8 H :   -0.001397
   9 H :    0.019934
  10 H :    0.042715
  11 H :    0.023018
  12 H :    0.005658
  13 H :    0.060615
  14 H :    0.056873
  15 H :    0.005489
  16 H :    0.071240

  Mayer bond orders larger than 0.1
B(  0-C ,  1-N ) :   1.0627 B(  0-C ,  7-H ) :   0.9716 B(  0-C ,  8-H ) :   0.9472
B(  0-C ,  9-H ) :   0.9668 B(  1-N ,  2-C ) :   1.1555 B(  1-N , 10-H ) :   0.9154
B(  2-C ,  3-C ) :   0.9254 B(  2-C ,  5-C ) :   0.9162 B(  2-C , 11-H ) :   0.9269
B(  3-C ,  4-N ) :   1.1427 B(  3-C ,  5-C ) :   0.9094 B(  3-C , 12-H ) :   0.9199
B(  4-N , 13-H ) :   0.9627 B(  4-N , 14-H ) :   0.9653 B(  5-C ,  6-O ) :   1.1453
B(  5-C , 15-H ) :   0.9312 B(  6-O , 16-H ) :   0.9780

FINAL SINGLE POINT ENERGY      -342.438987738017

DIPOLE MOMENT
-------------
                                X             Y             Z
Electronic contribution:      1.09665      -3.15371       1.45869
Nuclear contribution   :     -1.07133       2.21714      -2.01461
                        -----------------------------------------
Total Dipole Moment    :      0.02532      -0.93657      -0.55593
                        -----------------------------------------
Magnitude (a.u.)       :      1.08943
Magnitude (Debye)      :      2.76912

                             ****ORCA TERMINATED NORMALLY****
TOTAL RUN TIME: 0 days 0 hours 0 minutes 7 seconds 522 msec
