                         Program Version 3.0.3 - RELEASE   -
|  1> ! RI PBE def2-SVP def2-SVP/J NBO PAL2
|  2> % maxcore 2000
|  3> % output
|  4>     # printlevel mini
|  5>     print[ P_Basis ] 0
|  6>     print[ P_SCFInfo ] 1
|  7>     print[ P_SCFIterInfo ] 1
|  8>     print[ P_OrbEn ] 0
|  9>     print[ P_Cartesian ] 0
| 10> end
| 11> *xyz 0 1
| 12>  C        2.5496410000     0.7643590000    -0.7719950000
| 13>  N        2.1566660000    -0.0456420000     0.3689680000
| 14>  C        2.9311140000    -1.2380300000     0.5251640000
| 15>  C        2.6012430000    -2.1450570000     1.7354460000
| 16>  N        2.4576560000    -3.2461930000     0.7930830000
| 17>  C        2.6277600000    -2.4979060000    -0.3360680000
| 18>  O        2.5325460000    -2.7508110000    -1.5056770000
| 19>  H        1.9053730000     1.6438010000    -0.8248510000
| 20>  H        2.5055530000     0.2370090000    -1.7333380000
| 21>  H        3.5747290000     1.1152510000    -0.6242720000
| 22>  H        1.1721450000    -0.2763530000     0.3056440000
| 23>  H        3.9936130000    -0.9833100000     0.4763000000
| 24>  H        1.6729880000    -1.8619300000     2.2389450000
| 25>  H        3.3977900000    -2.2735610000     2.4714220000
| 26>  H        2.1804920000    -4.2068160000     0.9187380000
| 27> *
| 28>
| 29>                          ****END OF INPUT****
 Total Charge           Charge          ....    0
 Multiplicity           Mult            ....    1
 Number of Electrons    NEL             ....   54
 Basis Dimension        Dim             ....  138

MULLIKEN ATOMIC CHARGES
-----------------------
   0 C :    0.060915
   1 N :   -0.203261
   2 C :   -0.180566
   3 C :    0.246115
   4 N :   -0.217376
   5 C :    0.127612
   6 O :   -0.169528
   7 H :    0.023931
   8 H :    0.026828
   9 H :    0.018568
  10 H :    0.101415
  11 H :    0.030754
  12 H :    0.010901
  13 H :    0.022412
  14 H :    0.101279
Sum of atomic charges:   -0.0000000

LOEWDIN ATOMIC CHARGES
----------------------
   0 C :   -0.001935
   1 N :   -0.084439
   2 C :   -0.019189
   3 C :    0.039512
   4 N :   -0.008216
   5 C :   -0.001908
   6 O :   -0.165724
   7 H :    0.024065
   8 H :    0.010573
   9 H :    0.022959
  10 H :    0.057077
  11 H :    0.032348
  12 H :    0.015946
  13 H :    0.018930
  14 H :    0.060001

  Mayer bond orders larger than 0.1
B(  0-C ,  1-N ) :   1.0496 B(  0-C ,  7-H ) :   0.9705 B(  0-C ,  8-H ) :   0.9567
B(  0-C ,  9-H ) :   0.9654 B(  1-N ,  2-C ) :   1.1038 B(  1-N , 10-H ) :   0.9402
B(  2-C ,  3-C ) :   1.0247 B(  2-C ,  5-C ) :   0.8595 B(  2-C , 11-H ) :   0.8787
B(  3-C ,  4-N ) :   1.0230 B(  3-C , 12-H ) :   0.9247 B(  3-C , 13-H ) :   0.9258
B(  4-N ,  5-C ) :   1.1817 B(  4-N ,  6-O ) :   0.1180 B(  4-N , 14-H ) :   0.9368
B(  5-C ,  6-O ) :   2.1724

FINAL SINGLE POINT ENERGY      -341.283870239223

DIPOLE MOMENT
-------------
                                X             Y             Z
Electronic contribution:     -0.25510      -5.66358      -1.28372
Nuclear contribution   :      0.07155       5.64619       2.31467
                        -----------------------------------------
Total Dipole Moment    :     -0.18355      -0.01739       1.03096
                        -----------------------------------------
Magnitude (a.u.)       :      1.04732
Magnitude (Debye)      :      2.66206

                             ****ORCA TERMINATED NORMALLY****
TOTAL RUN TIME: 0 days 0 hours 0 minutes 7 seconds 269 msec
