                         Program Version 3.0.3 - RELEASE   -
|  1> ! RI PBE def2-SVP def2-SVP/J NBO PAL2
|  2> % maxcore 2000
|  3> % output
|  4>     # printlevel mini
|  5>     print[ P_Basis ] 0
|  6>     print[ P_SCFInfo ] 1
|  7>     print[ P_SCFIterInfo ] 1
|  8>     print[ P_OrbEn ] 0
|  9>     print[ P_Cartesian ] 0
| 10> end
| 11> *xyz 0 1
| 12>  C        3.1293320000    -1.2387750000     0.3508150000
| 13>  N        2.6220020000     0.0868170000     0.1212350000
| 14>  C        3.0878370000     0.9038480000    -0.8544690000
| 15>  C        2.7985420000     2.1668850000    -1.2766940000
| 16>  N        3.6259350000     2.4674530000    -2.3434640000
| 17>  C        4.3478250000     1.4265320000    -2.5144070000
| 18>  O        4.0769960000     0.4153370000    -1.6356400000
| 19>  H        2.5868450000    -1.6763840000     1.1879910000
| 20>  H        4.1949580000    -1.2311410000     0.6014650000
| 21>  H        2.9909030000    -1.8861240000    -0.5210440000
| 22>  H        1.8894640000     0.4435900000     0.7021870000
| 23>  H        2.0691200000     2.8613580000    -0.8948040000
| 24>  H        5.1226500000     1.2387130000    -3.2391710000
| 25> *
| 26>
| 27>                          ****END OF INPUT****
 Total Charge           Charge          ....    0
 Multiplicity           Mult            ....    1
 Number of Electrons    NEL             ....   52
 Basis Dimension        Dim             ....  128

MULLIKEN ATOMIC CHARGES
-----------------------
   0 C :    0.086619
   1 N :   -0.152538
   2 C :    0.148187
   3 C :   -0.101344
   4 N :   -0.103230
   5 C :    0.107226
   6 O :   -0.199410
   7 H :    0.025419
   8 H :    0.036163
   9 H :    0.039087
  10 H :    0.124006
  11 H :   -0.023379
  12 H :    0.013193
Sum of atomic charges:   -0.0000000

LOEWDIN ATOMIC CHARGES
----------------------
   0 C :    0.011568
   1 N :   -0.021209
   2 C :    0.027303
   3 C :   -0.129423
   4 N :   -0.081573
   5 C :   -0.000579
   6 O :    0.002053
   7 H :    0.031547
   8 H :    0.023944
   9 H :    0.024223
  10 H :    0.082179
  11 H :    0.014960
  12 H :    0.015008

  Mayer bond orders larger than 0.1
B(  0-C ,  1-N ) :   1.0251 B(  0-C ,  7-H ) :   0.9706 B(  0-C ,  8-H ) :   0.9641
B(  0-C ,  9-H ) :   0.9651 B(  1-N ,  2-C ) :   1.2002 B(  1-N , 10-H ) :   0.9411
B(  2-C ,  3-C ) :   1.4648 B(  2-C ,  6-O ) :   1.1427 B(  3-C ,  4-N ) :   1.3146
B(  3-C , 11-H ) :   1.0040 B(  4-N ,  5-C ) :   1.7791 B(  5-C ,  6-O ) :   1.0845
B(  5-C , 12-H ) :   0.9792

FINAL SINGLE POINT ENERGY      -340.087083223771

DIPOLE MOMENT
-------------
                                X             Y             Z
Electronic contribution:      0.99541       3.86089      -3.32465
Nuclear contribution   :     -1.36857      -4.90101       4.33556
                        -----------------------------------------
Total Dipole Moment    :     -0.37315      -1.04012       1.01091
                        -----------------------------------------
Magnitude (a.u.)       :      1.49768
Magnitude (Debye)      :      3.80680

                             ****ORCA TERMINATED NORMALLY****
TOTAL RUN TIME: 0 days 0 hours 0 minutes 6 seconds 120 msec
