                         Program Version 3.0.3 - RELEASE   -
|  1> ! RI PBE def2-SVP def2-SVP/J NBO PAL2
|  2> % maxcore 2000
|  3> % output
|  4>     # printlevel mini
|  5>     print[ P_Basis ] 0
|  6>     print[ P_SCFInfo ] 1
|  7>     print[ P_SCFIterInfo ] 1
|  8>     print[ P_OrbEn ] 0
|  9>     print[ P_Cartesian ] 0
| 10> end
| 11> *xyz 0 1
| 12>  C        3.0169030000    -1.1532750000     0.7236690000
| 13>  N        2.6674610000     0.1415990000     0.2190210000
| 14>  C        3.2227750000     0.6544160000    -0.9196230000
| 15>  C        3.0204760000     1.8475800000    -1.5451770000
| 16>  O        3.7909880000     1.9245210000    -2.6468830000
| 17>  N        4.5165170000     0.7863820000    -2.7714170000
| 18>  C        4.1890920000     0.0311950000    -1.7586060000
| 19>  H        2.4507750000    -1.3443830000     1.6348060000
| 20>  H        4.0830040000    -1.2264700000     0.9734020000
| 21>  H        2.7793950000    -1.9532660000     0.0110110000
| 22>  H        1.9953640000     0.6918200000     0.7150920000
| 23>  H        2.3939010000     2.6996110000    -1.3389080000
| 24>  H        4.6512400000    -0.9392510000    -1.6528970000
| 25> *
| 26>
| 27>                          ****END OF INPUT****
 Total Charge           Charge          ....    0
 Multiplicity           Mult            ....    1
 Number of Electrons    NEL             ....   52
 Basis Dimension        Dim             ....  128

MULLIKEN ATOMIC CHARGES
-----------------------
   0 C :    0.091543
   1 N :   -0.159893
   2 C :    0.015237
   3 C :    0.063714
   4 O :   -0.148792
   5 N :   -0.015278
   6 C :   -0.036688
   7 H :    0.025254
   8 H :    0.028318
   9 H :    0.027413
  10 H :    0.108494
  11 H :    0.003227
  12 H :   -0.002549
Sum of atomic charges:   -0.0000000

LOEWDIN ATOMIC CHARGES
----------------------
   0 C :    0.009509
   1 N :   -0.028632
   2 C :   -0.060656
   3 C :   -0.036956
   4 O :    0.041649
   5 N :   -0.039440
   6 C :   -0.075383
   7 H :    0.031940
   8 H :    0.019317
   9 H :    0.018926
  10 H :    0.073129
  11 H :    0.020067
  12 H :    0.026531

  Mayer bond orders larger than 0.1
B(  0-C ,  1-N ) :   1.0514 B(  0-C ,  7-H ) :   0.9703 B(  0-C ,  8-H ) :   0.9589
B(  0-C ,  9-H ) :   0.9586 B(  1-N ,  2-C ) :   1.1861 B(  1-N , 10-H ) :   0.9421
B(  2-C ,  3-C ) :   1.4502 B(  2-C ,  6-C ) :   1.2058 B(  3-C ,  4-O ) :   1.1227
B(  3-C ,  5-N ) :   0.1485 B(  3-C , 11-H ) :   0.9943 B(  4-O ,  5-N ) :   1.0557
B(  5-N ,  6-C ) :   1.6547 B(  6-C , 12-H ) :   0.9843

FINAL SINGLE POINT ENERGY      -340.044837937799

DIPOLE MOMENT
-------------
                                X             Y             Z
Electronic contribution:      1.48571       4.86948      -5.68295
Nuclear contribution   :     -2.35923      -5.26926       7.17288
                        -----------------------------------------
Total Dipole Moment    :     -0.87352      -0.39978       1.48993
                        -----------------------------------------
Magnitude (a.u.)       :      1.77278
Magnitude (Debye)      :      4.50604

                             ****ORCA TERMINATED NORMALLY****
TOTAL RUN TIME: 0 days 0 hours 0 minutes 6 seconds 337 msec
