                         Program Version 3.0.3 - RELEASE   -
|  1> ! RI PBE def2-SVP def2-SVP/J NBO PAL2
|  2> % maxcore 2000
|  3> % output
|  4>     # printlevel mini
|  5>     print[ P_Basis ] 0
|  6>     print[ P_SCFInfo ] 1
|  7>     print[ P_SCFIterInfo ] 1
|  8>     print[ P_OrbEn ] 0
|  9>     print[ P_Cartesian ] 0
| 10> end
| 11> *xyz 0 1
| 12>  C        2.2018230000    -1.3623810000     0.1648750000
| 13>  N        2.3593260000     0.0536990000    -0.0894650000
| 14>  C        2.8760280000     0.7991750000     1.0164840000
| 15>  C        2.9418120000     2.3158300000     0.8558220000
| 16>  O        2.3717790000     2.5212280000     2.1532380000
| 17>  C        2.0234780000     1.1286430000     2.2695710000
| 18>  C        2.3914400000     0.5506500000     3.6064930000
| 19>  H        1.8041730000    -1.8532040000    -0.7253960000
| 20>  H        1.5397540000    -1.6032750000     1.0115960000
| 21>  H        3.1803350000    -1.8032450000     0.3747070000
| 22>  H        1.4854850000     0.4577260000    -0.4042470000
| 23>  H        3.8400180000     0.3693310000     1.3077550000
| 24>  H        2.2864680000     2.6882140000     0.0566710000
| 25>  H        3.9267120000     2.7786990000     0.7554610000
| 26>  H        0.9496420000     0.9877300000     2.0676950000
| 27>  H        3.4642040000     0.6518820000     3.7872230000
| 28>  H        2.1266210000    -0.5093040000     3.6507950000
| 29>  H        1.8597110000     1.0682010000     4.4087220000
| 30> *
| 31>
| 32>                          ****END OF INPUT****
 Total Charge           Charge          ....    0
 Multiplicity           Mult            ....    1
 Number of Electrons    NEL             ....   56
 Basis Dimension        Dim             ....  153

MULLIKEN ATOMIC CHARGES
-----------------------
   0 C :    0.061087
   1 N :   -0.186652
   2 C :   -0.124179
   3 C :    0.271438
   4 O :   -0.350689
   5 C :    0.081676
   6 C :    0.065236
   7 H :    0.025940
   8 H :    0.004485
   9 H :    0.020522
  10 H :    0.094334
  11 H :   -0.003880
  12 H :   -0.008110
  13 H :    0.011731
  14 H :   -0.023348
  15 H :    0.012823
  16 H :    0.018534
  17 H :    0.029050
Sum of atomic charges:    0.0000000

LOEWDIN ATOMIC CHARGES
----------------------
   0 C :   -0.005656
   1 N :   -0.086805
   2 C :   -0.014365
   3 C :    0.083548
   4 O :   -0.180556
   5 C :    0.044495
   6 C :   -0.072987
   7 H :    0.024593
   8 H :   -0.000509
   9 H :    0.023526
  10 H :    0.051444
  11 H :    0.020781
  12 H :    0.005546
  13 H :    0.011942
  14 H :    0.002618
  15 H :    0.026362
  16 H :    0.031549
  17 H :    0.034475

  Mayer bond orders larger than 0.1
B(  0-C ,  1-N ) :   1.0619 B(  0-C ,  7-H ) :   0.9723 B(  0-C ,  8-H ) :   0.9494
B(  0-C ,  9-H ) :   0.9655 B(  1-N ,  2-C ) :   1.1161 B(  1-N , 10-H ) :   0.9308
B(  2-C ,  3-C ) :   1.0717 B(  2-C ,  5-C ) :   1.0012 B(  2-C , 11-H ) :   0.8940
B(  3-C ,  4-O ) :   1.0348 B(  3-C , 12-H ) :   0.9180 B(  3-C , 13-H ) :   0.9362
B(  4-O ,  5-C ) :   1.0445 B(  5-C ,  6-C ) :   1.0952 B(  5-C , 14-H ) :   0.8912
B(  6-C , 15-H ) :   0.9441 B(  6-C , 16-H ) :   0.9500 B(  6-C , 17-H ) :   0.9450

FINAL SINGLE POINT ENERGY      -326.423149102737

DIPOLE MOMENT
-------------
                                X             Y             Z
Electronic contribution:      0.19845       5.04391      -0.69925
Nuclear contribution   :     -0.37713      -5.67702       0.52651
                        -----------------------------------------
Total Dipole Moment    :     -0.17868      -0.63310      -0.17274
                        -----------------------------------------
Magnitude (a.u.)       :      0.68014
Magnitude (Debye)      :      1.72877

                             ****ORCA TERMINATED NORMALLY****
TOTAL RUN TIME: 0 days 0 hours 0 minutes 7 seconds 673 msec
