                         Program Version 3.0.3 - RELEASE   -
|  1> ! RI PBE def2-SVP def2-SVP/J NBO PAL2
|  2> % maxcore 2000
|  3> % output
|  4>     # printlevel mini
|  5>     print[ P_Basis ] 0
|  6>     print[ P_SCFInfo ] 1
|  7>     print[ P_SCFIterInfo ] 1
|  8>     print[ P_OrbEn ] 0
|  9>     print[ P_Cartesian ] 0
| 10> end
| 11> *xyz 0 1
| 12>  C        2.6734940000     1.0557100000     0.0156990000
| 13>  N        2.0443910000    -0.2359290000    -0.1732810000
| 14>  C        2.8043920000    -1.3213830000     0.3488890000
| 15>  C        2.7182580000    -2.6603660000    -0.3293350000
| 16>  O        2.0109800000    -2.7709870000    -1.5247180000
| 17>  C        3.9961740000    -1.8847210000    -0.3749660000
| 18>  O        5.0821010000    -2.2976580000     0.3879040000
| 19>  H        2.0599100000     1.8315720000    -0.4461730000
| 20>  H        3.6913680000     1.1196670000    -0.3985790000
| 21>  H        2.7378970000     1.2773280000     1.0842680000
| 22>  H        1.8571650000    -0.4019250000    -1.1541290000
| 23>  H        2.8698220000    -1.3470090000     1.4335860000
| 24>  H        2.7060700000    -3.5399320000     0.3111430000
| 25>  H        1.0720820000    -2.7841480000    -1.3150630000
| 26>  H        4.2245890000    -1.4249630000    -1.3365680000
| 27>  H        5.4492990000    -3.0928670000    -0.0094780000
| 28> *
| 29>
| 30>                          ****END OF INPUT****
 Total Charge           Charge          ....    0
 Multiplicity           Mult            ....    1
 Number of Electrons    NEL             ....   56
 Basis Dimension        Dim             ....  143

MULLIKEN ATOMIC CHARGES
-----------------------
   0 C :    0.084098
   1 N :   -0.175533
   2 C :   -0.061354
   3 C :    0.074236
   4 O :   -0.233824
   5 C :    0.054524
   6 O :   -0.229460
   7 H :    0.017662
   8 H :   -0.000611
   9 H :    0.017648
  10 H :    0.080592
  11 H :    0.025127
  12 H :    0.008549
  13 H :    0.168328
  14 H :    0.009949
  15 H :    0.160069
Sum of atomic charges:   -0.0000000

LOEWDIN ATOMIC CHARGES
----------------------
   0 C :   -0.000766
   1 N :   -0.083106
   2 C :   -0.025070
   3 C :    0.010320
   4 O :   -0.093216
   5 C :    0.002926
   6 O :   -0.097358
   7 H :    0.021230
   8 H :    0.000818
   9 H :    0.022024
  10 H :    0.044073
  11 H :    0.025626
  12 H :    0.009541
  13 H :    0.079214
  14 H :    0.009375
  15 H :    0.074368

  Mayer bond orders larger than 0.1
B(  0-C ,  1-N ) :   1.0601 B(  0-C ,  7-H ) :   0.9715 B(  0-C ,  8-H ) :   0.9489
B(  0-C ,  9-H ) :   0.9671 B(  1-N ,  2-C ) :   1.1476 B(  1-N , 10-H ) :   0.9220
B(  2-C ,  3-C ) :   0.9093 B(  2-C ,  5-C ) :   0.9032 B(  2-C , 11-H ) :   0.9207
B(  3-C ,  4-O ) :   1.1211 B(  3-C ,  5-C ) :   0.9207 B(  3-C , 12-H ) :   0.9285
B(  4-O , 13-H ) :   0.9745 B(  5-C ,  6-O ) :   1.1404 B(  5-C , 14-H ) :   0.9282
B(  6-O , 15-H ) :   0.9769

FINAL SINGLE POINT ENERGY      -362.276149340573

DIPOLE MOMENT
-------------
                                X             Y             Z
Electronic contribution:      0.57470      -4.76611      -0.69850
Nuclear contribution   :     -0.80016       4.46162       0.44665
                        -----------------------------------------
Total Dipole Moment    :     -0.22546      -0.30448      -0.25184
                        -----------------------------------------
Magnitude (a.u.)       :      0.45493
Magnitude (Debye)      :      1.15635

                             ****ORCA TERMINATED NORMALLY****
TOTAL RUN TIME: 0 days 0 hours 0 minutes 7 seconds 141 msec
