                         Program Version 3.0.3 - RELEASE   -
|  1> ! RI PBE def2-SVP def2-SVP/J NBO PAL2
|  2> % maxcore 2000
|  3> % output
|  4>     # printlevel mini
|  5>     print[ P_Basis ] 0
|  6>     print[ P_SCFInfo ] 1
|  7>     print[ P_SCFIterInfo ] 1
|  8>     print[ P_OrbEn ] 0
|  9>     print[ P_Cartesian ] 0
| 10> end
| 11> *xyz 0 1
| 12>  C        3.1309550000     0.5514180000    -1.0365350000
| 13>  N        2.2425560000     0.1357170000     0.0353750000
| 14>  C        2.8040950000    -0.8335970000     0.9208170000
| 15>  C        1.9558050000    -1.3242040000     2.0964350000
| 16>  O        2.1437410000    -2.7036570000     1.6798490000
| 17>  C        2.8238860000    -2.3297060000     0.5559630000
| 18>  O        3.1979670000    -3.0246430000    -0.3280990000
| 19>  H        2.6193510000     1.2880880000    -1.6578110000
| 20>  H        3.4757930000    -0.2695550000    -1.6781270000
| 21>  H        4.0097780000     1.0373400000    -0.6043060000
| 22>  H        1.3652460000    -0.1977720000    -0.3450120000
| 23>  H        3.8009510000    -0.5047610000     1.2282670000
| 24>  H        0.9032180000    -1.0429590000     2.0410110000
| 25>  H        2.3488680000    -1.1600000000     3.0990740000
| 26> *
| 27>
| 28>                          ****END OF INPUT****
 Total Charge           Charge          ....    0
 Multiplicity           Mult            ....    1
 Number of Electrons    NEL             ....   54
 Basis Dimension        Dim             ....  133

MULLIKEN ATOMIC CHARGES
-----------------------
   0 C :    0.060264
   1 N :   -0.200361
   2 C :   -0.167944
   3 C :    0.267577
   4 O :   -0.262833
   5 C :    0.152905
   6 O :   -0.129312
   7 H :    0.029060
   8 H :    0.028358
   9 H :    0.022615
  10 H :    0.104848
  11 H :    0.039127
  12 H :    0.023079
  13 H :    0.032618
Sum of atomic charges:    0.0000000

LOEWDIN ATOMIC CHARGES
----------------------
   0 C :   -0.000116
   1 N :   -0.079854
   2 C :   -0.036069
   3 C :    0.089822
   4 O :   -0.085668
   5 C :    0.014362
   6 O :   -0.108153
   7 H :    0.026525
   8 H :    0.011784
   9 H :    0.024373
  10 H :    0.059732
  11 H :    0.039279
  12 H :    0.021173
  13 H :    0.022810

  Mayer bond orders larger than 0.1
B(  0-C ,  1-N ) :   1.0443 B(  0-C ,  7-H ) :   0.9721 B(  0-C ,  8-H ) :   0.9572
B(  0-C ,  9-H ) :   0.9656 B(  1-N ,  2-C ) :   1.1154 B(  1-N , 10-H ) :   0.9381
B(  2-C ,  3-C ) :   1.0498 B(  2-C ,  5-C ) :   0.8854 B(  2-C , 11-H ) :   0.8865
B(  3-C ,  4-O ) :   0.9918 B(  3-C , 12-H ) :   0.9281 B(  3-C , 13-H ) :   0.9373
B(  4-O ,  5-C ) :   1.1204 B(  4-O ,  6-O ) :   0.1156 B(  5-C ,  6-O ) :   2.2149

FINAL SINGLE POINT ENERGY      -361.122083078791

DIPOLE MOMENT
-------------
                                X             Y             Z
Electronic contribution:     -0.45699      -6.98828       1.89498
Nuclear contribution   :      0.21411       8.12265      -1.59685
                        -----------------------------------------
Total Dipole Moment    :     -0.24289       1.13437       0.29813
                        -----------------------------------------
Magnitude (a.u.)       :      1.19778
Magnitude (Debye)      :      3.04452

                             ****ORCA TERMINATED NORMALLY****
TOTAL RUN TIME: 0 days 0 hours 0 minutes 6 seconds 674 msec
