                         Program Version 3.0.3 - RELEASE   -
|  1> ! RI PBE def2-SVP def2-SVP/J NBO PAL2
|  2> % maxcore 2000
|  3> % output
|  4>     # printlevel mini
|  5>     print[ P_Basis ] 0
|  6>     print[ P_SCFInfo ] 1
|  7>     print[ P_SCFIterInfo ] 1
|  8>     print[ P_OrbEn ] 0
|  9>     print[ P_Cartesian ] 0
| 10> end
| 11> *xyz 0 1
| 12>  C        1.0329430000    -0.2304070000     0.0408590000
| 13>  N        2.4226390000    -0.3747120000     0.4285880000
| 14>  C        2.8762980000     0.5381870000     1.4430830000
| 15>  C        2.5259030000     0.0425430000     2.8238490000
| 16>  O        2.9953520000    -1.2665810000     3.0219280000
| 17>  C        4.1922400000     1.2086540000     1.2471170000
| 18>  C        2.9255760000     2.0204590000     1.2013490000
| 19>  H        0.7976300000    -0.9554400000    -0.7402460000
| 20>  H        0.7777980000     0.7746360000    -0.3254830000
| 21>  H        0.3844710000    -0.4464950000     0.8926820000
| 22>  H        3.0291390000    -0.3470930000    -0.3780780000
| 23>  H        1.4351860000     0.0916360000     2.9699110000
| 24>  H        2.9828130000     0.6865330000     3.5799820000
| 25>  H        2.8856190000    -1.6990870000     2.1633630000
| 26>  H        4.7155360000     1.0436930000     0.3115740000
| 27>  H        4.8422370000     1.3054330000     2.1079170000
| 28>  H        2.5996650000     2.3823680000     0.2332760000
| 29>  H        2.7109560000     2.6897620000     2.0266280000
| 30> *
| 31>
| 32>                          ****END OF INPUT****
 Total Charge           Charge          ....    0
 Multiplicity           Mult            ....    1
 Number of Electrons    NEL             ....   56
 Basis Dimension        Dim             ....  153

MULLIKEN ATOMIC CHARGES
-----------------------
   0 C :    0.077828
   1 N :   -0.187333
   2 C :   -0.304010
   3 C :    0.318922
   4 O :   -0.282787
   5 C :   -0.001775
   6 C :    0.000893
   7 H :    0.026634
   8 H :    0.000803
   9 H :    0.027171
  10 H :    0.098316
  11 H :   -0.013988
  12 H :   -0.018778
  13 H :    0.139252
  14 H :    0.026613
  15 H :    0.037888
  16 H :    0.024418
  17 H :    0.029931
Sum of atomic charges:   -0.0000000

LOEWDIN ATOMIC CHARGES
----------------------
   0 C :   -0.001548
   1 N :   -0.070471
   2 C :   -0.050278
   3 C :    0.061957
   4 O :   -0.127666
   5 C :   -0.040259
   6 C :   -0.053077
   7 H :    0.024561
   8 H :    0.003173
   9 H :    0.024307
  10 H :    0.057607
  11 H :    0.000230
  12 H :    0.017149
  13 H :    0.047960
  14 H :    0.024102
  15 H :    0.030458
  16 H :    0.025147
  17 H :    0.026647

  Mayer bond orders larger than 0.1
B(  0-C ,  1-N ) :   1.0479 B(  0-C ,  7-H ) :   0.9713 B(  0-C ,  8-H ) :   0.9480
B(  0-C ,  9-H ) :   0.9667 B(  1-N ,  2-C ) :   1.0931 B(  1-N , 10-H ) :   0.9337
B(  2-C ,  3-C ) :   1.0345 B(  2-C ,  5-C ) :   0.9800 B(  2-C ,  6-C ) :   0.9526
B(  3-C ,  4-O ) :   1.1065 B(  3-C , 11-H ) :   0.9080 B(  3-C , 12-H ) :   0.9085
B(  4-O , 13-H ) :   0.9570 B(  5-C ,  6-C ) :   1.0246 B(  5-C , 14-H ) :   0.9400
B(  5-C , 15-H ) :   0.9395 B(  6-C , 16-H ) :   0.9332 B(  6-C , 17-H ) :   0.9404

FINAL SINGLE POINT ENERGY      -326.423784187355

DIPOLE MOMENT
-------------
                                X             Y             Z
Electronic contribution:      2.07707      -2.33662       2.15375
Nuclear contribution   :     -2.26845       2.80715      -3.08050
                        -----------------------------------------
Total Dipole Moment    :     -0.19138       0.47053      -0.92675
                        -----------------------------------------
Magnitude (a.u.)       :      1.05684
Magnitude (Debye)      :      2.68626

                             ****ORCA TERMINATED NORMALLY****
TOTAL RUN TIME: 0 days 0 hours 0 minutes 8 seconds 92 msec
