                         Program Version 3.0.3 - RELEASE   -
|  1> ! RI PBE def2-SVP def2-SVP/J NBO PAL2
|  2> % maxcore 2000
|  3> % output
|  4>     # printlevel mini
|  5>     print[ P_Basis ] 0
|  6>     print[ P_SCFInfo ] 1
|  7>     print[ P_SCFIterInfo ] 1
|  8>     print[ P_OrbEn ] 0
|  9>     print[ P_Cartesian ] 0
| 10> end
| 11> *xyz 0 1
| 12>  C        1.0815430000     0.5338950000     0.1918980000
| 13>  N        2.4255910000     0.0463390000    -0.0334300000
| 14>  C        2.9562890000     0.3897880000    -1.3485760000
| 15>  C        4.3826800000    -0.1472890000    -1.5250330000
| 16>  O        5.2806860000     0.9659500000    -1.4014830000
| 17>  C        4.5138270000     2.0758760000    -1.4785540000
| 18>  C        3.2029270000     1.8674120000    -1.5005420000
| 19>  H        0.7088380000     0.1489380000     1.1427190000
| 20>  H        0.3646730000     0.2535170000    -0.5988900000
| 21>  H        1.0895930000     1.6239110000     0.2620540000
| 22>  H        2.4320690000    -0.9629670000     0.0603570000
| 23>  H        2.3007990000     0.0100440000    -2.1518570000
| 24>  H        4.5290080000    -0.5807920000    -2.5184090000
| 25>  H        4.6465930000    -0.8819830000    -0.7623340000
| 26>  H        5.0658920000     3.0058890000    -1.5081810000
| 27>  H        2.4450700000     2.6319700000    -1.5631300000
| 28> *
| 29>
| 30>                          ****END OF INPUT****
 Total Charge           Charge          ....    0
 Multiplicity           Mult            ....    1
 Number of Electrons    NEL             ....   54
 Basis Dimension        Dim             ....  143

MULLIKEN ATOMIC CHARGES
-----------------------
   0 C :    0.064585
   1 N :   -0.238566
   2 C :   -0.044749
   3 C :    0.280437
   4 O :   -0.287844
   5 C :    0.141865
   6 C :   -0.078082
   7 H :    0.018389
   8 H :   -0.008326
   9 H :    0.028116
  10 H :    0.096685
  11 H :   -0.007852
  12 H :    0.014907
  13 H :    0.013638
  14 H :    0.006706
  15 H :    0.000090
Sum of atomic charges:   -0.0000000

LOEWDIN ATOMIC CHARGES
----------------------
   0 C :   -0.008054
   1 N :   -0.103528
   2 C :   -0.003664
   3 C :    0.087353
   4 O :   -0.085599
   5 C :    0.051405
   6 C :   -0.122178
   7 H :    0.023511
   8 H :   -0.003032
   9 H :    0.022123
  10 H :    0.048922
  11 H :    0.002958
  12 H :    0.019657
  13 H :    0.023442
  14 H :    0.022092
  15 H :    0.024592

  Mayer bond orders larger than 0.1
B(  0-C ,  1-N ) :   1.0632 B(  0-C ,  7-H ) :   0.9706 B(  0-C ,  8-H ) :   0.9401
B(  0-C ,  9-H ) :   0.9672 B(  1-N ,  2-C ) :   0.9981 B(  1-N , 10-H ) :   0.9407
B(  2-C ,  3-C ) :   1.0683 B(  2-C ,  6-C ) :   1.0370 B(  2-C , 11-H ) :   0.8818
B(  3-C ,  4-O ) :   0.9621 B(  3-C , 12-H ) :   0.9305 B(  3-C , 13-H ) :   0.9346
B(  4-O ,  5-C ) :   1.1316 B(  4-O ,  6-C ) :   0.1223 B(  5-C ,  6-C ) :   1.7328
B(  5-C , 14-H ) :   0.9877 B(  6-C , 15-H ) :   0.9833

FINAL SINGLE POINT ENERGY      -325.227607302684

DIPOLE MOMENT
-------------
                                X             Y             Z
Electronic contribution:      6.00229       1.38365      -1.40991
Nuclear contribution   :     -6.47619      -1.72798       1.23039
                        -----------------------------------------
Total Dipole Moment    :     -0.47390      -0.34432      -0.17952
                        -----------------------------------------
Magnitude (a.u.)       :      0.61268
Magnitude (Debye)      :      1.55730

                             ****ORCA TERMINATED NORMALLY****
TOTAL RUN TIME: 0 days 0 hours 0 minutes 6 seconds 723 msec
