                         Program Version 3.0.3 - RELEASE   -
|  1> ! RI PBE def2-SVP def2-SVP/J NBO PAL2
|  2> % maxcore 2000
|  3> % output
|  4>     # printlevel mini
|  5>     print[ P_Basis ] 0
|  6>     print[ P_SCFInfo ] 1
|  7>     print[ P_SCFIterInfo ] 1
|  8>     print[ P_OrbEn ] 0
|  9>     print[ P_Cartesian ] 0
| 10> end
| 11> *xyz 0 1
| 12>  C        1.3007120000    -0.5038890000    -0.3406400000
| 13>  N        2.3783460000     0.3022340000     0.1643930000
| 14>  C        3.1383710000    -0.0795970000     1.2265920000
| 15>  C        4.1863410000     0.5353140000     1.8437900000
| 16>  O        4.5920450000    -0.2847070000     2.8680900000
| 17>  C        3.7732620000    -1.3298670000     2.8052710000
| 18>  N        2.8921620000    -1.2789080000     1.8645680000
| 19>  H        0.8494890000     0.0135810000    -1.1873120000
| 20>  H        0.5259000000    -0.6701230000     0.4141980000
| 21>  H        1.6483110000    -1.4840700000    -0.6814510000
| 22>  H        2.5828690000     1.1770450000    -0.2753450000
| 23>  H        4.7233350000     1.4564620000     1.7101320000
| 24>  H        3.9144360000    -2.1145670000     3.5324040000
| 25> *
| 26>
| 27>                          ****END OF INPUT****
 Total Charge           Charge          ....    0
 Multiplicity           Mult            ....    1
 Number of Electrons    NEL             ....   52
 Basis Dimension        Dim             ....  128

MULLIKEN ATOMIC CHARGES
-----------------------
   0 C :    0.105651
   1 N :   -0.148598
   2 C :    0.033757
   3 C :    0.001486
   4 O :   -0.153192
   5 C :    0.133311
   6 N :   -0.158616
   7 H :    0.014052
   8 H :    0.030476
   9 H :    0.027366
  10 H :    0.107909
  11 H :   -0.014217
  12 H :    0.020614
Sum of atomic charges:   -0.0000000

LOEWDIN ATOMIC CHARGES
----------------------
   0 C :    0.012441
   1 N :   -0.026691
   2 C :   -0.021756
   3 C :   -0.076352
   4 O :    0.033070
   5 C :    0.022610
   6 N :   -0.119119
   7 H :    0.025641
   8 H :    0.022182
   9 H :    0.021869
  10 H :    0.072808
  11 H :    0.014733
  12 H :    0.018564

  Mayer bond orders larger than 0.1
B(  0-C ,  1-N ) :   1.0341 B(  0-C ,  7-H ) :   0.9697 B(  0-C ,  8-H ) :   0.9641
B(  0-C ,  9-H ) :   0.9636 B(  1-N ,  2-C ) :   1.2036 B(  1-N , 10-H ) :   0.9403
B(  2-C ,  3-C ) :   1.4515 B(  2-C ,  6-N ) :   1.3110 B(  3-C ,  4-O ) :   1.0883
B(  3-C , 11-H ) :   1.0029 B(  4-O ,  5-C ) :   1.2261 B(  5-C ,  6-N ) :   1.6732
B(  5-C , 12-H ) :   0.9745

FINAL SINGLE POINT ENERGY      -340.087615908645

DIPOLE MOMENT
-------------
                                X             Y             Z
Electronic contribution:      4.36757      -0.01837       4.48935
Nuclear contribution   :     -4.44096       0.56837      -4.97014
                        -----------------------------------------
Total Dipole Moment    :     -0.07339       0.55000      -0.48079
                        -----------------------------------------
Magnitude (a.u.)       :      0.73420
Magnitude (Debye)      :      1.86618

                             ****ORCA TERMINATED NORMALLY****
TOTAL RUN TIME: 0 days 0 hours 0 minutes 6 seconds 101 msec
