                         Program Version 3.0.3 - RELEASE   -
|  1> ! RI PBE def2-SVP def2-SVP/J NBO PAL2
|  2> % maxcore 2000
|  3> % output
|  4>     # printlevel mini
|  5>     print[ P_Basis ] 0
|  6>     print[ P_SCFInfo ] 1
|  7>     print[ P_SCFIterInfo ] 1
|  8>     print[ P_OrbEn ] 0
|  9>     print[ P_Cartesian ] 0
| 10> end
| 11> *xyz 0 1
| 12>  C        2.1008960000     1.4741830000     0.1635650000
| 13>  N        2.5275740000     0.1101250000    -0.0699880000
| 14>  C        3.0561780000    -0.1154670000    -1.4061990000
| 15>  C        3.4096610000    -1.5760210000    -1.6549970000
| 16>  O        4.8427690000    -1.6551620000    -1.6114940000
| 17>  N        5.3625690000    -0.3878100000    -1.6402420000
| 18>  C        4.4329270000     0.4710500000    -1.5608860000
| 19>  H        1.6160290000     1.5401760000     1.1385900000
| 20>  H        1.4023460000     1.8588030000    -0.5982260000
| 21>  H        2.9669320000     2.1396430000     0.1879520000
| 22>  H        1.7477650000    -0.5183240000     0.0789250000
| 23>  H        2.3780390000     0.2719480000    -2.1855680000
| 24>  H        3.0813030000    -1.9141630000    -2.6417220000
| 25>  H        3.0106610000    -2.2397910000    -0.8854100000
| 26>  H        4.6883520000     1.5221000000    -1.5679880000
| 27> *
| 28>
| 29>                          ****END OF INPUT****
 Total Charge           Charge          ....    0
 Multiplicity           Mult            ....    1
 Number of Electrons    NEL             ....   54
 Basis Dimension        Dim             ....  138

MULLIKEN ATOMIC CHARGES
-----------------------
   0 C :    0.057516
   1 N :   -0.238748
   2 C :   -0.098143
   3 C :    0.290180
   4 O :   -0.275504
   5 N :    0.025700
   6 C :   -0.005063
   7 H :    0.029259
   8 H :   -0.000120
   9 H :    0.030482
  10 H :    0.106157
  11 H :    0.006950
  12 H :    0.022513
  13 H :    0.019040
  14 H :    0.029783
Sum of atomic charges:   -0.0000000

LOEWDIN ATOMIC CHARGES
----------------------
   0 C :   -0.007408
   1 N :   -0.096122
   2 C :   -0.026451
   3 C :    0.064136
   4 O :   -0.087187
   5 N :    0.021443
   6 C :   -0.059994
   7 H :    0.027950
   8 H :    0.000242
   9 H :    0.023651
  10 H :    0.054059
  11 H :    0.008980
  12 H :    0.021963
  13 H :    0.027546
  14 H :    0.027194

  Mayer bond orders larger than 0.1
B(  0-C ,  1-N ) :   1.0589 B(  0-C ,  7-H ) :   0.9706 B(  0-C ,  8-H ) :   0.9428
B(  0-C ,  9-H ) :   0.9683 B(  1-N ,  2-C ) :   0.9976 B(  1-N , 10-H ) :   0.9397
B(  2-C ,  3-C ) :   1.0742 B(  2-C ,  6-C ) :   0.9769 B(  2-C , 11-H ) :   0.8833
B(  3-C ,  4-O ) :   0.9408 B(  3-C , 12-H ) :   0.9350 B(  3-C , 13-H ) :   0.9305
B(  4-O ,  5-N ) :   1.0059 B(  4-O ,  6-C ) :   0.1224 B(  5-N ,  6-C ) :   1.8912
B(  6-C , 14-H ) :   0.9693

FINAL SINGLE POINT ENERGY      -341.217958811949

DIPOLE MOMENT
-------------
                                X             Y             Z
Electronic contribution:      6.25082      -3.92895      -2.17259
Nuclear contribution   :     -7.75540       4.32344       2.15384
                        -----------------------------------------
Total Dipole Moment    :     -1.50459       0.39449      -0.01874
                        -----------------------------------------
Magnitude (a.u.)       :      1.55555
Magnitude (Debye)      :      3.95391

                             ****ORCA TERMINATED NORMALLY****
TOTAL RUN TIME: 0 days 0 hours 0 minutes 7 seconds 76 msec
