                         Program Version 3.0.3 - RELEASE   -
|  1> ! RI PBE def2-SVP def2-SVP/J NBO PAL2
|  2> % maxcore 2000
|  3> % output
|  4>     # printlevel mini
|  5>     print[ P_Basis ] 0
|  6>     print[ P_SCFInfo ] 1
|  7>     print[ P_SCFIterInfo ] 1
|  8>     print[ P_OrbEn ] 0
|  9>     print[ P_Cartesian ] 0
| 10> end
| 11> *xyz 0 1
| 12>  C        2.6491280000    -1.4193170000     0.4287430000
| 13>  N        2.4686410000    -0.0193640000     0.1565810000
| 14>  C        3.0175470000     0.9631910000     0.8964520000
| 15>  N        2.9054630000     2.2435050000     0.7219580000
| 16>  C        3.6602610000     2.7756250000     1.7516040000
| 17>  C        4.1882710000     1.7887330000     2.4946510000
| 18>  O        3.7742070000     0.5933080000     1.9437270000
| 19>  H        2.0998200000    -1.9903740000    -0.3183640000
| 20>  H        2.2687350000    -1.6938730000     1.4172790000
| 21>  H        3.7023550000    -1.7112690000     0.3764620000
| 22>  H        1.9091990000     0.2848100000    -0.6172510000
| 23>  H        3.7675140000     3.8409600000     1.8819330000
| 24>  H        4.8185700000     1.7277670000     3.3633150000
| 25> *
| 26>
| 27>                          ****END OF INPUT****
 Total Charge           Charge          ....    0
 Multiplicity           Mult            ....    1
 Number of Electrons    NEL             ....   52
 Basis Dimension        Dim             ....  128

MULLIKEN ATOMIC CHARGES
-----------------------
   0 C :    0.094828
   1 N :   -0.147719
   2 C :    0.083731
   3 N :   -0.161324
   4 C :    0.014634
   5 C :    0.083889
   6 O :   -0.200591
   7 H :    0.029341
   8 H :    0.034537
   9 H :    0.035168
  10 H :    0.133297
  11 H :   -0.002235
  12 H :    0.002445
Sum of atomic charges:    0.0000000

LOEWDIN ATOMIC CHARGES
----------------------
   0 C :    0.013731
   1 N :   -0.010355
   2 C :    0.026471
   3 N :   -0.165135
   4 C :   -0.043983
   5 C :   -0.026391
   6 O :   -0.003462
   7 H :    0.033051
   8 H :    0.024288
   9 H :    0.024101
  10 H :    0.086081
  11 H :    0.022354
  12 H :    0.019249

  Mayer bond orders larger than 0.1
B(  0-C ,  1-N ) :   1.0212 B(  0-C ,  7-H ) :   0.9715 B(  0-C ,  8-H ) :   0.9644
B(  0-C ,  9-H ) :   0.9652 B(  1-N ,  2-C ) :   1.2165 B(  1-N , 10-H ) :   0.9309
B(  2-C ,  3-N ) :   1.6436 B(  2-C ,  6-O ) :   1.1798 B(  3-N ,  4-C ) :   1.2911
B(  4-C ,  5-C ) :   1.6094 B(  4-C , 11-H ) :   0.9844 B(  5-C ,  6-O ) :   1.0517
B(  5-C , 12-H ) :   0.9895

FINAL SINGLE POINT ENERGY      -340.095251979528

DIPOLE MOMENT
-------------
                                X             Y             Z
Electronic contribution:      0.66885       3.87068       0.86040
Nuclear contribution   :     -0.75136      -4.76298      -0.95406
                        -----------------------------------------
Total Dipole Moment    :     -0.08251      -0.89230      -0.09365
                        -----------------------------------------
Magnitude (a.u.)       :      0.90099
Magnitude (Debye)      :      2.29013

                             ****ORCA TERMINATED NORMALLY****
TOTAL RUN TIME: 0 days 0 hours 0 minutes 6 seconds 74 msec
