                         Program Version 3.0.3 - RELEASE   -
|  1> ! RI PBE def2-SVP def2-SVP/J NBO PAL2
|  2> % maxcore 2000
|  3> % output
|  4>     # printlevel mini
|  5>     print[ P_Basis ] 0
|  6>     print[ P_SCFInfo ] 1
|  7>     print[ P_SCFIterInfo ] 1
|  8>     print[ P_OrbEn ] 0
|  9>     print[ P_Cartesian ] 0
| 10> end
| 11> *xyz 0 1
| 12>  C        1.0450720000     0.2309100000    -0.0530340000
| 13>  N        2.4839300000     0.2220810000    -0.0782890000
| 14>  C        3.0295800000     0.4164890000    -1.1969300000
| 15>  N        2.4791540000     0.6413160000    -2.4273910000
| 16>  C        3.4499950000     0.8151530000    -3.4686700000
| 17>  C        4.7561100000     0.6639770000    -2.6686930000
| 18>  O        4.3793090000     0.4257280000    -1.3204680000
| 19>  H        0.6983810000     0.0522620000     0.9655900000
| 20>  H        0.6018220000    -0.5543120000    -0.6855210000
| 21>  H        0.6180760000     1.1943090000    -0.3733420000
| 22>  H        1.4878540000     0.6734530000    -2.5649160000
| 23>  H        3.3776650000     1.7986780000    -3.9443230000
| 24>  H        3.3626160000     0.0529550000    -4.2498990000
| 25>  H        5.3679000000     1.5678610000    -2.7052160000
| 26>  H        5.3567260000    -0.1789600000    -3.0169090000
| 27> *
| 28>
| 29>                          ****END OF INPUT****
 Total Charge           Charge          ....    0
 Multiplicity           Mult            ....    1
 Number of Electrons    NEL             ....   54
 Basis Dimension        Dim             ....  138

MULLIKEN ATOMIC CHARGES
-----------------------
   0 C :    0.058839
   1 N :   -0.174876
   2 C :    0.104313
   3 N :   -0.245248
   4 C :    0.117379
   5 C :    0.147547
   6 O :   -0.263903
   7 H :    0.024455
   8 H :    0.001044
   9 H :   -0.001697
  10 H :    0.113485
  11 H :    0.023167
  12 H :    0.028937
  13 H :    0.033156
  14 H :    0.033402
Sum of atomic charges:    0.0000000

LOEWDIN ATOMIC CHARGES
----------------------
   0 C :   -0.015735
   1 N :   -0.190339
   2 C :    0.026890
   3 N :   -0.031802
   4 C :    0.017880
   5 C :    0.078046
   6 O :   -0.075860
   7 H :    0.023285
   8 H :    0.004833
   9 H :    0.004170
  10 H :    0.073194
  11 H :    0.019699
  12 H :    0.020512
  13 H :    0.022604
  14 H :    0.022625

  Mayer bond orders larger than 0.1
B(  0-C ,  1-N ) :   1.0497 B(  0-C ,  7-H ) :   0.9741 B(  0-C ,  8-H ) :   0.9475
B(  0-C ,  9-H ) :   0.9468 B(  1-N ,  2-C ) :   1.9024 B(  2-C ,  3-N ) :   1.1286
B(  2-C ,  6-O ) :   1.1003 B(  3-N ,  4-C ) :   1.0268 B(  3-N , 10-H ) :   0.9377
B(  4-C ,  5-C ) :   1.0911 B(  4-C , 11-H ) :   0.9382 B(  4-C , 12-H ) :   0.9399
B(  5-C ,  6-O ) :   1.0066 B(  5-C , 13-H ) :   0.9446 B(  5-C , 14-H ) :   0.9443

FINAL SINGLE POINT ENERGY      -341.281995943921

DIPOLE MOMENT
-------------
                                X             Y             Z
Electronic contribution:      3.16769      -0.32605       1.66919
Nuclear contribution   :     -3.50467       0.63994      -3.42295
                        -----------------------------------------
Total Dipole Moment    :     -0.33698       0.31389      -1.75376
                        -----------------------------------------
Magnitude (a.u.)       :      1.81322
Magnitude (Debye)      :      4.60883

                             ****ORCA TERMINATED NORMALLY****
TOTAL RUN TIME: 0 days 0 hours 0 minutes 6 seconds 371 msec
