                         Program Version 3.0.3 - RELEASE   -
|  1> ! RI PBE def2-SVP def2-SVP/J NBO PAL2
|  2> % maxcore 2000
|  3> % output
|  4>     # printlevel mini
|  5>     print[ P_Basis ] 0
|  6>     print[ P_SCFInfo ] 1
|  7>     print[ P_SCFIterInfo ] 1
|  8>     print[ P_OrbEn ] 0
|  9>     print[ P_Cartesian ] 0
| 10> end
| 11> *xyz 0 1
| 12>  C        1.1102260000     0.4596880000     0.2651000000
| 13>  N        2.2522320000    -0.1589850000    -0.3545170000
| 14>  C        2.9413640000     0.3705690000    -1.3845010000
| 15>  N        3.9548660000    -0.1424020000    -1.9604060000
| 16>  C        4.3440650000     0.7900050000    -3.0032580000
| 17>  C        3.3328150000     1.9494790000    -2.8971960000
| 18>  O        2.4722560000     1.5673070000    -1.8153220000
| 19>  H        0.7602350000    -0.1910750000     1.0657360000
| 20>  H        0.2884560000     0.6023680000    -0.4420310000
| 21>  H        1.3575040000     1.4321270000     0.6997370000
| 22>  H        2.5888110000    -1.0444140000    -0.0265850000
| 23>  H        4.3089250000     0.3086850000    -3.9862620000
| 24>  H        5.3729820000     1.1330280000    -2.8522150000
| 25>  H        2.7191740000     2.0762340000    -3.7913700000
| 26>  H        3.7923790000     2.9070860000    -2.6442000000
| 27> *
| 28>
| 29>                          ****END OF INPUT****
 Total Charge           Charge          ....    0
 Multiplicity           Mult            ....    1
 Number of Electrons    NEL             ....   54
 Basis Dimension        Dim             ....  138

MULLIKEN ATOMIC CHARGES
-----------------------
   0 C :    0.096264
   1 N :   -0.152331
   2 C :    0.061869
   3 N :   -0.237160
   4 C :    0.078991
   5 C :    0.163756
   6 O :   -0.300191
   7 H :    0.024986
   8 H :    0.033716
   9 H :    0.032496
  10 H :    0.127544
  11 H :    0.013511
  12 H :    0.013848
  13 H :    0.022380
  14 H :    0.020319
Sum of atomic charges:    0.0000000

LOEWDIN ATOMIC CHARGES
----------------------
   0 C :    0.011589
   1 N :   -0.012636
   2 C :    0.022788
   3 N :   -0.218783
   4 C :   -0.000526
   5 C :    0.068111
   6 O :   -0.101703
   7 H :    0.030324
   8 H :    0.023730
   9 H :    0.023765
  10 H :    0.082674
  11 H :    0.017641
  12 H :    0.017968
  13 H :    0.017670
  14 H :    0.017389

  Mayer bond orders larger than 0.1
B(  0-C ,  1-N ) :   1.0229 B(  0-C ,  7-H ) :   0.9712 B(  0-C ,  8-H ) :   0.9663
B(  0-C ,  9-H ) :   0.9661 B(  1-N ,  2-C ) :   1.2189 B(  1-N , 10-H ) :   0.9345
B(  2-C ,  3-N ) :   1.7777 B(  2-C ,  6-O ) :   1.1302 B(  3-N ,  4-C ) :   1.0862
B(  4-C ,  5-C ) :   1.0740 B(  4-C , 11-H ) :   0.9352 B(  4-C , 12-H ) :   0.9355
B(  5-C ,  6-O ) :   0.9638 B(  5-C , 13-H ) :   0.9474 B(  5-C , 14-H ) :   0.9482

FINAL SINGLE POINT ENERGY      -341.290931456480

DIPOLE MOMENT
-------------
                                X             Y             Z
Electronic contribution:      1.26074      -1.16949      -0.32937
Nuclear contribution   :     -1.76896       1.45735       0.59786
                        -----------------------------------------
Total Dipole Moment    :     -0.50822       0.28787       0.26849
                        -----------------------------------------
Magnitude (a.u.)       :      0.64285
Magnitude (Debye)      :      1.63398

                             ****ORCA TERMINATED NORMALLY****
TOTAL RUN TIME: 0 days 0 hours 0 minutes 6 seconds 749 msec
