                         Program Version 3.0.3 - RELEASE   -
|  1> ! RI PBE def2-SVP def2-SVP/J NBO PAL2
|  2> % maxcore 2000
|  3> % output
|  4>     # printlevel mini
|  5>     print[ P_Basis ] 0
|  6>     print[ P_SCFInfo ] 1
|  7>     print[ P_SCFIterInfo ] 1
|  8>     print[ P_OrbEn ] 0
|  9>     print[ P_Cartesian ] 0
| 10> end
| 11> *xyz 0 1
| 12>  C        0.9281600000     0.0717960000    -0.0086560000
| 13>  N        2.3685980000    -0.0024580000     0.0130860000
| 14>  C        3.0159400000     0.9293590000    -0.5303320000
| 15>  N        4.3819790000     1.0472040000    -0.6176100000
| 16>  C        4.7083310000     2.2100040000    -1.2887460000
| 17>  C        3.5587510000     2.8016280000    -1.6112070000
| 18>  O        2.5043320000     2.0399170000    -1.1594370000
| 19>  H        0.5198470000    -0.8027620000     0.4991270000
| 20>  H        0.5249930000     0.0867680000    -1.0292470000
| 21>  H        0.5471220000     0.9654350000     0.5018240000
| 22>  H        5.0052560000     0.3629030000    -0.2344070000
| 23>  H        5.7238590000     2.5125110000    -1.4767870000
| 24>  H        3.3218320000     3.7128050000    -2.1299980000
| 25> *
| 26>
| 27>                          ****END OF INPUT****
 Total Charge           Charge          ....    0
 Multiplicity           Mult            ....    1
 Number of Electrons    NEL             ....   52
 Basis Dimension        Dim             ....  128

MULLIKEN ATOMIC CHARGES
-----------------------
   0 C :    0.088355
   1 N :   -0.198222
   2 C :    0.088132
   3 N :   -0.104974
   4 C :    0.062415
   5 C :    0.095546
   6 O :   -0.229413
   7 H :    0.016789
   8 H :    0.007976
   9 H :    0.010019
  10 H :    0.129854
  11 H :    0.016633
  12 H :    0.016890
Sum of atomic charges:   -0.0000000

LOEWDIN ATOMIC CHARGES
----------------------
   0 C :   -0.008117
   1 N :   -0.198867
   2 C :    0.033028
   3 N :    0.044090
   4 C :   -0.030293
   5 C :   -0.000936
   6 O :   -0.032263
   7 H :    0.018589
   8 H :    0.013111
   9 H :    0.013511
  10 H :    0.089516
  11 H :    0.032516
  12 H :    0.026115

  Mayer bond orders larger than 0.1
B(  0-C ,  1-N ) :   1.0360 B(  0-C ,  7-H ) :   0.9769 B(  0-C ,  8-H ) :   0.9564
B(  0-C ,  9-H ) :   0.9567 B(  1-N ,  2-C ) :   1.9105 B(  2-C ,  3-N ) :   1.1137
B(  2-C ,  6-O ) :   1.0472 B(  3-N ,  4-C ) :   1.1189 B(  3-N , 10-H ) :   0.9359
B(  4-C ,  5-C ) :   1.6714 B(  4-C , 11-H ) :   0.9824 B(  5-C ,  6-O ) :   1.0629
B(  5-C , 12-H ) :   0.9950

FINAL SINGLE POINT ENERGY      -340.080596650080

DIPOLE MOMENT
-------------
                                X             Y             Z
Electronic contribution:      3.34715       1.42503      -0.86213
Nuclear contribution   :     -2.37271      -0.83394       0.51226
                        -----------------------------------------
Total Dipole Moment    :      0.97444       0.59109      -0.34987
                        -----------------------------------------
Magnitude (a.u.)       :      1.19219
Magnitude (Debye)      :      3.03032

                             ****ORCA TERMINATED NORMALLY****
TOTAL RUN TIME: 0 days 0 hours 0 minutes 6 seconds 143 msec
