                         Program Version 3.0.3 - RELEASE   -
|  1> ! RI PBE def2-SVP def2-SVP/J NBO PAL2
|  2> % maxcore 2000
|  3> % output
|  4>     # printlevel mini
|  5>     print[ P_Basis ] 0
|  6>     print[ P_SCFInfo ] 1
|  7>     print[ P_SCFIterInfo ] 1
|  8>     print[ P_OrbEn ] 0
|  9>     print[ P_Cartesian ] 0
| 10> end
| 11> *xyz 0 1
| 12>  C        1.0288460000    -0.0223100000     0.2174500000
| 13>  N        2.4641020000     0.1410440000     0.2185820000
| 14>  C        3.0101470000     0.4130260000    -1.0930560000
| 15>  C        4.5073090000     0.4767540000    -1.0505010000
| 16>  C        5.3263060000    -0.7901700000    -1.1259610000
| 17>  C        5.3177910000     0.1906380000    -2.2586480000
| 18>  O        6.4249650000     1.0077920000    -2.4707990000
| 19>  H        0.6835180000    -0.2792720000     1.2207600000
| 20>  H        0.6644340000    -0.7945870000    -0.4818490000
| 21>  H        0.5529360000     0.9220740000    -0.0623610000
| 22>  H        2.9119230000    -0.6828190000     0.6009900000
| 23>  H        2.6089820000     1.3746530000    -1.4356920000
| 24>  H        2.6992710000    -0.3377650000    -1.8451250000
| 25>  H        4.9177760000     1.2476780000    -0.4070420000
| 26>  H        4.8092070000    -1.7337100000    -1.2645270000
| 27>  H        6.2242080000    -0.8385930000    -0.5223780000
| 28>  H        4.7814450000    -0.0974620000    -3.1614970000
| 29>  H        7.1207430000     0.4737290000    -2.8634670000
| 30> *
| 31>
| 32>                          ****END OF INPUT****
 Total Charge           Charge          ....    0
 Multiplicity           Mult            ....    1
 Number of Electrons    NEL             ....   56
 Basis Dimension        Dim             ....  153

MULLIKEN ATOMIC CHARGES
-----------------------
   0 C :    0.072970
   1 N :   -0.273246
   2 C :    0.218321
   3 C :   -0.163072
   4 C :   -0.024378
   5 C :    0.055416
   6 O :   -0.235145
   7 H :    0.019107
   8 H :   -0.009030
   9 H :    0.017069
  10 H :    0.096493
  11 H :    0.004480
  12 H :   -0.037063
  13 H :    0.037688
  14 H :    0.023006
  15 H :    0.030030
  16 H :    0.008271
  17 H :    0.159084
Sum of atomic charges:   -0.0000000

LOEWDIN ATOMIC CHARGES
----------------------
   0 C :   -0.006780
   1 N :   -0.105362
   2 C :    0.021088
   3 C :   -0.052163
   4 C :   -0.070930
   5 C :    0.034837
   6 O :   -0.098252
   7 H :    0.022217
   8 H :   -0.003702
   9 H :    0.021011
  10 H :    0.052662
  11 H :    0.023057
  12 H :   -0.005858
  13 H :    0.035746
  14 H :    0.022997
  15 H :    0.029318
  16 H :    0.006561
  17 H :    0.073553

  Mayer bond orders larger than 0.1
B(  0-C ,  1-N ) :   1.0632 B(  0-C ,  7-H ) :   0.9729 B(  0-C ,  8-H ) :   0.9439
B(  0-C ,  9-H ) :   0.9678 B(  1-N ,  2-C ) :   1.0441 B(  1-N , 10-H ) :   0.9449
B(  2-C ,  3-C ) :   1.0700 B(  2-C , 11-H ) :   0.9207 B(  2-C , 12-H ) :   0.8966
B(  3-C ,  4-C ) :   0.9863 B(  3-C ,  5-C ) :   0.9209 B(  3-C , 13-H ) :   0.9392
B(  4-C ,  5-C ) :   0.9931 B(  4-C , 14-H ) :   0.9332 B(  4-C , 15-H ) :   0.9329
B(  5-C ,  6-O ) :   1.1401 B(  5-C , 16-H ) :   0.9385 B(  6-O , 17-H ) :   0.9810

FINAL SINGLE POINT ENERGY      -326.418732005059

DIPOLE MOMENT
-------------
                                X             Y             Z
Electronic contribution:      5.85786       2.00896      -1.92466
Nuclear contribution   :     -5.77752      -2.78663       1.67671
                        -----------------------------------------
Total Dipole Moment    :      0.08034      -0.77767      -0.24795
                        -----------------------------------------
Magnitude (a.u.)       :      0.82018
Magnitude (Debye)      :      2.08474

                             ****ORCA TERMINATED NORMALLY****
TOTAL RUN TIME: 0 days 0 hours 0 minutes 7 seconds 761 msec
