                         Program Version 3.0.3 - RELEASE   -
|  1> ! RI PBE def2-SVP def2-SVP/J NBO PAL2
|  2> % maxcore 2000
|  3> % output
|  4>     # printlevel mini
|  5>     print[ P_Basis ] 0
|  6>     print[ P_SCFInfo ] 1
|  7>     print[ P_SCFIterInfo ] 1
|  8>     print[ P_OrbEn ] 0
|  9>     print[ P_Cartesian ] 0
| 10> end
| 11> *xyz 0 1
| 12>  C        0.8990720000    -0.0539590000    -0.2531670000
| 13>  N        2.3199500000     0.0591180000    -0.0260750000
| 14>  C        2.9478780000    -1.2259150000     0.1502450000
| 15>  C        2.9257260000     0.9573640000    -0.9630220000
| 16>  C        4.3466090000     0.8656470000    -1.4261820000
| 17>  C        3.2408510000     0.6286090000    -2.3994920000
| 18>  O        3.0640140000     1.5935360000    -3.3900300000
| 19>  H        0.4343750000    -0.6043770000     0.5685460000
| 20>  H        0.6473870000    -0.5725280000    -1.1959460000
| 21>  H        0.4505240000     0.9421500000    -0.2872770000
| 22>  H        2.4344880000    -1.7587130000     0.9540540000
| 23>  H        3.9888690000    -1.1043710000     0.4506710000
| 24>  H        2.9156500000    -1.8733900000    -0.7444690000
| 25>  H        2.5758220000     1.9788040000    -0.8286520000
| 26>  H        4.9543020000     0.0153360000    -1.1461980000
| 27>  H        4.8864530000     1.7997420000    -1.5170480000
| 28>  H        3.1014010000    -0.4004200000    -2.7256630000
| 29>  H        2.1226390000     1.6787670000    -3.5630950000
| 30> *
| 31>
| 32>                          ****END OF INPUT****
 Total Charge           Charge          ....    0
 Multiplicity           Mult            ....    1
 Number of Electrons    NEL             ....   56
 Basis Dimension        Dim             ....  153

MULLIKEN ATOMIC CHARGES
-----------------------
   0 C :    0.108724
   1 N :   -0.279613
   2 C :    0.085266
   3 C :   -0.019269
   4 C :   -0.009918
   5 C :    0.033672
   6 O :   -0.237074
   7 H :    0.021238
   8 H :   -0.016923
   9 H :    0.014588
  10 H :    0.018079
  11 H :    0.029049
  12 H :   -0.002749
  13 H :    0.012820
  14 H :    0.037058
  15 H :    0.038380
  16 H :    0.009678
  17 H :    0.156995
Sum of atomic charges:   -0.0000000

LOEWDIN ATOMIC CHARGES
----------------------
   0 C :    0.006138
   1 N :   -0.099689
   2 C :    0.001640
   3 C :   -0.015545
   4 C :   -0.052340
   5 C :    0.012450
   6 O :   -0.101043
   7 H :    0.021390
   8 H :   -0.005436
   9 H :    0.021402
  10 H :    0.024589
  11 H :    0.024223
  12 H :   -0.002851
  13 H :    0.021446
  14 H :    0.028529
  15 H :    0.036082
  16 H :    0.005566
  17 H :    0.073449

  Mayer bond orders larger than 0.1
B(  0-C ,  1-N ) :   1.0364 B(  0-C ,  7-H ) :   0.9678 B(  0-C ,  8-H ) :   0.9392
B(  0-C ,  9-H ) :   0.9621 B(  1-N ,  2-C ) :   1.0442 B(  1-N ,  3-C ) :   1.0620
B(  2-C , 10-H ) :   0.9624 B(  2-C , 11-H ) :   0.9608 B(  2-C , 12-H ) :   0.9393
B(  3-C ,  4-C ) :   1.0066 B(  3-C ,  5-C ) :   0.8998 B(  3-C , 13-H ) :   0.9292
B(  4-C ,  5-C ) :   0.9786 B(  4-C , 14-H ) :   0.9355 B(  4-C , 15-H ) :   0.9248
B(  5-C ,  6-O ) :   1.1309 B(  5-C , 16-H ) :   0.9376 B(  6-O , 17-H ) :   0.9833

FINAL SINGLE POINT ENERGY      -326.408425589957

DIPOLE MOMENT
-------------
                                X             Y             Z
Electronic contribution:      1.58497       3.69162      -3.07066
Nuclear contribution   :     -2.09621      -4.02144       3.15720
                        -----------------------------------------
Total Dipole Moment    :     -0.51124      -0.32982       0.08654
                        -----------------------------------------
Magnitude (a.u.)       :      0.61452
Magnitude (Debye)      :      1.56198

                             ****ORCA TERMINATED NORMALLY****
TOTAL RUN TIME: 0 days 0 hours 0 minutes 8 seconds 25 msec
