                         Program Version 3.0.3 - RELEASE   -
|  1> ! RI PBE def2-SVP def2-SVP/J NBO PAL2
|  2> % maxcore 2000
|  3> % output
|  4>     # printlevel mini
|  5>     print[ P_Basis ] 0
|  6>     print[ P_SCFInfo ] 1
|  7>     print[ P_SCFIterInfo ] 1
|  8>     print[ P_OrbEn ] 0
|  9>     print[ P_Cartesian ] 0
| 10> end
| 11> *xyz 0 1
| 12>  C        1.9256240000    -0.6858670000     0.0525530000
| 13>  N        3.2133140000    -0.3885610000     0.6361020000
| 14>  C        3.8441740000     0.7769210000     0.0663040000
| 15>  C        5.1970600000     1.0306400000     0.6827680000
| 16>  C        5.3222840000     1.0540260000     2.2107050000
| 17>  C        6.3587060000    -0.0485830000     1.9984060000
| 18>  O        6.0584700000    -0.1242010000     0.5953040000
| 19>  H        1.5324970000    -1.6121180000     0.4762130000
| 20>  H        1.9447300000    -0.7905140000    -1.0454340000
| 21>  H        1.2175950000     0.1126320000     0.2932450000
| 22>  H        3.8424260000    -1.1739640000     0.5202850000
| 23>  H        3.2130130000     1.6554060000     0.2518350000
| 24>  H        3.9678360000     0.7042080000    -1.0302720000
| 25>  H        5.6622600000     1.8942770000     0.1900640000
| 26>  H        4.4162120000     0.7180250000     2.7121360000
| 27>  H        5.6807270000     1.9833380000     2.6509730000
| 28>  H        6.1766800000    -1.0006910000     2.5048880000
| 29>  H        7.3976030000     0.2558040000     2.1669340000
| 30> *
| 31>
| 32>                          ****END OF INPUT****
 Total Charge           Charge          ....    0
 Multiplicity           Mult            ....    1
 Number of Electrons    NEL             ....   56
 Basis Dimension        Dim             ....  153

MULLIKEN ATOMIC CHARGES
-----------------------
   0 C :    0.074107
   1 N :   -0.285480
   2 C :    0.168211
   3 C :    0.029427
   4 C :   -0.007153
   5 C :    0.185443
   6 O :   -0.362751
   7 H :    0.018775
   8 H :   -0.002772
   9 H :    0.015889
  10 H :    0.103767
  11 H :    0.006888
  12 H :   -0.003029
  13 H :   -0.002355
  14 H :    0.016604
  15 H :    0.019217
  16 H :    0.015502
  17 H :    0.009710
Sum of atomic charges:   -0.0000000

LOEWDIN ATOMIC CHARGES
----------------------
   0 C :   -0.006299
   1 N :   -0.103441
   2 C :   -0.001002
   3 C :    0.062087
   4 C :   -0.052311
   5 C :    0.084936
   6 O :   -0.187548
   7 H :    0.022698
   8 H :   -0.000360
   9 H :    0.020160
  10 H :    0.052154
  11 H :    0.025926
  12 H :    0.006162
  13 H :    0.010809
  14 H :    0.026709
  15 H :    0.022051
  16 H :    0.009197
  17 H :    0.008074

  Mayer bond orders larger than 0.1
B(  0-C ,  1-N ) :   1.0698 B(  0-C ,  7-H ) :   0.9716 B(  0-C ,  8-H ) :   0.9439
B(  0-C ,  9-H ) :   0.9677 B(  1-N ,  2-C ) :   1.0304 B(  1-N , 10-H ) :   0.9345
B(  2-C ,  3-C ) :   1.0468 B(  2-C , 11-H ) :   0.9188 B(  2-C , 12-H ) :   0.9029
B(  3-C ,  4-C ) :   1.0788 B(  3-C ,  6-O ) :   1.0434 B(  3-C , 13-H ) :   0.9063
B(  4-C ,  5-C ) :   1.1186 B(  4-C , 14-H ) :   0.9106 B(  4-C , 15-H ) :   0.9417
B(  5-C ,  6-O ) :   1.0125 B(  5-C , 16-H ) :   0.9428 B(  5-C , 17-H ) :   0.9366

FINAL SINGLE POINT ENERGY      -326.421300105906

DIPOLE MOMENT
-------------
                                X             Y             Z
Electronic contribution:      4.38847      -0.22302       0.10507
Nuclear contribution   :     -4.58712       0.43733       0.06850
                        -----------------------------------------
Total Dipole Moment    :     -0.19865       0.21431       0.17357
                        -----------------------------------------
Magnitude (a.u.)       :      0.33987
Magnitude (Debye)      :      0.86389

                             ****ORCA TERMINATED NORMALLY****
TOTAL RUN TIME: 0 days 0 hours 0 minutes 7 seconds 619 msec
