                         Program Version 3.0.3 - RELEASE   -
|  1> ! RI PBE def2-SVP def2-SVP/J NBO PAL2
|  2> % maxcore 2000
|  3> % output
|  4>     # printlevel mini
|  5>     print[ P_Basis ] 0
|  6>     print[ P_SCFInfo ] 1
|  7>     print[ P_SCFIterInfo ] 1
|  8>     print[ P_OrbEn ] 0
|  9>     print[ P_Cartesian ] 0
| 10> end
| 11> *xyz 0 1
| 12>  C        1.0167010000    -0.1580600000     0.3350590000
| 13>  N        2.2571020000    -0.3020280000    -0.3928030000
| 14>  C        2.6935780000    -1.6758510000    -0.5044100000
| 15>  C        3.9818650000    -1.7630330000    -1.2803890000
| 16>  C        3.9410090000    -1.3052460000    -2.7090270000
| 17>  C        5.0085870000    -2.7024700000    -0.8382290000
| 18>  O        5.1221550000    -1.3217060000    -0.5340570000
| 19>  H        0.7716140000     0.9003600000     0.4416460000
| 20>  H        1.0313580000    -0.6115570000     1.3405210000
| 21>  H        0.2049200000    -0.6295250000    -0.2264720000
| 22>  H        2.9889340000     0.2324650000     0.0604580000
| 23>  H        1.9173920000    -2.2432160000    -1.0323040000
| 24>  H        2.8362320000    -2.1614640000     0.4765690000
| 25>  H        3.5464030000    -0.2895190000    -2.7661110000
| 26>  H        3.2882130000    -1.9538980000    -3.2995230000
| 27>  H        4.9408900000    -1.3258040000    -3.1442220000
| 28>  H        5.7297310000    -3.0781660000    -1.5610080000
| 29>  H        4.8196040000    -3.3531900000     0.0131010000
| 30> *
| 31>
| 32>                          ****END OF INPUT****
 Total Charge           Charge          ....    0
 Multiplicity           Mult            ....    1
 Number of Electrons    NEL             ....   56
 Basis Dimension        Dim             ....  153

MULLIKEN ATOMIC CHARGES
-----------------------
   0 C :    0.077917
   1 N :   -0.274441
   2 C :    0.229647
   3 C :   -0.243687
   4 C :    0.129748
   5 C :    0.175745
   6 O :   -0.298208
   7 H :    0.024323
   8 H :   -0.008244
   9 H :    0.013852
  10 H :    0.108089
  11 H :    0.006113
  12 H :   -0.033919
  13 H :    0.024582
  14 H :    0.018262
  15 H :    0.011266
  16 H :    0.017821
  17 H :    0.021134
Sum of atomic charges:   -0.0000000

LOEWDIN ATOMIC CHARGES
----------------------
   0 C :   -0.005632
   1 N :   -0.100091
   2 C :    0.013848
   3 C :    0.002814
   4 C :   -0.057320
   5 C :    0.057979
   6 O :   -0.162945
   7 H :    0.023853
   8 H :   -0.001518
   9 H :    0.020504
  10 H :    0.058214
  11 H :    0.024943
  12 H :    0.002090
  13 H :    0.033051
  14 H :    0.033861
  15 H :    0.031033
  16 H :    0.012996
  17 H :    0.012320

  Mayer bond orders larger than 0.1
B(  0-C ,  1-N ) :   1.0686 B(  0-C ,  7-H ) :   0.9725 B(  0-C ,  8-H ) :   0.9425
B(  0-C ,  9-H ) :   0.9670 B(  1-N ,  2-C ) :   1.0528 B(  1-N , 10-H ) :   0.9384
B(  2-C ,  3-C ) :   1.0396 B(  2-C , 11-H ) :   0.9188 B(  2-C , 12-H ) :   0.8825
B(  3-C ,  4-C ) :   1.0722 B(  3-C ,  5-C ) :   1.0866 B(  3-C ,  6-O ) :   0.9277
B(  4-C , 13-H ) :   0.9398 B(  4-C , 14-H ) :   0.9476 B(  4-C , 15-H ) :   0.9361
B(  5-C ,  6-O ) :   1.0125 B(  5-C , 16-H ) :   0.9267 B(  5-C , 17-H ) :   0.9173

FINAL SINGLE POINT ENERGY      -326.422546739983

DIPOLE MOMENT
-------------
                                X             Y             Z
Electronic contribution:      4.81530      -0.20951       0.53793
Nuclear contribution   :     -5.16790      -0.21027      -0.53708
                        -----------------------------------------
Total Dipole Moment    :     -0.35259      -0.41978       0.00085
                        -----------------------------------------
Magnitude (a.u.)       :      0.54822
Magnitude (Debye)      :      1.39346

                             ****ORCA TERMINATED NORMALLY****
TOTAL RUN TIME: 0 days 0 hours 0 minutes 7 seconds 623 msec
