                         Program Version 3.0.3 - RELEASE   -
|  1> ! RI PBE def2-SVP def2-SVP/J NBO PAL2
|  2> % maxcore 2000
|  3> % output
|  4>     # printlevel mini
|  5>     print[ P_Basis ] 0
|  6>     print[ P_SCFInfo ] 1
|  7>     print[ P_SCFIterInfo ] 1
|  8>     print[ P_OrbEn ] 0
|  9>     print[ P_Cartesian ] 0
| 10> end
| 11> *xyz 0 1
| 12>  C        1.1712100000    -0.0978310000    -0.1445710000
| 13>  N        2.5780390000    -0.4113120000    -0.2622480000
| 14>  C        3.3845120000     0.1672310000     0.7890220000
| 15>  C        4.8369780000    -0.2147970000     0.6359770000
| 16>  C        5.7367920000     0.0965090000     1.8371610000
| 17>  O        5.9293780000    -1.2949320000     2.1167820000
| 18>  C        5.1805040000    -1.6741910000     0.9507120000
| 19>  H        0.6263730000    -0.5150370000    -0.9935360000
| 20>  H        0.9556680000     0.9825000000    -0.0920580000
| 21>  H        0.7698880000    -0.5574130000     0.7629330000
| 22>  H        2.9247930000    -0.1044550000    -1.1630460000
| 23>  H        3.0153650000    -0.2157350000     1.7488390000
| 24>  H        3.2972540000     1.2692430000     0.8419720000
| 25>  H        5.2259750000     0.1435140000    -0.3208710000
| 26>  H        5.2504770000     0.6196880000     2.6688530000
| 27>  H        6.6814880000     0.5992280000     1.6029360000
| 28>  H        4.3250500000    -2.3115400000     1.1941750000
| 29>  H        5.8116460000    -2.1827600000     0.2144580000
| 30> *
| 31>
| 32>                          ****END OF INPUT****
 Total Charge           Charge          ....    0
 Multiplicity           Mult            ....    1
 Number of Electrons    NEL             ....   56
 Basis Dimension        Dim             ....  153

MULLIKEN ATOMIC CHARGES
-----------------------
   0 C :    0.073988
   1 N :   -0.273013
   2 C :    0.175947
   3 C :   -0.290536
   4 C :    0.264055
   5 O :   -0.369585
   6 C :    0.264401
   7 H :    0.022800
   8 H :   -0.005227
   9 H :    0.019380
  10 H :    0.097878
  11 H :   -0.001461
  12 H :   -0.010695
  13 H :    0.007126
  14 H :    0.002601
  15 H :    0.006520
  16 H :    0.009294
  17 H :    0.006528
Sum of atomic charges:    0.0000000

LOEWDIN ATOMIC CHARGES
----------------------
   0 C :   -0.005172
   1 N :   -0.105090
   2 C :    0.013588
   3 C :   -0.063461
   4 C :    0.088541
   5 O :   -0.189680
   6 C :    0.089362
   7 H :    0.023526
   8 H :   -0.001313
   9 H :    0.022511
  10 H :    0.053277
  11 H :    0.020565
  12 H :   -0.001511
  13 H :    0.019926
  14 H :    0.007623
  15 H :    0.008135
  16 H :    0.010749
  17 H :    0.008424

  Mayer bond orders larger than 0.1
B(  0-C ,  1-N ) :   1.0626 B(  0-C ,  7-H ) :   0.9726 B(  0-C ,  8-H ) :   0.9450
B(  0-C ,  9-H ) :   0.9684 B(  1-N ,  2-C ) :   1.0353 B(  1-N , 10-H ) :   0.9444
B(  2-C ,  3-C ) :   1.0287 B(  2-C , 11-H ) :   0.9161 B(  2-C , 12-H ) :   0.9076
B(  3-C ,  4-C ) :   1.0793 B(  3-C ,  6-C ) :   1.0861 B(  3-C , 13-H ) :   0.9189
B(  4-C ,  5-O ) :   1.0415 B(  4-C , 14-H ) :   0.9278 B(  4-C , 15-H ) :   0.9277
B(  5-O ,  6-C ) :   1.0329 B(  6-C , 16-H ) :   0.9269 B(  6-C , 17-H ) :   0.9303

FINAL SINGLE POINT ENERGY      -326.412706734407

DIPOLE MOMENT
-------------
                                X             Y             Z
Electronic contribution:      5.31410      -2.24731       1.99619
Nuclear contribution   :     -5.75194       2.90310      -2.65317
                        -----------------------------------------
Total Dipole Moment    :     -0.43784       0.65579      -0.65698
                        -----------------------------------------
Magnitude (a.u.)       :      1.02635
Magnitude (Debye)      :      2.60877

                             ****ORCA TERMINATED NORMALLY****
TOTAL RUN TIME: 0 days 0 hours 0 minutes 7 seconds 558 msec
