                         Program Version 3.0.3 - RELEASE   -
|  1> ! RI PBE def2-SVP def2-SVP/J NBO PAL2
|  2> % maxcore 2000
|  3> % output
|  4>     # printlevel mini
|  5>     print[ P_Basis ] 0
|  6>     print[ P_SCFInfo ] 1
|  7>     print[ P_SCFIterInfo ] 1
|  8>     print[ P_OrbEn ] 0
|  9>     print[ P_Cartesian ] 0
| 10> end
| 11> *xyz 0 1
| 12>  C        0.8822360000     0.0810730000    -0.2231740000
| 13>  N        2.3185720000     0.1923080000    -0.1226260000
| 14>  C        2.8623060000     0.9730080000    -1.2094170000
| 15>  C        2.7603730000     0.5566580000     1.1939760000
| 16>  C        4.2576510000     0.4947400000     1.5143940000
| 17>  O        4.2337060000     1.8075920000     2.0882980000
| 18>  C        2.8799400000     2.0265350000     1.6717790000
| 19>  H        0.6144690000    -0.3446470000    -1.1934250000
| 20>  H        0.3589910000     1.0493530000    -0.1290420000
| 21>  H        0.5041480000    -0.5863810000     0.5544750000
| 22>  H        2.6383840000     0.4744950000    -2.1557050000
| 23>  H        3.9467320000     1.0523910000    -1.1263610000
| 24>  H        2.4498060000     1.9945740000    -1.2658870000
| 25>  H        2.1814780000    -0.0376530000     1.9035250000
| 26>  H        4.9131250000     0.4404700000     0.6386420000
| 27>  H        4.5686640000    -0.2661990000     2.2361780000
| 28>  H        2.8161930000     2.7800120000     0.8785430000
| 29>  H        2.2391240000     2.3288600000     2.5054270000
| 30> *
| 31>
| 32>                          ****END OF INPUT****
 Total Charge           Charge          ....    0
 Multiplicity           Mult            ....    1
 Number of Electrons    NEL             ....   56
 Basis Dimension        Dim             ....  153

MULLIKEN ATOMIC CHARGES
-----------------------
   0 C :    0.101754
   1 N :   -0.293938
   2 C :    0.085673
   3 C :   -0.152824
   4 C :    0.259158
   5 O :   -0.363117
   6 C :    0.244283
   7 H :    0.018952
   8 H :   -0.007095
   9 H :    0.022158
  10 H :    0.022131
  11 H :    0.028814
  12 H :   -0.003417
  13 H :    0.015208
  14 H :    0.004091
  15 H :    0.011165
  16 H :   -0.002313
  17 H :    0.009316
Sum of atomic charges:   -0.0000000

LOEWDIN ATOMIC CHARGES
----------------------
   0 C :    0.005939
   1 N :   -0.103783
   2 C :    0.001912
   3 C :   -0.012370
   4 C :    0.079258
   5 O :   -0.183429
   6 C :    0.063145
   7 H :    0.022446
   8 H :   -0.000816
   9 H :    0.022556
  10 H :    0.024387
  11 H :    0.023002
  12 H :   -0.000420
  13 H :    0.026401
  14 H :    0.006517
  15 H :    0.010859
  16 H :    0.006418
  17 H :    0.007980

  Mayer bond orders larger than 0.1
B(  0-C ,  1-N ) :   1.0341 B(  0-C ,  7-H ) :   0.9662 B(  0-C ,  8-H ) :   0.9440
B(  0-C ,  9-H ) :   0.9647 B(  1-N ,  2-C ) :   1.0371 B(  1-N ,  3-C ) :   1.0597
B(  2-C , 10-H ) :   0.9643 B(  2-C , 11-H ) :   0.9638 B(  2-C , 12-H ) :   0.9376
B(  3-C ,  4-C ) :   1.0800 B(  3-C ,  6-C ) :   1.0535 B(  3-C , 13-H ) :   0.9080
B(  4-C ,  5-O ) :   1.0473 B(  4-C , 14-H ) :   0.9129 B(  4-C , 15-H ) :   0.9321
B(  5-O ,  6-C ) :   1.0455 B(  6-C , 16-H ) :   0.9150 B(  6-C , 17-H ) :   0.9320

FINAL SINGLE POINT ENERGY      -326.405682884327

DIPOLE MOMENT
-------------
                                X             Y             Z
Electronic contribution:      3.58579       0.59790       4.06426
Nuclear contribution   :     -4.17851      -0.85713      -4.45179
                        -----------------------------------------
Total Dipole Moment    :     -0.59272      -0.25922      -0.38753
                        -----------------------------------------
Magnitude (a.u.)       :      0.75411
Magnitude (Debye)      :      1.91680

                             ****ORCA TERMINATED NORMALLY****
TOTAL RUN TIME: 0 days 0 hours 0 minutes 7 seconds 787 msec
