                         Program Version 3.0.3 - RELEASE   -
|  1> ! RI PBE def2-SVP def2-SVP/J NBO PAL2
|  2> % maxcore 2000
|  3> % output
|  4>     # printlevel mini
|  5>     print[ P_Basis ] 0
|  6>     print[ P_SCFInfo ] 1
|  7>     print[ P_SCFIterInfo ] 1
|  8>     print[ P_OrbEn ] 0
|  9>     print[ P_Cartesian ] 0
| 10> end
| 11> *xyz 0 1
| 12>  C        2.0207690000    -1.1941040000     0.3387150000
| 13>  N        3.2945360000    -0.5617000000     0.0804030000
| 14>  C        3.3415710000     0.8187350000     0.5073910000
| 15>  C        4.6727740000     1.4182350000     0.1804650000
| 16>  O        4.8767280000     1.7700720000    -1.1877580000
| 17>  C        4.8315840000     2.8119320000    -0.2200280000
| 18>  C        6.0981870000     3.5749580000     0.0067560000
| 19>  H        2.0269680000    -2.2121810000    -0.0551520000
| 20>  H        1.1585220000    -0.6609300000    -0.0961500000
| 21>  H        1.8564550000    -1.2594460000     1.4182640000
| 22>  H        3.5088900000    -0.6035240000    -0.9087690000
| 23>  H        3.1940230000     0.8506920000     1.5941070000
| 24>  H        2.5478130000     1.4399520000     0.0553960000
| 25>  H        5.5277370000     0.9158870000     0.6323320000
| 26>  H        3.9247190000     3.4148170000    -0.2794590000
| 27>  H        6.9510750000     2.8968270000     0.0652430000
| 28>  H        6.0395110000     4.1458890000     0.9372600000
| 29>  H        6.2744390000     4.2792780000    -0.8100160000
| 30> *
| 31>
| 32>                          ****END OF INPUT****
 Total Charge           Charge          ....    0
 Multiplicity           Mult            ....    1
 Number of Electrons    NEL             ....   56
 Basis Dimension        Dim             ....  153

MULLIKEN ATOMIC CHARGES
-----------------------
   0 C :    0.078386
   1 N :   -0.286844
   2 C :    0.211727
   3 C :    0.004436
   4 O :   -0.292266
   5 C :   -0.001590
   6 C :    0.067192
   7 H :    0.020572
   8 H :   -0.008142
   9 H :    0.016428
  10 H :    0.107149
  11 H :    0.010906
  12 H :   -0.029440
  13 H :    0.010666
  14 H :    0.010056
  15 H :    0.017816
  16 H :    0.028541
  17 H :    0.034407
Sum of atomic charges:   -0.0000000

LOEWDIN ATOMIC CHARGES
----------------------
   0 C :   -0.006091
   1 N :   -0.104995
   2 C :    0.004290
   3 C :    0.037571
   4 O :   -0.164672
   5 C :    0.040092
   6 C :   -0.068965
   7 H :    0.023506
   8 H :   -0.001917
   9 H :    0.020634
  10 H :    0.057772
  11 H :    0.026923
  12 H :    0.002174
  13 H :    0.015392
  14 H :    0.012825
  15 H :    0.033973
  16 H :    0.035897
  17 H :    0.035593

  Mayer bond orders larger than 0.1
B(  0-C ,  1-N ) :   1.0655 B(  0-C ,  7-H ) :   0.9720 B(  0-C ,  8-H ) :   0.9431
B(  0-C ,  9-H ) :   0.9682 B(  1-N ,  2-C ) :   1.0342 B(  1-N , 10-H ) :   0.9484
B(  2-C ,  3-C ) :   1.0445 B(  2-C , 11-H ) :   0.9197 B(  2-C , 12-H ) :   0.8873
B(  3-C ,  4-O ) :   0.9636 B(  3-C ,  5-C ) :   1.0335 B(  3-C , 13-H ) :   0.9286
B(  4-O ,  5-C ) :   0.9985 B(  5-C ,  6-C ) :   1.0799 B(  5-C , 14-H ) :   0.9242
B(  6-C , 15-H ) :   0.9450 B(  6-C , 16-H ) :   0.9519 B(  6-C , 17-H ) :   0.9506

FINAL SINGLE POINT ENERGY      -326.423270490463

DIPOLE MOMENT
-------------
                                X             Y             Z
Electronic contribution:      2.19717       0.48138      -2.55849
Nuclear contribution   :     -2.42608      -0.16053       2.94390
                        -----------------------------------------
Total Dipole Moment    :     -0.22891       0.32085       0.38540
                        -----------------------------------------
Magnitude (a.u.)       :      0.55125
Magnitude (Debye)      :      1.40117

                             ****ORCA TERMINATED NORMALLY****
TOTAL RUN TIME: 0 days 0 hours 0 minutes 7 seconds 370 msec
