                         Program Version 3.0.3 - RELEASE   -
|  1> ! RI PBE def2-SVP def2-SVP/J NBO PAL2
|  2> % maxcore 2000
|  3> % output
|  4>     # printlevel mini
|  5>     print[ P_Basis ] 0
|  6>     print[ P_SCFInfo ] 1
|  7>     print[ P_SCFIterInfo ] 1
|  8>     print[ P_OrbEn ] 0
|  9>     print[ P_Cartesian ] 0
| 10> end
| 11> *xyz 0 1
| 12>  C        1.0029300000    -0.1567250000     0.1069890000
| 13>  N        2.4469930000    -0.1850250000     0.0155210000
| 14>  C        2.9624360000     0.1832000000    -1.2905070000
| 15>  C        4.4532940000     0.3406030000    -1.1977560000
| 16>  O        4.8336370000     1.2672320000    -0.2300810000
| 17>  C        5.3399760000    -0.8545660000    -1.4155280000
| 18>  C        5.3045840000     0.2831190000    -2.4082540000
| 19>  H        0.6888800000    -0.4833240000     1.1001310000
| 20>  H        0.4969290000    -0.7887240000    -0.6401430000
| 21>  H        0.6492190000     0.8680290000    -0.0325130000
| 22>  H        2.7926150000    -1.1056830000     0.2601570000
| 23>  H        2.5195540000     1.1474040000    -1.5646770000
| 24>  H        2.7025050000    -0.5353890000    -2.0851260000
| 25>  H        4.2392320000     1.1037480000     0.5157150000
| 26>  H        4.8936560000    -1.7996050000    -1.7044940000
| 27>  H        6.2152170000    -0.9286630000    -0.7830610000
| 28>  H        4.8326080000     0.1170760000    -3.3693810000
| 29>  H        6.1564360000     0.9510040000    -2.4239910000
| 30> *
| 31>
| 32>                          ****END OF INPUT****
 Total Charge           Charge          ....    0
 Multiplicity           Mult            ....    1
 Number of Electrons    NEL             ....   56
 Basis Dimension        Dim             ....  153

MULLIKEN ATOMIC CHARGES
-----------------------
   0 C :    0.080843
   1 N :   -0.292272
   2 C :    0.214094
   3 C :   -0.110774
   4 O :   -0.226053
   5 C :   -0.030428
   6 C :   -0.022257
   7 H :    0.021983
   8 H :   -0.000015
   9 H :    0.022951
  10 H :    0.102607
  11 H :    0.005672
  12 H :   -0.027441
  13 H :    0.142169
  14 H :    0.018158
  15 H :    0.033057
  16 H :    0.025901
  17 H :    0.041804
Sum of atomic charges:   -0.0000000

LOEWDIN ATOMIC CHARGES
----------------------
   0 C :   -0.002926
   1 N :   -0.098851
   2 C :    0.012697
   3 C :   -0.001652
   4 O :   -0.093841
   5 C :   -0.065869
   6 C :   -0.046895
   7 H :    0.023760
   8 H :    0.002362
   9 H :    0.023610
  10 H :    0.057345
  11 H :    0.023453
  12 H :    0.003093
  13 H :    0.054385
  14 H :    0.019358
  15 H :    0.029298
  16 H :    0.025391
  17 H :    0.035281

  Mayer bond orders larger than 0.1
B(  0-C ,  1-N ) :   1.0538 B(  0-C ,  7-H ) :   0.9723 B(  0-C ,  8-H ) :   0.9491
B(  0-C ,  9-H ) :   0.9694 B(  1-N ,  2-C ) :   1.0200 B(  1-N , 10-H ) :   0.9412
B(  2-C ,  3-C ) :   1.0465 B(  2-C , 11-H ) :   0.9141 B(  2-C , 12-H ) :   0.8945
B(  3-C ,  4-O ) :   1.1421 B(  3-C ,  5-C ) :   0.9486 B(  3-C ,  6-C ) :   0.9814
B(  4-O , 13-H ) :   0.9510 B(  5-C ,  6-C ) :   1.0292 B(  5-C , 14-H ) :   0.9376
B(  5-C , 15-H ) :   0.9371 B(  6-C , 16-H ) :   0.9400 B(  6-C , 17-H ) :   0.9338

FINAL SINGLE POINT ENERGY      -326.427721151487

DIPOLE MOMENT
-------------
                                X             Y             Z
Electronic contribution:      3.81586       2.12258       0.99955
Nuclear contribution   :     -4.51068      -2.75340      -0.98908
                        -----------------------------------------
Total Dipole Moment    :     -0.69482      -0.63082       0.01047
                        -----------------------------------------
Magnitude (a.u.)       :      0.93852
Magnitude (Debye)      :      2.38553

                             ****ORCA TERMINATED NORMALLY****
TOTAL RUN TIME: 0 days 0 hours 0 minutes 7 seconds 973 msec
