                         Program Version 3.0.3 - RELEASE   -
|  1> ! RI PBE def2-SVP def2-SVP/J NBO PAL2
|  2> % maxcore 2000
|  3> % output
|  4>     # printlevel mini
|  5>     print[ P_Basis ] 0
|  6>     print[ P_SCFInfo ] 1
|  7>     print[ P_SCFIterInfo ] 1
|  8>     print[ P_OrbEn ] 0
|  9>     print[ P_Cartesian ] 0
| 10> end
| 11> *xyz 0 1
| 12>  C        0.9329110000     0.0169440000    -0.1938590000
| 13>  N        2.3533420000    -0.1625910000     0.0094600000
| 14>  C        2.9615590000     0.9193350000     0.7535600000
| 15>  C        4.4529470000     0.6925520000     0.9280380000
| 16>  C        5.1087800000     1.7836900000     1.7167020000
| 17>  C        6.4785680000     2.2154420000     1.4637890000
| 18>  O        5.3801120000     2.9991880000     1.0291840000
| 19>  H        0.5412680000    -0.7951110000    -0.8096680000
| 20>  H        0.6644870000     0.9740570000    -0.6717690000
| 21>  H        0.4184050000    -0.0237170000     0.7705030000
| 22>  H        2.8168940000    -0.2546260000    -0.8865260000
| 23>  H        2.4824200000     0.9589610000     1.7396440000
| 24>  H        2.7959270000     1.9065170000     0.2874280000
| 25>  H        4.9377160000     0.6310640000    -0.0528680000
| 26>  H        4.6121440000    -0.2679670000     1.4295970000
| 27>  H        4.7162300000     1.9367910000     2.7228320000
| 28>  H        7.0473240000     1.7333810000     0.6714960000
| 29>  H        7.0696560000     2.6467080000     2.2681460000
| 30> *
| 31>
| 32>                          ****END OF INPUT****
 Total Charge           Charge          ....    0
 Multiplicity           Mult            ....    1
 Number of Electrons    NEL             ....   56
 Basis Dimension        Dim             ....  153

MULLIKEN ATOMIC CHARGES
-----------------------
   0 C :    0.068943
   1 N :   -0.267106
   2 C :    0.068686
   3 C :    0.093154
   4 C :   -0.029810
   5 C :    0.148106
   6 O :   -0.296700
   7 H :    0.022404
   8 H :   -0.005750
   9 H :    0.017273
  10 H :    0.099562
  11 H :    0.003530
  12 H :    0.000481
  13 H :   -0.007526
  14 H :    0.019036
  15 H :    0.017254
  16 H :    0.020975
  17 H :    0.027487
Sum of atomic charges:   -0.0000000

LOEWDIN ATOMIC CHARGES
----------------------
   0 C :   -0.006461
   1 N :   -0.107538
   2 C :    0.012201
   3 C :   -0.052197
   4 C :    0.041651
   5 C :    0.054412
   6 O :   -0.162222
   7 H :    0.022539
   8 H :   -0.001785
   9 H :    0.021056
  10 H :    0.053126
  11 H :    0.018917
  12 H :    0.002197
  13 H :    0.027096
  14 H :    0.033804
  15 H :    0.015185
  16 H :    0.012818
  17 H :    0.015201

  Mayer bond orders larger than 0.1
B(  0-C ,  1-N ) :   1.0659 B(  0-C ,  7-H ) :   0.9731 B(  0-C ,  8-H ) :   0.9449
B(  0-C ,  9-H ) :   0.9682 B(  1-N ,  2-C ) :   1.0522 B(  1-N , 10-H ) :   0.9456
B(  2-C ,  3-C ) :   1.0837 B(  2-C , 11-H ) :   0.9275 B(  2-C , 12-H ) :   0.9250
B(  3-C ,  4-C ) :   1.0513 B(  3-C , 13-H ) :   0.9052 B(  3-C , 14-H ) :   0.9164
B(  4-C ,  5-C ) :   1.0943 B(  4-C ,  6-O ) :   0.9615 B(  4-C , 15-H ) :   0.9304
B(  5-C ,  6-O ) :   1.0069 B(  5-C , 16-H ) :   0.9293 B(  5-C , 17-H ) :   0.9335

FINAL SINGLE POINT ENERGY      -326.413981766338

DIPOLE MOMENT
-------------
                                X             Y             Z
Electronic contribution:      4.86471       3.27312       1.18692
Nuclear contribution   :     -4.73314      -3.65067      -1.17603
                        -----------------------------------------
Total Dipole Moment    :      0.13157      -0.37755       0.01089
                        -----------------------------------------
Magnitude (a.u.)       :      0.39997
Magnitude (Debye)      :      1.01664

                             ****ORCA TERMINATED NORMALLY****
TOTAL RUN TIME: 0 days 0 hours 0 minutes 7 seconds 389 msec
