                         Program Version 3.0.3 - RELEASE   -
|  1> ! RI PBE def2-SVP def2-SVP/J NBO PAL2
|  2> % maxcore 2000
|  3> % output
|  4>     # printlevel mini
|  5>     print[ P_Basis ] 0
|  6>     print[ P_SCFInfo ] 1
|  7>     print[ P_SCFIterInfo ] 1
|  8>     print[ P_OrbEn ] 0
|  9>     print[ P_Cartesian ] 0
| 10> end
| 11> *xyz 0 1
| 12>  C        0.6248910000     1.1013450000     0.1755630000
| 13>  N        1.9385610000     0.5242710000     0.3493750000
| 14>  C        2.5737790000     1.0421180000     1.5388430000
| 15>  C        1.9110900000    -0.9243640000     0.3708870000
| 16>  C        1.4941680000    -1.5354540000    -0.9377640000
| 17>  C        2.4661690000    -1.7706840000    -1.9968300000
| 18>  O        1.9969970000    -2.8393680000    -1.1888290000
| 19>  H        0.7037890000     2.1903810000     0.1627050000
| 20>  H       -0.0757800000     0.8199700000     0.9839750000
| 21>  H        0.1892840000     0.7916010000    -0.7756100000
| 22>  H        2.6397820000     2.1306890000     1.4775530000
| 23>  H        3.5874990000     0.6444230000     1.6238300000
| 24>  H        2.0271670000     0.7859110000     2.4651830000
| 25>  H        1.2504550000    -1.3075100000     1.1737730000
| 26>  H        2.9191900000    -1.2869360000     0.5902910000
| 27>  H        0.4517300000    -1.4146060000    -1.2270130000
| 28>  H        3.5015250000    -1.4822140000    -1.8323650000
| 29>  H        2.1427130000    -1.7959660000    -3.0342560000
| 30> *
| 31>
| 32>                          ****END OF INPUT****
 Total Charge           Charge          ....    0
 Multiplicity           Mult            ....    1
 Number of Electrons    NEL             ....   56
 Basis Dimension        Dim             ....  153

MULLIKEN ATOMIC CHARGES
-----------------------
   0 C :    0.087301
   1 N :   -0.352299
   2 C :    0.101903
   3 C :    0.204285
   4 C :   -0.035648
   5 C :    0.151395
   6 O :   -0.288505
   7 H :    0.026472
   8 H :   -0.009994
   9 H :    0.023749
  10 H :    0.023438
  11 H :    0.019218
  12 H :   -0.013107
  13 H :   -0.013648
  14 H :   -0.003890
  15 H :    0.025043
  16 H :    0.024565
  17 H :    0.029721
Sum of atomic charges:    0.0000000

LOEWDIN ATOMIC CHARGES
----------------------
   0 C :    0.000289
   1 N :   -0.115063
   2 C :    0.002524
   3 C :    0.010599
   4 C :    0.034506
   5 C :    0.058513
   6 O :   -0.153670
   7 H :    0.024915
   8 H :   -0.001445
   9 H :    0.020124
  10 H :    0.022819
  11 H :    0.022248
  12 H :   -0.002005
  13 H :    0.002889
  14 H :    0.027244
  15 H :    0.013929
  16 H :    0.015405
  17 H :    0.016180

  Mayer bond orders larger than 0.1
B(  0-C ,  1-N ) :   1.0288 B(  0-C ,  7-H ) :   0.9660 B(  0-C ,  8-H ) :   0.9343
B(  0-C ,  9-H ) :   0.9655 B(  1-N ,  2-C ) :   1.0369 B(  1-N ,  3-C ) :   1.0154
B(  2-C , 10-H ) :   0.9666 B(  2-C , 11-H ) :   0.9650 B(  2-C , 12-H ) :   0.9361
B(  3-C ,  4-C ) :   1.0369 B(  3-C , 13-H ) :   0.8956 B(  3-C , 14-H ) :   0.9121
B(  4-C ,  5-C ) :   1.1008 B(  4-C ,  6-O ) :   0.9998 B(  4-C , 15-H ) :   0.9293
B(  5-C ,  6-O ) :   0.9990 B(  5-C , 16-H ) :   0.9270 B(  5-C , 17-H ) :   0.9399

FINAL SINGLE POINT ENERGY      -326.404928485627

DIPOLE MOMENT
-------------
                                X             Y             Z
Electronic contribution:      0.90642      -5.79888      -3.76911
Nuclear contribution   :     -0.98937       6.47994       3.81422
                        -----------------------------------------
Total Dipole Moment    :     -0.08295       0.68106       0.04510
                        -----------------------------------------
Magnitude (a.u.)       :      0.68757
Magnitude (Debye)      :      1.74768

                             ****ORCA TERMINATED NORMALLY****
TOTAL RUN TIME: 0 days 0 hours 0 minutes 7 seconds 620 msec
