                         Program Version 3.0.3 - RELEASE   -
|  1> ! RI PBE def2-SVP def2-SVP/J NBO PAL2
|  2> % maxcore 2000
|  3> % output
|  4>     # printlevel mini
|  5>     print[ P_Basis ] 0
|  6>     print[ P_SCFInfo ] 1
|  7>     print[ P_SCFIterInfo ] 1
|  8>     print[ P_OrbEn ] 0
|  9>     print[ P_Cartesian ] 0
| 10> end
| 11> *xyz 0 1
| 12>  C        1.4825640000    -0.9644400000     0.9498720000
| 13>  N        2.8646560000    -0.6902600000     1.2820940000
| 14>  C        3.2658630000     0.6970320000     1.1227830000
| 15>  C        2.5495260000     1.6051800000     2.1086640000
| 16>  C        4.7538370000     0.7735700000     1.3379430000
| 17>  C        5.6973760000     0.6953640000     0.2260460000
| 18>  O        5.4036550000     1.9338000000     0.8517570000
| 19>  H        1.3193900000    -2.0436020000     0.9526660000
| 20>  H        1.1749030000    -0.5723870000    -0.0341850000
| 21>  H        0.8165680000    -0.5359670000     1.7014650000
| 22>  H        3.4665860000    -1.2688480000     0.7091860000
| 23>  H        3.0653800000     1.0720980000     0.1014300000
| 24>  H        2.6946790000     1.2436040000     3.1300290000
| 25>  H        1.4773430000     1.6516020000     1.9105050000
| 26>  H        2.9467310000     2.6190090000     2.0318870000
| 27>  H        5.0900460000     0.4458990000     2.3217450000
| 28>  H        5.3161220000     0.5905990000    -0.7879230000
| 29>  H        6.7029650000     0.3170480000     0.3920350000
| 30> *
| 31>
| 32>                          ****END OF INPUT****
 Total Charge           Charge          ....    0
 Multiplicity           Mult            ....    1
 Number of Electrons    NEL             ....   56
 Basis Dimension        Dim             ....  153

MULLIKEN ATOMIC CHARGES
-----------------------
   0 C :    0.065207
   1 N :   -0.248161
   2 C :    0.072828
   3 C :    0.012408
   4 C :   -0.017068
   5 C :    0.151863
   6 O :   -0.288174
   7 H :    0.023282
   8 H :   -0.008912
   9 H :    0.027751
  10 H :    0.097513
  11 H :   -0.033662
  12 H :    0.021421
  13 H :    0.026940
  14 H :    0.030702
  15 H :    0.013933
  16 H :    0.022405
  17 H :    0.029724
Sum of atomic charges:   -0.0000000

LOEWDIN ATOMIC CHARGES
----------------------
   0 C :   -0.006276
   1 N :   -0.100298
   2 C :   -0.004602
   3 C :   -0.062546
   4 C :    0.039214
   5 C :    0.052778
   6 O :   -0.151628
   7 H :    0.025005
   8 H :   -0.001473
   9 H :    0.021545
  10 H :    0.052952
  11 H :    0.001971
  12 H :    0.027884
  13 H :    0.026237
  14 H :    0.034324
  15 H :    0.015672
  16 H :    0.013119
  17 H :    0.016124

  Mayer bond orders larger than 0.1
B(  0-C ,  1-N ) :   1.0639 B(  0-C ,  7-H ) :   0.9713 B(  0-C ,  8-H ) :   0.9410
B(  0-C ,  9-H ) :   0.9675 B(  1-N ,  2-C ) :   1.0243 B(  1-N , 10-H ) :   0.9425
B(  2-C ,  3-C ) :   1.0687 B(  2-C ,  4-C ) :   1.0022 B(  2-C , 11-H ) :   0.8813
B(  3-C , 12-H ) :   0.9533 B(  3-C , 13-H ) :   0.9549 B(  3-C , 14-H ) :   0.9554
B(  4-C ,  5-C ) :   1.0805 B(  4-C ,  6-O ) :   0.9716 B(  4-C , 15-H ) :   0.9352
B(  5-C ,  6-O ) :   1.0104 B(  5-C , 16-H ) :   0.9264 B(  5-C , 17-H ) :   0.9367

FINAL SINGLE POINT ENERGY      -326.415368265062

DIPOLE MOMENT
-------------
                                X             Y             Z
Electronic contribution:      6.00795       2.00306      -0.46292
Nuclear contribution   :     -6.18408      -2.65699       0.11602
                        -----------------------------------------
Total Dipole Moment    :     -0.17613      -0.65393      -0.34690
                        -----------------------------------------
Magnitude (a.u.)       :      0.76091
Magnitude (Debye)      :      1.93409

                             ****ORCA TERMINATED NORMALLY****
TOTAL RUN TIME: 0 days 0 hours 0 minutes 7 seconds 613 msec
