                         Program Version 3.0.3 - RELEASE   -
|  1> ! RI PBE def2-SVP def2-SVP/J NBO PAL2
|  2> % maxcore 2000
|  3> % output
|  4>     # printlevel mini
|  5>     print[ P_Basis ] 0
|  6>     print[ P_SCFInfo ] 1
|  7>     print[ P_SCFIterInfo ] 1
|  8>     print[ P_OrbEn ] 0
|  9>     print[ P_Cartesian ] 0
| 10> end
| 11> *xyz 0 1
| 12>  C        1.0172590000     0.8968950000    -1.4906800000
| 13>  N        2.4079930000     0.7749380000    -1.8655510000
| 14>  C        3.0378860000    -0.4145880000    -1.3301760000
| 15>  C        4.5070440000    -0.5012630000    -1.7071960000
| 16>  C        4.7793190000    -0.5198520000    -3.2072070000
| 17>  C        4.2285570000    -1.7377790000    -3.9257210000
| 18>  O        4.7135450000    -2.9637860000    -3.4103270000
| 19>  H        0.6105980000     1.8378160000    -1.8668870000
| 20>  H        0.8418050000     0.8543350000    -0.4022910000
| 21>  H        0.4437830000     0.0842900000    -1.9457950000
| 22>  H        2.9186720000     1.5928030000    -1.5538370000
| 23>  H        2.4990990000    -1.2842700000    -1.7226790000
| 24>  H        2.9481910000    -0.4770260000    -0.2304680000
| 25>  H        4.9250800000    -1.4026620000    -1.2500830000
| 26>  H        5.0394900000     0.3466240000    -1.2589840000
| 27>  H        5.8629490000    -0.4701580000    -3.3752200000
| 28>  H        4.3491000000     0.3717930000    -3.6734440000
| 29>  H        4.4408460000    -1.6563950000    -5.0005010000
| 30>  H        3.1423630000    -1.7853000000    -3.8206000000
| 31>  H        5.6672410000    -2.9804040000    -3.5252750000
| 32> *
| 33>
| 34>                          ****END OF INPUT****
 Total Charge           Charge          ....    0
 Multiplicity           Mult            ....    1
 Number of Electrons    NEL             ....   58
 Basis Dimension        Dim             ....  163

MULLIKEN ATOMIC CHARGES
-----------------------
   0 C :    0.071959
   1 N :   -0.272453
   2 C :    0.071823
   3 C :    0.006870
   4 C :   -0.036939
   5 C :    0.136538
   6 O :   -0.288125
   7 H :    0.017629
   8 H :   -0.006839
   9 H :    0.017497
  10 H :    0.098332
  11 H :    0.009865
  12 H :   -0.010888
  13 H :    0.002373
  14 H :    0.002094
  15 H :   -0.003236
  16 H :    0.004790
  17 H :    0.002042
  18 H :    0.026305
  19 H :    0.150365
Sum of atomic charges:   -0.0000000

LOEWDIN ATOMIC CHARGES
----------------------
   0 C :   -0.006577
   1 N :   -0.106431
   2 C :    0.008976
   3 C :   -0.048645
   4 C :   -0.066677
   5 C :    0.051879
   6 O :   -0.125057
   7 H :    0.021397
   8 H :   -0.002492
   9 H :    0.021627
  10 H :    0.052468
  11 H :    0.018790
  12 H :   -0.000488
  13 H :    0.024179
  14 H :    0.020530
  15 H :    0.017594
  16 H :    0.026165
  17 H :    0.005568
  18 H :    0.021595
  19 H :    0.065601

  Mayer bond orders larger than 0.1
B(  0-C ,  1-N ) :   1.0691 B(  0-C ,  7-H ) :   0.9727 B(  0-C ,  8-H ) :   0.9436
B(  0-C ,  9-H ) :   0.9676 B(  1-N ,  2-C ) :   1.0363 B(  1-N , 10-H ) :   0.9429
B(  2-C ,  3-C ) :   1.0979 B(  2-C , 11-H ) :   0.9290 B(  2-C , 12-H ) :   0.9160
B(  3-C ,  4-C ) :   1.0814 B(  3-C , 13-H ) :   0.9180 B(  3-C , 14-H ) :   0.9317
B(  4-C ,  5-C ) :   1.0832 B(  4-C , 15-H ) :   0.9293 B(  4-C , 16-H ) :   0.9085
B(  5-C ,  6-O ) :   1.0493 B(  5-C , 17-H ) :   0.9386 B(  5-C , 18-H ) :   0.9390
B(  6-O , 19-H ) :   0.9857

FINAL SINGLE POINT ENERGY      -327.642485536792

DIPOLE MOMENT
-------------
                                X             Y             Z
Electronic contribution:      2.41774      -2.95329      -1.70881
Nuclear contribution   :     -2.05826       3.45988       1.82222
                        -----------------------------------------
Total Dipole Moment    :      0.35948       0.50659       0.11340
                        -----------------------------------------
Magnitude (a.u.)       :      0.63144
Magnitude (Debye)      :      1.60500

                             ****ORCA TERMINATED NORMALLY****
TOTAL RUN TIME: 0 days 0 hours 0 minutes 8 seconds 543 msec
