                         Program Version 3.0.3 - RELEASE   -
|  1> ! RI PBE def2-SVP def2-SVP/J NBO PAL2
|  2> % maxcore 2000
|  3> % output
|  4>     # printlevel mini
|  5>     print[ P_Basis ] 0
|  6>     print[ P_SCFInfo ] 1
|  7>     print[ P_SCFIterInfo ] 1
|  8>     print[ P_OrbEn ] 0
|  9>     print[ P_Cartesian ] 0
| 10> end
| 11> *xyz 0 1
| 12>  C        0.9566510000    -0.1892500000    -0.0253120000
| 13>  N        2.3884380000     0.0042050000     0.0142450000
| 14>  C        2.9462720000     0.9534680000    -0.8249310000
| 15>  C        2.2795960000     1.7233480000    -1.6847060000
| 16>  C        3.1330570000    -0.7670600000     0.8874930000
| 17>  C        4.6255950000    -0.5520290000     0.9170260000
| 18>  O        2.6062420000    -1.5881800000     1.6077540000
| 19>  H        0.6437690000    -0.4943560000    -1.0274740000
| 20>  H        0.4421660000     0.7399610000     0.2338770000
| 21>  H        0.7005280000    -0.9637390000     0.6916050000
| 22>  H        4.0201400000     1.0490890000    -0.7465620000
| 23>  H        1.2069280000     1.6799400000    -1.8139970000
| 24>  H        2.8274700000     2.4318110000    -2.2900000000
| 25>  H        5.0834600000    -0.7572540000    -0.0531400000
| 26>  H        5.0323340000    -1.2389540000     1.6547870000
| 27>  H        4.8817640000     0.4709010000     1.2016250000
| 28> *
| 29>
| 30>                          ****END OF INPUT****
 Total Charge           Charge          ....    0
 Multiplicity           Mult            ....    1
 Number of Electrons    NEL             ....   54
 Basis Dimension        Dim             ....  143

MULLIKEN ATOMIC CHARGES
-----------------------
   0 C :    0.068059
   1 N :   -0.198187
   2 C :    0.049349
   3 C :   -0.083166
   4 C :    0.020387
   5 C :   -0.005681
   6 O :   -0.201109
   7 H :    0.041806
   8 H :    0.043003
   9 H :    0.057145
  10 H :    0.012187
  11 H :    0.024017
  12 H :    0.021641
  13 H :    0.053282
  14 H :    0.044772
  15 H :    0.052496
Sum of atomic charges:   -0.0000000

LOEWDIN ATOMIC CHARGES
----------------------
   0 C :    0.018951
   1 N :    0.003750
   2 C :    0.003993
   3 C :   -0.118770
   4 C :    0.040373
   5 C :   -0.088951
   6 O :   -0.168011
   7 H :    0.028379
   8 H :    0.028686
   9 H :    0.034616
  10 H :    0.029628
  11 H :    0.023098
  12 H :    0.030341
  13 H :    0.043878
  14 H :    0.046380
  15 H :    0.043660

  Mayer bond orders larger than 0.1
B(  0-C ,  1-N ) :   0.9906 B(  0-C ,  7-H ) :   0.9628 B(  0-C ,  8-H ) :   0.9624
B(  0-C ,  9-H ) :   0.9434 B(  1-N ,  2-C ) :   1.1027 B(  1-N ,  4-C ) :   1.0932
B(  2-C ,  3-C ) :   1.8850 B(  2-C , 10-H ) :   0.9444 B(  3-C , 11-H ) :   0.9488
B(  3-C , 12-H ) :   0.9332 B(  4-C ,  5-C ) :   1.0407 B(  4-C ,  6-O ) :   2.0673
B(  5-C , 13-H ) :   0.9383 B(  5-C , 14-H ) :   0.9429 B(  5-C , 15-H ) :   0.9386

FINAL SINGLE POINT ENERGY      -325.273850320320

DIPOLE MOMENT
-------------
                                X             Y             Z
Electronic contribution:     -0.22167      -2.81546       2.71963
Nuclear contribution   :      0.50407       3.42863      -3.27172
                        -----------------------------------------
Total Dipole Moment    :      0.28240       0.61316      -0.55209
                        -----------------------------------------
Magnitude (a.u.)       :      0.87208
Magnitude (Debye)      :      2.21665

                             ****ORCA TERMINATED NORMALLY****
TOTAL RUN TIME: 0 days 0 hours 0 minutes 7 seconds 418 msec
