                         Program Version 3.0.3 - RELEASE   -
|  1> ! RI PBE def2-SVP def2-SVP/J NBO PAL2
|  2> % maxcore 2000
|  3> % output
|  4>     # printlevel mini
|  5>     print[ P_Basis ] 0
|  6>     print[ P_SCFInfo ] 1
|  7>     print[ P_SCFIterInfo ] 1
|  8>     print[ P_OrbEn ] 0
|  9>     print[ P_Cartesian ] 0
| 10> end
| 11> *xyz 0 1
| 12>  C        1.5060770000    -0.3903130000     0.1882020000
| 13>  N        2.9454250000    -0.3678340000     0.0357050000
| 14>  C        3.4267030000    -1.6441430000    -0.4554280000
| 15>  C        3.3645830000     0.7419590000    -0.8175630000
| 16>  C        4.8437990000     1.0788480000    -0.7034620000
| 17>  C        5.2507320000     1.4899130000     0.7026900000
| 18>  O        5.1157460000     0.4466130000     1.6365270000
| 19>  H        1.2173330000    -1.2040350000     0.8566120000
| 20>  H        0.9826160000    -0.5355740000    -0.7727250000
| 21>  H        1.1623570000     0.5492550000     0.6253940000
| 22>  H        3.1120300000    -2.4395130000     0.2230180000
| 23>  H        4.5159710000    -1.6522250000    -0.4950980000
| 24>  H        3.0380230000    -1.8748090000    -1.4623760000
| 25>  H        2.7866110000     1.6202820000    -0.5106910000
| 26>  H        3.0981260000     0.5413180000    -1.8714400000
| 27>  H        5.0546050000     1.9035110000    -1.3930350000
| 28>  H        5.4628890000     0.2370030000    -1.0282410000
| 29>  H        4.6565860000     2.3686880000     1.0053430000
| 30>  H        6.3005140000     1.7971070000     0.7126340000
| 31>  H        4.2478730000     0.0459610000     1.4510020000
| 32> *
| 33>
| 34>                          ****END OF INPUT****
 Total Charge           Charge          ....    0
 Multiplicity           Mult            ....    1
 Number of Electrons    NEL             ....   58
 Basis Dimension        Dim             ....  163

MULLIKEN ATOMIC CHARGES
-----------------------
   0 C :    0.103353
   1 N :   -0.382205
   2 C :    0.089926
   3 C :    0.094876
   4 C :   -0.057669
   5 C :    0.196786
   6 O :   -0.304678
   7 H :    0.026164
   8 H :   -0.005582
   9 H :    0.027311
  10 H :    0.027940
  11 H :    0.036775
  12 H :   -0.003287
  13 H :    0.004573
  14 H :   -0.008415
  15 H :    0.011648
  16 H :    0.021601
  17 H :   -0.021768
  18 H :    0.002158
  19 H :    0.140493
Sum of atomic charges:   -0.0000000

LOEWDIN ATOMIC CHARGES
----------------------
   0 C :    0.005249
   1 N :   -0.099069
   2 C :    0.002292
   3 C :    0.017318
   4 C :   -0.071420
   5 C :    0.056717
   6 O :   -0.140786
   7 H :    0.024343
   8 H :    0.003084
   9 H :    0.023914
  10 H :    0.025947
  11 H :    0.023141
  12 H :    0.004425
  13 H :    0.021726
  14 H :    0.003307
  15 H :    0.033438
  16 H :    0.024310
  17 H :   -0.002946
  18 H :    0.016067
  19 H :    0.028946

  Mayer bond orders larger than 0.1
B(  0-C ,  1-N ) :   1.0216 B(  0-C ,  7-H ) :   0.9676 B(  0-C ,  8-H ) :   0.9413
B(  0-C ,  9-H ) :   0.9673 B(  1-N ,  2-C ) :   1.0026 B(  1-N ,  3-C ) :   0.9963
B(  1-N , 19-H ) :   0.1278 B(  2-C , 10-H ) :   0.9655 B(  2-C , 11-H ) :   0.9628
B(  2-C , 12-H ) :   0.9406 B(  3-C ,  4-C ) :   1.0942 B(  3-C , 13-H ) :   0.9341
B(  3-C , 14-H ) :   0.9172 B(  4-C ,  5-C ) :   1.0772 B(  4-C , 15-H ) :   0.9121
B(  4-C , 16-H ) :   0.9225 B(  5-C ,  6-O ) :   1.0911 B(  5-C , 17-H ) :   0.9249
B(  5-C , 18-H ) :   0.9377 B(  6-O , 19-H ) :   0.9384

FINAL SINGLE POINT ENERGY      -327.644727117721

DIPOLE MOMENT
-------------
                                X             Y             Z
Electronic contribution:      2.55464       0.86216       3.00358
Nuclear contribution   :     -3.27802      -0.93559      -3.76904
                        -----------------------------------------
Total Dipole Moment    :     -0.72337      -0.07343      -0.76545
                        -----------------------------------------
Magnitude (a.u.)       :      1.05574
Magnitude (Debye)      :      2.68347

                             ****ORCA TERMINATED NORMALLY****
TOTAL RUN TIME: 0 days 0 hours 0 minutes 8 seconds 946 msec
