                         Program Version 3.0.3 - RELEASE   -
|  1> ! RI PBE def2-SVP def2-SVP/J NBO PAL2
|  2> % maxcore 2000
|  3> % output
|  4>     # printlevel mini
|  5>     print[ P_Basis ] 0
|  6>     print[ P_SCFInfo ] 1
|  7>     print[ P_SCFIterInfo ] 1
|  8>     print[ P_OrbEn ] 0
|  9>     print[ P_Cartesian ] 0
| 10> end
| 11> *xyz 0 1
| 12>  C        0.8819080000    -0.0585070000    -0.0258830000
| 13>  N        2.3150460000    -0.0155790000     0.1232940000
| 14>  C        2.9754670000    -0.7628680000     1.1706730000
| 15>  C        3.0461620000     0.7280090000    -0.7211060000
| 16>  C        2.6019160000     1.4877950000    -1.7534500000
| 17>  C        3.5578330000     2.2160490000    -2.5463360000
| 18>  O        3.2998730000     2.9290480000    -3.4923960000
| 19>  H        0.4529310000    -0.7047530000     0.7372980000
| 20>  H        0.6000220000    -0.4477610000    -1.0103210000
| 21>  H        0.4450940000     0.9407100000     0.0783290000
| 22>  H        2.2324810000    -1.3035100000     1.7539270000
| 23>  H        3.5215870000    -0.1026380000     1.8517940000
| 24>  H        3.6776300000    -1.4951420000     0.7598140000
| 25>  H        4.1178220000     0.6993620000    -0.5320550000
| 26>  H        1.5541760000     1.5753440000    -2.0141990000
| 27>  H        4.6173520000     2.0801410000    -2.2220820000
| 28> *
| 29>
| 30>                          ****END OF INPUT****
 Total Charge           Charge          ....    0
 Multiplicity           Mult            ....    1
 Number of Electrons    NEL             ....   54
 Basis Dimension        Dim             ....  143

MULLIKEN ATOMIC CHARGES
-----------------------
   0 C :    0.090446
   1 N :   -0.259668
   2 C :    0.082882
   3 C :    0.089792
   4 C :   -0.084722
   5 C :    0.094879
   6 O :   -0.206156
   7 H :    0.031863
   8 H :    0.045639
   9 H :    0.046590
  10 H :    0.033604
  11 H :    0.046729
  12 H :    0.046832
  13 H :    0.002830
  14 H :   -0.008929
  15 H :   -0.052609
Sum of atomic charges:   -0.0000000

LOEWDIN ATOMIC CHARGES
----------------------
   0 C :    0.020452
   1 N :   -0.005864
   2 C :    0.019601
   3 C :    0.030134
   4 C :   -0.156074
   5 C :    0.043794
   6 O :   -0.161286
   7 H :    0.030013
   8 H :    0.030714
   9 H :    0.030725
  10 H :    0.032302
  11 H :    0.029305
  12 H :    0.028971
  13 H :    0.026161
  14 H :    0.026933
  15 H :   -0.025882

  Mayer bond orders larger than 0.1
B(  0-C ,  1-N ) :   1.0157 B(  0-C ,  7-H ) :   0.9637 B(  0-C ,  8-H ) :   0.9585
B(  0-C ,  9-H ) :   0.9583 B(  1-N ,  2-C ) :   0.9924 B(  1-N ,  3-C ) :   1.2575
B(  2-C , 10-H ) :   0.9668 B(  2-C , 11-H ) :   0.9658 B(  2-C , 12-H ) :   0.9661
B(  3-C ,  4-C ) :   1.5247 B(  3-C , 13-H ) :   0.9474 B(  4-C ,  5-C ) :   1.1008
B(  4-C , 14-H ) :   0.9650 B(  5-C ,  6-O ) :   2.0664 B(  5-C , 15-H ) :   0.9280

FINAL SINGLE POINT ENERGY      -325.250508894761

DIPOLE MOMENT
-------------
                                X             Y             Z
Electronic contribution:      2.09108       4.95985      -6.02719
Nuclear contribution   :     -2.52973      -6.58354       8.03789
                        -----------------------------------------
Total Dipole Moment    :     -0.43865      -1.62370       2.01070
                        -----------------------------------------
Magnitude (a.u.)       :      2.62139
Magnitude (Debye)      :      6.66306

                             ****ORCA TERMINATED NORMALLY****
TOTAL RUN TIME: 0 days 0 hours 0 minutes 7 seconds 242 msec
