                         Program Version 3.0.3 - RELEASE   -
|  1> ! RI PBE def2-SVP def2-SVP/J NBO PAL2
|  2> % maxcore 2000
|  3> % output
|  4>     # printlevel mini
|  5>     print[ P_Basis ] 0
|  6>     print[ P_SCFInfo ] 1
|  7>     print[ P_SCFIterInfo ] 1
|  8>     print[ P_OrbEn ] 0
|  9>     print[ P_Cartesian ] 0
| 10> end
| 11> *xyz 0 1
| 12>  C        1.2360760000     0.3931800000     0.1139350000
| 13>  N        2.4922700000    -0.0189520000     0.6975940000
| 14>  C        2.6098530000     0.4394060000     2.0644190000
| 15>  C        2.6914730000    -1.4455470000     0.6040030000
| 16>  C        4.1338870000    -1.8820690000     0.8106180000
| 17>  C        5.2036800000    -1.0291910000     0.1905130000
| 18>  O        4.3832370000    -2.9017070000     1.4041760000
| 19>  H        1.1487060000     1.4810300000     0.1609730000
| 20>  H        0.3597680000    -0.0399440000     0.6281950000
| 21>  H        1.1963450000     0.0951320000    -0.9360490000
| 22>  H        2.5389050000     1.5286520000     2.0970980000
| 23>  H        3.5779000000     0.1513860000     2.4816370000
| 24>  H        1.8255170000     0.0218420000     2.7202680000
| 25>  H        2.4255140000    -1.7681970000    -0.4106990000
| 26>  H        2.0652070000    -2.0257950000     1.3023430000
| 27>  H        5.0208590000    -0.9276400000    -0.8831560000
| 28>  H        6.1787500000    -1.4802240000     0.3647820000
| 29>  H        5.1699530000    -0.0168520000     0.5978500000
| 30> *
| 31>
| 32>                          ****END OF INPUT****
 Total Charge           Charge          ....    0
 Multiplicity           Mult            ....    1
 Number of Electrons    NEL             ....   56
 Basis Dimension        Dim             ....  153

MULLIKEN ATOMIC CHARGES
-----------------------
   0 C :    0.097424
   1 N :   -0.351078
   2 C :    0.084528
   3 C :    0.158625
   4 C :   -0.107303
   5 C :    0.041820
   6 O :   -0.155271
   7 H :    0.024622
   8 H :   -0.008490
   9 H :    0.022229
  10 H :    0.029527
  11 H :    0.031694
  12 H :   -0.002340
  13 H :    0.027296
  14 H :   -0.005686
  15 H :    0.039625
  16 H :    0.032079
  17 H :    0.040699
Sum of atomic charges:   -0.0000000

LOEWDIN ATOMIC CHARGES
----------------------
   0 C :    0.003501
   1 N :   -0.114099
   2 C :    0.002711
   3 C :   -0.008837
   4 C :    0.046082
   5 C :   -0.087418
   6 O :   -0.117482
   7 H :    0.023563
   8 H :    0.000494
   9 H :    0.022570
  10 H :    0.024591
  11 H :    0.022740
  12 H :    0.003101
  13 H :    0.040215
  14 H :    0.009013
  15 H :    0.047901
  16 H :    0.034969
  17 H :    0.046384

  Mayer bond orders larger than 0.1
B(  0-C ,  1-N ) :   1.0351 B(  0-C ,  7-H ) :   0.9669 B(  0-C ,  8-H ) :   0.9397
B(  0-C ,  9-H ) :   0.9666 B(  1-N ,  2-C ) :   1.0257 B(  1-N ,  3-C ) :   1.0397
B(  2-C , 10-H ) :   0.9683 B(  2-C , 11-H ) :   0.9627 B(  2-C , 12-H ) :   0.9377
B(  3-C ,  4-C ) :   0.9519 B(  3-C , 13-H ) :   0.9103 B(  3-C , 14-H ) :   0.8968
B(  4-C ,  5-C ) :   1.0209 B(  4-C ,  6-O ) :   2.1955 B(  5-C , 15-H ) :   0.9374
B(  5-C , 16-H ) :   0.9463 B(  5-C , 17-H ) :   0.9287

FINAL SINGLE POINT ENERGY      -326.450633052953

DIPOLE MOMENT
-------------
                                X             Y             Z
Electronic contribution:      3.41244      -5.68964       0.71407
Nuclear contribution   :     -3.83849       6.56803      -1.13248
                        -----------------------------------------
Total Dipole Moment    :     -0.42606       0.87839      -0.41842
                        -----------------------------------------
Magnitude (a.u.)       :      1.06215
Magnitude (Debye)      :      2.69977

                             ****ORCA TERMINATED NORMALLY****
TOTAL RUN TIME: 0 days 0 hours 0 minutes 8 seconds 423 msec
