                         Program Version 3.0.3 - RELEASE   -
|  1> ! RI PBE def2-SVP def2-SVP/J NBO PAL2
|  2> % maxcore 2000
|  3> % output
|  4>     # printlevel mini
|  5>     print[ P_Basis ] 0
|  6>     print[ P_SCFInfo ] 1
|  7>     print[ P_SCFIterInfo ] 1
|  8>     print[ P_OrbEn ] 0
|  9>     print[ P_Cartesian ] 0
| 10> end
| 11> *xyz 0 1
| 12>  C        0.6652440000     0.9210310000    -0.4690980000
| 13>  N        1.8875080000     0.3239450000     0.0164810000
| 14>  C        2.6271440000     1.2623160000     0.8291070000
| 15>  C        1.6596780000    -0.9143190000     0.7337670000
| 16>  C        1.1645420000    -2.0306210000    -0.1629020000
| 17>  C        1.1938360000    -3.3843300000     0.4765050000
| 18>  O        1.5809890000    -3.6144860000     1.5896710000
| 19>  H        0.8970320000     1.8427650000    -1.0067770000
| 20>  H       -0.0411120000     1.1700200000     0.3449020000
| 21>  H        0.1568170000     0.2532640000    -1.1666630000
| 22>  H        2.8475500000     2.1606220000     0.2479280000
| 23>  H        3.5747110000     0.8183570000     1.1415530000
| 24>  H        2.0783810000     1.5716200000     1.7374190000
| 25>  H        0.9569410000    -0.7785870000     1.5767000000
| 26>  H        2.6066280000    -1.2287850000     1.1790510000
| 27>  H        1.7732350000    -2.0845050000    -1.0757150000
| 28>  H        0.1373500000    -1.8708010000    -0.5136750000
| 29>  H        0.8219450000    -4.2096060000    -0.1701440000
| 30> *
| 31>
| 32>                          ****END OF INPUT****
 Total Charge           Charge          ....    0
 Multiplicity           Mult            ....    1
 Number of Electrons    NEL             ....   56
 Basis Dimension        Dim             ....  153

MULLIKEN ATOMIC CHARGES
-----------------------
   0 C :    0.098009
   1 N :   -0.343012
   2 C :    0.102844
   3 C :    0.099373
   4 C :   -0.013559
   5 C :    0.077378
   6 O :   -0.161896
   7 H :    0.021605
   8 H :   -0.012705
   9 H :    0.019928
  10 H :    0.017513
  11 H :    0.021738
  12 H :   -0.012677
  13 H :   -0.005313
  14 H :    0.016069
  15 H :    0.043484
  16 H :    0.037282
  17 H :   -0.006059
Sum of atomic charges:   -0.0000000

LOEWDIN ATOMIC CHARGES
----------------------
   0 C :    0.001485
   1 N :   -0.114451
   2 C :    0.003945
   3 C :    0.019379
   4 C :   -0.090233
   5 C :    0.093182
   6 O :   -0.109631
   7 H :    0.023842
   8 H :   -0.001631
   9 H :    0.018088
  10 H :    0.021449
  11 H :    0.022940
  12 H :   -0.001403
  13 H :    0.003825
  14 H :    0.026269
  15 H :    0.050648
  16 H :    0.043346
  17 H :   -0.011049

  Mayer bond orders larger than 0.1
B(  0-C ,  1-N ) :   1.0301 B(  0-C ,  7-H ) :   0.9657 B(  0-C ,  8-H ) :   0.9337
B(  0-C ,  9-H ) :   0.9646 B(  1-N ,  2-C ) :   1.0407 B(  1-N ,  3-C ) :   1.0316
B(  2-C , 10-H ) :   0.9664 B(  2-C , 11-H ) :   0.9659 B(  2-C , 12-H ) :   0.9369
B(  3-C ,  4-C ) :   1.0753 B(  3-C , 13-H ) :   0.9144 B(  3-C , 14-H ) :   0.9326
B(  4-C ,  5-C ) :   0.9776 B(  4-C , 15-H ) :   0.8943 B(  4-C , 16-H ) :   0.8962
B(  5-C ,  6-O ) :   2.1791 B(  5-C , 17-H ) :   0.9299

FINAL SINGLE POINT ENERGY      -326.440996975681

DIPOLE MOMENT
-------------
                                X             Y             Z
Electronic contribution:      0.72117      -8.04527       1.74493
Nuclear contribution   :     -1.02793       8.51945      -2.41176
                        -----------------------------------------
Total Dipole Moment    :     -0.30676       0.47418      -0.66683
                        -----------------------------------------
Magnitude (a.u.)       :      0.87385
Magnitude (Debye)      :      2.22115

                             ****ORCA TERMINATED NORMALLY****
TOTAL RUN TIME: 0 days 0 hours 0 minutes 8 seconds 377 msec
