                         Program Version 3.0.3 - RELEASE   -
|  1> ! RI PBE def2-SVP def2-SVP/J NBO PAL2
|  2> % maxcore 2000
|  3> % output
|  4>     # printlevel mini
|  5>     print[ P_Basis ] 0
|  6>     print[ P_SCFInfo ] 1
|  7>     print[ P_SCFIterInfo ] 1
|  8>     print[ P_OrbEn ] 0
|  9>     print[ P_Cartesian ] 0
| 10> end
| 11> *xyz 0 1
| 12>  C        0.6576970000     0.8863460000     0.2549620000
| 13>  N        2.0994420000     0.8842780000     0.2279980000
| 14>  C        2.7788470000    -0.3501160000    -0.0912430000
| 15>  C        2.5996390000    -1.4077950000     0.9540540000
| 16>  C        2.1089160000    -2.6147120000     0.7165160000
| 17>  C        2.7882480000     2.0261910000     0.4644060000
| 18>  O        2.3041940000     3.1032820000     0.7271690000
| 19>  H        0.2531360000     0.6345070000    -0.7310140000
| 20>  H        0.3273970000     1.8850080000     0.5344420000
| 21>  H        0.2812910000     0.1587120000     0.9782440000
| 22>  H        3.8438510000    -0.1170600000    -0.1988310000
| 23>  H        2.4312720000    -0.7272910000    -1.0609970000
| 24>  H        2.9070200000    -1.1331940000     1.9611770000
| 25>  H        1.7879550000    -2.9081290000    -0.2786600000
| 26>  H        2.0152280000    -3.3558010000     1.5015070000
| 27>  H        3.8815890000     1.8695850000     0.3900590000
| 28> *
| 29>
| 30>                          ****END OF INPUT****
 Total Charge           Charge          ....    0
 Multiplicity           Mult            ....    1
 Number of Electrons    NEL             ....   54
 Basis Dimension        Dim             ....  143

MULLIKEN ATOMIC CHARGES
-----------------------
   0 C :    0.090221
   1 N :   -0.262521
   2 C :    0.179726
   3 C :   -0.096018
   4 C :   -0.029066
   5 C :    0.140837
   6 O :   -0.228010
   7 H :    0.025505
   8 H :    0.050723
   9 H :    0.038794
  10 H :    0.031307
  11 H :    0.006128
  12 H :    0.012944
  13 H :    0.023857
  14 H :    0.037629
  15 H :   -0.022057
Sum of atomic charges:   -0.0000000

LOEWDIN ATOMIC CHARGES
----------------------
   0 C :    0.017166
   1 N :   -0.026956
   2 C :    0.031467
   3 C :   -0.041937
   4 C :   -0.050970
   5 C :    0.042227
   6 O :   -0.182220
   7 H :    0.023802
   8 H :    0.034385
   9 H :    0.025880
  10 H :    0.035332
  11 H :    0.023618
  12 H :    0.029403
  13 H :    0.024217
  14 H :    0.029965
  15 H :   -0.015379

  Mayer bond orders larger than 0.1
B(  0-C ,  1-N ) :   0.9844 B(  0-C ,  7-H ) :   0.9633 B(  0-C ,  8-H ) :   0.9515
B(  0-C ,  9-H ) :   0.9639 B(  1-N ,  2-C ) :   0.9983 B(  1-N ,  5-C ) :   1.1799
B(  1-N ,  6-O ) :   0.1059 B(  2-C ,  3-C ) :   1.0608 B(  2-C , 10-H ) :   0.9079
B(  2-C , 11-H ) :   0.9254 B(  3-C ,  4-C ) :   1.9930 B(  3-C , 12-H ) :   0.9536
B(  4-C , 13-H ) :   0.9495 B(  4-C , 14-H ) :   0.9447 B(  5-C ,  6-O ) :   2.0195
B(  5-C , 15-H ) :   0.9180

FINAL SINGLE POINT ENERGY      -325.258320619402

DIPOLE MOMENT
-------------
                                X             Y             Z
Electronic contribution:      1.72489       5.51220       0.67857
Nuclear contribution   :     -1.71768      -6.89589      -0.97315
                        -----------------------------------------
Total Dipole Moment    :      0.00720      -1.38369      -0.29459
                        -----------------------------------------
Magnitude (a.u.)       :      1.41472
Magnitude (Debye)      :      3.59593

                             ****ORCA TERMINATED NORMALLY****
TOTAL RUN TIME: 0 days 0 hours 0 minutes 7 seconds 299 msec
