                         Program Version 3.0.3 - RELEASE   -
|  1> ! RI PBE def2-SVP def2-SVP/J NBO PAL2
|  2> % maxcore 2000
|  3> % output
|  4>     # printlevel mini
|  5>     print[ P_Basis ] 0
|  6>     print[ P_SCFInfo ] 1
|  7>     print[ P_SCFIterInfo ] 1
|  8>     print[ P_OrbEn ] 0
|  9>     print[ P_Cartesian ] 0
| 10> end
| 11> *xyz 0 1
| 12>  C        1.1691930000    -0.2673500000    -0.3113490000
| 13>  N        2.5409190000     0.1314820000    -0.1179770000
| 14>  C        3.4197590000    -0.7578060000     0.6007690000
| 15>  C        3.6602040000    -2.0246900000    -0.0856970000
| 16>  C        3.8502270000    -3.0671980000    -0.6475630000
| 17>  C        3.0074910000     1.2886100000    -0.6493350000
| 18>  O        2.3543430000     2.0847960000    -1.2809420000
| 19>  H        0.6669090000    -0.3971770000     0.6523530000
| 20>  H        1.1148260000    -1.2087870000    -0.8646930000
| 21>  H        0.6693750000     0.5167010000    -0.8768210000
| 22>  H        3.0054610000    -0.9651970000     1.5954430000
| 23>  H        4.3732130000    -0.2444320000     0.7580410000
| 24>  H        4.0235440000    -3.9900950000    -1.1494030000
| 25>  H        4.0820350000     1.4393540000    -0.4312070000
| 26> *
| 27>
| 28>                          ****END OF INPUT****
 Total Charge           Charge          ....    0
 Multiplicity           Mult            ....    1
 Number of Electrons    NEL             ....   52
 Basis Dimension        Dim             ....  133

MULLIKEN ATOMIC CHARGES
-----------------------
   0 C :    0.085354
   1 N :   -0.258168
   2 C :    0.197059
   3 C :    0.299833
   4 C :   -0.460226
   5 C :    0.153564
   6 O :   -0.223567
   7 H :    0.028320
   8 H :    0.043606
   9 H :    0.055015
  10 H :    0.044851
  11 H :    0.044818
  12 H :    0.008610
  13 H :   -0.019070
Sum of atomic charges:   -0.0000000

LOEWDIN ATOMIC CHARGES
----------------------
   0 C :    0.017684
   1 N :   -0.024491
   2 C :    0.026248
   3 C :   -0.039956
   4 C :   -0.062675
   5 C :    0.049169
   6 O :   -0.175705
   7 H :    0.025564
   8 H :    0.029092
   9 H :    0.035904
  10 H :    0.044909
  11 H :    0.048599
  12 H :    0.038904
  13 H :   -0.013246

  Mayer bond orders larger than 0.1
B(  0-C ,  1-N ) :   0.9837 B(  0-C ,  7-H ) :   0.9618 B(  0-C ,  8-H ) :   0.9633
B(  0-C ,  9-H ) :   0.9509 B(  1-N ,  2-C ) :   1.0342 B(  1-N ,  5-C ) :   1.1710
B(  1-N ,  6-O ) :   0.1048 B(  2-C ,  3-C ) :   1.0316 B(  2-C , 10-H ) :   0.9058
B(  2-C , 11-H ) :   0.8937 B(  3-C ,  4-C ) :   2.3792 B(  3-C , 12-H ) :  -0.1063
B(  4-C , 12-H ) :   1.0970 B(  5-C ,  6-O ) :   2.0237 B(  5-C , 13-H ) :   0.9173

FINAL SINGLE POINT ENERGY      -324.011468062348

DIPOLE MOMENT
-------------
                                X             Y             Z
Electronic contribution:      1.83798       1.57407      -1.34956
Nuclear contribution   :     -1.62792      -2.64026       2.09813
                        -----------------------------------------
Total Dipole Moment    :      0.21006      -1.06619       0.74857
                        -----------------------------------------
Magnitude (a.u.)       :      1.31956
Magnitude (Debye)      :      3.35405

                             ****ORCA TERMINATED NORMALLY****
TOTAL RUN TIME: 0 days 0 hours 0 minutes 6 seconds 395 msec
