                         Program Version 3.0.3 - RELEASE   -
|  1> ! RI PBE def2-SVP def2-SVP/J NBO PAL2
|  2> % maxcore 2000
|  3> % output
|  4>     # printlevel mini
|  5>     print[ P_Basis ] 0
|  6>     print[ P_SCFInfo ] 1
|  7>     print[ P_SCFIterInfo ] 1
|  8>     print[ P_OrbEn ] 0
|  9>     print[ P_Cartesian ] 0
| 10> end
| 11> *xyz 0 1
| 12>  C        1.0302380000     0.1428210000    -0.0280470000
| 13>  N        2.4703050000     0.1449360000    -0.0375290000
| 14>  C        3.2131080000     0.3472580000     1.0651310000
| 15>  C        4.5650840000     0.3693800000     1.1677930000
| 16>  C        5.5249060000     0.1672150000     0.0422960000
| 17>  C        5.0987340000     0.6106990000     2.4875740000
| 18>  O        6.2791330000     0.6640950000     2.7647230000
| 19>  H        0.6665590000    -0.0414120000    -1.0382090000
| 20>  H        0.6262250000     1.1048060000     0.3029590000
| 21>  H        0.6308420000    -0.6436220000     0.6201850000
| 22>  H        2.9410950000    -0.0124220000    -0.9099750000
| 23>  H        2.6317860000     0.5103810000     1.9707260000
| 24>  H        5.0326730000    -0.0090330000    -0.9167120000
| 25>  H        6.1811070000    -0.6833430000     0.2443760000
| 26>  H        6.1759270000     1.0381920000    -0.0693460000
| 27>  H        4.3278880000     0.7527380000     3.2799650000
| 28> *
| 29>
| 30>                          ****END OF INPUT****
 Total Charge           Charge          ....    0
 Multiplicity           Mult            ....    1
 Number of Electrons    NEL             ....   54
 Basis Dimension        Dim             ....  143

MULLIKEN ATOMIC CHARGES
-----------------------
   0 C :    0.077252
   1 N :   -0.132108
   2 C :    0.026396
   3 C :   -0.163830
   4 C :    0.075220
   5 C :    0.091535
   6 O :   -0.204106
   7 H :    0.031556
   8 H :    0.040566
   9 H :    0.042982
  10 H :    0.115303
  11 H :   -0.008973
  12 H :   -0.020465
  13 H :    0.041206
  14 H :    0.041452
  15 H :   -0.053984
Sum of atomic charges:   -0.0000000

LOEWDIN ATOMIC CHARGES
----------------------
   0 C :    0.012404
   1 N :    0.019105
   2 C :    0.027180
   3 C :   -0.150350
   4 C :   -0.053942
   5 C :    0.044482
   6 O :   -0.164496
   7 H :    0.033827
   8 H :    0.026995
   9 H :    0.027450
  10 H :    0.073979
  11 H :    0.025655
  12 H :    0.015978
  13 H :    0.042905
  14 H :    0.042724
  15 H :   -0.023896

  Mayer bond orders larger than 0.1
B(  0-C ,  1-N ) :   1.0178 B(  0-C ,  7-H ) :   0.9726 B(  0-C ,  8-H ) :   0.9657
B(  0-C ,  9-H ) :   0.9660 B(  1-N ,  2-C ) :   1.2934 B(  1-N , 10-H ) :   0.9362
B(  2-C ,  3-C ) :   1.5604 B(  2-C , 11-H ) :   0.9320 B(  3-C ,  4-C ) :   1.0960
B(  3-C ,  5-C ) :   1.0916 B(  4-C , 12-H ) :   0.9448 B(  4-C , 13-H ) :   0.9392
B(  4-C , 14-H ) :   0.9396 B(  5-C ,  6-O ) :   2.0859 B(  5-C , 15-H ) :   0.9272

FINAL SINGLE POINT ENERGY      -325.262436374034

DIPOLE MOMENT
-------------
                                X             Y             Z
Electronic contribution:      4.49908       0.77187       4.18172
Nuclear contribution   :     -6.45855      -1.03085      -5.57768
                        -----------------------------------------
Total Dipole Moment    :     -1.95947      -0.25898      -1.39596
                        -----------------------------------------
Magnitude (a.u.)       :      2.41977
Magnitude (Debye)      :      6.15057

                             ****ORCA TERMINATED NORMALLY****
TOTAL RUN TIME: 0 days 0 hours 0 minutes 7 seconds 234 msec
