                         Program Version 3.0.3 - RELEASE   -
|  1> ! RI PBE def2-SVP def2-SVP/J NBO PAL2
|  2> % maxcore 2000
|  3> % output
|  4>     # printlevel mini
|  5>     print[ P_Basis ] 0
|  6>     print[ P_SCFInfo ] 1
|  7>     print[ P_SCFIterInfo ] 1
|  8>     print[ P_OrbEn ] 0
|  9>     print[ P_Cartesian ] 0
| 10> end
| 11> *xyz 0 1
| 12>  C        1.0031500000     0.5410400000    -0.6459360000
| 13>  N        2.3704280000     0.5788480000    -0.1973880000
| 14>  C        2.8039610000    -0.0423270000     0.9167410000
| 15>  C        4.0682750000    -0.0467070000     1.3922540000
| 16>  C        4.4813720000    -0.7347240000     2.6013060000
| 17>  C        3.4538450000    -1.5068080000     3.4052080000
| 18>  O        5.6405930000    -0.6988500000     2.9760610000
| 19>  H        0.9134370000     1.1181810000    -1.5654540000
| 20>  H        0.3214170000     0.9789310000     0.0904020000
| 21>  H        0.6736910000    -0.4808380000    -0.8602150000
| 22>  H        3.0384070000     1.0950770000    -0.7418640000
| 23>  H        2.0233940000    -0.5785800000     1.4503190000
| 24>  H        4.8582390000     0.4848110000     0.8694390000
| 25>  H        3.0008500000    -2.3040260000     2.8099450000
| 26>  H        2.6502780000    -0.8533890000     3.7550990000
| 27>  H        3.9538640000    -1.9467400000     4.2658830000
| 28> *
| 29>
| 30>                          ****END OF INPUT****
 Total Charge           Charge          ....    0
 Multiplicity           Mult            ....    1
 Number of Electrons    NEL             ....   54
 Basis Dimension        Dim             ....  143

MULLIKEN ATOMIC CHARGES
-----------------------
   0 C :    0.073300
   1 N :   -0.142392
   2 C :    0.058882
   3 C :   -0.037863
   4 C :   -0.056372
   5 C :    0.026909
   6 O :   -0.203655
   7 H :    0.032908
   8 H :    0.041555
   9 H :    0.039535
  10 H :    0.119541
  11 H :   -0.002759
  12 H :   -0.030867
  13 H :    0.027482
  14 H :    0.030353
  15 H :    0.023442
Sum of atomic charges:   -0.0000000

LOEWDIN ATOMIC CHARGES
----------------------
   0 C :    0.010019
   1 N :    0.016376
   2 C :    0.027644
   3 C :   -0.145119
   4 C :    0.027386
   5 C :   -0.095426
   6 O :   -0.165737
   7 H :    0.034605
   8 H :    0.026664
   9 H :    0.026236
  10 H :    0.079494
  11 H :    0.027258
  12 H :    0.025218
  13 H :    0.034471
  14 H :    0.035082
  15 H :    0.035828

  Mayer bond orders larger than 0.1
B(  0-C ,  1-N ) :   1.0256 B(  0-C ,  7-H ) :   0.9720 B(  0-C ,  8-H ) :   0.9646
B(  0-C ,  9-H ) :   0.9644 B(  1-N ,  2-C ) :   1.2740 B(  1-N , 10-H ) :   0.9430
B(  2-C ,  3-C ) :   1.5546 B(  2-C , 11-H ) :   0.9347 B(  3-C ,  4-C ) :   1.0939
B(  3-C , 12-H ) :   0.9667 B(  4-C ,  5-C ) :   1.0454 B(  4-C ,  6-O ) :   2.0712
B(  5-C , 13-H ) :   0.9355 B(  5-C , 14-H ) :   0.9363 B(  5-C , 15-H ) :   0.9420

FINAL SINGLE POINT ENERGY      -325.262792747285

DIPOLE MOMENT
-------------
                                X             Y             Z
Electronic contribution:      6.51117       0.49908       1.64926
Nuclear contribution   :     -8.39300      -0.02849      -3.06749
                        -----------------------------------------
Total Dipole Moment    :     -1.88183       0.47059      -1.41823
                        -----------------------------------------
Magnitude (a.u.)       :      2.40294
Magnitude (Debye)      :      6.10778

                             ****ORCA TERMINATED NORMALLY****
TOTAL RUN TIME: 0 days 0 hours 0 minutes 7 seconds 596 msec
